UNITED ATOM STRUCTURE FOR MOLECULE UNK
12611
    0X2IT   H18    1   3.092   2.352   2.583
    0X2IT    N4    2   3.026   2.419   2.548
    0X2IT   H17    3   3.059   2.484   2.478
    0X2IT   C14    4   2.895   2.380   2.546
    0X2IT    O5    5   2.849   2.285   2.607
    0X2IT    O4    6   2.822   2.466   2.469
    0X2IT   C13    7   2.680   2.441   2.463
    0X2IT   C10    8   2.607   2.502   2.584
    0X2IT    C9    9   2.457   2.484   2.578
    0X2IT    C4   10   2.394   2.607   2.582
    0X2IT    C5   11   2.245   2.625   2.577
    0X2IT    O1   12   2.197   2.739   2.585
    0X2IT    C6   13   2.166   2.505   2.564
    0X2IT   C12   14   2.015   2.516   2.558
    0X2IT    C7   15   2.229   2.382   2.561
    0X2IT    C8   16   2.381   2.365   2.567
    0X2IT    O2   17   2.427   2.250   2.559
    0X2IT    N3   18   2.164   2.265   2.551
    0X2IT   H15   19   2.064   2.258   2.544
    0X2IT   H16   20   2.221   2.180   2.548
    0X2IT    N2   21   2.482   2.709   2.599
    0X2IT    C3   22   2.473   2.846   2.546
    0X2IT    C2   23   2.599   2.856   2.461
    0X2IT    H2   24   2.639   2.954   2.435
    0X2IT    N1   25   2.611   2.744   2.365
    0X2IT   H14   26   2.674   2.771   2.289
    0X2IT    C1   27   2.688   2.741   2.491
    0X2IT    H1   28   2.796   2.748   2.490
    0X2IT   C11   29   2.622   2.658   2.600
    0X2IT    O3   30   2.691   2.695   2.718
    0X2IT   C15   31   2.628   2.664   2.843
    1X2IT   H18   32   5.110   3.333   0.396
    1X2IT    N4   33   5.039   3.362   0.461
    1X2IT   H17   34   4.969   3.427   0.428
    1X2IT   C14   35   5.005   3.270   0.557
    1X2IT    O5   36   5.070   3.171   0.586
    1X2IT    O4   37   4.889   3.308   0.618
    1X2IT   C13   38   4.843   3.224   0.726
    1X2IT   C10   39   4.914   3.260   0.859
    1X2IT    C9   40   4.864   3.179   0.976
    1X2IT    C4   41   4.816   3.263   1.075
    1X2IT    C5   42   4.758   3.215   1.205
    1X2IT    O1   43   4.720   3.297   1.289
    1X2IT    C6   44   4.752   3.072   1.223
    1X2IT   C12   45   4.694   3.016   1.352
    1X2IT    C7   46   4.801   2.988   1.125
    1X2IT    C8   47   4.860   3.039   0.993
    1X2IT    O2   48   4.898   2.954   0.910
    1X2IT    N3   49   4.801   2.854   1.134
    1X2IT   H15   50   4.764   2.804   1.213
    1X2IT   H16   51   4.839   2.802   1.054
    1X2IT    N2   52   4.834   3.394   1.044
    1X2IT    C3   53   4.747   3.508   1.079
    1X2IT    C2   54   4.708   3.562   0.942
    1X2IT    H2   55   4.672   3.665   0.933
    1X2IT    N1   56   4.654   3.457   0.853
    1X2IT   H14   57   4.598   3.501   0.779
    1X2IT    C1   58   4.794   3.500   0.838
    1X2IT    H1   59   4.827   3.553   0.749
    1X2IT   C11   60   4.893   3.408   0.908
    1X2IT    O3   61   5.014   3.483   0.911
    1X2IT   C15   62   5.115   3.441   1.003
    2X2IT   H18   63   1.475   1.282   1.739
    2X2IT    N4   64   1.437   1.355   1.796
    2X2IT   H17   65   1.365   1.413   1.756
    2X2IT   C14   66   1.435   1.332   1.931
    2X2IT    O5   67   1.499   1.245   1.988
    2X2IT    O4   68   1.355   1.424   1.993
    2X2IT   C13   69   1.349   1.416   2.137
    2X2IT   C10   70   1.467   1.489   2.203
    2X2IT    C9   71   1.461   1.488   2.354
    2X2IT    C4   72   1.461   1.618   2.402
    2X2IT    C5   73   1.454   1.654   2.547
    2X2IT    O1   74   1.458   1.773   2.581
    2X2IT    C6   75   1.444   1.543   2.640
    2X2IT   C12   76   1.437   1.572   2.789
    2X2IT    C7   77   1.446   1.414   2.592
    2X2IT    C8   78   1.453   1.379   2.443
    2X2IT    O2   79   1.449   1.259   2.411
    2X2IT    N3   80   1.439   1.305   2.671
    2X2IT   H15   81   1.431   1.310   2.771
    2X2IT   H16   82   1.439   1.214   2.624
    2X2IT    N2   83   1.475   1.709   2.302
    2X2IT    C3   84   1.418   1.845   2.295
    2X2IT    C2   85   1.334   1.837   2.168
    2X2IT    H2   86   1.305   1.929   2.116
    2X2IT    N1   87   1.241   1.721   2.169
    2X2IT   H14   88   1.165   1.738   2.103
    2X2IT    C1   89   1.368   1.713   2.093
    2X2IT    H1   90   1.367   1.707   1.985
    2X2IT   C11   91   1.479   1.642   2.169
    2X2IT    O3   92   1.596   1.674   2.097
    2X2IT   C15   93   1.721   1.655   2.163
    3X2IT   H18   94   1.133   2.991   1.470
    3X2IT    N4   95   1.188   2.939   1.536
    3X2IT   H17   96   1.288   2.954   1.534
    3X2IT   C14   97   1.128   2.906   1.654
    3X2IT    O5   98   1.007   2.911   1.675
    3X2IT    O4   99   1.221   2.864   1.744
    3X2IT   C13  100   1.170   2.821   1.872
    3X2IT   C10  101   1.123   2.674   1.867
    3X2IT    C9  102   1.076   2.622   2.001
    3X2IT    C4  103   1.149   2.511   2.038
    3X2IT    C5  104   1.128   2.436   2.166
    3X2IT    O1  105   1.197   2.335   2.189
    3X2IT    C6  106   1.027   2.486   2.255
    3X2IT   C12  107   1.001   2.415   2.386
    3X2IT    C7  108   0.953   2.597   2.217
    3X2IT    C8  109   0.974   2.672   2.086
    3X2IT    O2  110   0.905   2.773   2.065
    3X2IT    N3  111   0.855   2.650   2.292
    3X2IT   H15  112   0.829   2.614   2.383
    3X2IT   H16  113   0.808   2.733   2.256
    3X2IT    N2  114   1.237   2.474   1.941
    3X2IT    C3  115   1.370   2.413   1.958
    3X2IT    C2  116   1.461   2.514   1.891
    3X2IT    H2  117   1.561   2.484   1.858
    3X2IT    N1  118   1.440   2.652   1.943
    3X2IT   H14  119   1.522   2.709   1.924
    3X2IT    C1  120   1.379   2.611   1.814
    3X2IT    H1  121   1.412   2.656   1.721
    3X2IT   C11  122   1.234   2.569   1.827
    3X2IT    O3  123   1.206   2.504   1.704
    3X2IT   C15  124   1.090   2.420   1.699
    4X2IT   H18  125   5.346  -0.016   5.053
    4X2IT    N4  126   5.258   0.024   5.080
    4X2IT   H17  127   5.208  -0.021   5.155
    4X2IT   C14  128   5.245   0.159   5.062
    4X2IT    O5  129   5.317   0.229   4.993
    4X2IT    O4  130   5.135   0.204   5.130
    4X2IT   C13  131   5.104   0.344   5.116
    4X2IT   C10  132   5.024   0.371   4.987
    4X2IT    C9  133   4.983   0.516   4.972
    4X2IT    C4  134   4.846   0.526   4.962
    4X2IT    C5  135   4.773   0.657   4.947
    4X2IT    O1  136   4.649   0.656   4.935
    4X2IT    C6  137   4.853   0.776   4.945
    4X2IT   C12  138   4.786   0.911   4.930
    4X2IT    C7  139   4.991   0.766   4.954
    4X2IT    C8  140   5.064   0.632   4.969
    4X2IT    O2  141   5.188   0.635   4.980
    4X2IT    N3  142   5.074   0.871   4.952
    4X2IT   H15  143   5.043   0.966   4.945
    4X2IT   H16  144   5.174   0.851   4.961
    4X2IT    N2  145   4.785   0.405   4.960
    4X2IT    C3  146   4.654   0.368   5.015
    4X2IT    C2  147   4.690   0.261   5.117
    4X2IT    H2  148   4.613   0.191   5.151
    4X2IT    N1  149   4.795   0.306   5.211
    4X2IT   H14  150   4.791   0.249   5.296
    4X2IT    C1  151   4.831   0.219   5.097
    4X2IT    H1  152   4.865   0.118   5.113
    4X2IT   C11  153   4.886   0.296   4.978
    4X2IT    O3  154   4.881   0.202   4.871
    4X2IT   C15  155   4.890   0.254   4.738
    5X2IT   H18  156   3.570   1.304   0.815
    5X2IT    N4  157   3.488   1.300   0.873
    5X2IT   H17  158   3.412   1.363   0.850
    5X2IT   C14  159   3.458   1.178   0.928
    5X2IT    O5  160   3.535   1.085   0.937
    5X2IT    O4  161   3.330   1.179   0.976
    5X2IT   C13  162   3.287   1.059   1.044
    5X2IT   C10  163   3.333   1.058   1.191
    5X2IT    C9  164   3.284   0.937   1.267
    5X2IT    C4  165   3.209   0.977   1.377
    5X2IT    C5  166   3.145   0.881   1.473
    5X2IT    O1  167   3.083   0.926   1.571
    5X2IT    C6  168   3.162   0.741   1.446
    5X2IT   C12  169   3.099   0.639   1.539
    5X2IT    C7  170   3.237   0.701   1.337
    5X2IT    C8  171   3.303   0.799   1.240
    5X2IT    O2  172   3.365   0.753   1.143
    5X2IT    N3  173   3.260   0.573   1.304
    5X2IT   H15  174   3.222   0.496   1.356
    5X2IT   H16  175   3.316   0.555   1.221
    5X2IT    N2  176   3.207   1.112   1.391
    5X2IT    C3  177   3.098   1.196   1.443
    5X2IT    C2  178   3.068   1.287   1.325
    5X2IT    H2  179   3.016   1.381   1.342
    5X2IT    N1  180   3.045   1.211   1.200
    5X2IT   H14  181   2.992   1.269   1.135
    5X2IT    C1  182   3.176   1.274   1.224
    5X2IT    H1  183   3.210   1.356   1.163
    5X2IT   C11  184   3.280   1.178   1.279
    5X2IT    O3  185   3.384   1.262   1.326
    5X2IT   C15  186   3.479   1.205   1.417
    6X2IT   H18  187   0.566   0.919   1.133
    6X2IT    N4  188   0.475   0.952   1.159
    6X2IT   H17  189   0.467   1.001   1.246
    6X2IT   C14  190   0.391   0.985   1.056
    6X2IT    O5  191   0.406   0.952   0.939
    6X2IT    O4  192   0.284   1.056   1.104
    6X2IT   C13  193   0.183   1.091   1.007
    6X2IT   C10  194   0.084   0.976   0.984
    6X2IT    C9  195  -0.028   1.012   0.889
    6X2IT    C4  196  -0.150   0.996   0.951
    6X2IT    C5  197  -0.282   1.023   0.884
    6X2IT    O1  198  -0.387   1.002   0.946
    6X2IT    C6  199  -0.277   1.073   0.749
    6X2IT   C12  200  -0.406   1.104   0.676
    6X2IT    C7  201  -0.154   1.088   0.687
    6X2IT    C8  202  -0.021   1.059   0.756
    6X2IT    O2  203   0.084   1.080   0.692
    6X2IT    N3  204  -0.139   1.132   0.561
    6X2IT   H15  205  -0.216   1.158   0.502
    6X2IT   H16  206  -0.043   1.141   0.526
    6X2IT    N2  207  -0.138   0.944   1.076
    6X2IT    C3  208  -0.223   0.971   1.193
    6X2IT    C2  209  -0.123   1.028   1.293
    6X2IT    H2  210  -0.146   1.028   1.399
    6X2IT    N1  211  -0.045   1.140   1.235
    6X2IT   H14  212  -0.006   1.197   1.311
    6X2IT    C1  213   0.015   1.006   1.243
    6X2IT    H1  214   0.099   0.986   1.308
    6X2IT   C11  215   0.006   0.928   1.112
    6X2IT    O3  216   0.036   0.795   1.149
    6X2IT   C15  217  -0.002   0.691   1.057
    7X2IT   H18  218   3.866   4.741   1.837
    7X2IT    N4  219   3.848   4.690   1.922
    7X2IT   H17  220   3.848   4.589   1.916
    7X2IT   C14  221   3.890   4.750   2.037
    7X2IT    O5  222   3.919   4.868   2.049
    7X2IT    O4  223   3.888   4.660   2.140
    7X2IT   C13  224   3.923   4.711   2.270
    7X2IT   C10  225   3.803   4.777   2.339
    7X2IT    C9  226   3.833   4.826   2.479
    7X2IT    C4  227   3.749   4.766   2.570
    7X2IT    C5  228   3.753   4.791   2.718
    7X2IT    O1  229   3.670   4.736   2.792
    7X2IT    C6  230   3.855   4.882   2.765
    7X2IT   C12  231   3.865   4.912   2.913
    7X2IT    C7  232   3.939   4.943   2.673
    7X2IT    C8  233   3.933   4.916   2.523
    7X2IT    O2  234   4.016   4.973   2.450
    7X2IT    N3  235   4.035   5.030   2.707
    7X2IT   H15  236   4.054   5.057   2.802
    7X2IT   H16  237   4.093   5.067   2.631
    7X2IT    N2  238   3.656   4.687   2.510
    7X2IT    C3  239   3.596   4.563   2.560
    7X2IT    C2  240   3.636   4.461   2.454
    7X2IT    H2  241   3.580   4.368   2.444
    7X2IT    N1  242   3.781   4.463   2.427
    7X2IT   H14  243   3.809   4.375   2.384
    7X2IT    C1  244   3.689   4.533   2.335
    7X2IT    H1  245   3.675   4.498   2.234
    7X2IT   C11  246   3.679   4.682   2.362
    7X2IT    O3  247   3.564   4.723   2.290
    7X2IT   C15  248   3.505   4.849   2.325
    8X2IT   H18  249   0.096   1.996   1.733
    8X2IT    N4  250   0.081   2.016   1.830
    8X2IT   H17  251   0.063   2.113   1.854
    8X2IT   C14  252   0.025   1.917   1.905
    8X2IT    O5  253   0.018   1.800   1.872
    8X2IT    O4  254  -0.018   1.967   2.024
    8X2IT   C13  255  -0.074   1.871   2.117
    8X2IT   C10  256   0.036   1.800   2.197
    8X2IT    C9  257  -0.018   1.704   2.300
    8X2IT    C4  258   0.027   1.739   2.426
    8X2IT    C5  259  -0.009   1.664   2.552
    8X2IT    O1  260   0.039   1.700   2.660
    8X2IT    C6  261  -0.099   1.553   2.537
    8X2IT   C12  262  -0.140   1.473   2.659
    8X2IT    C7  263  -0.143   1.517   2.410
    8X2IT    C8  264  -0.105   1.593   2.283
    8X2IT    O2  265  -0.154   1.556   2.176
    8X2IT    N3  266  -0.226   1.414   2.386
    8X2IT   H15  267  -0.262   1.355   2.459
    8X2IT   H16  268  -0.253   1.398   2.289
    8X2IT    N2  269   0.114   1.843   2.422
    8X2IT    C3  270   0.133   1.949   2.523
    8X2IT    C2  271   0.101   2.075   2.444
    8X2IT    H2  272   0.137   2.171   2.479
    8X2IT    N1  273  -0.029   2.066   2.374
    8X2IT   H14  274  -0.063   2.160   2.353
    8X2IT    C1  275   0.095   2.042   2.299
    8X2IT    H1  276   0.127   2.110   2.221
    8X2IT   C11  277   0.128   1.894   2.283
    8X2IT    O3  278   0.263   1.894   2.241
    8X2IT   C15  279   0.336   1.770   2.254
    9X2IT   H18  280   2.877   3.594   0.948
    9X2IT    N4  281   2.931   3.652   1.010
    9X2IT   H17  282   2.963   3.741   0.974
    9X2IT   C14  283   2.904   3.639   1.143
    9X2IT    O5  284   2.842   3.547   1.194
    9X2IT    O4  285   2.961   3.742   1.212
    9X2IT   C13  286   2.946   3.739   1.355
    9X2IT   C10  287   3.053   3.649   1.421
    9X2IT    C9  288   3.046   3.648   1.572
    9X2IT    C4  289   3.166   3.690   1.626
    9X2IT    C5  290   3.192   3.701   1.773
    9X2IT    O1  291   3.304   3.736   1.813
    9X2IT    C6  292   3.082   3.668   1.861
    9X2IT   C12  293   3.101   3.678   2.011
    9X2IT    C7  294   2.962   3.626   1.807
    9X2IT    C8  295   2.937   3.614   1.656
    9X2IT    O2  296   2.824   3.579   1.618
    9X2IT    N3  297   2.855   3.591   1.880
    9X2IT   H15  298   2.854   3.595   1.980
    9X2IT   H16  299   2.771   3.563   1.829
    9X2IT    N2  300   3.260   3.712   1.530
    9X2IT    C3  301   3.368   3.812   1.531
    9X2IT    C2  302   3.336   3.894   1.407
    9X2IT    H2  303   3.414   3.955   1.361
    9X2IT    N1  304   3.196   3.942   1.406
    9X2IT   H14  305   3.188   4.023   1.343
    9X2IT    C1  306   3.234   3.824   1.326
    9X2IT    H1  307   3.232   3.827   1.217
    9X2IT   C11  308   3.202   3.692   1.394
    9X2IT    O3  309   3.275   3.596   1.319
    9X2IT   C15  310   3.297   3.468   1.381
   10X2IT   H18  311   4.017   1.094   2.878
   10X2IT    N4  312   3.944   1.028   2.899
   10X2IT   H17  313   3.971   0.930   2.905
   10X2IT   C14  314   3.841   1.073   2.976
   10X2IT    O5  315   3.816   1.191   2.997
   10X2IT    O4  316   3.768   0.968   3.023
   10X2IT   C13  317   3.651   1.001   3.101
   10X2IT   C10  318   3.530   1.034   3.011
   10X2IT    C9  319   3.404   1.062   3.089
   10X2IT    C4  320   3.304   0.975   3.051
   10X2IT    C5  321   3.166   0.975   3.110
   10X2IT    O1  322   3.081   0.895   3.068
   10X2IT    C6  323   3.140   1.072   3.214
   10X2IT   C12  324   3.003   1.078   3.277
   10X2IT    C7  325   3.240   1.161   3.250
   10X2IT    C8  326   3.380   1.160   3.189
   10X2IT    O2  327   3.464   1.241   3.232
   10X2IT    N3  328   3.225   1.256   3.344
   10X2IT   H15  329   3.140   1.269   3.395
   10X2IT   H16  330   3.307   1.315   3.364
   10X2IT    N2  331   3.343   0.893   2.950
   10X2IT    C3  332   3.302   0.754   2.926
   10X2IT    C2  333   3.435   0.680   2.931
   10X2IT    H2  334   3.445   0.582   2.884
   10X2IT    N1  335   3.512   0.710   3.054
   10X2IT   H14  336   3.580   0.636   3.070
   10X2IT    C1  337   3.546   0.778   2.927
   10X2IT    H1  338   3.641   0.759   2.878
   10X2IT   C11  339   3.485   0.917   2.915
   10X2IT    O3  340   3.501   0.949   2.778
   10X2IT   C15  341   3.420   1.056   2.726
   11X2IT   H18  342   3.174   0.372   4.307
   11X2IT    N4  343   3.126   0.438   4.249
   11X2IT   H17  344   3.112   0.531   4.285
   11X2IT   C14  345   3.141   0.421   4.114
   11X2IT    O5  346   3.183   0.320   4.060
   11X2IT    O4  347   3.098   0.533   4.048
   11X2IT   C13  348   3.101   0.527   3.904
   11X2IT   C10  349   2.977   0.456   3.847
   11X2IT    C9  350   2.973   0.454   3.696
   11X2IT    C4  351   2.858   0.516   3.650
   11X2IT    C5  352   2.824   0.531   3.505
   11X2IT    O1  353   2.717   0.585   3.473
   11X2IT    C6  354   2.920   0.481   3.410
   11X2IT   C12  355   2.892   0.494   3.262
   11X2IT    C7  356   3.035   0.418   3.456
   11X2IT    C8  357   3.068   0.402   3.605
   11X2IT    O2  358   3.176   0.348   3.635
   11X2IT    N3  359   3.129   0.367   3.376
   11X2IT   H15  360   3.124   0.370   3.276
   11X2IT   H16  361   3.211   0.324   3.421
   11X2IT    N2  362   2.776   0.553   3.752
   11X2IT    C3  363   2.687   0.670   3.757
   11X2IT    C2  364   2.741   0.746   3.878
   11X2IT    H2  365   2.678   0.819   3.928
   11X2IT    N1  366   2.887   0.769   3.869
   11X2IT   H14  367   2.912   0.847   3.930
   11X2IT    C1  368   2.835   0.659   3.953
   11X2IT    H1  369   2.845   0.662   4.060
   11X2IT   C11  370   2.839   0.524   3.884
   11X2IT    O3  371   2.757   0.442   3.964
   11X2IT   C15  372   2.709   0.320   3.906
   12X2IT   H18  373   0.128   2.673   3.899
   12X2IT    N4  374   0.174   2.693   3.812
   12X2IT   H17  375   0.120   2.742   3.742
   12X2IT   C14  376   0.309   2.711   3.817
   12X2IT    O5  377   0.381   2.679   3.910
   12X2IT    O4  378   0.353   2.766   3.700
   12X2IT   C13  379   0.496   2.785   3.688
   12X2IT   C10  380   0.566   2.655   3.643
   12X2IT    C9  381   0.715   2.673   3.623
   12X2IT    C4  382   0.749   2.639   3.493
   12X2IT    C5  383   0.890   2.646   3.440
   12X2IT    O1  384   0.912   2.611   3.323
   12X2IT    C6  385   0.991   2.694   3.531
   12X2IT   C12  386   1.135   2.704   3.483
   12X2IT    C7  387   0.956   2.726   3.661
   12X2IT    C8  388   0.813   2.718   3.714
   12X2IT    O2  389   0.793   2.753   3.831
   12X2IT    N3  390   1.044   2.769   3.753
   12X2IT   H15  391   1.142   2.782   3.734
   12X2IT   H16  392   1.007   2.792   3.845
   12X2IT    N2  393   0.644   2.592   3.422
   12X2IT    C3  394   0.617   2.608   3.279
   12X2IT    C2  395   0.484   2.682   3.278
   12X2IT    H2  396   0.421   2.679   3.189
   12X2IT    N1  397   0.486   2.803   3.363
   12X2IT   H14  398   0.411   2.866   3.334
   12X2IT    C1  399   0.425   2.679   3.415
   12X2IT    H1  400   0.319   2.673   3.434
   12X2IT   C11  401   0.519   2.598   3.504
   12X2IT    O3  402   0.456   2.472   3.514
   12X2IT   C15  403   0.537   2.362   3.559
   13X2IT   H18  404   2.423   4.275   5.625
   13X2IT    N4  405   2.371   4.301   5.543
   13X2IT   H17  406   2.272   4.319   5.555
   13X2IT   C14  407   2.440   4.370   5.447
   13X2IT    O5  408   2.561   4.377   5.440
   13X2IT    O4  409   2.353   4.425   5.358
   13X2IT   C13  410   2.412   4.495   5.247
   13X2IT   C10  411   2.451   4.399   5.134
   13X2IT    C9  412   2.507   4.469   5.012
   13X2IT    C4  413   2.432   4.439   4.901
   13X2IT    C5  414   2.460   4.493   4.763
   13X2IT    O1  415   2.389   4.457   4.668
   13X2IT    C6  416   2.571   4.584   4.751
   13X2IT   C12  417   2.604   4.643   4.616
   13X2IT    C7  418   2.647   4.613   4.863
   13X2IT    C8  419   2.618   4.557   5.002
   13X2IT    O2  420   2.690   4.594   5.096
   13X2IT    N3  421   2.753   4.695   4.861
   13X2IT   H15  422   2.785   4.743   4.779
   13X2IT   H16  423   2.801   4.711   4.950
   13X2IT    N2  424   2.334   4.348   4.928
   13X2IT    C3  425   2.200   4.339   4.867
   13X2IT    C2  426   2.109   4.356   4.987
   13X2IT    H2  427   2.006   4.321   4.982
   13X2IT    N1  428   2.142   4.477   5.066
   13X2IT   H14  429   2.060   4.504   5.122
   13X2IT    C1  430   2.189   4.344   5.112
   13X2IT    H1  431   2.150   4.301   5.203
   13X2IT   C11  432   2.333   4.315   5.073
   13X2IT    O3  433   2.346   4.176   5.095
   13X2IT   C15  434   2.457   4.110   5.032
   14X2IT   H18  435   1.745   4.645   2.395
   14X2IT    N4  436   1.772   4.742   2.389
   14X2IT   H17  437   1.759   4.798   2.473
   14X2IT   C14  438   1.874   4.772   2.304
   14X2IT    O5  439   1.916   4.699   2.216
   14X2IT    O4  440   1.920   4.898   2.329
   14X2IT   C13  441   2.024   4.946   2.242
   14X2IT   C10  442   1.967   5.003   2.111
   14X2IT    C9  443   2.072   5.061   2.020
   14X2IT    C4  444   2.045   5.194   1.994
   14X2IT    C5  445   2.131   5.282   1.907
   14X2IT    O1  446   2.097   5.399   1.886
   14X2IT    C6  447   2.250   5.222   1.852
   14X2IT   C12  448   2.341   5.305   1.764
   14X2IT    C7  449   2.276   5.088   1.878
   14X2IT    C8  450   2.188   5.000   1.966
   14X2IT    O2  451   2.224   4.883   1.985
   14X2IT    N3  452   2.383   5.023   1.829
   14X2IT   H15  453   2.453   5.067   1.771
   14X2IT   H16  454   2.394   4.925   1.856
   14X2IT    N2  455   1.928   5.234   2.049
   14X2IT    C3  456   1.893   5.367   2.103
   14X2IT    C2  457   1.860   5.336   2.248
   14X2IT    H2  458   1.800   5.406   2.306
   14X2IT    N1  459   1.968   5.259   2.315
   14X2IT   H14  460   1.959   5.270   2.416
   14X2IT    C1  461   1.847   5.189   2.265
   14X2IT    H1  462   1.777   5.143   2.334
   14X2IT   C11  463   1.867   5.124   2.129
   14X2IT    O3  464   1.735   5.094   2.086
   14X2IT   C15  465   1.717   5.067   1.946
   15X2IT   H18  466   4.480   3.741   2.829
   15X2IT    N4  467   4.557   3.747   2.764
   15X2IT   H17  468   4.649   3.723   2.799
   15X2IT   C14  469   4.528   3.724   2.633
   15X2IT    O5  470   4.416   3.725   2.584
   15X2IT    O4  471   4.644   3.705   2.562
   15X2IT   C13  472   4.629   3.686   2.420
   15X2IT   C10  473   4.617   3.821   2.346
   15X2IT    C9  474   4.609   3.806   2.196
   15X2IT    C4  475   4.712   3.875   2.135
   15X2IT    C5  476   4.733   3.880   1.987
   15X2IT    O1  477   4.826   3.948   1.941
   15X2IT    C6  478   4.641   3.805   1.906
   15X2IT   C12  479   4.656   3.805   1.755
   15X2IT    C7  480   4.537   3.737   1.967
   15X2IT    C8  481   4.516   3.733   2.118
   15X2IT    O2  482   4.422   3.665   2.162
   15X2IT    N3  483   4.445   3.666   1.900
   15X2IT   H15  484   4.445   3.656   1.800
   15X2IT   H16  485   4.373   3.618   1.955
   15X2IT    N2  486   4.787   3.944   2.225
   15X2IT    C3  487   4.931   3.972   2.219
   15X2IT    C2  488   4.983   3.906   2.346
   15X2IT    H2  489   5.078   3.937   2.388
   15X2IT    N1  490   4.939   3.765   2.358
   15X2IT   H14  491   5.001   3.716   2.422
   15X2IT    C1  492   4.867   3.870   2.433
   15X2IT    H1  493   4.871   3.873   2.541
   15X2IT   C11  494   4.740   3.918   2.364
   15X2IT    O3  495   4.707   4.038   2.432
   15X2IT   C15  496   4.616   4.127   2.367
   16X2IT   H18  497   2.416   4.831   3.542
   16X2IT    N4  498   2.425   4.742   3.497
   16X2IT   H17  499   2.462   4.666   3.552
   16X2IT   C14  500   2.335   4.715   3.397
   16X2IT    O5  501   2.265   4.797   3.341
   16X2IT    O4  502   2.339   4.582   3.367
   16X2IT   C13  503   2.253   4.539   3.259
   16X2IT   C10  504   2.320   4.562   3.122
   16X2IT    C9  505   2.237   4.512   3.006
   16X2IT    C4  506   2.308   4.419   2.933
   16X2IT    C5  507   2.254   4.349   2.812
   16X2IT    O1  508   2.326   4.269   2.750
   16X2IT    C6  509   2.119   4.381   2.774
   16X2IT   C12  510   2.058   4.314   2.652
   16X2IT    C7  511   2.048   4.475   2.846
   16X2IT    C8  512   2.104   4.546   2.969
   16X2IT    O2  513   2.030   4.626   3.030
   16X2IT    N3  514   1.922   4.512   2.818
   16X2IT   H15  515   1.869   4.474   2.741
   16X2IT   H16  516   1.879   4.582   2.879
   16X2IT    N2  517   2.435   4.404   2.979
   16X2IT    C3  518   2.517   4.282   2.979
   16X2IT    C2  519   2.545   4.262   3.128
   16X2IT    H2  520   2.629   4.201   3.159
   16X2IT    N1  521   2.421   4.264   3.209
   16X2IT   H14  522   2.439   4.217   3.298
   16X2IT    C1  523   2.506   4.385   3.202
   16X2IT    H1  524   2.559   4.420   3.289
   16X2IT   C11  525   2.457   4.487   3.101
   16X2IT    O3  526   2.567   4.576   3.085
   16X2IT   C15  527   2.567   4.660   2.969
   17X2IT   H18  528   2.853   5.624   1.629
   17X2IT    N4  529   2.830   5.531   1.598
   17X2IT   H17  530   2.776   5.524   1.513
   17X2IT   C14  531   2.920   5.433   1.628
   17X2IT    O5  532   3.009   5.441   1.711
   17X2IT    O4  533   2.893   5.321   1.554
   17X2IT   C13  534   2.976   5.206   1.580
   17X2IT   C10  535   2.925   5.127   1.702
   17X2IT    C9  536   3.005   5.001   1.729
   17X2IT    C4  537   2.923   4.890   1.725
   17X2IT    C5  538   2.971   4.750   1.747
   17X2IT    O1  539   2.889   4.656   1.746
   17X2IT    C6  540   3.112   4.732   1.769
   17X2IT   C12  541   3.168   4.593   1.791
   17X2IT    C7  542   3.195   4.843   1.774
   17X2IT    C8  543   3.144   4.986   1.752
   17X2IT    O2  544   3.228   5.078   1.754
   17X2IT    N3  545   3.327   4.838   1.795
   17X2IT   H15  546   3.377   4.751   1.809
   17X2IT   H16  547   3.378   4.926   1.795
   17X2IT    N2  548   2.793   4.924   1.708
   17X2IT    C3  549   2.688   4.848   1.637
   17X2IT    C2  550   2.646   4.947   1.528
   17X2IT    H2  551   2.549   4.935   1.479
   17X2IT    N1  552   2.762   4.998   1.451
   17X2IT   H14  553   2.729   5.033   1.360
   17X2IT    C1  554   2.703   5.080   1.558
   17X2IT    H1  555   2.652   5.173   1.534
   17X2IT   C11  556   2.778   5.071   1.690
   17X2IT    O3  557   2.690   5.128   1.784
   17X2IT   C15  558   2.714   5.099   1.922
   18X2IT   H18  559   4.264   0.929   1.682
   18X2IT    N4  560   4.298   0.835   1.679
   18X2IT   H17  561   4.230   0.761   1.689
   18X2IT   C14  562   4.410   0.813   1.604
   18X2IT    O5  563   4.486   0.899   1.565
   18X2IT    O4  564   4.427   0.679   1.584
   18X2IT   C13  565   4.545   0.640   1.512
   18X2IT   C10  566   4.668   0.632   1.604
   18X2IT    C9  567   4.793   0.585   1.534
   18X2IT    C4  568   4.842   0.471   1.595
   18X2IT    C5  569   4.965   0.398   1.549
   18X2IT    O1  570   5.004   0.298   1.612
   18X2IT    C6  571   5.031   0.450   1.432
   18X2IT   C12  572   5.156   0.381   1.380
   18X2IT    C7  573   4.983   0.565   1.372
   18X2IT    C8  574   4.858   0.639   1.420
   18X2IT    O2  575   4.821   0.738   1.355
   18X2IT    N3  576   5.039   0.622   1.264
   18X2IT   H15  577   5.120   0.585   1.218
   18X2IT   H16  578   4.993   0.706   1.227
   18X2IT    N2  579   4.771   0.437   1.705
   18X2IT    C3  580   4.744   0.303   1.758
   18X2IT    C2  581   4.592   0.297   1.755
   18X2IT    H2  582   4.539   0.225   1.817
   18X2IT    N1  583   4.537   0.334   1.623
   18X2IT   H14  584   4.442   0.296   1.614
   18X2IT    C1  585   4.538   0.434   1.731
   18X2IT    H1  586   4.445   0.469   1.775
   18X2IT   C11  587   4.656   0.530   1.724
   18X2IT    O3  588   4.657   0.592   1.851
   18X2IT   C15  589   4.778   0.659   1.889
   19X2IT   H18  590   0.351   2.236   2.290
   19X2IT    N4  591   0.370   2.151   2.240
   19X2IT   H17  592   0.327   2.067   2.275
   19X2IT   C14  593   0.394   2.163   2.106
   19X2IT    O5  594   0.420   2.268   2.048
   19X2IT    O4  595   0.387   2.041   2.046
   19X2IT   C13  596   0.416   2.037   1.905
   19X2IT   C10  597   0.568   2.031   1.879
   19X2IT    C9  598   0.602   2.021   1.732
   19X2IT    C4  599   0.677   1.907   1.709
   19X2IT    C5  600   0.727   1.865   1.573
   19X2IT    O1  601   0.797   1.763   1.563
   19X2IT    C6  602   0.691   1.950   1.463
   19X2IT   C12  603   0.738   1.914   1.323
   19X2IT    C7  604   0.617   2.065   1.486
   19X2IT    C8  605   0.567   2.106   1.625
   19X2IT    O2  606   0.498   2.209   1.633
   19X2IT    N3  607   0.580   2.151   1.390
   19X2IT   H15  608   0.603   2.138   1.293
   19X2IT   H16  609   0.524   2.232   1.418
   19X2IT    N2  610   0.706   1.840   1.824
   19X2IT    C3  611   0.721   1.695   1.843
   19X2IT    C2  612   0.613   1.666   1.947
   19X2IT    H2  613   0.619   1.575   2.007
   19X2IT    N1  614   0.481   1.718   1.906
   19X2IT   H14  615   0.408   1.668   1.957
   19X2IT    C1  616   0.563   1.793   2.003
   19X2IT    H1  617   0.531   1.804   2.106
   19X2IT   C11  618   0.642   1.907   1.941
   19X2IT    O3  619   0.736   1.942   2.040
   19X2IT   C15  620   0.849   2.019   1.998
   20SOL     OW  621   0.230   0.628   0.113
   20SOL    HW1  622   0.137   0.626   0.150
   20SOL    HW2  623   0.231   0.589   0.021
   21SOL     OW  624   0.225   0.275   0.996
   21SOL    HW1  625   0.260   0.258   1.088
   21SOL    HW2  626   0.137   0.230   0.984
   22SOL     OW  627   0.019   0.368   0.647
   22SOL    HW1  628  -0.063   0.411   0.686
   22SOL    HW2  629  -0.009   0.295   0.584
   23SOL     OW  630   0.569   1.275   1.165
   23SOL    HW1  631   0.476   1.268   1.128
   23SOL    HW2  632   0.580   1.364   1.209
   24SOL     OW  633   1.555   1.511   0.703
   24SOL    HW1  634   1.498   1.495   0.784
   24SOL    HW2  635   1.496   1.521   0.623
   25SOL     OW  636   1.135   0.703   0.717
   25SOL    HW1  637   1.192   0.781   0.692
   25SOL    HW2  638   1.075   0.729   0.793
   26SOL     OW  639   1.755   0.607   0.231
   26SOL    HW1  640   1.743   0.594   0.132
   26SOL    HW2  641   1.725   0.526   0.280
   27SOL     OW  642   0.768   1.144   1.023
   27SOL    HW1  643   0.690   1.161   1.083
   27SOL    HW2  644   0.802   1.231   0.987
   28SOL     OW  645   0.850   0.798   1.823
   28SOL    HW1  646   0.846   0.874   1.888
   28SOL    HW2  647   0.872   0.834   1.732
   29SOL     OW  648   0.685   1.012   0.665
   29SOL    HW1  649   0.754   0.996   0.735
   29SOL    HW2  650   0.612   1.069   0.703
   30SOL     OW  651   0.686   1.161   1.803
   30SOL    HW1  652   0.746   1.240   1.817
   30SOL    HW2  653   0.600   1.192   1.762
   31SOL     OW  654   0.335   1.435   1.061
   31SOL    HW1  655   0.257   1.404   1.008
   31SOL    HW2  656   0.393   1.493   1.004
   32SOL     OW  657   1.460   1.505   1.339
   32SOL    HW1  658   1.484   1.599   1.365
   32SOL    HW2  659   1.444   1.451   1.421
   33SOL     OW  660   0.438   0.392   1.499
   33SOL    HW1  661   0.520   0.336   1.508
   33SOL    HW2  662   0.357   0.334   1.503
   34SOL     OW  663   1.603   0.447   0.737
   34SOL    HW1  664   1.529   0.493   0.687
   34SOL    HW2  665   1.654   0.515   0.790
   35SOL     OW  666   0.231   1.713   0.483
   35SOL    HW1  667   0.265   1.790   0.537
   35SOL    HW2  668   0.275   1.713   0.393
   36SOL     OW  669   1.127   1.341   1.690
   36SOL    HW1  670   1.174   1.341   1.778
   36SOL    HW2  671   1.079   1.254   1.679
   37SOL     OW  672   0.230   1.434   0.538
   37SOL    HW1  673   0.204   1.530   0.538
   37SOL    HW2  674   0.159   1.380   0.583
   38SOL     OW  675   0.606   0.964   0.123
   38SOL    HW1  676   0.613   1.048   0.069
   38SOL    HW2  677   0.652   0.977   0.211
   39SOL     OW  678   1.594   0.114   1.480
   39SOL    HW1  679   1.576   0.181   1.408
   39SOL    HW2  680   1.591   0.160   1.569
   40SOL     OW  681   0.122   0.643   0.563
   40SOL    HW1  682   0.077   0.555   0.580
   40SOL    HW2  683   0.121   0.697   0.647
   41SOL     OW  684   1.842   1.767   0.359
   41SOL    HW1  685   1.896   1.738   0.439
   41SOL    HW2  686   1.872   1.857   0.330
   42SOL     OW  687   0.027   1.596   0.117
   42SOL    HW1  688   0.008   1.500   0.138
   42SOL    HW2  689  -0.006   1.654   0.192
   43SOL     OW  690   1.689   0.922   0.612
   43SOL    HW1  691   1.784   0.893   0.620
   43SOL    HW2  692   1.681   0.987   0.537
   44SOL     OW  693   1.641   1.108   0.432
   44SOL    HW1  694   1.727   1.110   0.380
   44SOL    HW2  695   1.655   1.155   0.520
   45SOL     OW  696   0.113   0.737   1.597
   45SOL    HW1  697   0.201   0.724   1.642
   45SOL    HW2  698   0.100   0.834   1.575
   46SOL     OW  699   0.613   1.365   0.726
   46SOL    HW1  700   0.564   1.278   0.735
   46SOL    HW2  701   0.590   1.408   0.639
   47SOL     OW  702   1.293   1.228   1.423
   47SOL    HW1  703   1.330   1.155   1.365
   47SOL    HW2  704   1.345   1.233   1.508
   48SOL     OW  705   0.809   0.004   0.502
   48SOL    HW1  706   0.849   0.095   0.493
   48SOL    HW2  707   0.709   0.012   0.508
   49SOL     OW  708   1.525   0.999   0.190
   49SOL    HW1  709   1.462   0.923   0.203
   49SOL    HW2  710   1.573   1.017   0.276
   50SOL     OW  711   1.187   1.792   1.616
   50SOL    HW1  712   1.211   1.852   1.540
   50SOL    HW2  713   1.194   1.697   1.586
   51SOL     OW  714   0.317   0.251   1.801
   51SOL    HW1  715   0.388   0.322   1.807
   51SOL    HW2  716   0.229   0.290   1.829
   52SOL     OW  717   1.466   1.417   0.953
   52SOL    HW1  718   1.407   1.423   1.033
   52SOL    HW2  719   1.451   1.329   0.907
   53SOL     OW  720   1.667   1.714   0.572
   53SOL    HW1  721   1.626   1.691   0.484
   53SOL    HW2  722   1.649   1.640   0.637
   54SOL     OW  723   0.598   0.729   0.270
   54SOL    HW1  724   0.622   0.798   0.202
   54SOL    HW2  725   0.520   0.762   0.324
   55SOL     OW  726   1.281   0.345   0.944
   55SOL    HW1  727   1.195   0.295   0.931
   55SOL    HW2  728   1.343   0.291   1.000
   56SOL     OW  729   1.576   1.662   0.307
   56SOL    HW1  730   1.665   1.708   0.310
   56SOL    HW2  731   1.555   1.638   0.212
   57SOL     OW  732   0.807   0.605   1.465
   57SOL    HW1  733   0.760   0.602   1.554
   57SOL    HW2  734   0.756   0.550   1.399
   58SOL     OW  735   1.394   0.469   1.674
   58SOL    HW1  736   1.374   0.512   1.762
   58SOL    HW2  737   1.472   0.407   1.683
   59SOL     OW  738   0.973   0.890   1.572
   59SOL    HW1  739   1.019   0.806   1.543
   59SOL    HW2  740   0.917   0.924   1.497
   60SOL     OW  741   0.991   0.410   1.242
   60SOL    HW1  742   0.914   0.444   1.296
   60SOL    HW2  743   0.957   0.359   1.163
   61SOL     OW  744   1.041   0.701   0.429
   61SOL    HW1  745   1.067   0.697   0.525
   61SOL    HW2  746   0.956   0.650   0.415
   62SOL     OW  747   0.130   1.821   1.571
   62SOL    HW1  748   0.120   1.806   1.670
   62SOL    HW2  749   0.044   1.857   1.535
   63SOL     OW  750   0.865   0.348   0.195
   63SOL    HW1  751   0.924   0.411   0.146
   63SOL    HW2  752   0.884   0.254   0.166
   64SOL     OW  753   1.719   0.585   1.831
   64SOL    HW1  754   1.693   0.674   1.795
   64SOL    HW2  755   1.717   0.517   1.758
   65SOL     OW  756   1.362   1.144   0.545
   65SOL    HW1  757   1.445   1.115   0.497
   65SOL    HW2  758   1.313   1.211   0.489
   66SOL     OW  759   0.550   0.196   0.885
   66SOL    HW1  760   0.545   0.191   0.985
   66SOL    HW2  761   0.552   0.292   0.856
   67SOL     OW  762   1.008   1.456   0.477
   67SOL    HW1  763   0.962   1.528   0.425
   67SOL    HW2  764   1.004   1.476   0.575
   68SOL     OW  765   0.351   1.801   0.853
   68SOL    HW1  766   0.401   1.715   0.859
   68SOL    HW2  767   0.416   1.878   0.850
   69SOL     OW  768   1.795   1.066   0.873
   69SOL    HW1  769   1.733   1.051   0.797
   69SOL    HW2  770   1.743   1.077   0.958
   70SOL     OW  771   1.227   1.550   1.506
   70SOL    HW1  772   1.233   1.473   1.570
   70SOL    HW2  773   1.175   1.524   1.426
   71SOL     OW  774   0.321   0.943   0.242
   71SOL    HW1  775   0.403   0.982   0.200
   71SOL    HW2  776   0.294   0.861   0.193
   72SOL     OW  777   1.458   0.735   0.728
   72SOL    HW1  778   1.453   0.670   0.803
   72SOL    HW2  779   1.538   0.794   0.741
   73SOL     OW  780   0.461   1.266   1.727
   73SOL    HW1  781   0.411   1.267   1.641
   73SOL    HW2  782   0.398   1.248   1.803
   74SOL     OW  783   1.111   1.776   0.237
   74SOL    HW1  784   1.051   1.714   0.287
   74SOL    HW2  785   1.142   1.732   0.152
   75SOL     OW  786   1.632   1.377   0.081
   75SOL    HW1  787   1.600   1.471   0.071
   75SOL    HW2  788   1.556   1.314   0.069
   76SOL     OW  789   0.464   1.743   0.323
   76SOL    HW1  790   0.497   1.782   0.409
   76SOL    HW2  791   0.540   1.736   0.258
   77SOL     OW  792   1.400   0.107   0.426
   77SOL    HW1  793   1.376   0.070   0.336
   77SOL    HW2  794   1.499   0.123   0.430
   78SOL     OW  795   0.249   1.785   1.241
   78SOL    HW1  796   0.306   1.720   1.291
   78SOL    HW2  797   0.233   1.752   1.148
   79SOL     OW  798   0.940   1.698   0.904
   79SOL    HW1  799   1.020   1.641   0.925
   79SOL    HW2  800   0.891   1.658   0.827
   80SOL     OW  801   0.382   0.700   0.480
   80SOL    HW1  802   0.427   0.610   0.477
   80SOL    HW2  803   0.288   0.689   0.513
   81SOL     OW  804   1.547   0.222   1.729
   81SOL    HW1  805   1.542   0.259   1.821
   81SOL    HW2  806   1.475   0.153   1.717
   82SOL     OW  807   0.614   0.122   0.117
   82SOL    HW1  808   0.712   0.100   0.124
   82SOL    HW2  809   0.583   0.105   0.024
   83SOL     OW  810   0.781   0.264   1.749
   83SOL    HW1  811   0.848   0.203   1.792
   83SOL    HW2  812   0.708   0.283   1.814
   84SOL     OW  813   0.888   1.514   1.195
   84SOL    HW1  814   0.865   1.489   1.101
   84SOL    HW2  815   0.949   1.445   1.234
   85SOL     OW  816   1.351   0.590   1.433
   85SOL    HW1  817   1.379   0.547   1.518
   85SOL    HW2  818   1.376   0.686   1.434
   86SOL     OW  819   0.803   1.402   0.924
   86SOL    HW1  820   0.893   1.416   0.882
   86SOL    HW2  821   0.732   1.404   0.853
   87SOL     OW  822   0.922   0.503   0.899
   87SOL    HW1  823   0.897   0.494   0.803
   87SOL    HW2  824   0.970   0.421   0.930
   88SOL     OW  825   0.539   0.064   0.512
   88SOL    HW1  826   0.458   0.065   0.570
   88SOL    HW2  827   0.542   0.147   0.457
   89SOL     OW  828   1.434   1.188   0.041
   89SOL    HW1  829   1.466   1.112   0.098
   89SOL    HW2  830   1.342   1.215   0.071
   90SOL     OW  831   0.297   0.035   0.171
   90SOL    HW1  832   0.346   0.119   0.150
   90SOL    HW2  833   0.359  -0.030   0.216
   91SOL     OW  834   0.935   0.236   0.480
   91SOL    HW1  835   0.887   0.277   0.402
   91SOL    HW2  836   1.034   0.234   0.461
   92SOL     OW  837   1.076   0.683   1.464
   92SOL    HW1  838   0.996   0.622   1.467
   92SOL    HW2  839   1.157   0.630   1.440
   93SOL     OW  840   1.227   1.570   0.793
   93SOL    HW1  841   1.248   1.644   0.728
   93SOL    HW2  842   1.295   1.570   0.866
   94SOL     OW  843   0.459   1.152   0.741
   94SOL    HW1  844   0.388   1.125   0.806
   94SOL    HW2  845   0.433   1.124   0.648
   95SOL     OW  846   1.271   1.797   0.591
   95SOL    HW1  847   1.315   1.861   0.527
   95SOL    HW2  848   1.221   1.849   0.661
   96SOL     OW  849   1.032   0.549   0.016
   96SOL    HW1  850   0.991   0.631  -0.023
   96SOL    HW2  851   1.096   0.575   0.089
   97SOL     OW  852   0.561   0.222   1.147
   97SOL    HW1  853   0.599   0.138   1.184
   97SOL    HW2  854   0.473   0.241   1.191
   98SOL     OW  855   0.866   0.454   0.642
   98SOL    HW1  856   0.834   0.526   0.580
   98SOL    HW2  857   0.890   0.373   0.589
   99SOL     OW  858   1.017   0.039   0.753
   99SOL    HW1  859   0.945   0.044   0.684
   99SOL    HW2  860   0.993  -0.030   0.822
  100SOL     OW  861   1.429   1.173   0.867
  100SOL    HW1  862   1.374   1.089   0.860
  100SOL    HW2  863   1.455   1.202   0.775
  101SOL     OW  864   1.466   0.590   0.992
  101SOL    HW1  865   1.436   0.495   0.999
  101SOL    HW2  866   1.539   0.606   1.058
  102SOL     OW  867   1.857   0.833   0.377
  102SOL    HW1  868   1.899   0.769   0.441
  102SOL    HW2  869   1.819   0.782   0.299
  103SOL     OW  870   0.488   1.385   0.174
  103SOL    HW1  871   0.401   1.370   0.221
  103SOL    HW2  872   0.471   1.411   0.079
  104SOL     OW  873   1.664   1.280   0.657
  104SOL    HW1  874   1.763   1.288   0.671
  104SOL    HW2  875   1.619   1.364   0.688
  105SOL     OW  876   1.390   0.575   0.078
  105SOL    HW1  877   1.336   0.554   0.159
  105SOL    HW2  878   1.481   0.534   0.087
  106SOL     OW  879   0.527   0.256   0.328
  106SOL    HW1  880   0.554   0.197   0.253
  106SOL    HW2  881   0.527   0.351   0.297
  107SOL     OW  882   1.754   1.223   1.588
  107SOL    HW1  883   1.845   1.184   1.575
  107SOL    HW2  884   1.762   1.319   1.612
  108SOL     OW  885   1.064   1.347   1.340
  108SOL    HW1  886   0.984   1.324   1.395
  108SOL    HW2  887   1.147   1.321   1.389
  109SOL     OW  888   1.592   1.629   1.625
  109SOL    HW1  889   1.619   1.663   1.535
  109SOL    HW2  890   1.671   1.591   1.671
  110SOL     OW  891   1.111   1.195   1.100
  110SOL    HW1  892   1.071   1.239   1.181
  110SOL    HW2  893   1.070   1.232   1.017
  111SOL     OW  894   1.638   1.099   1.079
  111SOL    HW1  895   1.643   1.180   1.138
  111SOL    HW2  896   1.552   1.101   1.028
  112SOL     OW  897   0.915   0.089   1.402
  112SOL    HW1  898   0.940   0.069   1.307
  112SOL    HW2  899   0.987   0.145   1.444
  113SOL     OW  900   0.980   1.116   1.719
  113SOL    HW1  901   0.881   1.122   1.729
  113SOL    HW2  902   1.003   1.036   1.663
  114SOL     OW  903   0.705   1.050   0.368
  114SOL    HW1  904   0.691   1.057   0.467
  114SOL    HW2  905   0.789   0.999   0.350
  115SOL     OW  906   0.410   0.813   1.251
  115SOL    HW1  907   0.496   0.825   1.301
  115SOL    HW2  908   0.368   0.726   1.278
  116SOL     OW  909   1.274   0.386   1.262
  116SOL    HW1  910   1.295   0.460   1.326
  116SOL    HW2  911   1.185   0.403   1.219
  117SOL     OW  912   0.064   1.564   1.331
  117SOL    HW1  913   0.018   1.646   1.297
  117SOL    HW2  914   0.162   1.583   1.340
  118SOL     OW  915   0.367   1.100   0.501
  118SOL    HW1  916   0.360   1.183   0.445
  118SOL    HW2  917   0.371   1.020   0.441
  119SOL     OW  918   0.566   0.537   0.865
  119SOL    HW1  919   0.578   0.603   0.791
  119SOL    HW2  920   0.612   0.571   0.948
  120SOL     OW  921   1.252   1.348   0.388
  120SOL    HW1  922   1.302   1.425   0.428
  120SOL    HW2  923   1.157   1.350   0.420
  121SOL     OW  924   1.272   1.445   1.142
  121SOL    HW1  925   1.319   1.458   1.229
  121SOL    HW2  926   1.206   1.371   1.151
  122SOL     OW  927   1.582   0.639   0.472
  122SOL    HW1  928   1.551   0.700   0.545
  122SOL    HW2  929   1.632   0.691   0.403
  123SOL     OW  930   0.354   1.510   1.329
  123SOL    HW1  931   0.333   1.466   1.242
  123SOL    HW2  932   0.451   1.536   1.332
  124SOL     OW  933   0.402   0.751   1.598
  124SOL    HW1  934   0.470   0.806   1.551
  124SOL    HW2  935   0.442   0.663   1.625
  125SOL     OW  936   1.587   0.779   1.670
  125SOL    HW1  937   1.495   0.817   1.665
  125SOL    HW2  938   1.647   0.826   1.605
  126SOL     OW  939   1.013   0.105   1.770
  126SOL    HW1  940   1.019   0.190   1.718
  126SOL    HW2  941   1.045   0.029   1.713
  127SOL     OW  942   0.504   0.050   1.740
  127SOL    HW1  943   0.462  -0.007   1.670
  127SOL    HW2  944   0.438   0.119   1.772
  128SOL     OW  945   1.360   0.862   1.045
  128SOL    HW1  946   1.285   0.862   0.979
  128SOL    HW2  947   1.397   0.770   1.054
  129SOL     OW  948   1.209   0.525   0.275
  129SOL    HW1  949   1.222   0.441   0.329
  129SOL    HW2  950   1.180   0.599   0.335
  130SOL     OW  951   0.307   0.213   1.231
  130SOL    HW1  952   0.284   0.250   1.321
  130SOL    HW2  953   0.277   0.118   1.225
  131SOL     OW  954   0.732   0.634   1.064
  131SOL    HW1  955   0.791   0.608   0.988
  131SOL    HW2  956   0.704   0.730   1.053
  132SOL     OW  957   1.728   0.935   1.854
  132SOL    HW1  958   1.682   0.928   1.765
  132SOL    HW2  959   1.666   0.979   1.920
  133SOL     OW  960   0.307   0.063   0.618
  133SOL    HW1  961   0.296   0.157   0.651
  133SOL    HW2  962   0.302   0.000   0.695
  134SOL     OW  963   1.622   0.367   0.374
  134SOL    HW1  964   1.624   0.291   0.438
  134SOL    HW2  965   1.574   0.444   0.414
  135SOL     OW  966   1.023   0.766   0.966
  135SOL    HW1  967   1.038   0.787   1.062
  135SOL    HW2  968   0.993   0.671   0.957
  136SOL     OW  969   0.980   1.573   1.700
  136SOL    HW1  970   0.960   1.617   1.612
  136SOL    HW2  971   1.019   1.482   1.684
  137SOL     OW  972   1.859   1.518   1.605
  137SOL    HW1  973   1.873   1.545   1.510
  137SOL    HW2  974   1.942   1.540   1.658
  138SOL     OW  975   0.350   0.898   1.804
  138SOL    HW1  976   0.426   0.942   1.852
  138SOL    HW2  977   0.385   0.851   1.722
  139SOL     OW  978   1.540   0.274   0.125
  139SOL    HW1  979   1.479   0.199   0.148
  139SOL    HW2  980   1.562   0.326   0.208
  140SOL     OW  981   1.303   0.838   0.042
  140SOL    HW1  982   1.337   0.745   0.057
  140SOL    HW2  983   1.321   0.865  -0.053
  141SOL     OW  984   1.068   1.333   0.849
  141SOL    HW1  985   1.075   1.249   0.794
  141SOL    HW2  986   1.130   1.402   0.813
  142SOL     OW  987   0.339   0.509   1.006
  142SOL    HW1  988   0.287   0.426   0.989
  142SOL    HW2  989   0.416   0.514   0.942
  143SOL     OW  990   1.138   0.380   1.678
  143SOL    HW1  991   1.093   0.443   1.742
  143SOL    HW2  992   1.231   0.411   1.661
  144SOL     OW  993   1.160   0.207   1.477
  144SOL    HW1  994   1.160   0.271   1.554
  144SOL    HW2  995   1.188   0.255   1.394
  145SOL     OW  996   0.008   1.326   0.200
  145SOL    HW1  997  -0.085   1.347   0.169
  145SOL    HW2  998   0.018   1.227   0.213
  146SOL     OW  999   0.088   1.801   0.927
  146SOL    HW1 1000   0.046   1.715   0.900
  146SOL    HW2 1001   0.182   1.804   0.893
  147SOL     OW 1002   0.504   1.568   0.910
  147SOL    HW1 1003   0.570   1.642   0.919
  147SOL    HW2 1004   0.548   1.489   0.868
  148SOL     OW 1005   1.002   0.796   1.238
  148SOL    HW1 1006   1.043   0.764   1.324
  148SOL    HW2 1007   0.906   0.769   1.235
  149SOL     OW 1008   0.189   0.520   1.722
  149SOL    HW1 1009   0.248   0.480   1.652
  149SOL    HW2 1010   0.131   0.591   1.681
  150SOL     OW 1011   1.369   0.950   1.660
  150SOL    HW1 1012   1.408   1.039   1.680
  150SOL    HW2 1013   1.379   0.930   1.563
  151SOL     OW 1014   0.815   0.572   0.325
  151SOL    HW1 1015   0.822   0.483   0.279
  151SOL    HW2 1016   0.721   0.606   0.317
  152SOL     OW 1017   1.657   0.604   1.206
  152SOL    HW1 1018   1.619   0.535   1.268
  152SOL    HW2 1019   1.739   0.568   1.162
  153SOL     OW 1020   0.252   1.564   1.744
  153SOL    HW1 1021   0.222   1.621   1.820
  153SOL    HW2 1022   0.245   1.467   1.770
  154SOL     OW 1023   0.671   0.464   1.269
  154SOL    HW1 1024   0.637   0.375   1.239
  154SOL    HW2 1025   0.697   0.518   1.189
  155SOL     OW 1026   0.930   1.678   1.465
  155SOL    HW1 1027   0.906   1.660   1.370
  155SOL    HW2 1028   0.960   1.772   1.475
  156SOL     OW 1029   0.473   0.500   0.191
  156SOL    HW1 1030   0.534   0.580   0.195
  156SOL    HW2 1031   0.378   0.531   0.198
  157SOL     OW 1032   0.159   1.137   1.466
  157SOL    HW1 1033   0.181   1.076   1.542
  157SOL    HW2 1034   0.169   1.088   1.380
  158SOL     OW 1035   1.347   1.059   1.234
  158SOL    HW1 1036   1.371   0.996   1.160
  158SOL    HW2 1037   1.257   1.099   1.216
  159SOL     OW 1038   1.302   0.855   0.309
  159SOL    HW1 1039   1.216   0.824   0.351
  159SOL    HW2 1040   1.298   0.841   0.210
  160SOL     OW 1041   1.759   1.747   1.154
  160SOL    HW1 1042   1.820   1.777   1.081
  160SOL    HW2 1043   1.721   1.658   1.132
  161SOL     OW 1044   1.252   1.731   1.128
  161SOL    HW1 1045   1.336   1.736   1.074
  161SOL    HW2 1046   1.229   1.635   1.146
  162SOL     OW 1047   0.083   1.258   1.022
  162SOL    HW1 1048   0.078   1.257   1.122
  162SOL    HW2 1049   0.000   1.217   0.984
  163SOL     OW 1050   0.903   0.086   0.133
  163SOL    HW1 1051   0.954   0.087   0.047
  163SOL    HW2 1052   0.959   0.044   0.204
  164SOL     OW 1053   1.726   0.135   0.523
  164SOL    HW1 1054   1.799   0.118   0.456
  164SOL    HW2 1055   1.695   0.048   0.561
  165SOL     OW 1056   1.388   1.573   0.477
  165SOL    HW1 1057   1.455   1.585   0.403
  165SOL    HW2 1058   1.348   1.662   0.500
  166SOL     OW 1059   1.280   0.927   0.672
  166SOL    HW1 1060   1.340   0.846   0.674
  166SOL    HW2 1061   1.320   0.996   0.612
  167SOL     OW 1062   0.830   1.273   1.422
  167SOL    HW1 1063   0.825   1.306   1.517
  167SOL    HW2 1064   0.744   1.292   1.376
  168SOL     OW 1065   0.672   1.616   0.154
  168SOL    HW1 1066   0.681   1.626   0.055
  168SOL    HW2 1067   0.632   1.527   0.175
  169SOL     OW 1068   1.650   1.720   1.394
  169SOL    HW1 1069   1.703   1.730   1.310
  169SOL    HW2 1070   1.623   1.810   1.428
  170SOL     OW 1071   1.841   0.175   0.963
  170SOL    HW1 1072   1.880   0.090   0.927
  170SOL    HW2 1073   1.743   0.177   0.944
  171SOL     OW 1074   0.263   0.326   0.720
  171SOL    HW1 1075   0.184   0.377   0.686
  171SOL    HW2 1076   0.254   0.311   0.818
  172SOL     OW 1077   1.194   1.612   0.031
  172SOL    HW1 1078   1.200   1.519   0.068
  172SOL    HW2 1079   1.135   1.612  -0.049
  173SOL     OW 1080   0.822   1.002   1.372
  173SOL    HW1 1081   0.862   1.001   1.280
  173SOL    HW2 1082   0.832   1.094   1.412
  174SOL     OW 1083   0.916   0.910   0.291
  174SOL    HW1 1084   0.979   0.948   0.223
  174SOL    HW2 1085   0.956   0.827   0.330
  175SOL     OW 1086   1.504   1.607   0.044
  175SOL    HW1 1087   1.412   1.644   0.051
  175SOL    HW2 1088   1.542   1.627  -0.046
  176SOL     OW 1089   0.372   1.288   1.490
  176SOL    HW1 1090   0.359   1.381   1.456
  176SOL    HW2 1091   0.288   1.236   1.477
  177SOL     OW 1092   1.614   1.292   1.289
  177SOL    HW1 1093   1.674   1.295   1.369
  177SOL    HW2 1094   1.539   1.356   1.302
  178SOL     OW 1095   1.039   1.098   0.696
  178SOL    HW1 1096   0.969   1.051   0.750
  178SOL    HW2 1097   1.098   1.030   0.653
  179SOL     OW 1098   1.014   0.236   0.971
  179SOL    HW1 1099   1.006   0.200   0.878
  179SOL    HW2 1100   1.012   0.160   1.036
  180SOL     OW 1101   0.590   1.487   0.491
  180SOL    HW1 1102   0.632   1.429   0.421
  180SOL    HW2 1103   0.546   1.566   0.447
  181SOL     OW 1104   1.709   0.385   1.381
  181SOL    HW1 1105   1.782   0.454   1.385
  181SOL    HW2 1106   1.737   0.310   1.322
  182SOL     OW 1107   0.255   1.348   0.290
  182SOL    HW1 1108   0.159   1.349   0.263
  182SOL    HW2 1109   0.267   1.401   0.374
  183SOL     OW 1110   0.105   1.013   1.726
  183SOL    HW1 1111   0.028   0.980   1.780
  183SOL    HW2 1112   0.190   0.983   1.768
  184SOL     OW 1113   0.672   0.203   1.489
  184SOL    HW1 1114   0.762   0.187   1.449
  184SOL    HW2 1115   0.680   0.208   1.588
  185SOL     OW 1116   1.440   0.856   1.398
  185SOL    HW1 1117   1.383   0.908   1.335
  185SOL    HW2 1118   1.536   0.868   1.374
  186SOL     OW 1119   0.072   0.166   0.318
  186SOL    HW1 1120   0.055   0.249   0.264
  186SOL    HW2 1121   0.162   0.129   0.296
  187SOL     OW 1122   1.183   1.335   0.119
  187SOL    HW1 1123   1.084   1.324   0.121
  187SOL    HW2 1124   1.217   1.350   0.212
  188SOL     OW 1125   0.613   0.842   1.431
  188SOL    HW1 1126   0.669   0.923   1.414
  188SOL    HW2 1127   0.672   0.762   1.434
  189SOL     OW 1128   1.493   1.767   0.959
  189SOL    HW1 1129   1.526   1.831   0.890
  189SOL    HW2 1130   1.559   1.761   1.034
  190SOL     OW 1131   0.716   0.565   1.708
  190SOL    HW1 1132   0.735   0.630   1.782
  190SOL    HW2 1133   0.776   0.485   1.717
  191SOL     OW 1134   0.390   1.741   1.560
  191SOL    HW1 1135   0.299   1.782   1.558
  191SOL    HW2 1136   0.383   1.647   1.592
  192SOL     OW 1137   1.674   0.883   1.254
  192SOL    HW1 1138   1.647   0.794   1.217
  192SOL    HW2 1139   1.675   0.951   1.181
  193SOL     OW 1140   1.225   0.325   0.449
  193SOL    HW1 1141   1.290   0.251   0.438
  193SOL    HW2 1142   1.245   0.375   0.533
  194SOL     OW 1143   0.594   0.745   0.652
  194SOL    HW1 1144   0.644   0.830   0.633
  194SOL    HW2 1145   0.506   0.747   0.604
  195SOL     OW 1146   1.777   0.342   1.642
  195SOL    HW1 1147   1.760   0.373   1.548
  195SOL    HW2 1148   1.693   0.305   1.680
  196SOL     OW 1149   1.730   0.934   1.517
  196SOL    HW1 1150   1.768   1.025   1.532
  196SOL    HW2 1151   1.722   0.917   1.418
  197SOL     OW 1152   0.859   1.374   0.016
  197SOL    HW1 1153   0.813   1.389   0.104
  197SOL    HW2 1154   0.903   1.459  -0.014
  198SOL     OW 1155   0.661   1.790   0.953
  198SOL    HW1 1156   0.615   1.878   0.940
  198SOL    HW2 1157   0.760   1.802   0.946
  199SOL     OW 1158   0.859   0.956   0.861
  199SOL    HW1 1159   0.913   0.887   0.909
  199SOL    HW2 1160   0.827   1.025   0.927
  200SOL     OW 1161   1.083   0.984   0.087
  200SOL    HW1 1162   1.060   1.037   0.005
  200SOL    HW2 1163   1.164   0.928   0.068
  201SOL     OW 1164   1.861   1.569   0.851
  201SOL    HW1 1165   1.790   1.557   0.781
  201SOL    HW2 1166   1.862   1.490   0.911
  202SOL     OW 1167   0.221   1.314   1.844
  202SOL    HW1 1168   0.156   1.241   1.823
  202SOL    HW2 1169   0.225   1.328   1.942
  203SOL     OW 1170   0.672   1.391   1.624
  203SOL    HW1 1171   0.594   1.341   1.662
  203SOL    HW2 1172   0.669   1.486   1.655
  204SOL     OW 1173   1.824   0.192   1.227
  204SOL    HW1 1174   1.820   0.102   1.271
  204SOL    HW2 1175   1.827   0.181   1.128
  205SOL     OW 1176   0.428   0.424   0.520
  205SOL    HW1 1177   0.458   0.352   0.458
  205SOL    HW2 1178   0.389   0.384   0.603
  206SOL     OW 1179   1.705   1.487   1.104
  206SOL    HW1 1180   1.612   1.462   1.077
  206SOL    HW2 1181   1.731   1.437   1.186
  207SOL     OW 1182   0.317   0.547   1.280
  207SOL    HW1 1183   0.355   0.488   1.352
  207SOL    HW2 1184   0.357   0.521   1.192
  208SOL     OW 1185   0.812   1.586   0.687
  208SOL    HW1 1186   0.844   1.596   0.593
  208SOL    HW2 1187   0.733   1.524   0.689
  209SOL     OW 1188   1.424   0.214   1.112
  209SOL    HW1 1189   1.476   0.149   1.167
  209SOL    HW2 1190   1.375   0.277   1.173
  210SOL     OW 1191   1.001   0.034   1.154
  210SOL    HW1 1192   0.938  -0.038   1.123
  210SOL    HW2 1193   1.094  -0.002   1.154
  211SOL     OW 1194   0.770   1.330   0.301
  211SOL    HW1 1195   0.724   1.243   0.318
  211SOL    HW2 1196   0.861   1.327   0.342
  212SOL     OW 1197   0.618   1.567   1.284
  212SOL    HW1 1198   0.613   1.649   1.341
  212SOL    HW2 1199   0.707   1.564   1.239
  213SOL     OW 1200   1.352   0.052   0.168
  213SOL    HW1 1201   1.387   0.011   0.084
  213SOL    HW2 1202   1.262   0.014   0.188
  214SOL     OW 1203   1.300   0.453   0.691
  214SOL    HW1 1204   1.241   0.533   0.695
  214SOL    HW2 1205   1.315   0.418   0.784
  215SOL     OW 1206   1.593   0.221   0.882
  215SOL    HW1 1207   1.509   0.220   0.936
  215SOL    HW2 1208   1.595   0.304   0.826
  216SOL     OW 1209   0.039   1.077   0.300
  216SOL    HW1 1210   0.138   1.066   0.291
  216SOL    HW2 1211  -0.001   0.991   0.332
  217SOL     OW 1212   0.875   1.646   0.337
  217SOL    HW1 1213   0.798   1.611   0.283
  217SOL    HW2 1214   0.843   1.717   0.399
  218SOL     OW 1215   0.230   0.628   1.975
  218SOL    HW1 1216   0.137   0.626   2.012
  218SOL    HW2 1217   0.231   0.589   1.883
  219SOL     OW 1218   0.225   0.275   2.858
  219SOL    HW1 1219   0.260   0.258   2.950
  219SOL    HW2 1220   0.137   0.230   2.846
  220SOL     OW 1221   0.019   0.368   2.509
  220SOL    HW1 1222  -0.063   0.411   2.548
  220SOL    HW2 1223  -0.009   0.295   2.446
  221SOL     OW 1224   0.569   1.275   3.027
  221SOL    HW1 1225   0.476   1.268   2.990
  221SOL    HW2 1226   0.580   1.364   3.071
  222SOL     OW 1227   1.135   0.703   2.579
  222SOL    HW1 1228   1.192   0.781   2.554
  222SOL    HW2 1229   1.075   0.729   2.655
  223SOL     OW 1230   1.755   0.607   2.093
  223SOL    HW1 1231   1.743   0.594   1.994
  223SOL    HW2 1232   1.725   0.526   2.142
  224SOL     OW 1233   0.768   1.144   2.885
  224SOL    HW1 1234   0.690   1.161   2.945
  224SOL    HW2 1235   0.802   1.231   2.849
  225SOL     OW 1236   0.850   0.798   3.685
  225SOL    HW1 1237   0.846   0.874   3.750
  225SOL    HW2 1238   0.872   0.834   3.594
  226SOL     OW 1239   0.685   1.012   2.527
  226SOL    HW1 1240   0.754   0.996   2.597
  226SOL    HW2 1241   0.612   1.069   2.565
  227SOL     OW 1242   0.686   1.161   3.665
  227SOL    HW1 1243   0.746   1.240   3.679
  227SOL    HW2 1244   0.600   1.192   3.624
  228SOL     OW 1245   0.335   1.435   2.923
  228SOL    HW1 1246   0.257   1.404   2.870
  228SOL    HW2 1247   0.393   1.493   2.866
  229SOL     OW 1248   1.460   1.505   3.201
  229SOL    HW1 1249   1.484   1.599   3.227
  229SOL    HW2 1250   1.444   1.451   3.283
  230SOL     OW 1251   0.438   0.392   3.361
  230SOL    HW1 1252   0.520   0.336   3.370
  230SOL    HW2 1253   0.357   0.334   3.365
  231SOL     OW 1254   1.603   0.447   2.599
  231SOL    HW1 1255   1.529   0.493   2.549
  231SOL    HW2 1256   1.654   0.515   2.652
  232SOL     OW 1257   1.127   1.341   3.552
  232SOL    HW1 1258   1.174   1.341   3.640
  232SOL    HW2 1259   1.079   1.254   3.541
  233SOL     OW 1260   0.230   1.434   2.400
  233SOL    HW1 1261   0.204   1.530   2.400
  233SOL    HW2 1262   0.159   1.380   2.445
  234SOL     OW 1263   0.240   1.091   2.748
  234SOL    HW1 1264   0.254   1.007   2.800
  234SOL    HW2 1265   0.185   1.155   2.803
  235SOL     OW 1266   0.620   1.786   3.301
  235SOL    HW1 1267   0.528   1.769   3.336
  235SOL    HW2 1268   0.648   1.878   3.327
  236SOL     OW 1269   0.606   0.964   1.985
  236SOL    HW1 1270   0.613   1.048   1.931
  236SOL    HW2 1271   0.652   0.977   2.073
  237SOL     OW 1272   1.594   0.114   3.342
  237SOL    HW1 1273   1.576   0.181   3.270
  237SOL    HW2 1274   1.591   0.160   3.431
  238SOL     OW 1275   0.122   0.643   2.425
  238SOL    HW1 1276   0.077   0.555   2.442
  238SOL    HW2 1277   0.121   0.697   2.509
  239SOL     OW 1278   0.027   1.596   1.979
  239SOL    HW1 1279   0.008   1.500   2.000
  239SOL    HW2 1280  -0.006   1.654   2.054
  240SOL     OW 1281   1.689   0.922   2.474
  240SOL    HW1 1282   1.784   0.893   2.482
  240SOL    HW2 1283   1.681   0.987   2.399
  241SOL     OW 1284   1.641   1.108   2.294
  241SOL    HW1 1285   1.727   1.110   2.242
  241SOL    HW2 1286   1.655   1.155   2.382
  242SOL     OW 1287   0.113   0.737   3.459
  242SOL    HW1 1288   0.201   0.724   3.504
  242SOL    HW2 1289   0.100   0.834   3.437
  243SOL     OW 1290   0.613   1.365   2.588
  243SOL    HW1 1291   0.564   1.278   2.597
  243SOL    HW2 1292   0.590   1.408   2.501
  244SOL     OW 1293   1.293   1.228   3.285
  244SOL    HW1 1294   1.330   1.155   3.227
  244SOL    HW2 1295   1.345   1.233   3.370
  245SOL     OW 1296   0.809   0.004   2.364
  245SOL    HW1 1297   0.849   0.095   2.355
  245SOL    HW2 1298   0.709   0.012   2.370
  246SOL     OW 1299   0.197   0.976   3.126
  246SOL    HW1 1300   0.286   0.931   3.112
  246SOL    HW2 1301   0.124   0.911   3.107
  247SOL     OW 1302   1.525   0.999   2.052
  247SOL    HW1 1303   1.462   0.923   2.065
  247SOL    HW2 1304   1.573   1.017   2.138
  248SOL     OW 1305   1.187   1.792   3.478
  248SOL    HW1 1306   1.211   1.852   3.402
  248SOL    HW2 1307   1.194   1.697   3.448
  249SOL     OW 1308   0.317   0.251   3.663
  249SOL    HW1 1309   0.388   0.322   3.669
  249SOL    HW2 1310   0.229   0.290   3.691
  250SOL     OW 1311   1.667   1.714   2.434
  250SOL    HW1 1312   1.626   1.691   2.346
  250SOL    HW2 1313   1.649   1.640   2.499
  251SOL     OW 1314   0.598   0.729   2.132
  251SOL    HW1 1315   0.622   0.798   2.064
  251SOL    HW2 1316   0.520   0.762   2.186
  252SOL     OW 1317   1.281   0.345   2.806
  252SOL    HW1 1318   1.195   0.295   2.793
  252SOL    HW2 1319   1.343   0.291   2.862
  253SOL     OW 1320   0.807   0.605   3.327
  253SOL    HW1 1321   0.760   0.602   3.416
  253SOL    HW2 1322   0.756   0.550   3.261
  254SOL     OW 1323   1.394   0.469   3.536
  254SOL    HW1 1324   1.374   0.512   3.624
  254SOL    HW2 1325   1.472   0.407   3.545
  255SOL     OW 1326   0.973   0.890   3.434
  255SOL    HW1 1327   1.019   0.806   3.405
  255SOL    HW2 1328   0.917   0.924   3.359
  256SOL     OW 1329   0.991   0.410   3.104
  256SOL    HW1 1330   0.914   0.444   3.158
  256SOL    HW2 1331   0.957   0.359   3.025
  257SOL     OW 1332   1.041   0.701   2.291
  257SOL    HW1 1333   1.067   0.697   2.387
  257SOL    HW2 1334   0.956   0.650   2.277
  258SOL     OW 1335   0.076   0.811   2.651
  258SOL    HW1 1336   0.175   0.799   2.660
  258SOL    HW2 1337   0.052   0.906   2.672
  259SOL     OW 1338   0.130   1.821   3.433
  259SOL    HW1 1339   0.120   1.806   3.532
  259SOL    HW2 1340   0.044   1.857   3.397
  260SOL     OW 1341   0.865   0.348   2.057
  260SOL    HW1 1342   0.924   0.411   2.008
  260SOL    HW2 1343   0.884   0.254   2.028
  261SOL     OW 1344   1.719   0.585   3.693
  261SOL    HW1 1345   1.693   0.674   3.657
  261SOL    HW2 1346   1.717   0.517   3.620
  262SOL     OW 1347   0.550   0.196   2.747
  262SOL    HW1 1348   0.545   0.191   2.847
  262SOL    HW2 1349   0.552   0.292   2.718
  263SOL     OW 1350   1.008   1.456   2.339
  263SOL    HW1 1351   0.962   1.528   2.287
  263SOL    HW2 1352   1.004   1.476   2.437
  264SOL     OW 1353   0.351   1.801   2.715
  264SOL    HW1 1354   0.401   1.715   2.721
  264SOL    HW2 1355   0.416   1.878   2.712
  265SOL     OW 1356   1.795   1.066   2.735
  265SOL    HW1 1357   1.733   1.051   2.659
  265SOL    HW2 1358   1.743   1.077   2.820
  266SOL     OW 1359   1.227   1.550   3.368
  266SOL    HW1 1360   1.233   1.473   3.432
  266SOL    HW2 1361   1.175   1.524   3.288
  267SOL     OW 1362   0.321   0.943   2.104
  267SOL    HW1 1363   0.403   0.982   2.062
  267SOL    HW2 1364   0.294   0.861   2.055
  268SOL     OW 1365   1.458   0.735   2.590
  268SOL    HW1 1366   1.453   0.670   2.665
  268SOL    HW2 1367   1.538   0.794   2.603
  269SOL     OW 1368   0.461   1.266   3.589
  269SOL    HW1 1369   0.411   1.267   3.503
  269SOL    HW2 1370   0.398   1.248   3.665
  270SOL     OW 1371   0.202   0.285   3.360
  270SOL    HW1 1372   0.122   0.345   3.347
  270SOL    HW2 1373   0.192   0.236   3.446
  271SOL     OW 1374   1.400   0.107   2.288
  271SOL    HW1 1375   1.376   0.070   2.198
  271SOL    HW2 1376   1.499   0.123   2.292
  272SOL     OW 1377   0.249   1.785   3.103
  272SOL    HW1 1378   0.306   1.720   3.153
  272SOL    HW2 1379   0.233   1.752   3.010
  273SOL     OW 1380   0.940   1.698   2.766
  273SOL    HW1 1381   1.020   1.641   2.787
  273SOL    HW2 1382   0.891   1.658   2.689
  274SOL     OW 1383   0.382   0.700   2.342
  274SOL    HW1 1384   0.427   0.610   2.339
  274SOL    HW2 1385   0.288   0.689   2.375
  275SOL     OW 1386   1.547   0.222   3.591
  275SOL    HW1 1387   1.542   0.259   3.683
  275SOL    HW2 1388   1.475   0.153   3.579
  276SOL     OW 1389   0.614   0.122   1.979
  276SOL    HW1 1390   0.712   0.100   1.986
  276SOL    HW2 1391   0.583   0.105   1.886
  277SOL     OW 1392   0.781   0.264   3.611
  277SOL    HW1 1393   0.848   0.203   3.654
  277SOL    HW2 1394   0.708   0.283   3.676
  278SOL     OW 1395   0.888   1.514   3.057
  278SOL    HW1 1396   0.865   1.489   2.963
  278SOL    HW2 1397   0.949   1.445   3.096
  279SOL     OW 1398   1.351   0.590   3.295
  279SOL    HW1 1399   1.379   0.547   3.380
  279SOL    HW2 1400   1.376   0.686   3.296
  280SOL     OW 1401   0.803   1.402   2.786
  280SOL    HW1 1402   0.893   1.416   2.744
  280SOL    HW2 1403   0.732   1.404   2.715
  281SOL     OW 1404   0.922   0.503   2.761
  281SOL    HW1 1405   0.897   0.494   2.665
  281SOL    HW2 1406   0.970   0.421   2.792
  282SOL     OW 1407   0.539   0.064   2.374
  282SOL    HW1 1408   0.458   0.065   2.432
  282SOL    HW2 1409   0.542   0.147   2.319
  283SOL     OW 1410   0.297   0.035   2.033
  283SOL    HW1 1411   0.346   0.119   2.012
  283SOL    HW2 1412   0.359  -0.030   2.078
  284SOL     OW 1413   0.935   0.236   2.342
  284SOL    HW1 1414   0.887   0.277   2.264
  284SOL    HW2 1415   1.034   0.234   2.323
  285SOL     OW 1416   1.076   0.683   3.326
  285SOL    HW1 1417   0.996   0.622   3.329
  285SOL    HW2 1418   1.157   0.630   3.302
  286SOL     OW 1419   0.459   1.152   2.603
  286SOL    HW1 1420   0.388   1.125   2.668
  286SOL    HW2 1421   0.433   1.124   2.510
  287SOL     OW 1422   1.032   0.549   1.878
  287SOL    HW1 1423   0.991   0.631   1.839
  287SOL    HW2 1424   1.096   0.575   1.951
  288SOL     OW 1425   0.078   0.556   3.248
  288SOL    HW1 1426   0.170   0.555   3.207
  288SOL    HW2 1427   0.072   0.630   3.315
  289SOL     OW 1428   0.561   0.222   3.009
  289SOL    HW1 1429   0.599   0.138   3.046
  289SOL    HW2 1430   0.473   0.241   3.053
  290SOL     OW 1431   0.866   0.454   2.504
  290SOL    HW1 1432   0.834   0.526   2.442
  290SOL    HW2 1433   0.890   0.373   2.451
  291SOL     OW 1434   1.017   0.039   2.615
  291SOL    HW1 1435   0.945   0.044   2.546
  291SOL    HW2 1436   0.993  -0.030   2.684
  292SOL     OW 1437   1.466   0.590   2.854
  292SOL    HW1 1438   1.436   0.495   2.861
  292SOL    HW2 1439   1.539   0.606   2.920
  293SOL     OW 1440   1.857   0.833   2.239
  293SOL    HW1 1441   1.899   0.769   2.303
  293SOL    HW2 1442   1.819   0.782   2.161
  294SOL     OW 1443   0.488   1.385   2.036
  294SOL    HW1 1444   0.401   1.370   2.083
  294SOL    HW2 1445   0.471   1.411   1.941
  295SOL     OW 1446   1.664   1.280   2.519
  295SOL    HW1 1447   1.763   1.288   2.533
  295SOL    HW2 1448   1.619   1.364   2.550
  296SOL     OW 1449   1.390   0.575   1.940
  296SOL    HW1 1450   1.336   0.554   2.021
  296SOL    HW2 1451   1.481   0.534   1.949
  297SOL     OW 1452   0.527   0.256   2.190
  297SOL    HW1 1453   0.554   0.197   2.115
  297SOL    HW2 1454   0.527   0.351   2.159
  298SOL     OW 1455   1.754   1.223   3.450
  298SOL    HW1 1456   1.845   1.184   3.437
  298SOL    HW2 1457   1.762   1.319   3.474
  299SOL     OW 1458   1.064   1.347   3.202
  299SOL    HW1 1459   0.984   1.324   3.257
  299SOL    HW2 1460   1.147   1.321   3.251
  300SOL     OW 1461   1.592   1.629   3.487
  300SOL    HW1 1462   1.619   1.663   3.397
  300SOL    HW2 1463   1.671   1.591   3.533
  301SOL     OW 1464   1.111   1.195   2.962
  301SOL    HW1 1465   1.071   1.239   3.043
  301SOL    HW2 1466   1.070   1.232   2.879
  302SOL     OW 1467   1.638   1.099   2.941
  302SOL    HW1 1468   1.643   1.180   3.000
  302SOL    HW2 1469   1.552   1.101   2.890
  303SOL     OW 1470   0.915   0.089   3.264
  303SOL    HW1 1471   0.940   0.069   3.169
  303SOL    HW2 1472   0.987   0.145   3.306
  304SOL     OW 1473   0.980   1.116   3.581
  304SOL    HW1 1474   0.881   1.122   3.591
  304SOL    HW2 1475   1.003   1.036   3.525
  305SOL     OW 1476   0.705   1.050   2.230
  305SOL    HW1 1477   0.691   1.057   2.329
  305SOL    HW2 1478   0.789   0.999   2.212
  306SOL     OW 1479   0.410   0.813   3.113
  306SOL    HW1 1480   0.496   0.825   3.163
  306SOL    HW2 1481   0.368   0.726   3.140
  307SOL     OW 1482   1.274   0.386   3.124
  307SOL    HW1 1483   1.295   0.460   3.188
  307SOL    HW2 1484   1.185   0.403   3.081
  308SOL     OW 1485   0.064   1.564   3.193
  308SOL    HW1 1486   0.018   1.646   3.159
  308SOL    HW2 1487   0.162   1.583   3.202
  309SOL     OW 1488   0.367   1.100   2.363
  309SOL    HW1 1489   0.360   1.183   2.307
  309SOL    HW2 1490   0.371   1.020   2.303
  310SOL     OW 1491   0.566   0.537   2.727
  310SOL    HW1 1492   0.578   0.603   2.653
  310SOL    HW2 1493   0.612   0.571   2.810
  311SOL     OW 1494   1.272   1.445   3.004
  311SOL    HW1 1495   1.319   1.458   3.091
  311SOL    HW2 1496   1.206   1.371   3.013
  312SOL     OW 1497   1.582   0.639   2.334
  312SOL    HW1 1498   1.551   0.700   2.407
  312SOL    HW2 1499   1.632   0.691   2.265
  313SOL     OW 1500   0.354   1.510   3.191
  313SOL    HW1 1501   0.333   1.466   3.104
  313SOL    HW2 1502   0.451   1.536   3.194
  314SOL     OW 1503   0.402   0.751   3.460
  314SOL    HW1 1504   0.470   0.806   3.413
  314SOL    HW2 1505   0.442   0.663   3.487
  315SOL     OW 1506   1.587   0.779   3.532
  315SOL    HW1 1507   1.495   0.817   3.527
  315SOL    HW2 1508   1.647   0.826   3.467
  316SOL     OW 1509   1.013   0.105   3.632
  316SOL    HW1 1510   1.019   0.190   3.580
  316SOL    HW2 1511   1.045   0.029   3.575
  317SOL     OW 1512   0.504   0.050   3.602
  317SOL    HW1 1513   0.462  -0.007   3.532
  317SOL    HW2 1514   0.438   0.119   3.634
  318SOL     OW 1515   0.573   0.870   2.891
  318SOL    HW1 1516   0.617   0.959   2.882
  318SOL    HW2 1517   0.510   0.870   2.968
  319SOL     OW 1518   1.360   0.862   2.907
  319SOL    HW1 1519   1.285   0.862   2.841
  319SOL    HW2 1520   1.397   0.770   2.916
  320SOL     OW 1521   1.209   0.525   2.137
  320SOL    HW1 1522   1.222   0.441   2.191
  320SOL    HW2 1523   1.180   0.599   2.197
  321SOL     OW 1524   0.307   0.213   3.093
  321SOL    HW1 1525   0.284   0.250   3.183
  321SOL    HW2 1526   0.277   0.118   3.087
  322SOL     OW 1527   0.037   1.310   3.144
  322SOL    HW1 1528   0.090   1.261   3.212
  322SOL    HW2 1529   0.059   1.408   3.149
  323SOL     OW 1530   0.732   0.634   2.926
  323SOL    HW1 1531   0.791   0.608   2.850
  323SOL    HW2 1532   0.704   0.730   2.915
  324SOL     OW 1533   1.728   0.935   3.716
  324SOL    HW1 1534   1.682   0.928   3.627
  324SOL    HW2 1535   1.666   0.979   3.782
  325SOL     OW 1536   0.307   0.063   2.480
  325SOL    HW1 1537   0.296   0.157   2.513
  325SOL    HW2 1538   0.302   0.000   2.557
  326SOL     OW 1539   1.622   0.367   2.236
  326SOL    HW1 1540   1.624   0.291   2.300
  326SOL    HW2 1541   1.574   0.444   2.276
  327SOL     OW 1542   1.023   0.766   2.828
  327SOL    HW1 1543   1.038   0.787   2.924
  327SOL    HW2 1544   0.993   0.671   2.819
  328SOL     OW 1545   0.980   1.573   3.562
  328SOL    HW1 1546   0.960   1.617   3.474
  328SOL    HW2 1547   1.019   1.482   3.546
  329SOL     OW 1548   1.859   1.518   3.467
  329SOL    HW1 1549   1.873   1.545   3.372
  329SOL    HW2 1550   1.942   1.540   3.520
  330SOL     OW 1551   0.350   0.898   3.666
  330SOL    HW1 1552   0.426   0.942   3.714
  330SOL    HW2 1553   0.385   0.851   3.584
  331SOL     OW 1554   1.540   0.274   1.987
  331SOL    HW1 1555   1.479   0.199   2.010
  331SOL    HW2 1556   1.562   0.326   2.070
  332SOL     OW 1557   1.303   0.838   1.904
  332SOL    HW1 1558   1.337   0.745   1.919
  332SOL    HW2 1559   1.321   0.865   1.809
  333SOL     OW 1560   1.068   1.333   2.711
  333SOL    HW1 1561   1.075   1.249   2.656
  333SOL    HW2 1562   1.130   1.402   2.675
  334SOL     OW 1563   0.319   0.810   2.811
  334SOL    HW1 1564   0.412   0.846   2.816
  334SOL    HW2 1565   0.313   0.725   2.863
  335SOL     OW 1566   0.339   0.509   2.868
  335SOL    HW1 1567   0.287   0.426   2.851
  335SOL    HW2 1568   0.416   0.514   2.804
  336SOL     OW 1569   1.138   0.380   3.540
  336SOL    HW1 1570   1.093   0.443   3.604
  336SOL    HW2 1571   1.231   0.411   3.523
  337SOL     OW 1572   1.160   0.207   3.339
  337SOL    HW1 1573   1.160   0.271   3.416
  337SOL    HW2 1574   1.188   0.255   3.256
  338SOL     OW 1575   0.008   1.326   2.062
  338SOL    HW1 1576  -0.085   1.347   2.031
  338SOL    HW2 1577   0.018   1.227   2.075
  339SOL     OW 1578   0.504   1.568   2.772
  339SOL    HW1 1579   0.570   1.642   2.781
  339SOL    HW2 1580   0.548   1.489   2.730
  340SOL     OW 1581   1.002   0.796   3.100
  340SOL    HW1 1582   1.043   0.764   3.186
  340SOL    HW2 1583   0.906   0.769   3.097
  341SOL     OW 1584   0.040   0.544   2.976
  341SOL    HW1 1585   0.125   0.511   2.935
  341SOL    HW2 1586   0.053   0.559   3.074
  342SOL     OW 1587   0.189   0.520   3.584
  342SOL    HW1 1588   0.248   0.480   3.514
  342SOL    HW2 1589   0.131   0.591   3.543
  343SOL     OW 1590   1.369   0.950   3.522
  343SOL    HW1 1591   1.408   1.039   3.542
  343SOL    HW2 1592   1.379   0.930   3.425
  344SOL     OW 1593   0.815   0.572   2.187
  344SOL    HW1 1594   0.822   0.483   2.141
  344SOL    HW2 1595   0.721   0.606   2.179
  345SOL     OW 1596   1.657   0.604   3.068
  345SOL    HW1 1597   1.619   0.535   3.130
  345SOL    HW2 1598   1.739   0.568   3.024
  346SOL     OW 1599   0.252   1.564   3.606
  346SOL    HW1 1600   0.222   1.621   3.682
  346SOL    HW2 1601   0.245   1.467   3.632
  347SOL     OW 1602   0.671   0.464   3.131
  347SOL    HW1 1603   0.637   0.375   3.101
  347SOL    HW2 1604   0.697   0.518   3.051
  348SOL     OW 1605   0.930   1.678   3.327
  348SOL    HW1 1606   0.906   1.660   3.232
  348SOL    HW2 1607   0.960   1.772   3.337
  349SOL     OW 1608   0.473   0.500   2.053
  349SOL    HW1 1609   0.534   0.580   2.057
  349SOL    HW2 1610   0.378   0.531   2.060
  350SOL     OW 1611   0.159   1.137   3.328
  350SOL    HW1 1612   0.181   1.076   3.404
  350SOL    HW2 1613   0.169   1.088   3.242
  351SOL     OW 1614   1.347   1.059   3.096
  351SOL    HW1 1615   1.371   0.996   3.022
  351SOL    HW2 1616   1.257   1.099   3.078
  352SOL     OW 1617   1.302   0.855   2.171
  352SOL    HW1 1618   1.216   0.824   2.213
  352SOL    HW2 1619   1.298   0.841   2.072
  353SOL     OW 1620   1.759   1.747   3.016
  353SOL    HW1 1621   1.820   1.777   2.943
  353SOL    HW2 1622   1.721   1.658   2.994
  354SOL     OW 1623   1.252   1.731   2.990
  354SOL    HW1 1624   1.336   1.736   2.936
  354SOL    HW2 1625   1.229   1.635   3.008
  355SOL     OW 1626   0.083   1.258   2.884
  355SOL    HW1 1627   0.078   1.257   2.984
  355SOL    HW2 1628   0.000   1.217   2.846
  356SOL     OW 1629   0.688   1.662   3.578
  356SOL    HW1 1630   0.632   1.743   3.587
  356SOL    HW2 1631   0.740   1.666   3.492
  357SOL     OW 1632   0.130   1.794   3.713
  357SOL    HW1 1633   0.089   1.720   3.766
  357SOL    HW2 1634   0.194   1.845   3.771
  358SOL     OW 1635   1.280   0.927   2.534
  358SOL    HW1 1636   1.340   0.846   2.536
  358SOL    HW2 1637   1.320   0.996   2.474
  359SOL     OW 1638   0.830   1.273   3.284
  359SOL    HW1 1639   0.825   1.306   3.379
  359SOL    HW2 1640   0.744   1.292   3.238
  360SOL     OW 1641   1.650   1.720   3.256
  360SOL    HW1 1642   1.703   1.730   3.172
  360SOL    HW2 1643   1.623   1.810   3.290
  361SOL     OW 1644   1.841   0.175   2.825
  361SOL    HW1 1645   1.880   0.090   2.789
  361SOL    HW2 1646   1.743   0.177   2.806
  362SOL     OW 1647   0.263   0.326   2.582
  362SOL    HW1 1648   0.184   0.377   2.548
  362SOL    HW2 1649   0.254   0.311   2.680
  363SOL     OW 1650   1.194   1.612   1.893
  363SOL    HW1 1651   1.200   1.519   1.930
  363SOL    HW2 1652   1.135   1.612   1.813
  364SOL     OW 1653   0.822   1.002   3.234
  364SOL    HW1 1654   0.862   1.001   3.142
  364SOL    HW2 1655   0.832   1.094   3.274
  365SOL     OW 1656   0.916   0.910   2.153
  365SOL    HW1 1657   0.979   0.948   2.085
  365SOL    HW2 1658   0.956   0.827   2.192
  366SOL     OW 1659   0.372   1.288   3.352
  366SOL    HW1 1660   0.359   1.381   3.318
  366SOL    HW2 1661   0.288   1.236   3.339
  367SOL     OW 1662   1.614   1.292   3.151
  367SOL    HW1 1663   1.674   1.295   3.231
  367SOL    HW2 1664   1.539   1.356   3.164
  368SOL     OW 1665   1.039   1.098   2.558
  368SOL    HW1 1666   0.969   1.051   2.612
  368SOL    HW2 1667   1.098   1.030   2.515
  369SOL     OW 1668   1.014   0.236   2.833
  369SOL    HW1 1669   1.006   0.200   2.740
  369SOL    HW2 1670   1.012   0.160   2.898
  370SOL     OW 1671   0.590   1.487   2.353
  370SOL    HW1 1672   0.632   1.429   2.283
  370SOL    HW2 1673   0.546   1.566   2.309
  371SOL     OW 1674   1.709   0.385   3.243
  371SOL    HW1 1675   1.782   0.454   3.247
  371SOL    HW2 1676   1.737   0.310   3.184
  372SOL     OW 1677   0.255   1.348   2.152
  372SOL    HW1 1678   0.159   1.349   2.125
  372SOL    HW2 1679   0.267   1.401   2.236
  373SOL     OW 1680   0.105   1.013   3.588
  373SOL    HW1 1681   0.028   0.980   3.642
  373SOL    HW2 1682   0.190   0.983   3.630
  374SOL     OW 1683   0.672   0.203   3.351
  374SOL    HW1 1684   0.762   0.187   3.311
  374SOL    HW2 1685   0.680   0.208   3.450
  375SOL     OW 1686   0.075   0.345   1.895
  375SOL    HW1 1687  -0.017   0.317   1.866
  375SOL    HW2 1688   0.106   0.422   1.839
  376SOL     OW 1689   1.440   0.856   3.260
  376SOL    HW1 1690   1.383   0.908   3.197
  376SOL    HW2 1691   1.536   0.868   3.236
  377SOL     OW 1692   0.072   0.166   2.180
  377SOL    HW1 1693   0.055   0.249   2.126
  377SOL    HW2 1694   0.162   0.129   2.158
  378SOL     OW 1695   0.613   0.842   3.293
  378SOL    HW1 1696   0.669   0.923   3.276
  378SOL    HW2 1697   0.672   0.762   3.296
  379SOL     OW 1698   1.493   1.767   2.821
  379SOL    HW1 1699   1.526   1.831   2.752
  379SOL    HW2 1700   1.559   1.761   2.896
  380SOL     OW 1701   0.716   0.565   3.570
  380SOL    HW1 1702   0.735   0.630   3.644
  380SOL    HW2 1703   0.776   0.485   3.579
  381SOL     OW 1704   1.450   1.220   3.495
  381SOL    HW1 1705   1.441   1.210   3.594
  381SOL    HW2 1706   1.546   1.213   3.469
  382SOL     OW 1707   0.390   1.741   3.422
  382SOL    HW1 1708   0.299   1.782   3.420
  382SOL    HW2 1709   0.383   1.647   3.454
  383SOL     OW 1710   1.674   0.883   3.116
  383SOL    HW1 1711   1.647   0.794   3.079
  383SOL    HW2 1712   1.675   0.951   3.043
  384SOL     OW 1713   1.225   0.325   2.311
  384SOL    HW1 1714   1.290   0.251   2.300
  384SOL    HW2 1715   1.245   0.375   2.395
  385SOL     OW 1716   0.594   0.745   2.514
  385SOL    HW1 1717   0.644   0.830   2.495
  385SOL    HW2 1718   0.506   0.747   2.466
  386SOL     OW 1719   1.777   0.342   3.504
  386SOL    HW1 1720   1.760   0.373   3.410
  386SOL    HW2 1721   1.693   0.305   3.542
  387SOL     OW 1722   1.730   0.934   3.379
  387SOL    HW1 1723   1.768   1.025   3.394
  387SOL    HW2 1724   1.722   0.917   3.280
  388SOL     OW 1725   0.859   1.374   1.878
  388SOL    HW1 1726   0.813   1.389   1.966
  388SOL    HW2 1727   0.903   1.459   1.848
  389SOL     OW 1728   0.661   1.790   2.815
  389SOL    HW1 1729   0.615   1.878   2.802
  389SOL    HW2 1730   0.760   1.802   2.808
  390SOL     OW 1731   0.859   0.956   2.723
  390SOL    HW1 1732   0.913   0.887   2.771
  390SOL    HW2 1733   0.827   1.025   2.789
  391SOL     OW 1734   1.083   0.984   1.949
  391SOL    HW1 1735   1.060   1.037   1.867
  391SOL    HW2 1736   1.164   0.928   1.930
  392SOL     OW 1737   1.861   1.569   2.713
  392SOL    HW1 1738   1.790   1.557   2.643
  392SOL    HW2 1739   1.862   1.490   2.773
  393SOL     OW 1740   0.221   1.314   3.706
  393SOL    HW1 1741   0.156   1.241   3.685
  393SOL    HW2 1742   0.225   1.328   3.804
  394SOL     OW 1743   0.079   1.240   2.515
  394SOL    HW1 1744   0.078   1.193   2.603
  394SOL    HW2 1745   0.161   1.212   2.464
  395SOL     OW 1746   0.672   1.391   3.486
  395SOL    HW1 1747   0.594   1.341   3.524
  395SOL    HW2 1748   0.669   1.486   3.517
  396SOL     OW 1749   1.824   0.192   3.089
  396SOL    HW1 1750   1.820   0.102   3.133
  396SOL    HW2 1751   1.827   0.181   2.990
  397SOL     OW 1752   0.428   0.424   2.382
  397SOL    HW1 1753   0.458   0.352   2.320
  397SOL    HW2 1754   0.389   0.384   2.465
  398SOL     OW 1755   1.705   1.487   2.966
  398SOL    HW1 1756   1.612   1.462   2.939
  398SOL    HW2 1757   1.731   1.437   3.048
  399SOL     OW 1758   0.317   0.547   3.142
  399SOL    HW1 1759   0.355   0.488   3.214
  399SOL    HW2 1760   0.357   0.521   3.054
  400SOL     OW 1761   0.812   1.586   2.549
  400SOL    HW1 1762   0.844   1.596   2.455
  400SOL    HW2 1763   0.733   1.524   2.551
  401SOL     OW 1764   1.424   0.214   2.974
  401SOL    HW1 1765   1.476   0.149   3.029
  401SOL    HW2 1766   1.375   0.277   3.035
  402SOL     OW 1767   1.001   0.034   3.016
  402SOL    HW1 1768   0.938  -0.038   2.985
  402SOL    HW2 1769   1.094  -0.002   3.016
  403SOL     OW 1770   0.770   1.330   2.163
  403SOL    HW1 1771   0.724   1.243   2.180
  403SOL    HW2 1772   0.861   1.327   2.204
  404SOL     OW 1773   0.618   1.567   3.146
  404SOL    HW1 1774   0.613   1.649   3.203
  404SOL    HW2 1775   0.707   1.564   3.101
  405SOL     OW 1776   1.352   0.052   2.030
  405SOL    HW1 1777   1.387   0.011   1.946
  405SOL    HW2 1778   1.262   0.014   2.050
  406SOL     OW 1779   1.300   0.453   2.553
  406SOL    HW1 1780   1.241   0.533   2.557
  406SOL    HW2 1781   1.315   0.418   2.646
  407SOL     OW 1782   1.593   0.221   2.744
  407SOL    HW1 1783   1.509   0.220   2.798
  407SOL    HW2 1784   1.595   0.304   2.688
  408SOL     OW 1785   0.039   1.077   2.162
  408SOL    HW1 1786   0.138   1.066   2.153
  408SOL    HW2 1787  -0.001   0.991   2.194
  409SOL     OW 1788   0.875   1.646   2.199
  409SOL    HW1 1789   0.798   1.611   2.145
  409SOL    HW2 1790   0.843   1.717   2.261
  410SOL     OW 1791   0.230   0.628   3.837
  410SOL    HW1 1792   0.137   0.626   3.874
  410SOL    HW2 1793   0.231   0.589   3.745
  411SOL     OW 1794   0.225   0.275   4.720
  411SOL    HW1 1795   0.260   0.258   4.812
  411SOL    HW2 1796   0.137   0.230   4.708
  412SOL     OW 1797   0.019   0.368   4.371
  412SOL    HW1 1798  -0.063   0.411   4.410
  412SOL    HW2 1799  -0.009   0.295   4.308
  413SOL     OW 1800   0.569   1.275   4.889
  413SOL    HW1 1801   0.476   1.268   4.852
  413SOL    HW2 1802   0.580   1.364   4.933
  414SOL     OW 1803   1.555   1.511   4.427
  414SOL    HW1 1804   1.498   1.495   4.508
  414SOL    HW2 1805   1.496   1.521   4.347
  415SOL     OW 1806   1.135   0.703   4.441
  415SOL    HW1 1807   1.192   0.781   4.416
  415SOL    HW2 1808   1.075   0.729   4.517
  416SOL     OW 1809   1.755   0.607   3.955
  416SOL    HW1 1810   1.743   0.594   3.856
  416SOL    HW2 1811   1.725   0.526   4.004
  417SOL     OW 1812   0.768   1.144   4.747
  417SOL    HW1 1813   0.690   1.161   4.807
  417SOL    HW2 1814   0.802   1.231   4.711
  418SOL     OW 1815   0.685   1.012   4.389
  418SOL    HW1 1816   0.754   0.996   4.459
  418SOL    HW2 1817   0.612   1.069   4.427
  419SOL     OW 1818   0.335   1.435   4.785
  419SOL    HW1 1819   0.257   1.404   4.732
  419SOL    HW2 1820   0.393   1.493   4.728
  420SOL     OW 1821   1.603   0.447   4.461
  420SOL    HW1 1822   1.529   0.493   4.411
  420SOL    HW2 1823   1.654   0.515   4.514
  421SOL     OW 1824   0.231   1.713   4.207
  421SOL    HW1 1825   0.265   1.790   4.261
  421SOL    HW2 1826   0.275   1.713   4.117
  422SOL     OW 1827   0.230   1.434   4.262
  422SOL    HW1 1828   0.204   1.530   4.262
  422SOL    HW2 1829   0.159   1.380   4.307
  423SOL     OW 1830   0.240   1.091   4.610
  423SOL    HW1 1831   0.254   1.007   4.662
  423SOL    HW2 1832   0.185   1.155   4.665
  424SOL     OW 1833   0.620   1.786   5.163
  424SOL    HW1 1834   0.528   1.769   5.198
  424SOL    HW2 1835   0.648   1.878   5.189
  425SOL     OW 1836   0.606   0.964   3.847
  425SOL    HW1 1837   0.613   1.048   3.793
  425SOL    HW2 1838   0.652   0.977   3.935
  426SOL     OW 1839   0.122   0.643   4.287
  426SOL    HW1 1840   0.077   0.555   4.304
  426SOL    HW2 1841   0.121   0.697   4.371
  427SOL     OW 1842   1.842   1.767   4.083
  427SOL    HW1 1843   1.896   1.738   4.163
  427SOL    HW2 1844   1.872   1.857   4.054
  428SOL     OW 1845   0.027   1.596   3.841
  428SOL    HW1 1846   0.008   1.500   3.862
  428SOL    HW2 1847  -0.006   1.654   3.916
  429SOL     OW 1848   1.689   0.922   4.336
  429SOL    HW1 1849   1.784   0.893   4.344
  429SOL    HW2 1850   1.681   0.987   4.261
  430SOL     OW 1851   1.641   1.108   4.156
  430SOL    HW1 1852   1.727   1.110   4.104
  430SOL    HW2 1853   1.655   1.155   4.244
  431SOL     OW 1854   0.613   1.365   4.450
  431SOL    HW1 1855   0.564   1.278   4.459
  431SOL    HW2 1856   0.590   1.408   4.363
  432SOL     OW 1857   0.809   0.004   4.226
  432SOL    HW1 1858   0.849   0.095   4.217
  432SOL    HW2 1859   0.709   0.012   4.232
  433SOL     OW 1860   1.525   0.999   3.914
  433SOL    HW1 1861   1.462   0.923   3.927
  433SOL    HW2 1862   1.573   1.017   4.000
  434SOL     OW 1863   1.466   1.417   4.677
  434SOL    HW1 1864   1.407   1.423   4.757
  434SOL    HW2 1865   1.451   1.329   4.631
  435SOL     OW 1866   1.667   1.714   4.296
  435SOL    HW1 1867   1.626   1.691   4.208
  435SOL    HW2 1868   1.649   1.640   4.361
  436SOL     OW 1869   0.598   0.729   3.994
  436SOL    HW1 1870   0.622   0.798   3.926
  436SOL    HW2 1871   0.520   0.762   4.048
  437SOL     OW 1872   1.281   0.345   4.668
  437SOL    HW1 1873   1.195   0.295   4.655
  437SOL    HW2 1874   1.343   0.291   4.724
  438SOL     OW 1875   1.576   1.662   4.031
  438SOL    HW1 1876   1.665   1.708   4.034
  438SOL    HW2 1877   1.555   1.638   3.936
  439SOL     OW 1878   0.991   0.410   4.966
  439SOL    HW1 1879   0.914   0.444   5.020
  439SOL    HW2 1880   0.957   0.359   4.887
  440SOL     OW 1881   1.041   0.701   4.153
  440SOL    HW1 1882   1.067   0.697   4.249
  440SOL    HW2 1883   0.956   0.650   4.139
  441SOL     OW 1884   0.076   0.811   4.513
  441SOL    HW1 1885   0.175   0.799   4.522
  441SOL    HW2 1886   0.052   0.906   4.534
  442SOL     OW 1887   0.130   1.821   5.295
  442SOL    HW1 1888   0.120   1.806   5.394
  442SOL    HW2 1889   0.044   1.857   5.259
  443SOL     OW 1890   0.865   0.348   3.919
  443SOL    HW1 1891   0.924   0.411   3.870
  443SOL    HW2 1892   0.884   0.254   3.890
  444SOL     OW 1893   1.362   1.144   4.269
  444SOL    HW1 1894   1.445   1.115   4.221
  444SOL    HW2 1895   1.313   1.211   4.213
  445SOL     OW 1896   0.550   0.196   4.609
  445SOL    HW1 1897   0.545   0.191   4.709
  445SOL    HW2 1898   0.552   0.292   4.580
  446SOL     OW 1899   1.008   1.456   4.201
  446SOL    HW1 1900   0.962   1.528   4.149
  446SOL    HW2 1901   1.004   1.476   4.299
  447SOL     OW 1902   0.351   1.801   4.577
  447SOL    HW1 1903   0.401   1.715   4.583
  447SOL    HW2 1904   0.416   1.878   4.574
  448SOL     OW 1905   1.795   1.066   4.597
  448SOL    HW1 1906   1.733   1.051   4.521
  448SOL    HW2 1907   1.743   1.077   4.682
  449SOL     OW 1908   0.321   0.943   3.966
  449SOL    HW1 1909   0.403   0.982   3.924
  449SOL    HW2 1910   0.294   0.861   3.917
  450SOL     OW 1911   1.458   0.735   4.452
  450SOL    HW1 1912   1.453   0.670   4.527
  450SOL    HW2 1913   1.538   0.794   4.465
  451SOL     OW 1914   1.111   1.776   3.961
  451SOL    HW1 1915   1.051   1.714   4.011
  451SOL    HW2 1916   1.142   1.732   3.876
  452SOL     OW 1917   1.632   1.377   3.805
  452SOL    HW1 1918   1.600   1.471   3.795
  452SOL    HW2 1919   1.556   1.314   3.793
  453SOL     OW 1920   0.464   1.743   4.047
  453SOL    HW1 1921   0.497   1.782   4.133
  453SOL    HW2 1922   0.540   1.736   3.982
  454SOL     OW 1923   1.400   0.107   4.150
  454SOL    HW1 1924   1.376   0.070   4.060
  454SOL    HW2 1925   1.499   0.123   4.154
  455SOL     OW 1926   0.249   1.785   4.965
  455SOL    HW1 1927   0.306   1.720   5.015
  455SOL    HW2 1928   0.233   1.752   4.872
  456SOL     OW 1929   0.940   1.698   4.628
  456SOL    HW1 1930   1.020   1.641   4.649
  456SOL    HW2 1931   0.891   1.658   4.551
  457SOL     OW 1932   0.382   0.700   4.204
  457SOL    HW1 1933   0.427   0.610   4.201
  457SOL    HW2 1934   0.288   0.689   4.237
  458SOL     OW 1935   0.614   0.122   3.841
  458SOL    HW1 1936   0.712   0.100   3.848
  458SOL    HW2 1937   0.583   0.105   3.748
  459SOL     OW 1938   0.803   1.402   4.648
  459SOL    HW1 1939   0.893   1.416   4.606
  459SOL    HW2 1940   0.732   1.404   4.577
  460SOL     OW 1941   0.922   0.503   4.623
  460SOL    HW1 1942   0.897   0.494   4.527
  460SOL    HW2 1943   0.970   0.421   4.654
  461SOL     OW 1944   0.539   0.064   4.236
  461SOL    HW1 1945   0.458   0.065   4.294
  461SOL    HW2 1946   0.542   0.147   4.181
  462SOL     OW 1947   1.434   1.188   3.765
  462SOL    HW1 1948   1.466   1.112   3.822
  462SOL    HW2 1949   1.342   1.215   3.795
  463SOL     OW 1950   0.297   0.035   3.895
  463SOL    HW1 1951   0.346   0.119   3.874
  463SOL    HW2 1952   0.359  -0.030   3.940
  464SOL     OW 1953   0.935   0.236   4.204
  464SOL    HW1 1954   0.887   0.277   4.126
  464SOL    HW2 1955   1.034   0.234   4.185
  465SOL     OW 1956   1.227   1.570   4.517
  465SOL    HW1 1957   1.248   1.644   4.452
  465SOL    HW2 1958   1.295   1.570   4.590
  466SOL     OW 1959   0.459   1.152   4.465
  466SOL    HW1 1960   0.388   1.125   4.530
  466SOL    HW2 1961   0.433   1.124   4.372
  467SOL     OW 1962   1.271   1.797   4.315
  467SOL    HW1 1963   1.315   1.861   4.251
  467SOL    HW2 1964   1.221   1.849   4.385
  468SOL     OW 1965   1.032   0.549   3.740
  468SOL    HW1 1966   0.991   0.631   3.701
  468SOL    HW2 1967   1.096   0.575   3.813
  469SOL     OW 1968   0.561   0.222   4.871
  469SOL    HW1 1969   0.599   0.138   4.908
  469SOL    HW2 1970   0.473   0.241   4.915
  470SOL     OW 1971   0.866   0.454   4.366
  470SOL    HW1 1972   0.834   0.526   4.304
  470SOL    HW2 1973   0.890   0.373   4.313
  471SOL     OW 1974   1.017   0.039   4.477
  471SOL    HW1 1975   0.945   0.044   4.408
  471SOL    HW2 1976   0.993  -0.030   4.546
  472SOL     OW 1977   1.429   1.173   4.591
  472SOL    HW1 1978   1.374   1.089   4.584
  472SOL    HW2 1979   1.455   1.202   4.499
  473SOL     OW 1980   1.466   0.590   4.716
  473SOL    HW1 1981   1.436   0.495   4.723
  473SOL    HW2 1982   1.539   0.606   4.782
  474SOL     OW 1983   1.857   0.833   4.101
  474SOL    HW1 1984   1.899   0.769   4.165
  474SOL    HW2 1985   1.819   0.782   4.023
  475SOL     OW 1986   0.488   1.385   3.898
  475SOL    HW1 1987   0.401   1.370   3.945
  475SOL    HW2 1988   0.471   1.411   3.803
  476SOL     OW 1989   1.664   1.280   4.381
  476SOL    HW1 1990   1.763   1.288   4.395
  476SOL    HW2 1991   1.619   1.364   4.412
  477SOL     OW 1992   1.390   0.575   3.802
  477SOL    HW1 1993   1.336   0.554   3.883
  477SOL    HW2 1994   1.481   0.534   3.811
  478SOL     OW 1995   0.527   0.256   4.052
  478SOL    HW1 1996   0.554   0.197   3.977
  478SOL    HW2 1997   0.527   0.351   4.021
  479SOL     OW 1998   1.111   1.195   4.824
  479SOL    HW1 1999   1.071   1.239   4.905
  479SOL    HW2 2000   1.070   1.232   4.741
  480SOL     OW 2001   1.638   1.099   4.803
  480SOL    HW1 2002   1.643   1.180   4.862
  480SOL    HW2 2003   1.552   1.101   4.752
  481SOL     OW 2004   0.705   1.050   4.092
  481SOL    HW1 2005   0.691   1.057   4.191
  481SOL    HW2 2006   0.789   0.999   4.074
  482SOL     OW 2007   0.410   0.813   4.975
  482SOL    HW1 2008   0.496   0.825   5.025
  482SOL    HW2 2009   0.368   0.726   5.002
  483SOL     OW 2010   1.274   0.386   4.986
  483SOL    HW1 2011   1.295   0.460   5.050
  483SOL    HW2 2012   1.185   0.403   4.943
  484SOL     OW 2013   0.367   1.100   4.225
  484SOL    HW1 2014   0.360   1.183   4.169
  484SOL    HW2 2015   0.371   1.020   4.165
  485SOL     OW 2016   0.566   0.537   4.589
  485SOL    HW1 2017   0.578   0.603   4.515
  485SOL    HW2 2018   0.612   0.571   4.672
  486SOL     OW 2019   1.252   1.348   4.112
  486SOL    HW1 2020   1.302   1.425   4.152
  486SOL    HW2 2021   1.157   1.350   4.144
  487SOL     OW 2022   1.272   1.445   4.866
  487SOL    HW1 2023   1.319   1.458   4.953
  487SOL    HW2 2024   1.206   1.371   4.875
  488SOL     OW 2025   1.582   0.639   4.196
  488SOL    HW1 2026   1.551   0.700   4.269
  488SOL    HW2 2027   1.632   0.691   4.127
  489SOL     OW 2028   0.354   1.510   5.053
  489SOL    HW1 2029   0.333   1.466   4.966
  489SOL    HW2 2030   0.451   1.536   5.056
  490SOL     OW 2031   0.573   0.870   4.753
  490SOL    HW1 2032   0.617   0.959   4.744
  490SOL    HW2 2033   0.510   0.870   4.830
  491SOL     OW 2034   1.360   0.862   4.769
  491SOL    HW1 2035   1.285   0.862   4.703
  491SOL    HW2 2036   1.397   0.770   4.778
  492SOL     OW 2037   1.209   0.525   3.999
  492SOL    HW1 2038   1.222   0.441   4.053
  492SOL    HW2 2039   1.180   0.599   4.059
  493SOL     OW 2040   0.037   1.310   5.006
  493SOL    HW1 2041   0.090   1.261   5.074
  493SOL    HW2 2042   0.059   1.408   5.011
  494SOL     OW 2043   0.732   0.634   4.788
  494SOL    HW1 2044   0.791   0.608   4.712
  494SOL    HW2 2045   0.704   0.730   4.777
  495SOL     OW 2046   0.307   0.063   4.342
  495SOL    HW1 2047   0.296   0.157   4.375
  495SOL    HW2 2048   0.302   0.000   4.419
  496SOL     OW 2049   1.622   0.367   4.098
  496SOL    HW1 2050   1.624   0.291   4.162
  496SOL    HW2 2051   1.574   0.444   4.138
  497SOL     OW 2052   1.023   0.766   4.690
  497SOL    HW1 2053   1.038   0.787   4.786
  497SOL    HW2 2054   0.993   0.671   4.681
  498SOL     OW 2055   1.540   0.274   3.849
  498SOL    HW1 2056   1.479   0.199   3.872
  498SOL    HW2 2057   1.562   0.326   3.932
  499SOL     OW 2058   1.303   0.838   3.766
  499SOL    HW1 2059   1.337   0.745   3.781
  499SOL    HW2 2060   1.321   0.865   3.671
  500SOL     OW 2061   1.068   1.333   4.573
  500SOL    HW1 2062   1.075   1.249   4.518
  500SOL    HW2 2063   1.130   1.402   4.537
  501SOL     OW 2064   0.319   0.810   4.673
  501SOL    HW1 2065   0.412   0.846   4.678
  501SOL    HW2 2066   0.313   0.725   4.725
  502SOL     OW 2067   0.339   0.509   4.730
  502SOL    HW1 2068   0.287   0.426   4.713
  502SOL    HW2 2069   0.416   0.514   4.666
  503SOL     OW 2070   1.160   0.207   5.201
  503SOL    HW1 2071   1.160   0.271   5.278
  503SOL    HW2 2072   1.188   0.255   5.118
  504SOL     OW 2073   0.008   1.326   3.924
  504SOL    HW1 2074  -0.085   1.347   3.893
  504SOL    HW2 2075   0.018   1.227   3.937
  505SOL     OW 2076   0.088   1.801   4.651
  505SOL    HW1 2077   0.046   1.715   4.624
  505SOL    HW2 2078   0.182   1.804   4.617
  506SOL     OW 2079   0.504   1.568   4.634
  506SOL    HW1 2080   0.570   1.642   4.643
  506SOL    HW2 2081   0.548   1.489   4.592
  507SOL     OW 2082   1.002   0.796   4.962
  507SOL    HW1 2083   1.043   0.764   5.048
  507SOL    HW2 2084   0.906   0.769   4.959
  508SOL     OW 2085   0.815   0.572   4.049
  508SOL    HW1 2086   0.822   0.483   4.003
  508SOL    HW2 2087   0.721   0.606   4.041
  509SOL     OW 2088   1.657   0.604   4.930
  509SOL    HW1 2089   1.619   0.535   4.992
  509SOL    HW2 2090   1.739   0.568   4.886
  510SOL     OW 2091   0.671   0.464   4.993
  510SOL    HW1 2092   0.637   0.375   4.963
  510SOL    HW2 2093   0.697   0.518   4.913
  511SOL     OW 2094   0.930   1.678   5.189
  511SOL    HW1 2095   0.906   1.660   5.094
  511SOL    HW2 2096   0.960   1.772   5.199
  512SOL     OW 2097   0.473   0.500   3.915
  512SOL    HW1 2098   0.534   0.580   3.919
  512SOL    HW2 2099   0.378   0.531   3.922
  513SOL     OW 2100   1.347   1.059   4.958
  513SOL    HW1 2101   1.371   0.996   4.884
  513SOL    HW2 2102   1.257   1.099   4.940
  514SOL     OW 2103   1.302   0.855   4.033
  514SOL    HW1 2104   1.216   0.824   4.075
  514SOL    HW2 2105   1.298   0.841   3.934
  515SOL     OW 2106   1.759   1.747   4.878
  515SOL    HW1 2107   1.820   1.777   4.805
  515SOL    HW2 2108   1.721   1.658   4.856
  516SOL     OW 2109   1.252   1.731   4.852
  516SOL    HW1 2110   1.336   1.736   4.798
  516SOL    HW2 2111   1.229   1.635   4.870
  517SOL     OW 2112   0.083   1.258   4.746
  517SOL    HW1 2113   0.078   1.257   4.846
  517SOL    HW2 2114   0.000   1.217   4.708
  518SOL     OW 2115   1.726   0.135   4.247
  518SOL    HW1 2116   1.799   0.118   4.180
  518SOL    HW2 2117   1.695   0.048   4.285
  519SOL     OW 2118   1.388   1.573   4.201
  519SOL    HW1 2119   1.455   1.585   4.127
  519SOL    HW2 2120   1.348   1.662   4.224
  520SOL     OW 2121   1.280   0.927   4.396
  520SOL    HW1 2122   1.340   0.846   4.398
  520SOL    HW2 2123   1.320   0.996   4.336
  521SOL     OW 2124   0.672   1.616   3.878
  521SOL    HW1 2125   0.681   1.626   3.779
  521SOL    HW2 2126   0.632   1.527   3.899
  522SOL     OW 2127   1.650   1.720   5.118
  522SOL    HW1 2128   1.703   1.730   5.034
  522SOL    HW2 2129   1.623   1.810   5.152
  523SOL     OW 2130   1.841   0.175   4.687
  523SOL    HW1 2131   1.880   0.090   4.651
  523SOL    HW2 2132   1.743   0.177   4.668
  524SOL     OW 2133   0.263   0.326   4.444
  524SOL    HW1 2134   0.184   0.377   4.410
  524SOL    HW2 2135   0.254   0.311   4.542
  525SOL     OW 2136   1.194   1.612   3.755
  525SOL    HW1 2137   1.200   1.519   3.792
  525SOL    HW2 2138   1.135   1.612   3.675
  526SOL     OW 2139   0.822   1.002   5.096
  526SOL    HW1 2140   0.862   1.001   5.004
  526SOL    HW2 2141   0.832   1.094   5.136
  527SOL     OW 2142   0.916   0.910   4.015
  527SOL    HW1 2143   0.979   0.948   3.947
  527SOL    HW2 2144   0.956   0.827   4.054
  528SOL     OW 2145   1.504   1.607   3.768
  528SOL    HW1 2146   1.412   1.644   3.775
  528SOL    HW2 2147   1.542   1.627   3.678
  529SOL     OW 2148   1.039   1.098   4.420
  529SOL    HW1 2149   0.969   1.051   4.474
  529SOL    HW2 2150   1.098   1.030   4.377
  530SOL     OW 2151   1.014   0.236   4.695
  530SOL    HW1 2152   1.006   0.200   4.602
  530SOL    HW2 2153   1.012   0.160   4.760
  531SOL     OW 2154   0.590   1.487   4.215
  531SOL    HW1 2155   0.632   1.429   4.145
  531SOL    HW2 2156   0.546   1.566   4.171
  532SOL     OW 2157   1.709   0.385   5.105
  532SOL    HW1 2158   1.782   0.454   5.109
  532SOL    HW2 2159   1.737   0.310   5.046
  533SOL     OW 2160   0.255   1.348   4.014
  533SOL    HW1 2161   0.159   1.349   3.987
  533SOL    HW2 2162   0.267   1.401   4.098
  534SOL     OW 2163   0.075   0.345   3.757
  534SOL    HW1 2164  -0.017   0.317   3.728
  534SOL    HW2 2165   0.106   0.422   3.701
  535SOL     OW 2166   0.072   0.166   4.042
  535SOL    HW1 2167   0.055   0.249   3.988
  535SOL    HW2 2168   0.162   0.129   4.020
  536SOL     OW 2169   1.183   1.335   3.843
  536SOL    HW1 2170   1.084   1.324   3.845
  536SOL    HW2 2171   1.217   1.350   3.936
  537SOL     OW 2172   1.493   1.767   4.683
  537SOL    HW1 2173   1.526   1.831   4.614
  537SOL    HW2 2174   1.559   1.761   4.758
  538SOL     OW 2175   1.450   1.220   5.357
  538SOL    HW1 2176   1.441   1.210   5.456
  538SOL    HW2 2177   1.546   1.213   5.331
  539SOL     OW 2178   1.674   0.883   4.978
  539SOL    HW1 2179   1.647   0.794   4.941
  539SOL    HW2 2180   1.675   0.951   4.905
  540SOL     OW 2181   1.225   0.325   4.173
  540SOL    HW1 2182   1.290   0.251   4.162
  540SOL    HW2 2183   1.245   0.375   4.257
  541SOL     OW 2184   0.594   0.745   4.376
  541SOL    HW1 2185   0.644   0.830   4.357
  541SOL    HW2 2186   0.506   0.747   4.328
  542SOL     OW 2187   1.730   0.934   5.241
  542SOL    HW1 2188   1.768   1.025   5.256
  542SOL    HW2 2189   1.722   0.917   5.142
  543SOL     OW 2190   0.859   1.374   3.740
  543SOL    HW1 2191   0.813   1.389   3.828
  543SOL    HW2 2192   0.903   1.459   3.710
  544SOL     OW 2193   0.661   1.790   4.677
  544SOL    HW1 2194   0.615   1.878   4.664
  544SOL    HW2 2195   0.760   1.802   4.670
  545SOL     OW 2196   0.859   0.956   4.585
  545SOL    HW1 2197   0.913   0.887   4.633
  545SOL    HW2 2198   0.827   1.025   4.651
  546SOL     OW 2199   1.083   0.984   3.811
  546SOL    HW1 2200   1.060   1.037   3.729
  546SOL    HW2 2201   1.164   0.928   3.792
  547SOL     OW 2202   1.861   1.569   4.575
  547SOL    HW1 2203   1.790   1.557   4.505
  547SOL    HW2 2204   1.862   1.490   4.635
  548SOL     OW 2205   0.079   1.240   4.377
  548SOL    HW1 2206   0.078   1.193   4.465
  548SOL    HW2 2207   0.161   1.212   4.326
  549SOL     OW 2208   1.824   0.192   4.951
  549SOL    HW1 2209   1.820   0.102   4.995
  549SOL    HW2 2210   1.827   0.181   4.852
  550SOL     OW 2211   0.428   0.424   4.244
  550SOL    HW1 2212   0.458   0.352   4.182
  550SOL    HW2 2213   0.389   0.384   4.327
  551SOL     OW 2214   1.705   1.487   4.828
  551SOL    HW1 2215   1.612   1.462   4.801
  551SOL    HW2 2216   1.731   1.437   4.910
  552SOL     OW 2217   0.812   1.586   4.411
  552SOL    HW1 2218   0.844   1.596   4.317
  552SOL    HW2 2219   0.733   1.524   4.413
  553SOL     OW 2220   1.424   0.214   4.836
  553SOL    HW1 2221   1.476   0.149   4.891
  553SOL    HW2 2222   1.375   0.277   4.897
  554SOL     OW 2223   1.001   0.034   4.878
  554SOL    HW1 2224   0.938  -0.038   4.847
  554SOL    HW2 2225   1.094  -0.002   4.878
  555SOL     OW 2226   0.770   1.330   4.025
  555SOL    HW1 2227   0.724   1.243   4.042
  555SOL    HW2 2228   0.861   1.327   4.066
  556SOL     OW 2229   1.352   0.052   3.892
  556SOL    HW1 2230   1.387   0.011   3.808
  556SOL    HW2 2231   1.262   0.014   3.912
  557SOL     OW 2232   1.300   0.453   4.415
  557SOL    HW1 2233   1.241   0.533   4.419
  557SOL    HW2 2234   1.315   0.418   4.508
  558SOL     OW 2235   1.593   0.221   4.606
  558SOL    HW1 2236   1.509   0.220   4.660
  558SOL    HW2 2237   1.595   0.304   4.550
  559SOL     OW 2238   0.039   1.077   4.024
  559SOL    HW1 2239   0.138   1.066   4.015
  559SOL    HW2 2240  -0.001   0.991   4.056
  560SOL     OW 2241   0.875   1.646   4.061
  560SOL    HW1 2242   0.798   1.611   4.007
  560SOL    HW2 2243   0.843   1.717   4.123
  561SOL     OW 2244   0.230   2.490   0.113
  561SOL    HW1 2245   0.137   2.488   0.150
  561SOL    HW2 2246   0.231   2.451   0.021
  562SOL     OW 2247   0.225   2.137   0.996
  562SOL    HW1 2248   0.260   2.120   1.088
  562SOL    HW2 2249   0.137   2.092   0.984
  563SOL     OW 2250   0.019   2.230   0.647
  563SOL    HW1 2251  -0.063   2.273   0.686
  563SOL    HW2 2252  -0.009   2.157   0.584
  564SOL     OW 2253   0.569   3.137   1.165
  564SOL    HW1 2254   0.476   3.130   1.128
  564SOL    HW2 2255   0.580   3.226   1.209
  565SOL     OW 2256   1.555   3.373   0.703
  565SOL    HW1 2257   1.498   3.357   0.784
  565SOL    HW2 2258   1.496   3.383   0.623
  566SOL     OW 2259   1.135   2.565   0.717
  566SOL    HW1 2260   1.192   2.643   0.692
  566SOL    HW2 2261   1.075   2.591   0.793
  567SOL     OW 2262   1.755   2.469   0.231
  567SOL    HW1 2263   1.743   2.456   0.132
  567SOL    HW2 2264   1.725   2.388   0.280
  568SOL     OW 2265   0.768   3.006   1.023
  568SOL    HW1 2266   0.690   3.023   1.083
  568SOL    HW2 2267   0.802   3.093   0.987
  569SOL     OW 2268   0.850   2.660   1.823
  569SOL    HW1 2269   0.846   2.736   1.888
  569SOL    HW2 2270   0.872   2.696   1.732
  570SOL     OW 2271   0.685   2.874   0.665
  570SOL    HW1 2272   0.754   2.858   0.735
  570SOL    HW2 2273   0.612   2.931   0.703
  571SOL     OW 2274   0.686   3.023   1.803
  571SOL    HW1 2275   0.746   3.102   1.817
  571SOL    HW2 2276   0.600   3.054   1.762
  572SOL     OW 2277   0.335   3.297   1.061
  572SOL    HW1 2278   0.257   3.266   1.008
  572SOL    HW2 2279   0.393   3.355   1.004
  573SOL     OW 2280   1.460   3.367   1.339
  573SOL    HW1 2281   1.484   3.461   1.365
  573SOL    HW2 2282   1.444   3.313   1.421
  574SOL     OW 2283   1.603   2.309   0.737
  574SOL    HW1 2284   1.529   2.355   0.687
  574SOL    HW2 2285   1.654   2.377   0.790
  575SOL     OW 2286   0.231   3.575   0.483
  575SOL    HW1 2287   0.265   3.652   0.537
  575SOL    HW2 2288   0.275   3.575   0.393
  576SOL     OW 2289   1.127   3.203   1.690
  576SOL    HW1 2290   1.174   3.203   1.778
  576SOL    HW2 2291   1.079   3.116   1.679
  577SOL     OW 2292   0.230   3.296   0.538
  577SOL    HW1 2293   0.204   3.392   0.538
  577SOL    HW2 2294   0.159   3.242   0.583
  578SOL     OW 2295   0.240   2.953   0.886
  578SOL    HW1 2296   0.254   2.869   0.938
  578SOL    HW2 2297   0.185   3.017   0.941
  579SOL     OW 2298   0.620   3.648   1.439
  579SOL    HW1 2299   0.528   3.631   1.474
  579SOL    HW2 2300   0.648   3.740   1.465
  580SOL     OW 2301   0.606   2.826   0.123
  580SOL    HW1 2302   0.613   2.910   0.069
  580SOL    HW2 2303   0.652   2.839   0.211
  581SOL     OW 2304   1.594   1.976   1.480
  581SOL    HW1 2305   1.576   2.043   1.408
  581SOL    HW2 2306   1.591   2.022   1.569
  582SOL     OW 2307   0.122   2.505   0.563
  582SOL    HW1 2308   0.077   2.417   0.580
  582SOL    HW2 2309   0.121   2.559   0.647
  583SOL     OW 2310   1.842   3.629   0.359
  583SOL    HW1 2311   1.896   3.600   0.439
  583SOL    HW2 2312   1.872   3.719   0.330
  584SOL     OW 2313   0.027   3.458   0.117
  584SOL    HW1 2314   0.008   3.362   0.138
  584SOL    HW2 2315  -0.006   3.516   0.192
  585SOL     OW 2316   1.689   2.784   0.612
  585SOL    HW1 2317   1.784   2.755   0.620
  585SOL    HW2 2318   1.681   2.849   0.537
  586SOL     OW 2319   1.641   2.970   0.432
  586SOL    HW1 2320   1.727   2.972   0.380
  586SOL    HW2 2321   1.655   3.017   0.520
  587SOL     OW 2322   0.113   2.599   1.597
  587SOL    HW1 2323   0.201   2.586   1.642
  587SOL    HW2 2324   0.100   2.696   1.575
  588SOL     OW 2325   0.613   3.227   0.726
  588SOL    HW1 2326   0.564   3.140   0.735
  588SOL    HW2 2327   0.590   3.270   0.639
  589SOL     OW 2328   1.293   3.090   1.423
  589SOL    HW1 2329   1.330   3.017   1.365
  589SOL    HW2 2330   1.345   3.095   1.508
  590SOL     OW 2331   0.809   1.866   0.502
  590SOL    HW1 2332   0.849   1.957   0.493
  590SOL    HW2 2333   0.709   1.874   0.508
  591SOL     OW 2334   0.197   2.838   1.264
  591SOL    HW1 2335   0.286   2.793   1.250
  591SOL    HW2 2336   0.124   2.773   1.245
  592SOL     OW 2337   1.525   2.861   0.190
  592SOL    HW1 2338   1.462   2.785   0.203
  592SOL    HW2 2339   1.573   2.879   0.276
  593SOL     OW 2340   1.187   3.654   1.616
  593SOL    HW1 2341   1.211   3.714   1.540
  593SOL    HW2 2342   1.194   3.559   1.586
  594SOL     OW 2343   1.466   3.279   0.953
  594SOL    HW1 2344   1.407   3.285   1.033
  594SOL    HW2 2345   1.451   3.191   0.907
  595SOL     OW 2346   1.667   3.576   0.572
  595SOL    HW1 2347   1.626   3.553   0.484
  595SOL    HW2 2348   1.649   3.502   0.637
  596SOL     OW 2349   0.598   2.591   0.270
  596SOL    HW1 2350   0.622   2.660   0.202
  596SOL    HW2 2351   0.520   2.624   0.324
  597SOL     OW 2352   1.281   2.207   0.944
  597SOL    HW1 2353   1.195   2.157   0.931
  597SOL    HW2 2354   1.343   2.153   1.000
  598SOL     OW 2355   1.576   3.524   0.307
  598SOL    HW1 2356   1.665   3.570   0.310
  598SOL    HW2 2357   1.555   3.500   0.212
  599SOL     OW 2358   0.807   2.467   1.465
  599SOL    HW1 2359   0.760   2.464   1.554
  599SOL    HW2 2360   0.756   2.412   1.399
  600SOL     OW 2361   1.394   2.331   1.674
  600SOL    HW1 2362   1.374   2.374   1.762
  600SOL    HW2 2363   1.472   2.269   1.683
  601SOL     OW 2364   0.973   2.752   1.572
  601SOL    HW1 2365   1.019   2.668   1.543
  601SOL    HW2 2366   0.917   2.786   1.497
  602SOL     OW 2367   0.991   2.272   1.242
  602SOL    HW1 2368   0.914   2.306   1.296
  602SOL    HW2 2369   0.957   2.221   1.163
  603SOL     OW 2370   1.041   2.563   0.429
  603SOL    HW1 2371   1.067   2.559   0.525
  603SOL    HW2 2372   0.956   2.512   0.415
  604SOL     OW 2373   0.076   2.673   0.789
  604SOL    HW1 2374   0.175   2.661   0.798
  604SOL    HW2 2375   0.052   2.768   0.810
  605SOL     OW 2376   0.130   3.683   1.571
  605SOL    HW1 2377   0.120   3.668   1.670
  605SOL    HW2 2378   0.044   3.719   1.535
  606SOL     OW 2379   0.865   2.210   0.195
  606SOL    HW1 2380   0.924   2.273   0.146
  606SOL    HW2 2381   0.884   2.116   0.166
  607SOL     OW 2382   1.719   2.447   1.831
  607SOL    HW1 2383   1.693   2.536   1.795
  607SOL    HW2 2384   1.717   2.379   1.758
  608SOL     OW 2385   1.362   3.006   0.545
  608SOL    HW1 2386   1.445   2.977   0.497
  608SOL    HW2 2387   1.313   3.073   0.489
  609SOL     OW 2388   0.550   2.058   0.885
  609SOL    HW1 2389   0.545   2.053   0.985
  609SOL    HW2 2390   0.552   2.154   0.856
  610SOL     OW 2391   1.008   3.318   0.477
  610SOL    HW1 2392   0.962   3.390   0.425
  610SOL    HW2 2393   1.004   3.338   0.575
  611SOL     OW 2394   0.351   3.663   0.853
  611SOL    HW1 2395   0.401   3.577   0.859
  611SOL    HW2 2396   0.416   3.740   0.850
  612SOL     OW 2397   1.795   2.928   0.873
  612SOL    HW1 2398   1.733   2.913   0.797
  612SOL    HW2 2399   1.743   2.939   0.958
  613SOL     OW 2400   1.227   3.412   1.506
  613SOL    HW1 2401   1.233   3.335   1.570
  613SOL    HW2 2402   1.175   3.386   1.426
  614SOL     OW 2403   0.321   2.805   0.242
  614SOL    HW1 2404   0.403   2.844   0.200
  614SOL    HW2 2405   0.294   2.723   0.193
  615SOL     OW 2406   1.458   2.597   0.728
  615SOL    HW1 2407   1.453   2.532   0.803
  615SOL    HW2 2408   1.538   2.656   0.741
  616SOL     OW 2409   0.461   3.128   1.727
  616SOL    HW1 2410   0.411   3.129   1.641
  616SOL    HW2 2411   0.398   3.110   1.803
  617SOL     OW 2412   1.111   3.638   0.237
  617SOL    HW1 2413   1.051   3.576   0.287
  617SOL    HW2 2414   1.142   3.594   0.152
  618SOL     OW 2415   0.202   2.147   1.498
  618SOL    HW1 2416   0.122   2.207   1.485
  618SOL    HW2 2417   0.192   2.098   1.584
  619SOL     OW 2418   1.632   3.239   0.081
  619SOL    HW1 2419   1.600   3.333   0.071
  619SOL    HW2 2420   1.556   3.176   0.069
  620SOL     OW 2421   0.464   3.605   0.323
  620SOL    HW1 2422   0.497   3.644   0.409
  620SOL    HW2 2423   0.540   3.598   0.258
  621SOL     OW 2424   1.400   1.969   0.426
  621SOL    HW1 2425   1.376   1.932   0.336
  621SOL    HW2 2426   1.499   1.985   0.430
  622SOL     OW 2427   0.249   3.647   1.241
  622SOL    HW1 2428   0.306   3.582   1.291
  622SOL    HW2 2429   0.233   3.614   1.148
  623SOL     OW 2430   0.940   3.560   0.904
  623SOL    HW1 2431   1.020   3.503   0.925
  623SOL    HW2 2432   0.891   3.520   0.827
  624SOL     OW 2433   0.382   2.562   0.480
  624SOL    HW1 2434   0.427   2.472   0.477
  624SOL    HW2 2435   0.288   2.551   0.513
  625SOL     OW 2436   1.547   2.084   1.729
  625SOL    HW1 2437   1.542   2.121   1.821
  625SOL    HW2 2438   1.475   2.015   1.717
  626SOL     OW 2439   0.781   2.126   1.749
  626SOL    HW1 2440   0.848   2.065   1.792
  626SOL    HW2 2441   0.708   2.145   1.814
  627SOL     OW 2442   0.888   3.376   1.195
  627SOL    HW1 2443   0.865   3.351   1.101
  627SOL    HW2 2444   0.949   3.307   1.234
  628SOL     OW 2445   1.351   2.452   1.433
  628SOL    HW1 2446   1.379   2.409   1.518
  628SOL    HW2 2447   1.376   2.548   1.434
  629SOL     OW 2448   0.803   3.264   0.924
  629SOL    HW1 2449   0.893   3.278   0.882
  629SOL    HW2 2450   0.732   3.266   0.853
  630SOL     OW 2451   0.922   2.365   0.899
  630SOL    HW1 2452   0.897   2.356   0.803
  630SOL    HW2 2453   0.970   2.283   0.930
  631SOL     OW 2454   0.539   1.926   0.512
  631SOL    HW1 2455   0.458   1.927   0.570
  631SOL    HW2 2456   0.542   2.009   0.457
  632SOL     OW 2457   1.434   3.050   0.041
  632SOL    HW1 2458   1.466   2.974   0.098
  632SOL    HW2 2459   1.342   3.077   0.071
  633SOL     OW 2460   0.297   1.897   0.171
  633SOL    HW1 2461   0.346   1.981   0.150
  633SOL    HW2 2462   0.359   1.832   0.216
  634SOL     OW 2463   0.935   2.098   0.480
  634SOL    HW1 2464   0.887   2.139   0.402
  634SOL    HW2 2465   1.034   2.096   0.461
  635SOL     OW 2466   1.076   2.545   1.464
  635SOL    HW1 2467   0.996   2.484   1.467
  635SOL    HW2 2468   1.157   2.492   1.440
  636SOL     OW 2469   1.227   3.432   0.793
  636SOL    HW1 2470   1.248   3.506   0.728
  636SOL    HW2 2471   1.295   3.432   0.866
  637SOL     OW 2472   0.459   3.014   0.741
  637SOL    HW1 2473   0.388   2.987   0.806
  637SOL    HW2 2474   0.433   2.986   0.648
  638SOL     OW 2475   1.271   3.659   0.591
  638SOL    HW1 2476   1.315   3.723   0.527
  638SOL    HW2 2477   1.221   3.711   0.661
  639SOL     OW 2478   1.032   2.411   0.016
  639SOL    HW1 2479   0.991   2.493  -0.023
  639SOL    HW2 2480   1.096   2.437   0.089
  640SOL     OW 2481   0.078   2.418   1.386
  640SOL    HW1 2482   0.170   2.417   1.345
  640SOL    HW2 2483   0.072   2.492   1.453
  641SOL     OW 2484   0.561   2.084   1.147
  641SOL    HW1 2485   0.599   2.000   1.184
  641SOL    HW2 2486   0.473   2.103   1.191
  642SOL     OW 2487   0.866   2.316   0.642
  642SOL    HW1 2488   0.834   2.388   0.580
  642SOL    HW2 2489   0.890   2.235   0.589
  643SOL     OW 2490   1.017   1.901   0.753
  643SOL    HW1 2491   0.945   1.906   0.684
  643SOL    HW2 2492   0.993   1.832   0.822
  644SOL     OW 2493   1.429   3.035   0.867
  644SOL    HW1 2494   1.374   2.951   0.860
  644SOL    HW2 2495   1.455   3.064   0.775
  645SOL     OW 2496   1.466   2.452   0.992
  645SOL    HW1 2497   1.436   2.357   0.999
  645SOL    HW2 2498   1.539   2.468   1.058
  646SOL     OW 2499   1.857   2.695   0.377
  646SOL    HW1 2500   1.899   2.631   0.441
  646SOL    HW2 2501   1.819   2.644   0.299
  647SOL     OW 2502   0.488   3.247   0.174
  647SOL    HW1 2503   0.401   3.232   0.221
  647SOL    HW2 2504   0.471   3.273   0.079
  648SOL     OW 2505   1.664   3.142   0.657
  648SOL    HW1 2506   1.763   3.150   0.671
  648SOL    HW2 2507   1.619   3.226   0.688
  649SOL     OW 2508   1.390   2.437   0.078
  649SOL    HW1 2509   1.336   2.416   0.159
  649SOL    HW2 2510   1.481   2.396   0.087
  650SOL     OW 2511   0.527   2.118   0.328
  650SOL    HW1 2512   0.554   2.059   0.253
  650SOL    HW2 2513   0.527   2.213   0.297
  651SOL     OW 2514   1.754   3.085   1.588
  651SOL    HW1 2515   1.845   3.046   1.575
  651SOL    HW2 2516   1.762   3.181   1.612
  652SOL     OW 2517   1.064   3.209   1.340
  652SOL    HW1 2518   0.984   3.186   1.395
  652SOL    HW2 2519   1.147   3.183   1.389
  653SOL     OW 2520   1.592   3.491   1.625
  653SOL    HW1 2521   1.619   3.525   1.535
  653SOL    HW2 2522   1.671   3.453   1.671
  654SOL     OW 2523   1.111   3.057   1.100
  654SOL    HW1 2524   1.071   3.101   1.181
  654SOL    HW2 2525   1.070   3.094   1.017
  655SOL     OW 2526   1.638   2.961   1.079
  655SOL    HW1 2527   1.643   3.042   1.138
  655SOL    HW2 2528   1.552   2.963   1.028
  656SOL     OW 2529   0.915   1.951   1.402
  656SOL    HW1 2530   0.940   1.931   1.307
  656SOL    HW2 2531   0.987   2.007   1.444
  657SOL     OW 2532   0.705   2.912   0.368
  657SOL    HW1 2533   0.691   2.919   0.467
  657SOL    HW2 2534   0.789   2.861   0.350
  658SOL     OW 2535   0.410   2.675   1.251
  658SOL    HW1 2536   0.496   2.687   1.301
  658SOL    HW2 2537   0.368   2.588   1.278
  659SOL     OW 2538   1.274   2.248   1.262
  659SOL    HW1 2539   1.295   2.322   1.326
  659SOL    HW2 2540   1.185   2.265   1.219
  660SOL     OW 2541   0.064   3.426   1.331
  660SOL    HW1 2542   0.018   3.508   1.297
  660SOL    HW2 2543   0.162   3.445   1.340
  661SOL     OW 2544   0.367   2.962   0.501
  661SOL    HW1 2545   0.360   3.045   0.445
  661SOL    HW2 2546   0.371   2.882   0.441
  662SOL     OW 2547   0.566   2.399   0.865
  662SOL    HW1 2548   0.578   2.465   0.791
  662SOL    HW2 2549   0.612   2.433   0.948
  663SOL     OW 2550   1.252   3.210   0.388
  663SOL    HW1 2551   1.302   3.287   0.428
  663SOL    HW2 2552   1.157   3.212   0.420
  664SOL     OW 2553   1.272   3.307   1.142
  664SOL    HW1 2554   1.319   3.320   1.229
  664SOL    HW2 2555   1.206   3.233   1.151
  665SOL     OW 2556   1.582   2.501   0.472
  665SOL    HW1 2557   1.551   2.562   0.545
  665SOL    HW2 2558   1.632   2.553   0.403
  666SOL     OW 2559   0.354   3.372   1.329
  666SOL    HW1 2560   0.333   3.328   1.242
  666SOL    HW2 2561   0.451   3.398   1.332
  667SOL     OW 2562   0.402   2.613   1.598
  667SOL    HW1 2563   0.470   2.668   1.551
  667SOL    HW2 2564   0.442   2.525   1.625
  668SOL     OW 2565   1.013   1.967   1.770
  668SOL    HW1 2566   1.019   2.052   1.718
  668SOL    HW2 2567   1.045   1.891   1.713
  669SOL     OW 2568   0.573   2.732   1.029
  669SOL    HW1 2569   0.617   2.821   1.020
  669SOL    HW2 2570   0.510   2.732   1.106
  670SOL     OW 2571   1.360   2.724   1.045
  670SOL    HW1 2572   1.285   2.724   0.979
  670SOL    HW2 2573   1.397   2.632   1.054
  671SOL     OW 2574   1.209   2.387   0.275
  671SOL    HW1 2575   1.222   2.303   0.329
  671SOL    HW2 2576   1.180   2.461   0.335
  672SOL     OW 2577   0.307   2.075   1.231
  672SOL    HW1 2578   0.284   2.112   1.321
  672SOL    HW2 2579   0.277   1.980   1.225
  673SOL     OW 2580   0.037   3.172   1.282
  673SOL    HW1 2581   0.090   3.123   1.350
  673SOL    HW2 2582   0.059   3.270   1.287
  674SOL     OW 2583   0.732   2.496   1.064
  674SOL    HW1 2584   0.791   2.470   0.988
  674SOL    HW2 2585   0.704   2.592   1.053
  675SOL     OW 2586   1.728   2.797   1.854
  675SOL    HW1 2587   1.682   2.790   1.765
  675SOL    HW2 2588   1.666   2.841   1.920
  676SOL     OW 2589   0.307   1.925   0.618
  676SOL    HW1 2590   0.296   2.019   0.651
  676SOL    HW2 2591   0.302   1.862   0.695
  677SOL     OW 2592   1.622   2.229   0.374
  677SOL    HW1 2593   1.624   2.153   0.438
  677SOL    HW2 2594   1.574   2.306   0.414
  678SOL     OW 2595   1.023   2.628   0.966
  678SOL    HW1 2596   1.038   2.649   1.062
  678SOL    HW2 2597   0.993   2.533   0.957
  679SOL     OW 2598   0.980   3.435   1.700
  679SOL    HW1 2599   0.960   3.479   1.612
  679SOL    HW2 2600   1.019   3.344   1.684
  680SOL     OW 2601   1.859   3.380   1.605
  680SOL    HW1 2602   1.873   3.407   1.510
  680SOL    HW2 2603   1.942   3.402   1.658
  681SOL     OW 2604   0.350   2.760   1.804
  681SOL    HW1 2605   0.426   2.804   1.852
  681SOL    HW2 2606   0.385   2.713   1.722
  682SOL     OW 2607   1.540   2.136   0.125
  682SOL    HW1 2608   1.479   2.061   0.148
  682SOL    HW2 2609   1.562   2.188   0.208
  683SOL     OW 2610   1.303   2.700   0.042
  683SOL    HW1 2611   1.337   2.607   0.057
  683SOL    HW2 2612   1.321   2.727  -0.053
  684SOL     OW 2613   1.068   3.195   0.849
  684SOL    HW1 2614   1.075   3.111   0.794
  684SOL    HW2 2615   1.130   3.264   0.813
  685SOL     OW 2616   0.319   2.672   0.949
  685SOL    HW1 2617   0.412   2.708   0.954
  685SOL    HW2 2618   0.313   2.587   1.001
  686SOL     OW 2619   0.339   2.371   1.006
  686SOL    HW1 2620   0.287   2.288   0.989
  686SOL    HW2 2621   0.416   2.376   0.942
  687SOL     OW 2622   1.160   2.069   1.477
  687SOL    HW1 2623   1.160   2.133   1.554
  687SOL    HW2 2624   1.188   2.117   1.394
  688SOL     OW 2625   0.008   3.188   0.200
  688SOL    HW1 2626  -0.085   3.209   0.169
  688SOL    HW2 2627   0.018   3.089   0.213
  689SOL     OW 2628   0.504   3.430   0.910
  689SOL    HW1 2629   0.570   3.504   0.919
  689SOL    HW2 2630   0.548   3.351   0.868
  690SOL     OW 2631   1.002   2.658   1.238
  690SOL    HW1 2632   1.043   2.626   1.324
  690SOL    HW2 2633   0.906   2.631   1.235
  691SOL     OW 2634   0.040   2.406   1.114
  691SOL    HW1 2635   0.125   2.373   1.073
  691SOL    HW2 2636   0.053   2.421   1.212
  692SOL     OW 2637   0.189   2.382   1.722
  692SOL    HW1 2638   0.248   2.342   1.652
  692SOL    HW2 2639   0.131   2.453   1.681
  693SOL     OW 2640   1.369   2.812   1.660
  693SOL    HW1 2641   1.408   2.901   1.680
  693SOL    HW2 2642   1.379   2.792   1.563
  694SOL     OW 2643   0.815   2.434   0.325
  694SOL    HW1 2644   0.822   2.345   0.279
  694SOL    HW2 2645   0.721   2.468   0.317
  695SOL     OW 2646   1.657   2.466   1.206
  695SOL    HW1 2647   1.619   2.397   1.268
  695SOL    HW2 2648   1.739   2.430   1.162
  696SOL     OW 2649   0.252   3.426   1.744
  696SOL    HW1 2650   0.222   3.483   1.820
  696SOL    HW2 2651   0.245   3.329   1.770
  697SOL     OW 2652   0.930   3.540   1.465
  697SOL    HW1 2653   0.906   3.522   1.370
  697SOL    HW2 2654   0.960   3.634   1.475
  698SOL     OW 2655   0.473   2.362   0.191
  698SOL    HW1 2656   0.534   2.442   0.195
  698SOL    HW2 2657   0.378   2.393   0.198
  699SOL     OW 2658   0.159   2.999   1.466
  699SOL    HW1 2659   0.181   2.938   1.542
  699SOL    HW2 2660   0.169   2.950   1.380
  700SOL     OW 2661   1.347   2.921   1.234
  700SOL    HW1 2662   1.371   2.858   1.160
  700SOL    HW2 2663   1.257   2.961   1.216
  701SOL     OW 2664   1.302   2.717   0.309
  701SOL    HW1 2665   1.216   2.686   0.351
  701SOL    HW2 2666   1.298   2.703   0.210
  702SOL     OW 2667   1.759   3.609   1.154
  702SOL    HW1 2668   1.820   3.639   1.081
  702SOL    HW2 2669   1.721   3.520   1.132
  703SOL     OW 2670   1.252   3.593   1.128
  703SOL    HW1 2671   1.336   3.598   1.074
  703SOL    HW2 2672   1.229   3.497   1.146
  704SOL     OW 2673   0.083   3.120   1.022
  704SOL    HW1 2674   0.078   3.119   1.122
  704SOL    HW2 2675   0.000   3.079   0.984
  705SOL     OW 2676   0.688   3.524   1.716
  705SOL    HW1 2677   0.632   3.605   1.725
  705SOL    HW2 2678   0.740   3.528   1.630
  706SOL     OW 2679   0.903   1.948   0.133
  706SOL    HW1 2680   0.954   1.949   0.047
  706SOL    HW2 2681   0.959   1.906   0.204
  707SOL     OW 2682   1.726   1.997   0.523
  707SOL    HW1 2683   1.799   1.980   0.456
  707SOL    HW2 2684   1.695   1.910   0.561
  708SOL     OW 2685   1.388   3.435   0.477
  708SOL    HW1 2686   1.455   3.447   0.403
  708SOL    HW2 2687   1.348   3.524   0.500
  709SOL     OW 2688   0.130   3.656   1.851
  709SOL    HW1 2689   0.089   3.582   1.904
  709SOL    HW2 2690   0.194   3.707   1.909
  710SOL     OW 2691   1.280   2.789   0.672
  710SOL    HW1 2692   1.340   2.708   0.674
  710SOL    HW2 2693   1.320   2.858   0.612
  711SOL     OW 2694   0.830   3.135   1.422
  711SOL    HW1 2695   0.825   3.168   1.517
  711SOL    HW2 2696   0.744   3.154   1.376
  712SOL     OW 2697   0.672   3.478   0.154
  712SOL    HW1 2698   0.681   3.488   0.055
  712SOL    HW2 2699   0.632   3.389   0.175
  713SOL     OW 2700   1.650   3.582   1.394
  713SOL    HW1 2701   1.703   3.592   1.310
  713SOL    HW2 2702   1.623   3.672   1.428
  714SOL     OW 2703   1.841   2.037   0.963
  714SOL    HW1 2704   1.880   1.952   0.927
  714SOL    HW2 2705   1.743   2.039   0.944
  715SOL     OW 2706   0.263   2.188   0.720
  715SOL    HW1 2707   0.184   2.239   0.686
  715SOL    HW2 2708   0.254   2.173   0.818
  716SOL     OW 2709   1.194   3.474   0.031
  716SOL    HW1 2710   1.200   3.381   0.068
  716SOL    HW2 2711   1.135   3.474  -0.049
  717SOL     OW 2712   0.822   2.864   1.372
  717SOL    HW1 2713   0.862   2.863   1.280
  717SOL    HW2 2714   0.832   2.956   1.412
  718SOL     OW 2715   0.916   2.772   0.291
  718SOL    HW1 2716   0.979   2.810   0.223
  718SOL    HW2 2717   0.956   2.689   0.330
  719SOL     OW 2718   1.504   3.469   0.044
  719SOL    HW1 2719   1.412   3.506   0.051
  719SOL    HW2 2720   1.542   3.489  -0.046
  720SOL     OW 2721   0.372   3.150   1.490
  720SOL    HW1 2722   0.359   3.243   1.456
  720SOL    HW2 2723   0.288   3.098   1.477
  721SOL     OW 2724   1.614   3.154   1.289
  721SOL    HW1 2725   1.674   3.157   1.369
  721SOL    HW2 2726   1.539   3.218   1.302
  722SOL     OW 2727   1.039   2.960   0.696
  722SOL    HW1 2728   0.969   2.913   0.750
  722SOL    HW2 2729   1.098   2.892   0.653
  723SOL     OW 2730   1.014   2.098   0.971
  723SOL    HW1 2731   1.006   2.062   0.878
  723SOL    HW2 2732   1.012   2.022   1.036
  724SOL     OW 2733   0.590   3.349   0.491
  724SOL    HW1 2734   0.632   3.291   0.421
  724SOL    HW2 2735   0.546   3.428   0.447
  725SOL     OW 2736   1.709   2.247   1.381
  725SOL    HW1 2737   1.782   2.316   1.385
  725SOL    HW2 2738   1.737   2.172   1.322
  726SOL     OW 2739   0.255   3.210   0.290
  726SOL    HW1 2740   0.159   3.211   0.263
  726SOL    HW2 2741   0.267   3.263   0.374
  727SOL     OW 2742   0.105   2.875   1.726
  727SOL    HW1 2743   0.028   2.842   1.780
  727SOL    HW2 2744   0.190   2.845   1.768
  728SOL     OW 2745   0.075   2.207   0.033
  728SOL    HW1 2746  -0.017   2.179   0.004
  728SOL    HW2 2747   0.106   2.284  -0.023
  729SOL     OW 2748   1.440   2.718   1.398
  729SOL    HW1 2749   1.383   2.770   1.335
  729SOL    HW2 2750   1.536   2.730   1.374
  730SOL     OW 2751   0.072   2.028   0.318
  730SOL    HW1 2752   0.055   2.111   0.264
  730SOL    HW2 2753   0.162   1.991   0.296
  731SOL     OW 2754   1.183   3.197   0.119
  731SOL    HW1 2755   1.084   3.186   0.121
  731SOL    HW2 2756   1.217   3.212   0.212
  732SOL     OW 2757   0.613   2.704   1.431
  732SOL    HW1 2758   0.669   2.785   1.414
  732SOL    HW2 2759   0.672   2.624   1.434
  733SOL     OW 2760   1.493   3.629   0.959
  733SOL    HW1 2761   1.526   3.693   0.890
  733SOL    HW2 2762   1.559   3.623   1.034
  734SOL     OW 2763   0.716   2.427   1.708
  734SOL    HW1 2764   0.735   2.492   1.782
  734SOL    HW2 2765   0.776   2.347   1.717
  735SOL     OW 2766   1.450   3.082   1.633
  735SOL    HW1 2767   1.441   3.072   1.732
  735SOL    HW2 2768   1.546   3.075   1.607
  736SOL     OW 2769   0.390   3.603   1.560
  736SOL    HW1 2770   0.299   3.644   1.558
  736SOL    HW2 2771   0.383   3.509   1.592
  737SOL     OW 2772   1.674   2.745   1.254
  737SOL    HW1 2773   1.647   2.656   1.217
  737SOL    HW2 2774   1.675   2.813   1.181
  738SOL     OW 2775   1.225   2.187   0.449
  738SOL    HW1 2776   1.290   2.113   0.438
  738SOL    HW2 2777   1.245   2.237   0.533
  739SOL     OW 2778   0.594   2.607   0.652
  739SOL    HW1 2779   0.644   2.692   0.633
  739SOL    HW2 2780   0.506   2.609   0.604
  740SOL     OW 2781   1.777   2.204   1.642
  740SOL    HW1 2782   1.760   2.235   1.548
  740SOL    HW2 2783   1.693   2.167   1.680
  741SOL     OW 2784   1.730   2.796   1.517
  741SOL    HW1 2785   1.768   2.887   1.532
  741SOL    HW2 2786   1.722   2.779   1.418
  742SOL     OW 2787   0.859   3.236   0.016
  742SOL    HW1 2788   0.813   3.251   0.104
  742SOL    HW2 2789   0.903   3.321  -0.014
  743SOL     OW 2790   0.661   3.652   0.953
  743SOL    HW1 2791   0.615   3.740   0.940
  743SOL    HW2 2792   0.760   3.664   0.946
  744SOL     OW 2793   0.859   2.818   0.861
  744SOL    HW1 2794   0.913   2.749   0.909
  744SOL    HW2 2795   0.827   2.887   0.927
  745SOL     OW 2796   1.083   2.846   0.087
  745SOL    HW1 2797   1.060   2.899   0.005
  745SOL    HW2 2798   1.164   2.790   0.068
  746SOL     OW 2799   1.861   3.431   0.851
  746SOL    HW1 2800   1.790   3.419   0.781
  746SOL    HW2 2801   1.862   3.352   0.911
  747SOL     OW 2802   0.221   3.176   1.844
  747SOL    HW1 2803   0.156   3.103   1.823
  747SOL    HW2 2804   0.225   3.190   1.942
  748SOL     OW 2805   0.672   3.253   1.624
  748SOL    HW1 2806   0.594   3.203   1.662
  748SOL    HW2 2807   0.669   3.348   1.655
  749SOL     OW 2808   1.824   2.054   1.227
  749SOL    HW1 2809   1.820   1.964   1.271
  749SOL    HW2 2810   1.827   2.043   1.128
  750SOL     OW 2811   0.428   2.286   0.520
  750SOL    HW1 2812   0.458   2.214   0.458
  750SOL    HW2 2813   0.389   2.246   0.603
  751SOL     OW 2814   1.705   3.349   1.104
  751SOL    HW1 2815   1.612   3.324   1.077
  751SOL    HW2 2816   1.731   3.299   1.186
  752SOL     OW 2817   0.317   2.409   1.280
  752SOL    HW1 2818   0.355   2.350   1.352
  752SOL    HW2 2819   0.357   2.383   1.192
  753SOL     OW 2820   0.812   3.448   0.687
  753SOL    HW1 2821   0.844   3.458   0.593
  753SOL    HW2 2822   0.733   3.386   0.689
  754SOL     OW 2823   1.424   2.076   1.112
  754SOL    HW1 2824   1.476   2.011   1.167
  754SOL    HW2 2825   1.375   2.139   1.173
  755SOL     OW 2826   1.001   1.896   1.154
  755SOL    HW1 2827   0.938   1.824   1.123
  755SOL    HW2 2828   1.094   1.860   1.154
  756SOL     OW 2829   0.770   3.192   0.301
  756SOL    HW1 2830   0.724   3.105   0.318
  756SOL    HW2 2831   0.861   3.189   0.342
  757SOL     OW 2832   0.618   3.429   1.284
  757SOL    HW1 2833   0.613   3.511   1.341
  757SOL    HW2 2834   0.707   3.426   1.239
  758SOL     OW 2835   1.352   1.914   0.168
  758SOL    HW1 2836   1.387   1.873   0.084
  758SOL    HW2 2837   1.262   1.876   0.188
  759SOL     OW 2838   1.300   2.315   0.691
  759SOL    HW1 2839   1.241   2.395   0.695
  759SOL    HW2 2840   1.315   2.280   0.784
  760SOL     OW 2841   1.593   2.083   0.882
  760SOL    HW1 2842   1.509   2.082   0.936
  760SOL    HW2 2843   1.595   2.166   0.826
  761SOL     OW 2844   0.039   2.939   0.300
  761SOL    HW1 2845   0.138   2.928   0.291
  761SOL    HW2 2846  -0.001   2.853   0.332
  762SOL     OW 2847   0.875   3.508   0.337
  762SOL    HW1 2848   0.798   3.473   0.283
  762SOL    HW2 2849   0.843   3.579   0.399
  763SOL     OW 2850   0.230   2.490   1.975
  763SOL    HW1 2851   0.137   2.488   2.012
  763SOL    HW2 2852   0.231   2.451   1.883
  764SOL     OW 2853   0.225   2.137   2.858
  764SOL    HW1 2854   0.260   2.120   2.950
  764SOL    HW2 2855   0.137   2.092   2.846
  765SOL     OW 2856   0.569   3.137   3.027
  765SOL    HW1 2857   0.476   3.130   2.990
  765SOL    HW2 2858   0.580   3.226   3.071
  766SOL     OW 2859   1.555   3.373   2.565
  766SOL    HW1 2860   1.498   3.357   2.646
  766SOL    HW2 2861   1.496   3.383   2.485
  767SOL     OW 2862   1.135   2.565   2.579
  767SOL    HW1 2863   1.192   2.643   2.554
  767SOL    HW2 2864   1.075   2.591   2.655
  768SOL     OW 2865   1.755   2.469   2.093
  768SOL    HW1 2866   1.743   2.456   1.994
  768SOL    HW2 2867   1.725   2.388   2.142
  769SOL     OW 2868   0.768   3.006   2.885
  769SOL    HW1 2869   0.690   3.023   2.945
  769SOL    HW2 2870   0.802   3.093   2.849
  770SOL     OW 2871   0.685   2.874   2.527
  770SOL    HW1 2872   0.754   2.858   2.597
  770SOL    HW2 2873   0.612   2.931   2.565
  771SOL     OW 2874   0.686   3.023   3.665
  771SOL    HW1 2875   0.746   3.102   3.679
  771SOL    HW2 2876   0.600   3.054   3.624
  772SOL     OW 2877   0.335   3.297   2.923
  772SOL    HW1 2878   0.257   3.266   2.870
  772SOL    HW2 2879   0.393   3.355   2.866
  773SOL     OW 2880   1.460   3.367   3.201
  773SOL    HW1 2881   1.484   3.461   3.227
  773SOL    HW2 2882   1.444   3.313   3.283
  774SOL     OW 2883   0.438   2.254   3.361
  774SOL    HW1 2884   0.520   2.198   3.370
  774SOL    HW2 2885   0.357   2.196   3.365
  775SOL     OW 2886   1.603   2.309   2.599
  775SOL    HW1 2887   1.529   2.355   2.549
  775SOL    HW2 2888   1.654   2.377   2.652
  776SOL     OW 2889   0.231   3.575   2.345
  776SOL    HW1 2890   0.265   3.652   2.399
  776SOL    HW2 2891   0.275   3.575   2.255
  777SOL     OW 2892   1.127   3.203   3.552
  777SOL    HW1 2893   1.174   3.203   3.640
  777SOL    HW2 2894   1.079   3.116   3.541
  778SOL     OW 2895   0.230   3.296   2.400
  778SOL    HW1 2896   0.204   3.392   2.400
  778SOL    HW2 2897   0.159   3.242   2.445
  779SOL     OW 2898   0.240   2.953   2.748
  779SOL    HW1 2899   0.254   2.869   2.800
  779SOL    HW2 2900   0.185   3.017   2.803
  780SOL     OW 2901   0.620   3.648   3.301
  780SOL    HW1 2902   0.528   3.631   3.336
  780SOL    HW2 2903   0.648   3.740   3.327
  781SOL     OW 2904   0.606   2.826   1.985
  781SOL    HW1 2905   0.613   2.910   1.931
  781SOL    HW2 2906   0.652   2.839   2.073
  782SOL     OW 2907   1.594   1.976   3.342
  782SOL    HW1 2908   1.576   2.043   3.270
  782SOL    HW2 2909   1.591   2.022   3.431
  783SOL     OW 2910   0.122   2.505   2.425
  783SOL    HW1 2911   0.077   2.417   2.442
  783SOL    HW2 2912   0.121   2.559   2.509
  784SOL     OW 2913   1.842   3.629   2.221
  784SOL    HW1 2914   1.896   3.600   2.301
  784SOL    HW2 2915   1.872   3.719   2.192
  785SOL     OW 2916   0.027   3.458   1.979
  785SOL    HW1 2917   0.008   3.362   2.000
  785SOL    HW2 2918  -0.006   3.516   2.054
  786SOL     OW 2919   1.689   2.784   2.474
  786SOL    HW1 2920   1.784   2.755   2.482
  786SOL    HW2 2921   1.681   2.849   2.399
  787SOL     OW 2922   1.641   2.970   2.294
  787SOL    HW1 2923   1.727   2.972   2.242
  787SOL    HW2 2924   1.655   3.017   2.382
  788SOL     OW 2925   0.113   2.599   3.459
  788SOL    HW1 2926   0.201   2.586   3.504
  788SOL    HW2 2927   0.100   2.696   3.437
  789SOL     OW 2928   0.613   3.227   2.588
  789SOL    HW1 2929   0.564   3.140   2.597
  789SOL    HW2 2930   0.590   3.270   2.501
  790SOL     OW 2931   1.293   3.090   3.285
  790SOL    HW1 2932   1.330   3.017   3.227
  790SOL    HW2 2933   1.345   3.095   3.370
  791SOL     OW 2934   0.809   1.866   2.364
  791SOL    HW1 2935   0.849   1.957   2.355
  791SOL    HW2 2936   0.709   1.874   2.370
  792SOL     OW 2937   0.197   2.838   3.126
  792SOL    HW1 2938   0.286   2.793   3.112
  792SOL    HW2 2939   0.124   2.773   3.107
  793SOL     OW 2940   1.525   2.861   2.052
  793SOL    HW1 2941   1.462   2.785   2.065
  793SOL    HW2 2942   1.573   2.879   2.138
  794SOL     OW 2943   1.187   3.654   3.478
  794SOL    HW1 2944   1.211   3.714   3.402
  794SOL    HW2 2945   1.194   3.559   3.448
  795SOL     OW 2946   0.317   2.113   3.663
  795SOL    HW1 2947   0.388   2.184   3.669
  795SOL    HW2 2948   0.229   2.152   3.691
  796SOL     OW 2949   1.466   3.279   2.815
  796SOL    HW1 2950   1.407   3.285   2.895
  796SOL    HW2 2951   1.451   3.191   2.769
  797SOL     OW 2952   1.667   3.576   2.434
  797SOL    HW1 2953   1.626   3.553   2.346
  797SOL    HW2 2954   1.649   3.502   2.499
  798SOL     OW 2955   0.598   2.591   2.132
  798SOL    HW1 2956   0.622   2.660   2.064
  798SOL    HW2 2957   0.520   2.624   2.186
  799SOL     OW 2958   1.281   2.207   2.806
  799SOL    HW1 2959   1.195   2.157   2.793
  799SOL    HW2 2960   1.343   2.153   2.862
  800SOL     OW 2961   1.576   3.524   2.169
  800SOL    HW1 2962   1.665   3.570   2.172
  800SOL    HW2 2963   1.555   3.500   2.074
  801SOL     OW 2964   0.807   2.467   3.327
  801SOL    HW1 2965   0.760   2.464   3.416
  801SOL    HW2 2966   0.756   2.412   3.261
  802SOL     OW 2967   1.394   2.331   3.536
  802SOL    HW1 2968   1.374   2.374   3.624
  802SOL    HW2 2969   1.472   2.269   3.545
  803SOL     OW 2970   0.991   2.272   3.104
  803SOL    HW1 2971   0.914   2.306   3.158
  803SOL    HW2 2972   0.957   2.221   3.025
  804SOL     OW 2973   0.076   2.673   2.651
  804SOL    HW1 2974   0.175   2.661   2.660
  804SOL    HW2 2975   0.052   2.768   2.672
  805SOL     OW 2976   0.130   3.683   3.433
  805SOL    HW1 2977   0.120   3.668   3.532
  805SOL    HW2 2978   0.044   3.719   3.397
  806SOL     OW 2979   1.719   2.447   3.693
  806SOL    HW1 2980   1.693   2.536   3.657
  806SOL    HW2 2981   1.717   2.379   3.620
  807SOL     OW 2982   1.362   3.006   2.407
  807SOL    HW1 2983   1.445   2.977   2.359
  807SOL    HW2 2984   1.313   3.073   2.351
  808SOL     OW 2985   0.550   2.058   2.747
  808SOL    HW1 2986   0.545   2.053   2.847
  808SOL    HW2 2987   0.552   2.154   2.718
  809SOL     OW 2988   1.008   3.318   2.339
  809SOL    HW1 2989   0.962   3.390   2.287
  809SOL    HW2 2990   1.004   3.338   2.437
  810SOL     OW 2991   0.351   3.663   2.715
  810SOL    HW1 2992   0.401   3.577   2.721
  810SOL    HW2 2993   0.416   3.740   2.712
  811SOL     OW 2994   1.795   2.928   2.735
  811SOL    HW1 2995   1.733   2.913   2.659
  811SOL    HW2 2996   1.743   2.939   2.820
  812SOL     OW 2997   1.227   3.412   3.368
  812SOL    HW1 2998   1.233   3.335   3.432
  812SOL    HW2 2999   1.175   3.386   3.288
  813SOL     OW 3000   0.321   2.805   2.104
  813SOL    HW1 3001   0.403   2.844   2.062
  813SOL    HW2 3002   0.294   2.723   2.055
  814SOL     OW 3003   1.458   2.597   2.590
  814SOL    HW1 3004   1.453   2.532   2.665
  814SOL    HW2 3005   1.538   2.656   2.603
  815SOL     OW 3006   0.461   3.128   3.589
  815SOL    HW1 3007   0.411   3.129   3.503
  815SOL    HW2 3008   0.398   3.110   3.665
  816SOL     OW 3009   1.111   3.638   2.099
  816SOL    HW1 3010   1.051   3.576   2.149
  816SOL    HW2 3011   1.142   3.594   2.014
  817SOL     OW 3012   0.202   2.147   3.360
  817SOL    HW1 3013   0.122   2.207   3.347
  817SOL    HW2 3014   0.192   2.098   3.446
  818SOL     OW 3015   1.632   3.239   1.943
  818SOL    HW1 3016   1.600   3.333   1.933
  818SOL    HW2 3017   1.556   3.176   1.931
  819SOL     OW 3018   0.464   3.605   2.185
  819SOL    HW1 3019   0.497   3.644   2.271
  819SOL    HW2 3020   0.540   3.598   2.120
  820SOL     OW 3021   0.249   3.647   3.103
  820SOL    HW1 3022   0.306   3.582   3.153
  820SOL    HW2 3023   0.233   3.614   3.010
  821SOL     OW 3024   0.940   3.560   2.766
  821SOL    HW1 3025   1.020   3.503   2.787
  821SOL    HW2 3026   0.891   3.520   2.689
  822SOL     OW 3027   0.382   2.562   2.342
  822SOL    HW1 3028   0.427   2.472   2.339
  822SOL    HW2 3029   0.288   2.551   2.375
  823SOL     OW 3030   1.547   2.084   3.591
  823SOL    HW1 3031   1.542   2.121   3.683
  823SOL    HW2 3032   1.475   2.015   3.579
  824SOL     OW 3033   0.781   2.126   3.611
  824SOL    HW1 3034   0.848   2.065   3.654
  824SOL    HW2 3035   0.708   2.145   3.676
  825SOL     OW 3036   0.888   3.376   3.057
  825SOL    HW1 3037   0.865   3.351   2.963
  825SOL    HW2 3038   0.949   3.307   3.096
  826SOL     OW 3039   1.351   2.452   3.295
  826SOL    HW1 3040   1.379   2.409   3.380
  826SOL    HW2 3041   1.376   2.548   3.296
  827SOL     OW 3042   0.803   3.264   2.786
  827SOL    HW1 3043   0.893   3.278   2.744
  827SOL    HW2 3044   0.732   3.266   2.715
  828SOL     OW 3045   0.922   2.365   2.761
  828SOL    HW1 3046   0.897   2.356   2.665
  828SOL    HW2 3047   0.970   2.283   2.792
  829SOL     OW 3048   0.539   1.926   2.374
  829SOL    HW1 3049   0.458   1.927   2.432
  829SOL    HW2 3050   0.542   2.009   2.319
  830SOL     OW 3051   1.434   3.050   1.903
  830SOL    HW1 3052   1.466   2.974   1.960
  830SOL    HW2 3053   1.342   3.077   1.933
  831SOL     OW 3054   0.935   2.098   2.342
  831SOL    HW1 3055   0.887   2.139   2.264
  831SOL    HW2 3056   1.034   2.096   2.323
  832SOL     OW 3057   1.227   3.432   2.655
  832SOL    HW1 3058   1.248   3.506   2.590
  832SOL    HW2 3059   1.295   3.432   2.728
  833SOL     OW 3060   0.459   3.014   2.603
  833SOL    HW1 3061   0.388   2.987   2.668
  833SOL    HW2 3062   0.433   2.986   2.510
  834SOL     OW 3063   1.271   3.659   2.453
  834SOL    HW1 3064   1.315   3.723   2.389
  834SOL    HW2 3065   1.221   3.711   2.523
  835SOL     OW 3066   0.078   2.418   3.248
  835SOL    HW1 3067   0.170   2.417   3.207
  835SOL    HW2 3068   0.072   2.492   3.315
  836SOL     OW 3069   0.561   2.084   3.009
  836SOL    HW1 3070   0.599   2.000   3.046
  836SOL    HW2 3071   0.473   2.103   3.053
  837SOL     OW 3072   0.866   2.316   2.504
  837SOL    HW1 3073   0.834   2.388   2.442
  837SOL    HW2 3074   0.890   2.235   2.451
  838SOL     OW 3075   1.017   1.901   2.615
  838SOL    HW1 3076   0.945   1.906   2.546
  838SOL    HW2 3077   0.993   1.832   2.684
  839SOL     OW 3078   1.429   3.035   2.729
  839SOL    HW1 3079   1.374   2.951   2.722
  839SOL    HW2 3080   1.455   3.064   2.637
  840SOL     OW 3081   1.466   2.452   2.854
  840SOL    HW1 3082   1.436   2.357   2.861
  840SOL    HW2 3083   1.539   2.468   2.920
  841SOL     OW 3084   1.857   2.695   2.239
  841SOL    HW1 3085   1.899   2.631   2.303
  841SOL    HW2 3086   1.819   2.644   2.161
  842SOL     OW 3087   0.488   3.247   2.036
  842SOL    HW1 3088   0.401   3.232   2.083
  842SOL    HW2 3089   0.471   3.273   1.941
  843SOL     OW 3090   1.664   3.142   2.519
  843SOL    HW1 3091   1.763   3.150   2.533
  843SOL    HW2 3092   1.619   3.226   2.550
  844SOL     OW 3093   1.754   3.085   3.450
  844SOL    HW1 3094   1.845   3.046   3.437
  844SOL    HW2 3095   1.762   3.181   3.474
  845SOL     OW 3096   1.064   3.209   3.202
  845SOL    HW1 3097   0.984   3.186   3.257
  845SOL    HW2 3098   1.147   3.183   3.251
  846SOL     OW 3099   1.592   3.491   3.487
  846SOL    HW1 3100   1.619   3.525   3.397
  846SOL    HW2 3101   1.671   3.453   3.533
  847SOL     OW 3102   1.111   3.057   2.962
  847SOL    HW1 3103   1.071   3.101   3.043
  847SOL    HW2 3104   1.070   3.094   2.879
  848SOL     OW 3105   1.638   2.961   2.941
  848SOL    HW1 3106   1.643   3.042   3.000
  848SOL    HW2 3107   1.552   2.963   2.890
  849SOL     OW 3108   0.915   1.951   3.264
  849SOL    HW1 3109   0.940   1.931   3.169
  849SOL    HW2 3110   0.987   2.007   3.306
  850SOL     OW 3111   0.980   2.978   3.581
  850SOL    HW1 3112   0.881   2.984   3.591
  850SOL    HW2 3113   1.003   2.898   3.525
  851SOL     OW 3114   1.274   2.248   3.124
  851SOL    HW1 3115   1.295   2.322   3.188
  851SOL    HW2 3116   1.185   2.265   3.081
  852SOL     OW 3117   0.064   3.426   3.193
  852SOL    HW1 3118   0.018   3.508   3.159
  852SOL    HW2 3119   0.162   3.445   3.202
  853SOL     OW 3120   0.367   2.962   2.363
  853SOL    HW1 3121   0.360   3.045   2.307
  853SOL    HW2 3122   0.371   2.882   2.303
  854SOL     OW 3123   0.566   2.399   2.727
  854SOL    HW1 3124   0.578   2.465   2.653
  854SOL    HW2 3125   0.612   2.433   2.810
  855SOL     OW 3126   1.252   3.210   2.250
  855SOL    HW1 3127   1.302   3.287   2.290
  855SOL    HW2 3128   1.157   3.212   2.282
  856SOL     OW 3129   1.272   3.307   3.004
  856SOL    HW1 3130   1.319   3.320   3.091
  856SOL    HW2 3131   1.206   3.233   3.013
  857SOL     OW 3132   1.582   2.501   2.334
  857SOL    HW1 3133   1.551   2.562   2.407
  857SOL    HW2 3134   1.632   2.553   2.265
  858SOL     OW 3135   0.354   3.372   3.191
  858SOL    HW1 3136   0.333   3.328   3.104
  858SOL    HW2 3137   0.451   3.398   3.194
  859SOL     OW 3138   1.587   2.641   3.532
  859SOL    HW1 3139   1.495   2.679   3.527
  859SOL    HW2 3140   1.647   2.688   3.467
  860SOL     OW 3141   1.013   1.967   3.632
  860SOL    HW1 3142   1.019   2.052   3.580
  860SOL    HW2 3143   1.045   1.891   3.575
  861SOL     OW 3144   0.504   1.912   3.602
  861SOL    HW1 3145   0.462   1.855   3.532
  861SOL    HW2 3146   0.438   1.981   3.634
  862SOL     OW 3147   0.573   2.732   2.891
  862SOL    HW1 3148   0.617   2.821   2.882
  862SOL    HW2 3149   0.510   2.732   2.968
  863SOL     OW 3150   1.360   2.724   2.907
  863SOL    HW1 3151   1.285   2.724   2.841
  863SOL    HW2 3152   1.397   2.632   2.916
  864SOL     OW 3153   0.307   2.075   3.093
  864SOL    HW1 3154   0.284   2.112   3.183
  864SOL    HW2 3155   0.277   1.980   3.087
  865SOL     OW 3156   0.037   3.172   3.144
  865SOL    HW1 3157   0.090   3.123   3.212
  865SOL    HW2 3158   0.059   3.270   3.149
  866SOL     OW 3159   0.732   2.496   2.926
  866SOL    HW1 3160   0.791   2.470   2.850
  866SOL    HW2 3161   0.704   2.592   2.915
  867SOL     OW 3162   1.728   2.797   3.716
  867SOL    HW1 3163   1.682   2.790   3.627
  867SOL    HW2 3164   1.666   2.841   3.782
  868SOL     OW 3165   1.622   2.229   2.236
  868SOL    HW1 3166   1.624   2.153   2.300
  868SOL    HW2 3167   1.574   2.306   2.276
  869SOL     OW 3168   1.023   2.628   2.828
  869SOL    HW1 3169   1.038   2.649   2.924
  869SOL    HW2 3170   0.993   2.533   2.819
  870SOL     OW 3171   0.980   3.435   3.562
  870SOL    HW1 3172   0.960   3.479   3.474
  870SOL    HW2 3173   1.019   3.344   3.546
  871SOL     OW 3174   1.859   3.380   3.467
  871SOL    HW1 3175   1.873   3.407   3.372
  871SOL    HW2 3176   1.942   3.402   3.520
  872SOL     OW 3177   1.540   2.136   1.987
  872SOL    HW1 3178   1.479   2.061   2.010
  872SOL    HW2 3179   1.562   2.188   2.070
  873SOL     OW 3180   1.068   3.195   2.711
  873SOL    HW1 3181   1.075   3.111   2.656
  873SOL    HW2 3182   1.130   3.264   2.675
  874SOL     OW 3183   0.319   2.672   2.811
  874SOL    HW1 3184   0.412   2.708   2.816
  874SOL    HW2 3185   0.313   2.587   2.863
  875SOL     OW 3186   0.339   2.371   2.868
  875SOL    HW1 3187   0.287   2.288   2.851
  875SOL    HW2 3188   0.416   2.376   2.804
  876SOL     OW 3189   1.138   2.242   3.540
  876SOL    HW1 3190   1.093   2.305   3.604
  876SOL    HW2 3191   1.231   2.273   3.523
  877SOL     OW 3192   1.160   2.069   3.339
  877SOL    HW1 3193   1.160   2.133   3.416
  877SOL    HW2 3194   1.188   2.117   3.256
  878SOL     OW 3195   0.008   3.188   2.062
  878SOL    HW1 3196  -0.085   3.209   2.031
  878SOL    HW2 3197   0.018   3.089   2.075
  879SOL     OW 3198   0.088   3.663   2.789
  879SOL    HW1 3199   0.046   3.577   2.762
  879SOL    HW2 3200   0.182   3.666   2.755
  880SOL     OW 3201   0.504   3.430   2.772
  880SOL    HW1 3202   0.570   3.504   2.781
  880SOL    HW2 3203   0.548   3.351   2.730
  881SOL     OW 3204   1.002   2.658   3.100
  881SOL    HW1 3205   1.043   2.626   3.186
  881SOL    HW2 3206   0.906   2.631   3.097
  882SOL     OW 3207   0.040   2.406   2.976
  882SOL    HW1 3208   0.125   2.373   2.935
  882SOL    HW2 3209   0.053   2.421   3.074
  883SOL     OW 3210   0.189   2.382   3.584
  883SOL    HW1 3211   0.248   2.342   3.514
  883SOL    HW2 3212   0.131   2.453   3.543
  884SOL     OW 3213   1.369   2.812   3.522
  884SOL    HW1 3214   1.408   2.901   3.542
  884SOL    HW2 3215   1.379   2.792   3.425
  885SOL     OW 3216   0.815   2.434   2.187
  885SOL    HW1 3217   0.822   2.345   2.141
  885SOL    HW2 3218   0.721   2.468   2.179
  886SOL     OW 3219   1.657   2.466   3.068
  886SOL    HW1 3220   1.619   2.397   3.130
  886SOL    HW2 3221   1.739   2.430   3.024
  887SOL     OW 3222   0.252   3.426   3.606
  887SOL    HW1 3223   0.222   3.483   3.682
  887SOL    HW2 3224   0.245   3.329   3.632
  888SOL     OW 3225   0.671   2.326   3.131
  888SOL    HW1 3226   0.637   2.237   3.101
  888SOL    HW2 3227   0.697   2.380   3.051
  889SOL     OW 3228   0.930   3.540   3.327
  889SOL    HW1 3229   0.906   3.522   3.232
  889SOL    HW2 3230   0.960   3.634   3.337
  890SOL     OW 3231   0.159   2.999   3.328
  890SOL    HW1 3232   0.181   2.938   3.404
  890SOL    HW2 3233   0.169   2.950   3.242
  891SOL     OW 3234   1.347   2.921   3.096
  891SOL    HW1 3235   1.371   2.858   3.022
  891SOL    HW2 3236   1.257   2.961   3.078
  892SOL     OW 3237   1.302   2.717   2.171
  892SOL    HW1 3238   1.216   2.686   2.213
  892SOL    HW2 3239   1.298   2.703   2.072
  893SOL     OW 3240   1.759   3.609   3.016
  893SOL    HW1 3241   1.820   3.639   2.943
  893SOL    HW2 3242   1.721   3.520   2.994
  894SOL     OW 3243   1.252   3.593   2.990
  894SOL    HW1 3244   1.336   3.598   2.936
  894SOL    HW2 3245   1.229   3.497   3.008
  895SOL     OW 3246   0.083   3.120   2.884
  895SOL    HW1 3247   0.078   3.119   2.984
  895SOL    HW2 3248   0.000   3.079   2.846
  896SOL     OW 3249   0.688   3.524   3.578
  896SOL    HW1 3250   0.632   3.605   3.587
  896SOL    HW2 3251   0.740   3.528   3.492
  897SOL     OW 3252   1.726   1.997   2.385
  897SOL    HW1 3253   1.799   1.980   2.318
  897SOL    HW2 3254   1.695   1.910   2.423
  898SOL     OW 3255   1.388   3.435   2.339
  898SOL    HW1 3256   1.455   3.447   2.265
  898SOL    HW2 3257   1.348   3.524   2.362
  899SOL     OW 3258   0.130   3.656   3.713
  899SOL    HW1 3259   0.089   3.582   3.766
  899SOL    HW2 3260   0.194   3.707   3.771
  900SOL     OW 3261   1.280   2.789   2.534
  900SOL    HW1 3262   1.340   2.708   2.536
  900SOL    HW2 3263   1.320   2.858   2.474
  901SOL     OW 3264   0.830   3.135   3.284
  901SOL    HW1 3265   0.825   3.168   3.379
  901SOL    HW2 3266   0.744   3.154   3.238
  902SOL     OW 3267   0.672   3.478   2.016
  902SOL    HW1 3268   0.681   3.488   1.917
  902SOL    HW2 3269   0.632   3.389   2.037
  903SOL     OW 3270   1.650   3.582   3.256
  903SOL    HW1 3271   1.703   3.592   3.172
  903SOL    HW2 3272   1.623   3.672   3.290
  904SOL     OW 3273   1.841   2.037   2.825
  904SOL    HW1 3274   1.880   1.952   2.789
  904SOL    HW2 3275   1.743   2.039   2.806
  905SOL     OW 3276   1.194   3.474   1.893
  905SOL    HW1 3277   1.200   3.381   1.930
  905SOL    HW2 3278   1.135   3.474   1.813
  906SOL     OW 3279   0.822   2.864   3.234
  906SOL    HW1 3280   0.862   2.863   3.142
  906SOL    HW2 3281   0.832   2.956   3.274
  907SOL     OW 3282   1.504   3.469   1.906
  907SOL    HW1 3283   1.412   3.506   1.913
  907SOL    HW2 3284   1.542   3.489   1.816
  908SOL     OW 3285   0.372   3.150   3.352
  908SOL    HW1 3286   0.359   3.243   3.318
  908SOL    HW2 3287   0.288   3.098   3.339
  909SOL     OW 3288   1.614   3.154   3.151
  909SOL    HW1 3289   1.674   3.157   3.231
  909SOL    HW2 3290   1.539   3.218   3.164
  910SOL     OW 3291   1.039   2.960   2.558
  910SOL    HW1 3292   0.969   2.913   2.612
  910SOL    HW2 3293   1.098   2.892   2.515
  911SOL     OW 3294   1.014   2.098   2.833
  911SOL    HW1 3295   1.006   2.062   2.740
  911SOL    HW2 3296   1.012   2.022   2.898
  912SOL     OW 3297   0.590   3.349   2.353
  912SOL    HW1 3298   0.632   3.291   2.283
  912SOL    HW2 3299   0.546   3.428   2.309
  913SOL     OW 3300   1.709   2.247   3.243
  913SOL    HW1 3301   1.782   2.316   3.247
  913SOL    HW2 3302   1.737   2.172   3.184
  914SOL     OW 3303   0.255   3.210   2.152
  914SOL    HW1 3304   0.159   3.211   2.125
  914SOL    HW2 3305   0.267   3.263   2.236
  915SOL     OW 3306   0.105   2.875   3.588
  915SOL    HW1 3307   0.028   2.842   3.642
  915SOL    HW2 3308   0.190   2.845   3.630
  916SOL     OW 3309   0.672   2.065   3.351
  916SOL    HW1 3310   0.762   2.049   3.311
  916SOL    HW2 3311   0.680   2.070   3.450
  917SOL     OW 3312   1.440   2.718   3.260
  917SOL    HW1 3313   1.383   2.770   3.197
  917SOL    HW2 3314   1.536   2.730   3.236
  918SOL     OW 3315   1.183   3.197   1.981
  918SOL    HW1 3316   1.084   3.186   1.983
  918SOL    HW2 3317   1.217   3.212   2.074
  919SOL     OW 3318   1.493   3.629   2.821
  919SOL    HW1 3319   1.526   3.693   2.752
  919SOL    HW2 3320   1.559   3.623   2.896
  920SOL     OW 3321   0.716   2.427   3.570
  920SOL    HW1 3322   0.735   2.492   3.644
  920SOL    HW2 3323   0.776   2.347   3.579
  921SOL     OW 3324   1.450   3.082   3.495
  921SOL    HW1 3325   1.441   3.072   3.594
  921SOL    HW2 3326   1.546   3.075   3.469
  922SOL     OW 3327   0.390   3.603   3.422
  922SOL    HW1 3328   0.299   3.644   3.420
  922SOL    HW2 3329   0.383   3.509   3.454
  923SOL     OW 3330   1.674   2.745   3.116
  923SOL    HW1 3331   1.647   2.656   3.079
  923SOL    HW2 3332   1.675   2.813   3.043
  924SOL     OW 3333   1.225   2.187   2.311
  924SOL    HW1 3334   1.290   2.113   2.300
  924SOL    HW2 3335   1.245   2.237   2.395
  925SOL     OW 3336   0.594   2.607   2.514
  925SOL    HW1 3337   0.644   2.692   2.495
  925SOL    HW2 3338   0.506   2.609   2.466
  926SOL     OW 3339   1.777   2.204   3.504
  926SOL    HW1 3340   1.760   2.235   3.410
  926SOL    HW2 3341   1.693   2.167   3.542
  927SOL     OW 3342   1.730   2.796   3.379
  927SOL    HW1 3343   1.768   2.887   3.394
  927SOL    HW2 3344   1.722   2.779   3.280
  928SOL     OW 3345   0.859   3.236   1.878
  928SOL    HW1 3346   0.813   3.251   1.966
  928SOL    HW2 3347   0.903   3.321   1.848
  929SOL     OW 3348   0.661   3.652   2.815
  929SOL    HW1 3349   0.615   3.740   2.802
  929SOL    HW2 3350   0.760   3.664   2.808
  930SOL     OW 3351   0.859   2.818   2.723
  930SOL    HW1 3352   0.913   2.749   2.771
  930SOL    HW2 3353   0.827   2.887   2.789
  931SOL     OW 3354   1.861   3.431   2.713
  931SOL    HW1 3355   1.790   3.419   2.643
  931SOL    HW2 3356   1.862   3.352   2.773
  932SOL     OW 3357   0.221   3.176   3.706
  932SOL    HW1 3358   0.156   3.103   3.685
  932SOL    HW2 3359   0.225   3.190   3.804
  933SOL     OW 3360   0.079   3.102   2.515
  933SOL    HW1 3361   0.078   3.055   2.603
  933SOL    HW2 3362   0.161   3.074   2.464
  934SOL     OW 3363   0.672   3.253   3.486
  934SOL    HW1 3364   0.594   3.203   3.524
  934SOL    HW2 3365   0.669   3.348   3.517
  935SOL     OW 3366   1.824   2.054   3.089
  935SOL    HW1 3367   1.820   1.964   3.133
  935SOL    HW2 3368   1.827   2.043   2.990
  936SOL     OW 3369   1.705   3.349   2.966
  936SOL    HW1 3370   1.612   3.324   2.939
  936SOL    HW2 3371   1.731   3.299   3.048
  937SOL     OW 3372   0.317   2.409   3.142
  937SOL    HW1 3373   0.355   2.350   3.214
  937SOL    HW2 3374   0.357   2.383   3.054
  938SOL     OW 3375   0.812   3.448   2.549
  938SOL    HW1 3376   0.844   3.458   2.455
  938SOL    HW2 3377   0.733   3.386   2.551
  939SOL     OW 3378   1.424   2.076   2.974
  939SOL    HW1 3379   1.476   2.011   3.029
  939SOL    HW2 3380   1.375   2.139   3.035
  940SOL     OW 3381   1.001   1.896   3.016
  940SOL    HW1 3382   0.938   1.824   2.985
  940SOL    HW2 3383   1.094   1.860   3.016
  941SOL     OW 3384   0.770   3.192   2.163
  941SOL    HW1 3385   0.724   3.105   2.180
  941SOL    HW2 3386   0.861   3.189   2.204
  942SOL     OW 3387   0.618   3.429   3.146
  942SOL    HW1 3388   0.613   3.511   3.203
  942SOL    HW2 3389   0.707   3.426   3.101
  943SOL     OW 3390   1.300   2.315   2.553
  943SOL    HW1 3391   1.241   2.395   2.557
  943SOL    HW2 3392   1.315   2.280   2.646
  944SOL     OW 3393   1.593   2.083   2.744
  944SOL    HW1 3394   1.509   2.082   2.798
  944SOL    HW2 3395   1.595   2.166   2.688
  945SOL     OW 3396   0.039   2.939   2.162
  945SOL    HW1 3397   0.138   2.928   2.153
  945SOL    HW2 3398  -0.001   2.853   2.194
  946SOL     OW 3399   0.875   3.508   2.199
  946SOL    HW1 3400   0.798   3.473   2.145
  946SOL    HW2 3401   0.843   3.579   2.261
  947SOL     OW 3402   0.230   2.490   3.837
  947SOL    HW1 3403   0.137   2.488   3.874
  947SOL    HW2 3404   0.231   2.451   3.745
  948SOL     OW 3405   0.225   2.137   4.720
  948SOL    HW1 3406   0.260   2.120   4.812
  948SOL    HW2 3407   0.137   2.092   4.708
  949SOL     OW 3408   0.019   2.230   4.371
  949SOL    HW1 3409  -0.063   2.273   4.410
  949SOL    HW2 3410  -0.009   2.157   4.308
  950SOL     OW 3411   0.569   3.137   4.889
  950SOL    HW1 3412   0.476   3.130   4.852
  950SOL    HW2 3413   0.580   3.226   4.933
  951SOL     OW 3414   1.555   3.373   4.427
  951SOL    HW1 3415   1.498   3.357   4.508
  951SOL    HW2 3416   1.496   3.383   4.347
  952SOL     OW 3417   1.135   2.565   4.441
  952SOL    HW1 3418   1.192   2.643   4.416
  952SOL    HW2 3419   1.075   2.591   4.517
  953SOL     OW 3420   1.755   2.469   3.955
  953SOL    HW1 3421   1.743   2.456   3.856
  953SOL    HW2 3422   1.725   2.388   4.004
  954SOL     OW 3423   0.768   3.006   4.747
  954SOL    HW1 3424   0.690   3.023   4.807
  954SOL    HW2 3425   0.802   3.093   4.711
  955SOL     OW 3426   0.685   2.874   4.389
  955SOL    HW1 3427   0.754   2.858   4.459
  955SOL    HW2 3428   0.612   2.931   4.427
  956SOL     OW 3429   0.335   3.297   4.785
  956SOL    HW1 3430   0.257   3.266   4.732
  956SOL    HW2 3431   0.393   3.355   4.728
  957SOL     OW 3432   1.603   2.309   4.461
  957SOL    HW1 3433   1.529   2.355   4.411
  957SOL    HW2 3434   1.654   2.377   4.514
  958SOL     OW 3435   0.231   3.575   4.207
  958SOL    HW1 3436   0.265   3.652   4.261
  958SOL    HW2 3437   0.275   3.575   4.117
  959SOL     OW 3438   0.230   3.296   4.262
  959SOL    HW1 3439   0.204   3.392   4.262
  959SOL    HW2 3440   0.159   3.242   4.307
  960SOL     OW 3441   0.240   2.953   4.610
  960SOL    HW1 3442   0.254   2.869   4.662
  960SOL    HW2 3443   0.185   3.017   4.665
  961SOL     OW 3444   0.620   3.648   5.163
  961SOL    HW1 3445   0.528   3.631   5.198
  961SOL    HW2 3446   0.648   3.740   5.189
  962SOL     OW 3447   0.606   2.826   3.847
  962SOL    HW1 3448   0.613   2.910   3.793
  962SOL    HW2 3449   0.652   2.839   3.935
  963SOL     OW 3450   0.122   2.505   4.287
  963SOL    HW1 3451   0.077   2.417   4.304
  963SOL    HW2 3452   0.121   2.559   4.371
  964SOL     OW 3453   1.842   3.629   4.083
  964SOL    HW1 3454   1.896   3.600   4.163
  964SOL    HW2 3455   1.872   3.719   4.054
  965SOL     OW 3456   0.027   3.458   3.841
  965SOL    HW1 3457   0.008   3.362   3.862
  965SOL    HW2 3458  -0.006   3.516   3.916
  966SOL     OW 3459   1.689   2.784   4.336
  966SOL    HW1 3460   1.784   2.755   4.344
  966SOL    HW2 3461   1.681   2.849   4.261
  967SOL     OW 3462   1.641   2.970   4.156
  967SOL    HW1 3463   1.727   2.972   4.104
  967SOL    HW2 3464   1.655   3.017   4.244
  968SOL     OW 3465   0.613   3.227   4.450
  968SOL    HW1 3466   0.564   3.140   4.459
  968SOL    HW2 3467   0.590   3.270   4.363
  969SOL     OW 3468   0.809   1.866   4.226
  969SOL    HW1 3469   0.849   1.957   4.217
  969SOL    HW2 3470   0.709   1.874   4.232
  970SOL     OW 3471   0.197   2.838   4.988
  970SOL    HW1 3472   0.286   2.793   4.974
  970SOL    HW2 3473   0.124   2.773   4.969
  971SOL     OW 3474   1.525   2.861   3.914
  971SOL    HW1 3475   1.462   2.785   3.927
  971SOL    HW2 3476   1.573   2.879   4.000
  972SOL     OW 3477   1.466   3.279   4.677
  972SOL    HW1 3478   1.407   3.285   4.757
  972SOL    HW2 3479   1.451   3.191   4.631
  973SOL     OW 3480   1.667   3.576   4.296
  973SOL    HW1 3481   1.626   3.553   4.208
  973SOL    HW2 3482   1.649   3.502   4.361
  974SOL     OW 3483   0.598   2.591   3.994
  974SOL    HW1 3484   0.622   2.660   3.926
  974SOL    HW2 3485   0.520   2.624   4.048
  975SOL     OW 3486   1.281   2.207   4.668
  975SOL    HW1 3487   1.195   2.157   4.655
  975SOL    HW2 3488   1.343   2.153   4.724
  976SOL     OW 3489   1.576   3.524   4.031
  976SOL    HW1 3490   1.665   3.570   4.034
  976SOL    HW2 3491   1.555   3.500   3.936
  977SOL     OW 3492   0.991   2.272   4.966
  977SOL    HW1 3493   0.914   2.306   5.020
  977SOL    HW2 3494   0.957   2.221   4.887
  978SOL     OW 3495   1.041   2.563   4.153
  978SOL    HW1 3496   1.067   2.559   4.249
  978SOL    HW2 3497   0.956   2.512   4.139
  979SOL     OW 3498   0.076   2.673   4.513
  979SOL    HW1 3499   0.175   2.661   4.522
  979SOL    HW2 3500   0.052   2.768   4.534
  980SOL     OW 3501   0.130   3.683   5.295
  980SOL    HW1 3502   0.120   3.668   5.394
  980SOL    HW2 3503   0.044   3.719   5.259
  981SOL     OW 3504   0.865   2.210   3.919
  981SOL    HW1 3505   0.924   2.273   3.870
  981SOL    HW2 3506   0.884   2.116   3.890
  982SOL     OW 3507   1.362   3.006   4.269
  982SOL    HW1 3508   1.445   2.977   4.221
  982SOL    HW2 3509   1.313   3.073   4.213
  983SOL     OW 3510   0.550   2.058   4.609
  983SOL    HW1 3511   0.545   2.053   4.709
  983SOL    HW2 3512   0.552   2.154   4.580
  984SOL     OW 3513   1.008   3.318   4.201
  984SOL    HW1 3514   0.962   3.390   4.149
  984SOL    HW2 3515   1.004   3.338   4.299
  985SOL     OW 3516   0.351   3.663   4.577
  985SOL    HW1 3517   0.401   3.577   4.583
  985SOL    HW2 3518   0.416   3.740   4.574
  986SOL     OW 3519   1.795   2.928   4.597
  986SOL    HW1 3520   1.733   2.913   4.521
  986SOL    HW2 3521   1.743   2.939   4.682
  987SOL     OW 3522   1.458   2.597   4.452
  987SOL    HW1 3523   1.453   2.532   4.527
  987SOL    HW2 3524   1.538   2.656   4.465
  988SOL     OW 3525   1.111   3.638   3.961
  988SOL    HW1 3526   1.051   3.576   4.011
  988SOL    HW2 3527   1.142   3.594   3.876
  989SOL     OW 3528   1.632   3.239   3.805
  989SOL    HW1 3529   1.600   3.333   3.795
  989SOL    HW2 3530   1.556   3.176   3.793
  990SOL     OW 3531   0.464   3.605   4.047
  990SOL    HW1 3532   0.497   3.644   4.133
  990SOL    HW2 3533   0.540   3.598   3.982
  991SOL     OW 3534   1.400   1.969   4.150
  991SOL    HW1 3535   1.376   1.932   4.060
  991SOL    HW2 3536   1.499   1.985   4.154
  992SOL     OW 3537   0.249   3.647   4.965
  992SOL    HW1 3538   0.306   3.582   5.015
  992SOL    HW2 3539   0.233   3.614   4.872
  993SOL     OW 3540   0.940   3.560   4.628
  993SOL    HW1 3541   1.020   3.503   4.649
  993SOL    HW2 3542   0.891   3.520   4.551
  994SOL     OW 3543   0.382   2.562   4.204
  994SOL    HW1 3544   0.427   2.472   4.201
  994SOL    HW2 3545   0.288   2.551   4.237
  995SOL     OW 3546   0.614   1.984   3.841
  995SOL    HW1 3547   0.712   1.962   3.848
  995SOL    HW2 3548   0.583   1.967   3.748
  996SOL     OW 3549   0.803   3.264   4.648
  996SOL    HW1 3550   0.893   3.278   4.606
  996SOL    HW2 3551   0.732   3.266   4.577
  997SOL     OW 3552   0.922   2.365   4.623
  997SOL    HW1 3553   0.897   2.356   4.527
  997SOL    HW2 3554   0.970   2.283   4.654
  998SOL     OW 3555   0.539   1.926   4.236
  998SOL    HW1 3556   0.458   1.927   4.294
  998SOL    HW2 3557   0.542   2.009   4.181
  999SOL     OW 3558   1.434   3.050   3.765
  999SOL    HW1 3559   1.466   2.974   3.822
  999SOL    HW2 3560   1.342   3.077   3.795
 1000SOL     OW 3561   0.297   1.897   3.895
 1000SOL    HW1 3562   0.346   1.981   3.874
 1000SOL    HW2 3563   0.359   1.832   3.940
 1001SOL     OW 3564   0.935   2.098   4.204
 1001SOL    HW1 3565   0.887   2.139   4.126
 1001SOL    HW2 3566   1.034   2.096   4.185
 1002SOL     OW 3567   1.227   3.432   4.517
 1002SOL    HW1 3568   1.248   3.506   4.452
 1002SOL    HW2 3569   1.295   3.432   4.590
 1003SOL     OW 3570   0.459   3.014   4.465
 1003SOL    HW1 3571   0.388   2.987   4.530
 1003SOL    HW2 3572   0.433   2.986   4.372
 1004SOL     OW 3573   1.271   3.659   4.315
 1004SOL    HW1 3574   1.315   3.723   4.251
 1004SOL    HW2 3575   1.221   3.711   4.385
 1005SOL     OW 3576   1.032   2.411   3.740
 1005SOL    HW1 3577   0.991   2.493   3.701
 1005SOL    HW2 3578   1.096   2.437   3.813
 1006SOL     OW 3579   0.561   2.084   4.871
 1006SOL    HW1 3580   0.599   2.000   4.908
 1006SOL    HW2 3581   0.473   2.103   4.915
 1007SOL     OW 3582   0.866   2.316   4.366
 1007SOL    HW1 3583   0.834   2.388   4.304
 1007SOL    HW2 3584   0.890   2.235   4.313
 1008SOL     OW 3585   1.017   1.901   4.477
 1008SOL    HW1 3586   0.945   1.906   4.408
 1008SOL    HW2 3587   0.993   1.832   4.546
 1009SOL     OW 3588   1.429   3.035   4.591
 1009SOL    HW1 3589   1.374   2.951   4.584
 1009SOL    HW2 3590   1.455   3.064   4.499
 1010SOL     OW 3591   1.466   2.452   4.716
 1010SOL    HW1 3592   1.436   2.357   4.723
 1010SOL    HW2 3593   1.539   2.468   4.782
 1011SOL     OW 3594   1.857   2.695   4.101
 1011SOL    HW1 3595   1.899   2.631   4.165
 1011SOL    HW2 3596   1.819   2.644   4.023
 1012SOL     OW 3597   0.488   3.247   3.898
 1012SOL    HW1 3598   0.401   3.232   3.945
 1012SOL    HW2 3599   0.471   3.273   3.803
 1013SOL     OW 3600   1.664   3.142   4.381
 1013SOL    HW1 3601   1.763   3.150   4.395
 1013SOL    HW2 3602   1.619   3.226   4.412
 1014SOL     OW 3603   1.390   2.437   3.802
 1014SOL    HW1 3604   1.336   2.416   3.883
 1014SOL    HW2 3605   1.481   2.396   3.811
 1015SOL     OW 3606   0.527   2.118   4.052
 1015SOL    HW1 3607   0.554   2.059   3.977
 1015SOL    HW2 3608   0.527   2.213   4.021
 1016SOL     OW 3609   1.111   3.057   4.824
 1016SOL    HW1 3610   1.071   3.101   4.905
 1016SOL    HW2 3611   1.070   3.094   4.741
 1017SOL     OW 3612   1.638   2.961   4.803
 1017SOL    HW1 3613   1.643   3.042   4.862
 1017SOL    HW2 3614   1.552   2.963   4.752
 1018SOL     OW 3615   0.705   2.912   4.092
 1018SOL    HW1 3616   0.691   2.919   4.191
 1018SOL    HW2 3617   0.789   2.861   4.074
 1019SOL     OW 3618   0.410   2.675   4.975
 1019SOL    HW1 3619   0.496   2.687   5.025
 1019SOL    HW2 3620   0.368   2.588   5.002
 1020SOL     OW 3621   1.274   2.248   4.986
 1020SOL    HW1 3622   1.295   2.322   5.050
 1020SOL    HW2 3623   1.185   2.265   4.943
 1021SOL     OW 3624   0.367   2.962   4.225
 1021SOL    HW1 3625   0.360   3.045   4.169
 1021SOL    HW2 3626   0.371   2.882   4.165
 1022SOL     OW 3627   0.566   2.399   4.589
 1022SOL    HW1 3628   0.578   2.465   4.515
 1022SOL    HW2 3629   0.612   2.433   4.672
 1023SOL     OW 3630   1.252   3.210   4.112
 1023SOL    HW1 3631   1.302   3.287   4.152
 1023SOL    HW2 3632   1.157   3.212   4.144
 1024SOL     OW 3633   1.272   3.307   4.866
 1024SOL    HW1 3634   1.319   3.320   4.953
 1024SOL    HW2 3635   1.206   3.233   4.875
 1025SOL     OW 3636   1.582   2.501   4.196
 1025SOL    HW1 3637   1.551   2.562   4.269
 1025SOL    HW2 3638   1.632   2.553   4.127
 1026SOL     OW 3639   0.354   3.372   5.053
 1026SOL    HW1 3640   0.333   3.328   4.966
 1026SOL    HW2 3641   0.451   3.398   5.056
 1027SOL     OW 3642   0.573   2.732   4.753
 1027SOL    HW1 3643   0.617   2.821   4.744
 1027SOL    HW2 3644   0.510   2.732   4.830
 1028SOL     OW 3645   1.360   2.724   4.769
 1028SOL    HW1 3646   1.285   2.724   4.703
 1028SOL    HW2 3647   1.397   2.632   4.778
 1029SOL     OW 3648   1.209   2.387   3.999
 1029SOL    HW1 3649   1.222   2.303   4.053
 1029SOL    HW2 3650   1.180   2.461   4.059
 1030SOL     OW 3651   0.307   2.075   4.955
 1030SOL    HW1 3652   0.284   2.112   5.045
 1030SOL    HW2 3653   0.277   1.980   4.949
 1031SOL     OW 3654   0.037   3.172   5.006
 1031SOL    HW1 3655   0.090   3.123   5.074
 1031SOL    HW2 3656   0.059   3.270   5.011
 1032SOL     OW 3657   0.732   2.496   4.788
 1032SOL    HW1 3658   0.791   2.470   4.712
 1032SOL    HW2 3659   0.704   2.592   4.777
 1033SOL     OW 3660   0.307   1.925   4.342
 1033SOL    HW1 3661   0.296   2.019   4.375
 1033SOL    HW2 3662   0.302   1.862   4.419
 1034SOL     OW 3663   1.622   2.229   4.098
 1034SOL    HW1 3664   1.624   2.153   4.162
 1034SOL    HW2 3665   1.574   2.306   4.138
 1035SOL     OW 3666   1.023   2.628   4.690
 1035SOL    HW1 3667   1.038   2.649   4.786
 1035SOL    HW2 3668   0.993   2.533   4.681
 1036SOL     OW 3669   1.540   2.136   3.849
 1036SOL    HW1 3670   1.479   2.061   3.872
 1036SOL    HW2 3671   1.562   2.188   3.932
 1037SOL     OW 3672   1.303   2.700   3.766
 1037SOL    HW1 3673   1.337   2.607   3.781
 1037SOL    HW2 3674   1.321   2.727   3.671
 1038SOL     OW 3675   1.068   3.195   4.573
 1038SOL    HW1 3676   1.075   3.111   4.518
 1038SOL    HW2 3677   1.130   3.264   4.537
 1039SOL     OW 3678   0.319   2.672   4.673
 1039SOL    HW1 3679   0.412   2.708   4.678
 1039SOL    HW2 3680   0.313   2.587   4.725
 1040SOL     OW 3681   0.339   2.371   4.730
 1040SOL    HW1 3682   0.287   2.288   4.713
 1040SOL    HW2 3683   0.416   2.376   4.666
 1041SOL     OW 3684   1.160   2.069   5.201
 1041SOL    HW1 3685   1.160   2.133   5.278
 1041SOL    HW2 3686   1.188   2.117   5.118
 1042SOL     OW 3687   0.008   3.188   3.924
 1042SOL    HW1 3688  -0.085   3.209   3.893
 1042SOL    HW2 3689   0.018   3.089   3.937
 1043SOL     OW 3690   0.088   3.663   4.651
 1043SOL    HW1 3691   0.046   3.577   4.624
 1043SOL    HW2 3692   0.182   3.666   4.617
 1044SOL     OW 3693   0.504   3.430   4.634
 1044SOL    HW1 3694   0.570   3.504   4.643
 1044SOL    HW2 3695   0.548   3.351   4.592
 1045SOL     OW 3696   1.002   2.658   4.962
 1045SOL    HW1 3697   1.043   2.626   5.048
 1045SOL    HW2 3698   0.906   2.631   4.959
 1046SOL     OW 3699   0.040   2.406   4.838
 1046SOL    HW1 3700   0.125   2.373   4.797
 1046SOL    HW2 3701   0.053   2.421   4.936
 1047SOL     OW 3702   0.815   2.434   4.049
 1047SOL    HW1 3703   0.822   2.345   4.003
 1047SOL    HW2 3704   0.721   2.468   4.041
 1048SOL     OW 3705   1.657   2.466   4.930
 1048SOL    HW1 3706   1.619   2.397   4.992
 1048SOL    HW2 3707   1.739   2.430   4.886
 1049SOL     OW 3708   0.671   2.326   4.993
 1049SOL    HW1 3709   0.637   2.237   4.963
 1049SOL    HW2 3710   0.697   2.380   4.913
 1050SOL     OW 3711   0.930   3.540   5.189
 1050SOL    HW1 3712   0.906   3.522   5.094
 1050SOL    HW2 3713   0.960   3.634   5.199
 1051SOL     OW 3714   0.473   2.362   3.915
 1051SOL    HW1 3715   0.534   2.442   3.919
 1051SOL    HW2 3716   0.378   2.393   3.922
 1052SOL     OW 3717   1.347   2.921   4.958
 1052SOL    HW1 3718   1.371   2.858   4.884
 1052SOL    HW2 3719   1.257   2.961   4.940
 1053SOL     OW 3720   1.302   2.717   4.033
 1053SOL    HW1 3721   1.216   2.686   4.075
 1053SOL    HW2 3722   1.298   2.703   3.934
 1054SOL     OW 3723   1.759   3.609   4.878
 1054SOL    HW1 3724   1.820   3.639   4.805
 1054SOL    HW2 3725   1.721   3.520   4.856
 1055SOL     OW 3726   1.252   3.593   4.852
 1055SOL    HW1 3727   1.336   3.598   4.798
 1055SOL    HW2 3728   1.229   3.497   4.870
 1056SOL     OW 3729   0.083   3.120   4.746
 1056SOL    HW1 3730   0.078   3.119   4.846
 1056SOL    HW2 3731   0.000   3.079   4.708
 1057SOL     OW 3732   1.726   1.997   4.247
 1057SOL    HW1 3733   1.799   1.980   4.180
 1057SOL    HW2 3734   1.695   1.910   4.285
 1058SOL     OW 3735   1.388   3.435   4.201
 1058SOL    HW1 3736   1.455   3.447   4.127
 1058SOL    HW2 3737   1.348   3.524   4.224
 1059SOL     OW 3738   1.280   2.789   4.396
 1059SOL    HW1 3739   1.340   2.708   4.398
 1059SOL    HW2 3740   1.320   2.858   4.336
 1060SOL     OW 3741   0.672   3.478   3.878
 1060SOL    HW1 3742   0.681   3.488   3.779
 1060SOL    HW2 3743   0.632   3.389   3.899
 1061SOL     OW 3744   1.650   3.582   5.118
 1061SOL    HW1 3745   1.703   3.592   5.034
 1061SOL    HW2 3746   1.623   3.672   5.152
 1062SOL     OW 3747   1.841   2.037   4.687
 1062SOL    HW1 3748   1.880   1.952   4.651
 1062SOL    HW2 3749   1.743   2.039   4.668
 1063SOL     OW 3750   0.263   2.188   4.444
 1063SOL    HW1 3751   0.184   2.239   4.410
 1063SOL    HW2 3752   0.254   2.173   4.542
 1064SOL     OW 3753   1.194   3.474   3.755
 1064SOL    HW1 3754   1.200   3.381   3.792
 1064SOL    HW2 3755   1.135   3.474   3.675
 1065SOL     OW 3756   0.822   2.864   5.096
 1065SOL    HW1 3757   0.862   2.863   5.004
 1065SOL    HW2 3758   0.832   2.956   5.136
 1066SOL     OW 3759   1.504   3.469   3.768
 1066SOL    HW1 3760   1.412   3.506   3.775
 1066SOL    HW2 3761   1.542   3.489   3.678
 1067SOL     OW 3762   1.039   2.960   4.420
 1067SOL    HW1 3763   0.969   2.913   4.474
 1067SOL    HW2 3764   1.098   2.892   4.377
 1068SOL     OW 3765   1.014   2.098   4.695
 1068SOL    HW1 3766   1.006   2.062   4.602
 1068SOL    HW2 3767   1.012   2.022   4.760
 1069SOL     OW 3768   0.590   3.349   4.215
 1069SOL    HW1 3769   0.632   3.291   4.145
 1069SOL    HW2 3770   0.546   3.428   4.171
 1070SOL     OW 3771   1.709   2.247   5.105
 1070SOL    HW1 3772   1.782   2.316   5.109
 1070SOL    HW2 3773   1.737   2.172   5.046
 1071SOL     OW 3774   0.255   3.210   4.014
 1071SOL    HW1 3775   0.159   3.211   3.987
 1071SOL    HW2 3776   0.267   3.263   4.098
 1072SOL     OW 3777   0.075   2.207   3.757
 1072SOL    HW1 3778  -0.017   2.179   3.728
 1072SOL    HW2 3779   0.106   2.284   3.701
 1073SOL     OW 3780   0.072   2.028   4.042
 1073SOL    HW1 3781   0.055   2.111   3.988
 1073SOL    HW2 3782   0.162   1.991   4.020
 1074SOL     OW 3783   1.183   3.197   3.843
 1074SOL    HW1 3784   1.084   3.186   3.845
 1074SOL    HW2 3785   1.217   3.212   3.936
 1075SOL     OW 3786   1.493   3.629   4.683
 1075SOL    HW1 3787   1.526   3.693   4.614
 1075SOL    HW2 3788   1.559   3.623   4.758
 1076SOL     OW 3789   1.450   3.082   5.357
 1076SOL    HW1 3790   1.441   3.072   5.456
 1076SOL    HW2 3791   1.546   3.075   5.331
 1077SOL     OW 3792   1.674   2.745   4.978
 1077SOL    HW1 3793   1.647   2.656   4.941
 1077SOL    HW2 3794   1.675   2.813   4.905
 1078SOL     OW 3795   1.225   2.187   4.173
 1078SOL    HW1 3796   1.290   2.113   4.162
 1078SOL    HW2 3797   1.245   2.237   4.257
 1079SOL     OW 3798   0.594   2.607   4.376
 1079SOL    HW1 3799   0.644   2.692   4.357
 1079SOL    HW2 3800   0.506   2.609   4.328
 1080SOL     OW 3801   1.730   2.796   5.241
 1080SOL    HW1 3802   1.768   2.887   5.256
 1080SOL    HW2 3803   1.722   2.779   5.142
 1081SOL     OW 3804   0.859   3.236   3.740
 1081SOL    HW1 3805   0.813   3.251   3.828
 1081SOL    HW2 3806   0.903   3.321   3.710
 1082SOL     OW 3807   0.661   3.652   4.677
 1082SOL    HW1 3808   0.615   3.740   4.664
 1082SOL    HW2 3809   0.760   3.664   4.670
 1083SOL     OW 3810   0.859   2.818   4.585
 1083SOL    HW1 3811   0.913   2.749   4.633
 1083SOL    HW2 3812   0.827   2.887   4.651
 1084SOL     OW 3813   1.861   3.431   4.575
 1084SOL    HW1 3814   1.790   3.419   4.505
 1084SOL    HW2 3815   1.862   3.352   4.635
 1085SOL     OW 3816   0.079   3.102   4.377
 1085SOL    HW1 3817   0.078   3.055   4.465
 1085SOL    HW2 3818   0.161   3.074   4.326
 1086SOL     OW 3819   1.824   2.054   4.951
 1086SOL    HW1 3820   1.820   1.964   4.995
 1086SOL    HW2 3821   1.827   2.043   4.852
 1087SOL     OW 3822   0.428   2.286   4.244
 1087SOL    HW1 3823   0.458   2.214   4.182
 1087SOL    HW2 3824   0.389   2.246   4.327
 1088SOL     OW 3825   1.705   3.349   4.828
 1088SOL    HW1 3826   1.612   3.324   4.801
 1088SOL    HW2 3827   1.731   3.299   4.910
 1089SOL     OW 3828   0.812   3.448   4.411
 1089SOL    HW1 3829   0.844   3.458   4.317
 1089SOL    HW2 3830   0.733   3.386   4.413
 1090SOL     OW 3831   1.424   2.076   4.836
 1090SOL    HW1 3832   1.476   2.011   4.891
 1090SOL    HW2 3833   1.375   2.139   4.897
 1091SOL     OW 3834   1.001   1.896   4.878
 1091SOL    HW1 3835   0.938   1.824   4.847
 1091SOL    HW2 3836   1.094   1.860   4.878
 1092SOL     OW 3837   0.770   3.192   4.025
 1092SOL    HW1 3838   0.724   3.105   4.042
 1092SOL    HW2 3839   0.861   3.189   4.066
 1093SOL     OW 3840   1.352   1.914   3.892
 1093SOL    HW1 3841   1.387   1.873   3.808
 1093SOL    HW2 3842   1.262   1.876   3.912
 1094SOL     OW 3843   1.300   2.315   4.415
 1094SOL    HW1 3844   1.241   2.395   4.419
 1094SOL    HW2 3845   1.315   2.280   4.508
 1095SOL     OW 3846   1.593   2.083   4.606
 1095SOL    HW1 3847   1.509   2.082   4.660
 1095SOL    HW2 3848   1.595   2.166   4.550
 1096SOL     OW 3849   0.039   2.939   4.024
 1096SOL    HW1 3850   0.138   2.928   4.015
 1096SOL    HW2 3851  -0.001   2.853   4.056
 1097SOL     OW 3852   0.875   3.508   4.061
 1097SOL    HW1 3853   0.798   3.473   4.007
 1097SOL    HW2 3854   0.843   3.579   4.123
 1098SOL     OW 3855   0.230   4.352   0.113
 1098SOL    HW1 3856   0.137   4.350   0.150
 1098SOL    HW2 3857   0.231   4.313   0.021
 1099SOL     OW 3858   0.225   3.999   0.996
 1099SOL    HW1 3859   0.260   3.982   1.088
 1099SOL    HW2 3860   0.137   3.954   0.984
 1100SOL     OW 3861   0.019   4.092   0.647
 1100SOL    HW1 3862  -0.063   4.135   0.686
 1100SOL    HW2 3863  -0.009   4.019   0.584
 1101SOL     OW 3864   0.569   4.999   1.165
 1101SOL    HW1 3865   0.476   4.992   1.128
 1101SOL    HW2 3866   0.580   5.088   1.209
 1102SOL     OW 3867   1.555   5.235   0.703
 1102SOL    HW1 3868   1.498   5.219   0.784
 1102SOL    HW2 3869   1.496   5.245   0.623
 1103SOL     OW 3870   1.135   4.427   0.717
 1103SOL    HW1 3871   1.192   4.505   0.692
 1103SOL    HW2 3872   1.075   4.453   0.793
 1104SOL     OW 3873   1.755   4.331   0.231
 1104SOL    HW1 3874   1.743   4.318   0.132
 1104SOL    HW2 3875   1.725   4.250   0.280
 1105SOL     OW 3876   0.768   4.868   1.023
 1105SOL    HW1 3877   0.690   4.885   1.083
 1105SOL    HW2 3878   0.802   4.955   0.987
 1106SOL     OW 3879   0.850   4.522   1.823
 1106SOL    HW1 3880   0.846   4.598   1.888
 1106SOL    HW2 3881   0.872   4.558   1.732
 1107SOL     OW 3882   0.685   4.736   0.665
 1107SOL    HW1 3883   0.754   4.720   0.735
 1107SOL    HW2 3884   0.612   4.793   0.703
 1108SOL     OW 3885   0.686   4.885   1.803
 1108SOL    HW1 3886   0.746   4.964   1.817
 1108SOL    HW2 3887   0.600   4.916   1.762
 1109SOL     OW 3888   0.335   5.159   1.061
 1109SOL    HW1 3889   0.257   5.128   1.008
 1109SOL    HW2 3890   0.393   5.217   1.004
 1110SOL     OW 3891   0.438   4.116   1.499
 1110SOL    HW1 3892   0.520   4.060   1.508
 1110SOL    HW2 3893   0.357   4.058   1.503
 1111SOL     OW 3894   1.603   4.171   0.737
 1111SOL    HW1 3895   1.529   4.217   0.687
 1111SOL    HW2 3896   1.654   4.239   0.790
 1112SOL     OW 3897   0.240   4.815   0.886
 1112SOL    HW1 3898   0.254   4.731   0.938
 1112SOL    HW2 3899   0.185   4.879   0.941
 1113SOL     OW 3900   0.606   4.688   0.123
 1113SOL    HW1 3901   0.613   4.772   0.069
 1113SOL    HW2 3902   0.652   4.701   0.211
 1114SOL     OW 3903   1.594   3.838   1.480
 1114SOL    HW1 3904   1.576   3.905   1.408
 1114SOL    HW2 3905   1.591   3.884   1.569
 1115SOL     OW 3906   0.122   4.367   0.563
 1115SOL    HW1 3907   0.077   4.279   0.580
 1115SOL    HW2 3908   0.121   4.421   0.647
 1116SOL     OW 3909   1.689   4.646   0.612
 1116SOL    HW1 3910   1.784   4.617   0.620
 1116SOL    HW2 3911   1.681   4.711   0.537
 1117SOL     OW 3912   1.641   4.832   0.432
 1117SOL    HW1 3913   1.727   4.834   0.380
 1117SOL    HW2 3914   1.655   4.879   0.520
 1118SOL     OW 3915   0.113   4.461   1.597
 1118SOL    HW1 3916   0.201   4.448   1.642
 1118SOL    HW2 3917   0.100   4.558   1.575
 1119SOL     OW 3918   1.293   4.952   1.423
 1119SOL    HW1 3919   1.330   4.879   1.365
 1119SOL    HW2 3920   1.345   4.957   1.508
 1120SOL     OW 3921   0.809   3.728   0.502
 1120SOL    HW1 3922   0.849   3.819   0.493
 1120SOL    HW2 3923   0.709   3.736   0.508
 1121SOL     OW 3924   0.197   4.700   1.264
 1121SOL    HW1 3925   0.286   4.655   1.250
 1121SOL    HW2 3926   0.124   4.635   1.245
 1122SOL     OW 3927   1.525   4.723   0.190
 1122SOL    HW1 3928   1.462   4.647   0.203
 1122SOL    HW2 3929   1.573   4.741   0.276
 1123SOL     OW 3930   0.317   3.975   1.801
 1123SOL    HW1 3931   0.388   4.046   1.807
 1123SOL    HW2 3932   0.229   4.014   1.829
 1124SOL     OW 3933   1.466   5.141   0.953
 1124SOL    HW1 3934   1.407   5.147   1.033
 1124SOL    HW2 3935   1.451   5.053   0.907
 1125SOL     OW 3936   0.598   4.453   0.270
 1125SOL    HW1 3937   0.622   4.522   0.202
 1125SOL    HW2 3938   0.520   4.486   0.324
 1126SOL     OW 3939   1.281   4.069   0.944
 1126SOL    HW1 3940   1.195   4.019   0.931
 1126SOL    HW2 3941   1.343   4.015   1.000
 1127SOL     OW 3942   0.807   4.329   1.465
 1127SOL    HW1 3943   0.760   4.326   1.554
 1127SOL    HW2 3944   0.756   4.274   1.399
 1128SOL     OW 3945   1.394   4.193   1.674
 1128SOL    HW1 3946   1.374   4.236   1.762
 1128SOL    HW2 3947   1.472   4.131   1.683
 1129SOL     OW 3948   0.973   4.614   1.572
 1129SOL    HW1 3949   1.019   4.530   1.543
 1129SOL    HW2 3950   0.917   4.648   1.497
 1130SOL     OW 3951   0.991   4.134   1.242
 1130SOL    HW1 3952   0.914   4.168   1.296
 1130SOL    HW2 3953   0.957   4.083   1.163
 1131SOL     OW 3954   1.041   4.425   0.429
 1131SOL    HW1 3955   1.067   4.421   0.525
 1131SOL    HW2 3956   0.956   4.374   0.415
 1132SOL     OW 3957   0.076   4.535   0.789
 1132SOL    HW1 3958   0.175   4.523   0.798
 1132SOL    HW2 3959   0.052   4.630   0.810
 1133SOL     OW 3960   0.865   4.072   0.195
 1133SOL    HW1 3961   0.924   4.135   0.146
 1133SOL    HW2 3962   0.884   3.978   0.166
 1134SOL     OW 3963   1.719   4.309   1.831
 1134SOL    HW1 3964   1.693   4.398   1.795
 1134SOL    HW2 3965   1.717   4.241   1.758
 1135SOL     OW 3966   1.362   4.868   0.545
 1135SOL    HW1 3967   1.445   4.839   0.497
 1135SOL    HW2 3968   1.313   4.935   0.489
 1136SOL     OW 3969   0.550   3.920   0.885
 1136SOL    HW1 3970   0.545   3.915   0.985
 1136SOL    HW2 3971   0.552   4.016   0.856
 1137SOL     OW 3972   1.795   4.790   0.873
 1137SOL    HW1 3973   1.733   4.775   0.797
 1137SOL    HW2 3974   1.743   4.801   0.958
 1138SOL     OW 3975   0.321   4.667   0.242
 1138SOL    HW1 3976   0.403   4.706   0.200
 1138SOL    HW2 3977   0.294   4.585   0.193
 1139SOL     OW 3978   1.458   4.459   0.728
 1139SOL    HW1 3979   1.453   4.394   0.803
 1139SOL    HW2 3980   1.538   4.518   0.741
 1140SOL     OW 3981   0.202   4.009   1.498
 1140SOL    HW1 3982   0.122   4.069   1.485
 1140SOL    HW2 3983   0.192   3.960   1.584
 1141SOL     OW 3984   1.632   5.101   0.081
 1141SOL    HW1 3985   1.600   5.195   0.071
 1141SOL    HW2 3986   1.556   5.038   0.069
 1142SOL     OW 3987   1.400   3.831   0.426
 1142SOL    HW1 3988   1.376   3.794   0.336
 1142SOL    HW2 3989   1.499   3.847   0.430
 1143SOL     OW 3990   0.382   4.424   0.480
 1143SOL    HW1 3991   0.427   4.334   0.477
 1143SOL    HW2 3992   0.288   4.413   0.513
 1144SOL     OW 3993   1.547   3.946   1.729
 1144SOL    HW1 3994   1.542   3.983   1.821
 1144SOL    HW2 3995   1.475   3.877   1.717
 1145SOL     OW 3996   0.781   3.988   1.749
 1145SOL    HW1 3997   0.848   3.927   1.792
 1145SOL    HW2 3998   0.708   4.007   1.814
 1146SOL     OW 3999   1.351   4.314   1.433
 1146SOL    HW1 4000   1.379   4.271   1.518
 1146SOL    HW2 4001   1.376   4.410   1.434
 1147SOL     OW 4002   0.803   5.126   0.924
 1147SOL    HW1 4003   0.893   5.140   0.882
 1147SOL    HW2 4004   0.732   5.128   0.853
 1148SOL     OW 4005   0.922   4.227   0.899
 1148SOL    HW1 4006   0.897   4.218   0.803
 1148SOL    HW2 4007   0.970   4.145   0.930
 1149SOL     OW 4008   0.539   3.788   0.512
 1149SOL    HW1 4009   0.458   3.789   0.570
 1149SOL    HW2 4010   0.542   3.871   0.457
 1150SOL     OW 4011   1.434   4.912   0.041
 1150SOL    HW1 4012   1.466   4.836   0.098
 1150SOL    HW2 4013   1.342   4.939   0.071
 1151SOL     OW 4014   0.297   3.759   0.171
 1151SOL    HW1 4015   0.346   3.843   0.150
 1151SOL    HW2 4016   0.359   3.694   0.216
 1152SOL     OW 4017   0.935   3.960   0.480
 1152SOL    HW1 4018   0.887   4.001   0.402
 1152SOL    HW2 4019   1.034   3.958   0.461
 1153SOL     OW 4020   1.076   4.407   1.464
 1153SOL    HW1 4021   0.996   4.346   1.467
 1153SOL    HW2 4022   1.157   4.354   1.440
 1154SOL     OW 4023   1.227   5.294   0.793
 1154SOL    HW1 4024   1.248   5.368   0.728
 1154SOL    HW2 4025   1.295   5.294   0.866
 1155SOL     OW 4026   0.459   4.876   0.741
 1155SOL    HW1 4027   0.388   4.849   0.806
 1155SOL    HW2 4028   0.433   4.848   0.648
 1156SOL     OW 4029   1.032   4.273   0.016
 1156SOL    HW1 4030   0.991   4.355  -0.023
 1156SOL    HW2 4031   1.096   4.299   0.089
 1157SOL     OW 4032   0.078   4.280   1.386
 1157SOL    HW1 4033   0.170   4.279   1.345
 1157SOL    HW2 4034   0.072   4.354   1.453
 1158SOL     OW 4035   0.561   3.946   1.147
 1158SOL    HW1 4036   0.599   3.862   1.184
 1158SOL    HW2 4037   0.473   3.965   1.191
 1159SOL     OW 4038   0.866   4.178   0.642
 1159SOL    HW1 4039   0.834   4.250   0.580
 1159SOL    HW2 4040   0.890   4.097   0.589
 1160SOL     OW 4041   1.017   3.763   0.753
 1160SOL    HW1 4042   0.945   3.768   0.684
 1160SOL    HW2 4043   0.993   3.694   0.822
 1161SOL     OW 4044   1.429   4.897   0.867
 1161SOL    HW1 4045   1.374   4.813   0.860
 1161SOL    HW2 4046   1.455   4.926   0.775
 1162SOL     OW 4047   1.466   4.314   0.992
 1162SOL    HW1 4048   1.436   4.219   0.999
 1162SOL    HW2 4049   1.539   4.330   1.058
 1163SOL     OW 4050   1.857   4.557   0.377
 1163SOL    HW1 4051   1.899   4.493   0.441
 1163SOL    HW2 4052   1.819   4.506   0.299
 1164SOL     OW 4053   1.664   5.004   0.657
 1164SOL    HW1 4054   1.763   5.012   0.671
 1164SOL    HW2 4055   1.619   5.088   0.688
 1165SOL     OW 4056   1.390   4.299   0.078
 1165SOL    HW1 4057   1.336   4.278   0.159
 1165SOL    HW2 4058   1.481   4.258   0.087
 1166SOL     OW 4059   0.527   3.980   0.328
 1166SOL    HW1 4060   0.554   3.921   0.253
 1166SOL    HW2 4061   0.527   4.075   0.297
 1167SOL     OW 4062   1.754   4.947   1.588
 1167SOL    HW1 4063   1.845   4.908   1.575
 1167SOL    HW2 4064   1.762   5.043   1.612
 1168SOL     OW 4065   1.638   4.823   1.079
 1168SOL    HW1 4066   1.643   4.904   1.138
 1168SOL    HW2 4067   1.552   4.825   1.028
 1169SOL     OW 4068   0.915   3.813   1.402
 1169SOL    HW1 4069   0.940   3.793   1.307
 1169SOL    HW2 4070   0.987   3.869   1.444
 1170SOL     OW 4071   0.980   4.840   1.719
 1170SOL    HW1 4072   0.881   4.846   1.729
 1170SOL    HW2 4073   1.003   4.760   1.663
 1171SOL     OW 4074   0.705   4.774   0.368
 1171SOL    HW1 4075   0.691   4.781   0.467
 1171SOL    HW2 4076   0.789   4.723   0.350
 1172SOL     OW 4077   0.410   4.537   1.251
 1172SOL    HW1 4078   0.496   4.549   1.301
 1172SOL    HW2 4079   0.368   4.450   1.278
 1173SOL     OW 4080   1.274   4.110   1.262
 1173SOL    HW1 4081   1.295   4.184   1.326
 1173SOL    HW2 4082   1.185   4.127   1.219
 1174SOL     OW 4083   0.367   4.824   0.501
 1174SOL    HW1 4084   0.360   4.907   0.445
 1174SOL    HW2 4085   0.371   4.744   0.441
 1175SOL     OW 4086   0.566   4.261   0.865
 1175SOL    HW1 4087   0.578   4.327   0.791
 1175SOL    HW2 4088   0.612   4.295   0.948
 1176SOL     OW 4089   1.582   4.363   0.472
 1176SOL    HW1 4090   1.551   4.424   0.545
 1176SOL    HW2 4091   1.632   4.415   0.403
 1177SOL     OW 4092   0.402   4.475   1.598
 1177SOL    HW1 4093   0.470   4.530   1.551
 1177SOL    HW2 4094   0.442   4.387   1.625
 1178SOL     OW 4095   1.587   4.503   1.670
 1178SOL    HW1 4096   1.495   4.541   1.665
 1178SOL    HW2 4097   1.647   4.550   1.605
 1179SOL     OW 4098   1.013   3.829   1.770
 1179SOL    HW1 4099   1.019   3.914   1.718
 1179SOL    HW2 4100   1.045   3.753   1.713
 1180SOL     OW 4101   0.504   3.774   1.740
 1180SOL    HW1 4102   0.462   3.717   1.670
 1180SOL    HW2 4103   0.438   3.843   1.772
 1181SOL     OW 4104   0.573   4.594   1.029
 1181SOL    HW1 4105   0.617   4.683   1.020
 1181SOL    HW2 4106   0.510   4.594   1.106
 1182SOL     OW 4107   1.360   4.586   1.045
 1182SOL    HW1 4108   1.285   4.586   0.979
 1182SOL    HW2 4109   1.397   4.494   1.054
 1183SOL     OW 4110   1.209   4.249   0.275
 1183SOL    HW1 4111   1.222   4.165   0.329
 1183SOL    HW2 4112   1.180   4.323   0.335
 1184SOL     OW 4113   0.307   3.937   1.231
 1184SOL    HW1 4114   0.284   3.974   1.321
 1184SOL    HW2 4115   0.277   3.842   1.225
 1185SOL     OW 4116   0.037   5.034   1.282
 1185SOL    HW1 4117   0.090   4.985   1.350
 1185SOL    HW2 4118   0.059   5.132   1.287
 1186SOL     OW 4119   0.732   4.358   1.064
 1186SOL    HW1 4120   0.791   4.332   0.988
 1186SOL    HW2 4121   0.704   4.454   1.053
 1187SOL     OW 4122   1.728   4.659   1.854
 1187SOL    HW1 4123   1.682   4.652   1.765
 1187SOL    HW2 4124   1.666   4.703   1.920
 1188SOL     OW 4125   0.307   3.787   0.618
 1188SOL    HW1 4126   0.296   3.881   0.651
 1188SOL    HW2 4127   0.302   3.724   0.695
 1189SOL     OW 4128   1.622   4.091   0.374
 1189SOL    HW1 4129   1.624   4.015   0.438
 1189SOL    HW2 4130   1.574   4.168   0.414
 1190SOL     OW 4131   1.023   4.490   0.966
 1190SOL    HW1 4132   1.038   4.511   1.062
 1190SOL    HW2 4133   0.993   4.395   0.957
 1191SOL     OW 4134   1.859   5.242   1.605
 1191SOL    HW1 4135   1.873   5.269   1.510
 1191SOL    HW2 4136   1.942   5.264   1.658
 1192SOL     OW 4137   0.350   4.622   1.804
 1192SOL    HW1 4138   0.426   4.666   1.852
 1192SOL    HW2 4139   0.385   4.575   1.722
 1193SOL     OW 4140   1.540   3.998   0.125
 1193SOL    HW1 4141   1.479   3.923   0.148
 1193SOL    HW2 4142   1.562   4.050   0.208
 1194SOL     OW 4143   1.303   4.562   0.042
 1194SOL    HW1 4144   1.337   4.469   0.057
 1194SOL    HW2 4145   1.321   4.589  -0.053
 1195SOL     OW 4146   0.319   4.534   0.949
 1195SOL    HW1 4147   0.412   4.570   0.954
 1195SOL    HW2 4148   0.313   4.449   1.001
 1196SOL     OW 4149   0.339   4.233   1.006
 1196SOL    HW1 4150   0.287   4.150   0.989
 1196SOL    HW2 4151   0.416   4.238   0.942
 1197SOL     OW 4152   1.138   4.104   1.678
 1197SOL    HW1 4153   1.093   4.167   1.742
 1197SOL    HW2 4154   1.231   4.135   1.661
 1198SOL     OW 4155   1.160   3.931   1.477
 1198SOL    HW1 4156   1.160   3.995   1.554
 1198SOL    HW2 4157   1.188   3.979   1.394
 1199SOL     OW 4158   0.008   5.050   0.200
 1199SOL    HW1 4159  -0.085   5.071   0.169
 1199SOL    HW2 4160   0.018   4.951   0.213
 1200SOL     OW 4161   1.002   4.520   1.238
 1200SOL    HW1 4162   1.043   4.488   1.324
 1200SOL    HW2 4163   0.906   4.493   1.235
 1201SOL     OW 4164   0.040   4.268   1.114
 1201SOL    HW1 4165   0.125   4.235   1.073
 1201SOL    HW2 4166   0.053   4.283   1.212
 1202SOL     OW 4167   0.189   4.244   1.722
 1202SOL    HW1 4168   0.248   4.204   1.652
 1202SOL    HW2 4169   0.131   4.315   1.681
 1203SOL     OW 4170   1.369   4.674   1.660
 1203SOL    HW1 4171   1.408   4.763   1.680
 1203SOL    HW2 4172   1.379   4.654   1.563
 1204SOL     OW 4173   0.815   4.296   0.325
 1204SOL    HW1 4174   0.822   4.207   0.279
 1204SOL    HW2 4175   0.721   4.330   0.317
 1205SOL     OW 4176   1.657   4.328   1.206
 1205SOL    HW1 4177   1.619   4.259   1.268
 1205SOL    HW2 4178   1.739   4.292   1.162
 1206SOL     OW 4179   0.671   4.188   1.269
 1206SOL    HW1 4180   0.637   4.099   1.239
 1206SOL    HW2 4181   0.697   4.242   1.189
 1207SOL     OW 4182   0.473   4.224   0.191
 1207SOL    HW1 4183   0.534   4.304   0.195
 1207SOL    HW2 4184   0.378   4.255   0.198
 1208SOL     OW 4185   0.159   4.861   1.466
 1208SOL    HW1 4186   0.181   4.800   1.542
 1208SOL    HW2 4187   0.169   4.812   1.380
 1209SOL     OW 4188   1.347   4.783   1.234
 1209SOL    HW1 4189   1.371   4.720   1.160
 1209SOL    HW2 4190   1.257   4.823   1.216
 1210SOL     OW 4191   1.302   4.579   0.309
 1210SOL    HW1 4192   1.216   4.548   0.351
 1210SOL    HW2 4193   1.298   4.565   0.210
 1211SOL     OW 4194   0.083   4.982   1.022
 1211SOL    HW1 4195   0.078   4.981   1.122
 1211SOL    HW2 4196   0.000   4.941   0.984
 1212SOL     OW 4197   0.903   3.810   0.133
 1212SOL    HW1 4198   0.954   3.811   0.047
 1212SOL    HW2 4199   0.959   3.768   0.204
 1213SOL     OW 4200   1.726   3.859   0.523
 1213SOL    HW1 4201   1.799   3.842   0.456
 1213SOL    HW2 4202   1.695   3.772   0.561
 1214SOL     OW 4203   1.280   4.651   0.672
 1214SOL    HW1 4204   1.340   4.570   0.674
 1214SOL    HW2 4205   1.320   4.720   0.612
 1215SOL     OW 4206   0.830   4.997   1.422
 1215SOL    HW1 4207   0.825   5.030   1.517
 1215SOL    HW2 4208   0.744   5.016   1.376
 1216SOL     OW 4209   1.841   3.899   0.963
 1216SOL    HW1 4210   1.880   3.814   0.927
 1216SOL    HW2 4211   1.743   3.901   0.944
 1217SOL     OW 4212   0.263   4.050   0.720
 1217SOL    HW1 4213   0.184   4.101   0.686
 1217SOL    HW2 4214   0.254   4.035   0.818
 1218SOL     OW 4215   0.822   4.726   1.372
 1218SOL    HW1 4216   0.862   4.725   1.280
 1218SOL    HW2 4217   0.832   4.818   1.412
 1219SOL     OW 4218   0.916   4.634   0.291
 1219SOL    HW1 4219   0.979   4.672   0.223
 1219SOL    HW2 4220   0.956   4.551   0.330
 1220SOL     OW 4221   0.372   5.012   1.490
 1220SOL    HW1 4222   0.359   5.105   1.456
 1220SOL    HW2 4223   0.288   4.960   1.477
 1221SOL     OW 4224   1.614   5.016   1.289
 1221SOL    HW1 4225   1.674   5.019   1.369
 1221SOL    HW2 4226   1.539   5.080   1.302
 1222SOL     OW 4227   1.039   4.822   0.696
 1222SOL    HW1 4228   0.969   4.775   0.750
 1222SOL    HW2 4229   1.098   4.754   0.653
 1223SOL     OW 4230   1.014   3.960   0.971
 1223SOL    HW1 4231   1.006   3.924   0.878
 1223SOL    HW2 4232   1.012   3.884   1.036
 1224SOL     OW 4233   1.709   4.109   1.381
 1224SOL    HW1 4234   1.782   4.178   1.385
 1224SOL    HW2 4235   1.737   4.034   1.322
 1225SOL     OW 4236   0.105   4.737   1.726
 1225SOL    HW1 4237   0.028   4.704   1.780
 1225SOL    HW2 4238   0.190   4.707   1.768
 1226SOL     OW 4239   0.672   3.927   1.489
 1226SOL    HW1 4240   0.762   3.911   1.449
 1226SOL    HW2 4241   0.680   3.932   1.588
 1227SOL     OW 4242   0.075   4.069   0.033
 1227SOL    HW1 4243  -0.017   4.041   0.004
 1227SOL    HW2 4244   0.106   4.146  -0.023
 1228SOL     OW 4245   1.440   4.580   1.398
 1228SOL    HW1 4246   1.383   4.632   1.335
 1228SOL    HW2 4247   1.536   4.592   1.374
 1229SOL     OW 4248   0.072   3.890   0.318
 1229SOL    HW1 4249   0.055   3.973   0.264
 1229SOL    HW2 4250   0.162   3.853   0.296
 1230SOL     OW 4251   0.613   4.566   1.431
 1230SOL    HW1 4252   0.669   4.647   1.414
 1230SOL    HW2 4253   0.672   4.486   1.434
 1231SOL     OW 4254   0.716   4.289   1.708
 1231SOL    HW1 4255   0.735   4.354   1.782
 1231SOL    HW2 4256   0.776   4.209   1.717
 1232SOL     OW 4257   1.450   4.944   1.633
 1232SOL    HW1 4258   1.441   4.934   1.732
 1232SOL    HW2 4259   1.546   4.937   1.607
 1233SOL     OW 4260   1.674   4.607   1.254
 1233SOL    HW1 4261   1.647   4.518   1.217
 1233SOL    HW2 4262   1.675   4.675   1.181
 1234SOL     OW 4263   1.225   4.049   0.449
 1234SOL    HW1 4264   1.290   3.975   0.438
 1234SOL    HW2 4265   1.245   4.099   0.533
 1235SOL     OW 4266   0.594   4.469   0.652
 1235SOL    HW1 4267   0.644   4.554   0.633
 1235SOL    HW2 4268   0.506   4.471   0.604
 1236SOL     OW 4269   1.777   4.066   1.642
 1236SOL    HW1 4270   1.760   4.097   1.548
 1236SOL    HW2 4271   1.693   4.029   1.680
 1237SOL     OW 4272   1.730   4.658   1.517
 1237SOL    HW1 4273   1.768   4.749   1.532
 1237SOL    HW2 4274   1.722   4.641   1.418
 1238SOL     OW 4275   0.859   4.680   0.861
 1238SOL    HW1 4276   0.913   4.611   0.909
 1238SOL    HW2 4277   0.827   4.749   0.927
 1239SOL     OW 4278   1.083   4.708   0.087
 1239SOL    HW1 4279   1.060   4.761   0.005
 1239SOL    HW2 4280   1.164   4.652   0.068
 1240SOL     OW 4281   0.079   4.964   0.653
 1240SOL    HW1 4282   0.078   4.917   0.741
 1240SOL    HW2 4283   0.161   4.936   0.602
 1241SOL     OW 4284   1.824   3.916   1.227
 1241SOL    HW1 4285   1.820   3.826   1.271
 1241SOL    HW2 4286   1.827   3.905   1.128
 1242SOL     OW 4287   0.428   4.148   0.520
 1242SOL    HW1 4288   0.458   4.076   0.458
 1242SOL    HW2 4289   0.389   4.108   0.603
 1243SOL     OW 4290   0.317   4.271   1.280
 1243SOL    HW1 4291   0.355   4.212   1.352
 1243SOL    HW2 4292   0.357   4.245   1.192
 1244SOL     OW 4293   1.424   3.938   1.112
 1244SOL    HW1 4294   1.476   3.873   1.167
 1244SOL    HW2 4295   1.375   4.001   1.173
 1245SOL     OW 4296   1.001   3.758   1.154
 1245SOL    HW1 4297   0.938   3.686   1.123
 1245SOL    HW2 4298   1.094   3.722   1.154
 1246SOL     OW 4299   0.770   5.054   0.301
 1246SOL    HW1 4300   0.724   4.967   0.318
 1246SOL    HW2 4301   0.861   5.051   0.342
 1247SOL     OW 4302   1.352   3.776   0.168
 1247SOL    HW1 4303   1.387   3.735   0.084
 1247SOL    HW2 4304   1.262   3.738   0.188
 1248SOL     OW 4305   1.300   4.177   0.691
 1248SOL    HW1 4306   1.241   4.257   0.695
 1248SOL    HW2 4307   1.315   4.142   0.784
 1249SOL     OW 4308   1.593   3.945   0.882
 1249SOL    HW1 4309   1.509   3.944   0.936
 1249SOL    HW2 4310   1.595   4.028   0.826
 1250SOL     OW 4311   0.039   4.801   0.300
 1250SOL    HW1 4312   0.138   4.790   0.291
 1250SOL    HW2 4313  -0.001   4.715   0.332
 1251SOL     OW 4314   0.230   4.352   1.975
 1251SOL    HW1 4315   0.137   4.350   2.012
 1251SOL    HW2 4316   0.231   4.313   1.883
 1252SOL     OW 4317   0.225   3.999   2.858
 1252SOL    HW1 4318   0.260   3.982   2.950
 1252SOL    HW2 4319   0.137   3.954   2.846
 1253SOL     OW 4320   0.569   4.999   3.027
 1253SOL    HW1 4321   0.476   4.992   2.990
 1253SOL    HW2 4322   0.580   5.088   3.071
 1254SOL     OW 4323   1.555   5.235   2.565
 1254SOL    HW1 4324   1.498   5.219   2.646
 1254SOL    HW2 4325   1.496   5.245   2.485
 1255SOL     OW 4326   1.135   4.427   2.579
 1255SOL    HW1 4327   1.192   4.505   2.554
 1255SOL    HW2 4328   1.075   4.453   2.655
 1256SOL     OW 4329   1.755   4.331   2.093
 1256SOL    HW1 4330   1.743   4.318   1.994
 1256SOL    HW2 4331   1.725   4.250   2.142
 1257SOL     OW 4332   0.768   4.868   2.885
 1257SOL    HW1 4333   0.690   4.885   2.945
 1257SOL    HW2 4334   0.802   4.955   2.849
 1258SOL     OW 4335   0.850   4.522   3.685
 1258SOL    HW1 4336   0.846   4.598   3.750
 1258SOL    HW2 4337   0.872   4.558   3.594
 1259SOL     OW 4338   0.685   4.736   2.527
 1259SOL    HW1 4339   0.754   4.720   2.597
 1259SOL    HW2 4340   0.612   4.793   2.565
 1260SOL     OW 4341   0.686   4.885   3.665
 1260SOL    HW1 4342   0.746   4.964   3.679
 1260SOL    HW2 4343   0.600   4.916   3.624
 1261SOL     OW 4344   0.335   5.159   2.923
 1261SOL    HW1 4345   0.257   5.128   2.870
 1261SOL    HW2 4346   0.393   5.217   2.866
 1262SOL     OW 4347   0.438   4.116   3.361
 1262SOL    HW1 4348   0.520   4.060   3.370
 1262SOL    HW2 4349   0.357   4.058   3.365
 1263SOL     OW 4350   1.603   4.171   2.599
 1263SOL    HW1 4351   1.529   4.217   2.549
 1263SOL    HW2 4352   1.654   4.239   2.652
 1264SOL     OW 4353   0.240   4.815   2.748
 1264SOL    HW1 4354   0.254   4.731   2.800
 1264SOL    HW2 4355   0.185   4.879   2.803
 1265SOL     OW 4356   0.606   4.688   1.985
 1265SOL    HW1 4357   0.613   4.772   1.931
 1265SOL    HW2 4358   0.652   4.701   2.073
 1266SOL     OW 4359   1.594   3.838   3.342
 1266SOL    HW1 4360   1.576   3.905   3.270
 1266SOL    HW2 4361   1.591   3.884   3.431
 1267SOL     OW 4362   0.122   4.367   2.425
 1267SOL    HW1 4363   0.077   4.279   2.442
 1267SOL    HW2 4364   0.121   4.421   2.509
 1268SOL     OW 4365   1.641   4.832   2.294
 1268SOL    HW1 4366   1.727   4.834   2.242
 1268SOL    HW2 4367   1.655   4.879   2.382
 1269SOL     OW 4368   0.113   4.461   3.459
 1269SOL    HW1 4369   0.201   4.448   3.504
 1269SOL    HW2 4370   0.100   4.558   3.437
 1270SOL     OW 4371   1.293   4.952   3.285
 1270SOL    HW1 4372   1.330   4.879   3.227
 1270SOL    HW2 4373   1.345   4.957   3.370
 1271SOL     OW 4374   0.809   3.728   2.364
 1271SOL    HW1 4375   0.849   3.819   2.355
 1271SOL    HW2 4376   0.709   3.736   2.370
 1272SOL     OW 4377   0.197   4.700   3.126
 1272SOL    HW1 4378   0.286   4.655   3.112
 1272SOL    HW2 4379   0.124   4.635   3.107
 1273SOL     OW 4380   1.525   4.723   2.052
 1273SOL    HW1 4381   1.462   4.647   2.065
 1273SOL    HW2 4382   1.573   4.741   2.138
 1274SOL     OW 4383   0.317   3.975   3.663
 1274SOL    HW1 4384   0.388   4.046   3.669
 1274SOL    HW2 4385   0.229   4.014   3.691
 1275SOL     OW 4386   1.466   5.141   2.815
 1275SOL    HW1 4387   1.407   5.147   2.895
 1275SOL    HW2 4388   1.451   5.053   2.769
 1276SOL     OW 4389   0.598   4.453   2.132
 1276SOL    HW1 4390   0.622   4.522   2.064
 1276SOL    HW2 4391   0.520   4.486   2.186
 1277SOL     OW 4392   1.281   4.069   2.806
 1277SOL    HW1 4393   1.195   4.019   2.793
 1277SOL    HW2 4394   1.343   4.015   2.862
 1278SOL     OW 4395   0.807   4.329   3.327
 1278SOL    HW1 4396   0.760   4.326   3.416
 1278SOL    HW2 4397   0.756   4.274   3.261
 1279SOL     OW 4398   1.394   4.193   3.536
 1279SOL    HW1 4399   1.374   4.236   3.624
 1279SOL    HW2 4400   1.472   4.131   3.545
 1280SOL     OW 4401   0.973   4.614   3.434
 1280SOL    HW1 4402   1.019   4.530   3.405
 1280SOL    HW2 4403   0.917   4.648   3.359
 1281SOL     OW 4404   0.991   4.134   3.104
 1281SOL    HW1 4405   0.914   4.168   3.158
 1281SOL    HW2 4406   0.957   4.083   3.025
 1282SOL     OW 4407   1.041   4.425   2.291
 1282SOL    HW1 4408   1.067   4.421   2.387
 1282SOL    HW2 4409   0.956   4.374   2.277
 1283SOL     OW 4410   0.076   4.535   2.651
 1283SOL    HW1 4411   0.175   4.523   2.660
 1283SOL    HW2 4412   0.052   4.630   2.672
 1284SOL     OW 4413   0.865   4.072   2.057
 1284SOL    HW1 4414   0.924   4.135   2.008
 1284SOL    HW2 4415   0.884   3.978   2.028
 1285SOL     OW 4416   1.719   4.309   3.693
 1285SOL    HW1 4417   1.693   4.398   3.657
 1285SOL    HW2 4418   1.717   4.241   3.620
 1286SOL     OW 4419   1.362   4.868   2.407
 1286SOL    HW1 4420   1.445   4.839   2.359
 1286SOL    HW2 4421   1.313   4.935   2.351
 1287SOL     OW 4422   0.550   3.920   2.747
 1287SOL    HW1 4423   0.545   3.915   2.847
 1287SOL    HW2 4424   0.552   4.016   2.718
 1288SOL     OW 4425   1.795   4.790   2.735
 1288SOL    HW1 4426   1.733   4.775   2.659
 1288SOL    HW2 4427   1.743   4.801   2.820
 1289SOL     OW 4428   0.321   4.667   2.104
 1289SOL    HW1 4429   0.403   4.706   2.062
 1289SOL    HW2 4430   0.294   4.585   2.055
 1290SOL     OW 4431   1.458   4.459   2.590
 1290SOL    HW1 4432   1.453   4.394   2.665
 1290SOL    HW2 4433   1.538   4.518   2.603
 1291SOL     OW 4434   0.202   4.009   3.360
 1291SOL    HW1 4435   0.122   4.069   3.347
 1291SOL    HW2 4436   0.192   3.960   3.446
 1292SOL     OW 4437   1.400   3.831   2.288
 1292SOL    HW1 4438   1.376   3.794   2.198
 1292SOL    HW2 4439   1.499   3.847   2.292
 1293SOL     OW 4440   0.382   4.424   2.342
 1293SOL    HW1 4441   0.427   4.334   2.339
 1293SOL    HW2 4442   0.288   4.413   2.375
 1294SOL     OW 4443   1.547   3.946   3.591
 1294SOL    HW1 4444   1.542   3.983   3.683
 1294SOL    HW2 4445   1.475   3.877   3.579
 1295SOL     OW 4446   0.614   3.846   1.979
 1295SOL    HW1 4447   0.712   3.824   1.986
 1295SOL    HW2 4448   0.583   3.829   1.886
 1296SOL     OW 4449   0.781   3.988   3.611
 1296SOL    HW1 4450   0.848   3.927   3.654
 1296SOL    HW2 4451   0.708   4.007   3.676
 1297SOL     OW 4452   1.351   4.314   3.295
 1297SOL    HW1 4453   1.379   4.271   3.380
 1297SOL    HW2 4454   1.376   4.410   3.296
 1298SOL     OW 4455   0.803   5.126   2.786
 1298SOL    HW1 4456   0.893   5.140   2.744
 1298SOL    HW2 4457   0.732   5.128   2.715
 1299SOL     OW 4458   0.922   4.227   2.761
 1299SOL    HW1 4459   0.897   4.218   2.665
 1299SOL    HW2 4460   0.970   4.145   2.792
 1300SOL     OW 4461   0.539   3.788   2.374
 1300SOL    HW1 4462   0.458   3.789   2.432
 1300SOL    HW2 4463   0.542   3.871   2.319
 1301SOL     OW 4464   1.434   4.912   1.903
 1301SOL    HW1 4465   1.466   4.836   1.960
 1301SOL    HW2 4466   1.342   4.939   1.933
 1302SOL     OW 4467   0.297   3.759   2.033
 1302SOL    HW1 4468   0.346   3.843   2.012
 1302SOL    HW2 4469   0.359   3.694   2.078
 1303SOL     OW 4470   0.935   3.960   2.342
 1303SOL    HW1 4471   0.887   4.001   2.264
 1303SOL    HW2 4472   1.034   3.958   2.323
 1304SOL     OW 4473   1.076   4.407   3.326
 1304SOL    HW1 4474   0.996   4.346   3.329
 1304SOL    HW2 4475   1.157   4.354   3.302
 1305SOL     OW 4476   1.227   5.294   2.655
 1305SOL    HW1 4477   1.248   5.368   2.590
 1305SOL    HW2 4478   1.295   5.294   2.728
 1306SOL     OW 4479   0.459   4.876   2.603
 1306SOL    HW1 4480   0.388   4.849   2.668
 1306SOL    HW2 4481   0.433   4.848   2.510
 1307SOL     OW 4482   1.032   4.273   1.878
 1307SOL    HW1 4483   0.991   4.355   1.839
 1307SOL    HW2 4484   1.096   4.299   1.951
 1308SOL     OW 4485   0.078   4.280   3.248
 1308SOL    HW1 4486   0.170   4.279   3.207
 1308SOL    HW2 4487   0.072   4.354   3.315
 1309SOL     OW 4488   0.561   3.946   3.009
 1309SOL    HW1 4489   0.599   3.862   3.046
 1309SOL    HW2 4490   0.473   3.965   3.053
 1310SOL     OW 4491   0.866   4.178   2.504
 1310SOL    HW1 4492   0.834   4.250   2.442
 1310SOL    HW2 4493   0.890   4.097   2.451
 1311SOL     OW 4494   1.017   3.763   2.615
 1311SOL    HW1 4495   0.945   3.768   2.546
 1311SOL    HW2 4496   0.993   3.694   2.684
 1312SOL     OW 4497   1.429   4.897   2.729
 1312SOL    HW1 4498   1.374   4.813   2.722
 1312SOL    HW2 4499   1.455   4.926   2.637
 1313SOL     OW 4500   1.466   4.314   2.854
 1313SOL    HW1 4501   1.436   4.219   2.861
 1313SOL    HW2 4502   1.539   4.330   2.920
 1314SOL     OW 4503   1.664   5.004   2.519
 1314SOL    HW1 4504   1.763   5.012   2.533
 1314SOL    HW2 4505   1.619   5.088   2.550
 1315SOL     OW 4506   1.390   4.299   1.940
 1315SOL    HW1 4507   1.336   4.278   2.021
 1315SOL    HW2 4508   1.481   4.258   1.949
 1316SOL     OW 4509   0.527   3.980   2.190
 1316SOL    HW1 4510   0.554   3.921   2.115
 1316SOL    HW2 4511   0.527   4.075   2.159
 1317SOL     OW 4512   1.754   4.947   3.450
 1317SOL    HW1 4513   1.845   4.908   3.437
 1317SOL    HW2 4514   1.762   5.043   3.474
 1318SOL     OW 4515   1.638   4.823   2.941
 1318SOL    HW1 4516   1.643   4.904   3.000
 1318SOL    HW2 4517   1.552   4.825   2.890
 1319SOL     OW 4518   0.915   3.813   3.264
 1319SOL    HW1 4519   0.940   3.793   3.169
 1319SOL    HW2 4520   0.987   3.869   3.306
 1320SOL     OW 4521   0.980   4.840   3.581
 1320SOL    HW1 4522   0.881   4.846   3.591
 1320SOL    HW2 4523   1.003   4.760   3.525
 1321SOL     OW 4524   0.705   4.774   2.230
 1321SOL    HW1 4525   0.691   4.781   2.329
 1321SOL    HW2 4526   0.789   4.723   2.212
 1322SOL     OW 4527   0.410   4.537   3.113
 1322SOL    HW1 4528   0.496   4.549   3.163
 1322SOL    HW2 4529   0.368   4.450   3.140
 1323SOL     OW 4530   1.274   4.110   3.124
 1323SOL    HW1 4531   1.295   4.184   3.188
 1323SOL    HW2 4532   1.185   4.127   3.081
 1324SOL     OW 4533   0.367   4.824   2.363
 1324SOL    HW1 4534   0.360   4.907   2.307
 1324SOL    HW2 4535   0.371   4.744   2.303
 1325SOL     OW 4536   0.566   4.261   2.727
 1325SOL    HW1 4537   0.578   4.327   2.653
 1325SOL    HW2 4538   0.612   4.295   2.810
 1326SOL     OW 4539   1.582   4.363   2.334
 1326SOL    HW1 4540   1.551   4.424   2.407
 1326SOL    HW2 4541   1.632   4.415   2.265
 1327SOL     OW 4542   0.402   4.475   3.460
 1327SOL    HW1 4543   0.470   4.530   3.413
 1327SOL    HW2 4544   0.442   4.387   3.487
 1328SOL     OW 4545   1.587   4.503   3.532
 1328SOL    HW1 4546   1.495   4.541   3.527
 1328SOL    HW2 4547   1.647   4.550   3.467
 1329SOL     OW 4548   1.013   3.829   3.632
 1329SOL    HW1 4549   1.019   3.914   3.580
 1329SOL    HW2 4550   1.045   3.753   3.575
 1330SOL     OW 4551   0.504   3.774   3.602
 1330SOL    HW1 4552   0.462   3.717   3.532
 1330SOL    HW2 4553   0.438   3.843   3.634
 1331SOL     OW 4554   0.573   4.594   2.891
 1331SOL    HW1 4555   0.617   4.683   2.882
 1331SOL    HW2 4556   0.510   4.594   2.968
 1332SOL     OW 4557   1.360   4.586   2.907
 1332SOL    HW1 4558   1.285   4.586   2.841
 1332SOL    HW2 4559   1.397   4.494   2.916
 1333SOL     OW 4560   1.209   4.249   2.137
 1333SOL    HW1 4561   1.222   4.165   2.191
 1333SOL    HW2 4562   1.180   4.323   2.197
 1334SOL     OW 4563   0.307   3.937   3.093
 1334SOL    HW1 4564   0.284   3.974   3.183
 1334SOL    HW2 4565   0.277   3.842   3.087
 1335SOL     OW 4566   0.037   5.034   3.144
 1335SOL    HW1 4567   0.090   4.985   3.212
 1335SOL    HW2 4568   0.059   5.132   3.149
 1336SOL     OW 4569   0.732   4.358   2.926
 1336SOL    HW1 4570   0.791   4.332   2.850
 1336SOL    HW2 4571   0.704   4.454   2.915
 1337SOL     OW 4572   1.728   4.659   3.716
 1337SOL    HW1 4573   1.682   4.652   3.627
 1337SOL    HW2 4574   1.666   4.703   3.782
 1338SOL     OW 4575   0.307   3.787   2.480
 1338SOL    HW1 4576   0.296   3.881   2.513
 1338SOL    HW2 4577   0.302   3.724   2.557
 1339SOL     OW 4578   1.622   4.091   2.236
 1339SOL    HW1 4579   1.624   4.015   2.300
 1339SOL    HW2 4580   1.574   4.168   2.276
 1340SOL     OW 4581   1.023   4.490   2.828
 1340SOL    HW1 4582   1.038   4.511   2.924
 1340SOL    HW2 4583   0.993   4.395   2.819
 1341SOL     OW 4584   1.859   5.242   3.467
 1341SOL    HW1 4585   1.873   5.269   3.372
 1341SOL    HW2 4586   1.942   5.264   3.520
 1342SOL     OW 4587   0.350   4.622   3.666
 1342SOL    HW1 4588   0.426   4.666   3.714
 1342SOL    HW2 4589   0.385   4.575   3.584
 1343SOL     OW 4590   1.540   3.998   1.987
 1343SOL    HW1 4591   1.479   3.923   2.010
 1343SOL    HW2 4592   1.562   4.050   2.070
 1344SOL     OW 4593   1.303   4.562   1.904
 1344SOL    HW1 4594   1.337   4.469   1.919
 1344SOL    HW2 4595   1.321   4.589   1.809
 1345SOL     OW 4596   0.319   4.534   2.811
 1345SOL    HW1 4597   0.412   4.570   2.816
 1345SOL    HW2 4598   0.313   4.449   2.863
 1346SOL     OW 4599   0.339   4.233   2.868
 1346SOL    HW1 4600   0.287   4.150   2.851
 1346SOL    HW2 4601   0.416   4.238   2.804
 1347SOL     OW 4602   1.138   4.104   3.540
 1347SOL    HW1 4603   1.093   4.167   3.604
 1347SOL    HW2 4604   1.231   4.135   3.523
 1348SOL     OW 4605   1.160   3.931   3.339
 1348SOL    HW1 4606   1.160   3.995   3.416
 1348SOL    HW2 4607   1.188   3.979   3.256
 1349SOL     OW 4608   0.008   5.050   2.062
 1349SOL    HW1 4609  -0.085   5.071   2.031
 1349SOL    HW2 4610   0.018   4.951   2.075
 1350SOL     OW 4611   1.002   4.520   3.100
 1350SOL    HW1 4612   1.043   4.488   3.186
 1350SOL    HW2 4613   0.906   4.493   3.097
 1351SOL     OW 4614   0.040   4.268   2.976
 1351SOL    HW1 4615   0.125   4.235   2.935
 1351SOL    HW2 4616   0.053   4.283   3.074
 1352SOL     OW 4617   0.189   4.244   3.584
 1352SOL    HW1 4618   0.248   4.204   3.514
 1352SOL    HW2 4619   0.131   4.315   3.543
 1353SOL     OW 4620   1.369   4.674   3.522
 1353SOL    HW1 4621   1.408   4.763   3.542
 1353SOL    HW2 4622   1.379   4.654   3.425
 1354SOL     OW 4623   0.815   4.296   2.187
 1354SOL    HW1 4624   0.822   4.207   2.141
 1354SOL    HW2 4625   0.721   4.330   2.179
 1355SOL     OW 4626   1.657   4.328   3.068
 1355SOL    HW1 4627   1.619   4.259   3.130
 1355SOL    HW2 4628   1.739   4.292   3.024
 1356SOL     OW 4629   0.671   4.188   3.131
 1356SOL    HW1 4630   0.637   4.099   3.101
 1356SOL    HW2 4631   0.697   4.242   3.051
 1357SOL     OW 4632   0.473   4.224   2.053
 1357SOL    HW1 4633   0.534   4.304   2.057
 1357SOL    HW2 4634   0.378   4.255   2.060
 1358SOL     OW 4635   0.159   4.861   3.328
 1358SOL    HW1 4636   0.181   4.800   3.404
 1358SOL    HW2 4637   0.169   4.812   3.242
 1359SOL     OW 4638   1.347   4.783   3.096
 1359SOL    HW1 4639   1.371   4.720   3.022
 1359SOL    HW2 4640   1.257   4.823   3.078
 1360SOL     OW 4641   1.302   4.579   2.171
 1360SOL    HW1 4642   1.216   4.548   2.213
 1360SOL    HW2 4643   1.298   4.565   2.072
 1361SOL     OW 4644   0.083   4.982   2.884
 1361SOL    HW1 4645   0.078   4.981   2.984
 1361SOL    HW2 4646   0.000   4.941   2.846
 1362SOL     OW 4647   1.726   3.859   2.385
 1362SOL    HW1 4648   1.799   3.842   2.318
 1362SOL    HW2 4649   1.695   3.772   2.423
 1363SOL     OW 4650   1.280   4.651   2.534
 1363SOL    HW1 4651   1.340   4.570   2.536
 1363SOL    HW2 4652   1.320   4.720   2.474
 1364SOL     OW 4653   0.830   4.997   3.284
 1364SOL    HW1 4654   0.825   5.030   3.379
 1364SOL    HW2 4655   0.744   5.016   3.238
 1365SOL     OW 4656   1.841   3.899   2.825
 1365SOL    HW1 4657   1.880   3.814   2.789
 1365SOL    HW2 4658   1.743   3.901   2.806
 1366SOL     OW 4659   0.263   4.050   2.582
 1366SOL    HW1 4660   0.184   4.101   2.548
 1366SOL    HW2 4661   0.254   4.035   2.680
 1367SOL     OW 4662   1.194   5.336   1.893
 1367SOL    HW1 4663   1.200   5.243   1.930
 1367SOL    HW2 4664   1.135   5.336   1.813
 1368SOL     OW 4665   0.822   4.726   3.234
 1368SOL    HW1 4666   0.862   4.725   3.142
 1368SOL    HW2 4667   0.832   4.818   3.274
 1369SOL     OW 4668   0.916   4.634   2.153
 1369SOL    HW1 4669   0.979   4.672   2.085
 1369SOL    HW2 4670   0.956   4.551   2.192
 1370SOL     OW 4671   0.372   5.012   3.352
 1370SOL    HW1 4672   0.359   5.105   3.318
 1370SOL    HW2 4673   0.288   4.960   3.339
 1371SOL     OW 4674   1.614   5.016   3.151
 1371SOL    HW1 4675   1.674   5.019   3.231
 1371SOL    HW2 4676   1.539   5.080   3.164
 1372SOL     OW 4677   1.039   4.822   2.558
 1372SOL    HW1 4678   0.969   4.775   2.612
 1372SOL    HW2 4679   1.098   4.754   2.515
 1373SOL     OW 4680   1.014   3.960   2.833
 1373SOL    HW1 4681   1.006   3.924   2.740
 1373SOL    HW2 4682   1.012   3.884   2.898
 1374SOL     OW 4683   1.709   4.109   3.243
 1374SOL    HW1 4684   1.782   4.178   3.247
 1374SOL    HW2 4685   1.737   4.034   3.184
 1375SOL     OW 4686   0.105   4.737   3.588
 1375SOL    HW1 4687   0.028   4.704   3.642
 1375SOL    HW2 4688   0.190   4.707   3.630
 1376SOL     OW 4689   0.672   3.927   3.351
 1376SOL    HW1 4690   0.762   3.911   3.311
 1376SOL    HW2 4691   0.680   3.932   3.450
 1377SOL     OW 4692   0.075   4.069   1.895
 1377SOL    HW1 4693  -0.017   4.041   1.866
 1377SOL    HW2 4694   0.106   4.146   1.839
 1378SOL     OW 4695   1.440   4.580   3.260
 1378SOL    HW1 4696   1.383   4.632   3.197
 1378SOL    HW2 4697   1.536   4.592   3.236
 1379SOL     OW 4698   0.072   3.890   2.180
 1379SOL    HW1 4699   0.055   3.973   2.126
 1379SOL    HW2 4700   0.162   3.853   2.158
 1380SOL     OW 4701   0.613   4.566   3.293
 1380SOL    HW1 4702   0.669   4.647   3.276
 1380SOL    HW2 4703   0.672   4.486   3.296
 1381SOL     OW 4704   0.716   4.289   3.570
 1381SOL    HW1 4705   0.735   4.354   3.644
 1381SOL    HW2 4706   0.776   4.209   3.579
 1382SOL     OW 4707   1.450   4.944   3.495
 1382SOL    HW1 4708   1.441   4.934   3.594
 1382SOL    HW2 4709   1.546   4.937   3.469
 1383SOL     OW 4710   1.674   4.607   3.116
 1383SOL    HW1 4711   1.647   4.518   3.079
 1383SOL    HW2 4712   1.675   4.675   3.043
 1384SOL     OW 4713   1.225   4.049   2.311
 1384SOL    HW1 4714   1.290   3.975   2.300
 1384SOL    HW2 4715   1.245   4.099   2.395
 1385SOL     OW 4716   0.594   4.469   2.514
 1385SOL    HW1 4717   0.644   4.554   2.495
 1385SOL    HW2 4718   0.506   4.471   2.466
 1386SOL     OW 4719   1.777   4.066   3.504
 1386SOL    HW1 4720   1.760   4.097   3.410
 1386SOL    HW2 4721   1.693   4.029   3.542
 1387SOL     OW 4722   1.730   4.658   3.379
 1387SOL    HW1 4723   1.768   4.749   3.394
 1387SOL    HW2 4724   1.722   4.641   3.280
 1388SOL     OW 4725   0.859   4.680   2.723
 1388SOL    HW1 4726   0.913   4.611   2.771
 1388SOL    HW2 4727   0.827   4.749   2.789
 1389SOL     OW 4728   1.083   4.708   1.949
 1389SOL    HW1 4729   1.060   4.761   1.867
 1389SOL    HW2 4730   1.164   4.652   1.930
 1390SOL     OW 4731   0.079   4.964   2.515
 1390SOL    HW1 4732   0.078   4.917   2.603
 1390SOL    HW2 4733   0.161   4.936   2.464
 1391SOL     OW 4734   1.824   3.916   3.089
 1391SOL    HW1 4735   1.820   3.826   3.133
 1391SOL    HW2 4736   1.827   3.905   2.990
 1392SOL     OW 4737   0.428   4.148   2.382
 1392SOL    HW1 4738   0.458   4.076   2.320
 1392SOL    HW2 4739   0.389   4.108   2.465
 1393SOL     OW 4740   0.317   4.271   3.142
 1393SOL    HW1 4741   0.355   4.212   3.214
 1393SOL    HW2 4742   0.357   4.245   3.054
 1394SOL     OW 4743   1.424   3.938   2.974
 1394SOL    HW1 4744   1.476   3.873   3.029
 1394SOL    HW2 4745   1.375   4.001   3.035
 1395SOL     OW 4746   1.001   3.758   3.016
 1395SOL    HW1 4747   0.938   3.686   2.985
 1395SOL    HW2 4748   1.094   3.722   3.016
 1396SOL     OW 4749   0.770   5.054   2.163
 1396SOL    HW1 4750   0.724   4.967   2.180
 1396SOL    HW2 4751   0.861   5.051   2.204
 1397SOL     OW 4752   1.352   3.776   2.030
 1397SOL    HW1 4753   1.387   3.735   1.946
 1397SOL    HW2 4754   1.262   3.738   2.050
 1398SOL     OW 4755   1.300   4.177   2.553
 1398SOL    HW1 4756   1.241   4.257   2.557
 1398SOL    HW2 4757   1.315   4.142   2.646
 1399SOL     OW 4758   1.593   3.945   2.744
 1399SOL    HW1 4759   1.509   3.944   2.798
 1399SOL    HW2 4760   1.595   4.028   2.688
 1400SOL     OW 4761   0.039   4.801   2.162
 1400SOL    HW1 4762   0.138   4.790   2.153
 1400SOL    HW2 4763  -0.001   4.715   2.194
 1401SOL     OW 4764   0.230   4.352   3.837
 1401SOL    HW1 4765   0.137   4.350   3.874
 1401SOL    HW2 4766   0.231   4.313   3.745
 1402SOL     OW 4767   0.225   3.999   4.720
 1402SOL    HW1 4768   0.260   3.982   4.812
 1402SOL    HW2 4769   0.137   3.954   4.708
 1403SOL     OW 4770   0.019   4.092   4.371
 1403SOL    HW1 4771  -0.063   4.135   4.410
 1403SOL    HW2 4772  -0.009   4.019   4.308
 1404SOL     OW 4773   0.569   4.999   4.889
 1404SOL    HW1 4774   0.476   4.992   4.852
 1404SOL    HW2 4775   0.580   5.088   4.933
 1405SOL     OW 4776   1.555   5.235   4.427
 1405SOL    HW1 4777   1.498   5.219   4.508
 1405SOL    HW2 4778   1.496   5.245   4.347
 1406SOL     OW 4779   1.135   4.427   4.441
 1406SOL    HW1 4780   1.192   4.505   4.416
 1406SOL    HW2 4781   1.075   4.453   4.517
 1407SOL     OW 4782   1.755   4.331   3.955
 1407SOL    HW1 4783   1.743   4.318   3.856
 1407SOL    HW2 4784   1.725   4.250   4.004
 1408SOL     OW 4785   0.768   4.868   4.747
 1408SOL    HW1 4786   0.690   4.885   4.807
 1408SOL    HW2 4787   0.802   4.955   4.711
 1409SOL     OW 4788   0.685   4.736   4.389
 1409SOL    HW1 4789   0.754   4.720   4.459
 1409SOL    HW2 4790   0.612   4.793   4.427
 1410SOL     OW 4791   0.335   5.159   4.785
 1410SOL    HW1 4792   0.257   5.128   4.732
 1410SOL    HW2 4793   0.393   5.217   4.728
 1411SOL     OW 4794   1.603   4.171   4.461
 1411SOL    HW1 4795   1.529   4.217   4.411
 1411SOL    HW2 4796   1.654   4.239   4.514
 1412SOL     OW 4797   0.240   4.815   4.610
 1412SOL    HW1 4798   0.254   4.731   4.662
 1412SOL    HW2 4799   0.185   4.879   4.665
 1413SOL     OW 4800   0.606   4.688   3.847
 1413SOL    HW1 4801   0.613   4.772   3.793
 1413SOL    HW2 4802   0.652   4.701   3.935
 1414SOL     OW 4803   0.122   4.367   4.287
 1414SOL    HW1 4804   0.077   4.279   4.304
 1414SOL    HW2 4805   0.121   4.421   4.371
 1415SOL     OW 4806   1.689   4.646   4.336
 1415SOL    HW1 4807   1.784   4.617   4.344
 1415SOL    HW2 4808   1.681   4.711   4.261
 1416SOL     OW 4809   1.641   4.832   4.156
 1416SOL    HW1 4810   1.727   4.834   4.104
 1416SOL    HW2 4811   1.655   4.879   4.244
 1417SOL     OW 4812   0.809   3.728   4.226
 1417SOL    HW1 4813   0.849   3.819   4.217
 1417SOL    HW2 4814   0.709   3.736   4.232
 1418SOL     OW 4815   0.197   4.700   4.988
 1418SOL    HW1 4816   0.286   4.655   4.974
 1418SOL    HW2 4817   0.124   4.635   4.969
 1419SOL     OW 4818   1.525   4.723   3.914
 1419SOL    HW1 4819   1.462   4.647   3.927
 1419SOL    HW2 4820   1.573   4.741   4.000
 1420SOL     OW 4821   1.466   5.141   4.677
 1420SOL    HW1 4822   1.407   5.147   4.757
 1420SOL    HW2 4823   1.451   5.053   4.631
 1421SOL     OW 4824   0.598   4.453   3.994
 1421SOL    HW1 4825   0.622   4.522   3.926
 1421SOL    HW2 4826   0.520   4.486   4.048
 1422SOL     OW 4827   1.281   4.069   4.668
 1422SOL    HW1 4828   1.195   4.019   4.655
 1422SOL    HW2 4829   1.343   4.015   4.724
 1423SOL     OW 4830   0.991   4.134   4.966
 1423SOL    HW1 4831   0.914   4.168   5.020
 1423SOL    HW2 4832   0.957   4.083   4.887
 1424SOL     OW 4833   1.041   4.425   4.153
 1424SOL    HW1 4834   1.067   4.421   4.249
 1424SOL    HW2 4835   0.956   4.374   4.139
 1425SOL     OW 4836   0.076   4.535   4.513
 1425SOL    HW1 4837   0.175   4.523   4.522
 1425SOL    HW2 4838   0.052   4.630   4.534
 1426SOL     OW 4839   0.865   4.072   3.919
 1426SOL    HW1 4840   0.924   4.135   3.870
 1426SOL    HW2 4841   0.884   3.978   3.890
 1427SOL     OW 4842   1.362   4.868   4.269
 1427SOL    HW1 4843   1.445   4.839   4.221
 1427SOL    HW2 4844   1.313   4.935   4.213
 1428SOL     OW 4845   0.550   3.920   4.609
 1428SOL    HW1 4846   0.545   3.915   4.709
 1428SOL    HW2 4847   0.552   4.016   4.580
 1429SOL     OW 4848   1.795   4.790   4.597
 1429SOL    HW1 4849   1.733   4.775   4.521
 1429SOL    HW2 4850   1.743   4.801   4.682
 1430SOL     OW 4851   0.321   4.667   3.966
 1430SOL    HW1 4852   0.403   4.706   3.924
 1430SOL    HW2 4853   0.294   4.585   3.917
 1431SOL     OW 4854   1.458   4.459   4.452
 1431SOL    HW1 4855   1.453   4.394   4.527
 1431SOL    HW2 4856   1.538   4.518   4.465
 1432SOL     OW 4857   1.632   5.101   3.805
 1432SOL    HW1 4858   1.600   5.195   3.795
 1432SOL    HW2 4859   1.556   5.038   3.793
 1433SOL     OW 4860   1.400   3.831   4.150
 1433SOL    HW1 4861   1.376   3.794   4.060
 1433SOL    HW2 4862   1.499   3.847   4.154
 1434SOL     OW 4863   0.382   4.424   4.204
 1434SOL    HW1 4864   0.427   4.334   4.201
 1434SOL    HW2 4865   0.288   4.413   4.237
 1435SOL     OW 4866   0.614   3.846   3.841
 1435SOL    HW1 4867   0.712   3.824   3.848
 1435SOL    HW2 4868   0.583   3.829   3.748
 1436SOL     OW 4869   0.803   5.126   4.648
 1436SOL    HW1 4870   0.893   5.140   4.606
 1436SOL    HW2 4871   0.732   5.128   4.577
 1437SOL     OW 4872   0.922   4.227   4.623
 1437SOL    HW1 4873   0.897   4.218   4.527
 1437SOL    HW2 4874   0.970   4.145   4.654
 1438SOL     OW 4875   0.539   3.788   4.236
 1438SOL    HW1 4876   0.458   3.789   4.294
 1438SOL    HW2 4877   0.542   3.871   4.181
 1439SOL     OW 4878   1.434   4.912   3.765
 1439SOL    HW1 4879   1.466   4.836   3.822
 1439SOL    HW2 4880   1.342   4.939   3.795
 1440SOL     OW 4881   0.297   3.759   3.895
 1440SOL    HW1 4882   0.346   3.843   3.874
 1440SOL    HW2 4883   0.359   3.694   3.940
 1441SOL     OW 4884   0.935   3.960   4.204
 1441SOL    HW1 4885   0.887   4.001   4.126
 1441SOL    HW2 4886   1.034   3.958   4.185
 1442SOL     OW 4887   1.227   5.294   4.517
 1442SOL    HW1 4888   1.248   5.368   4.452
 1442SOL    HW2 4889   1.295   5.294   4.590
 1443SOL     OW 4890   0.459   4.876   4.465
 1443SOL    HW1 4891   0.388   4.849   4.530
 1443SOL    HW2 4892   0.433   4.848   4.372
 1444SOL     OW 4893   1.032   4.273   3.740
 1444SOL    HW1 4894   0.991   4.355   3.701
 1444SOL    HW2 4895   1.096   4.299   3.813
 1445SOL     OW 4896   0.561   3.946   4.871
 1445SOL    HW1 4897   0.599   3.862   4.908
 1445SOL    HW2 4898   0.473   3.965   4.915
 1446SOL     OW 4899   0.866   4.178   4.366
 1446SOL    HW1 4900   0.834   4.250   4.304
 1446SOL    HW2 4901   0.890   4.097   4.313
 1447SOL     OW 4902   1.017   3.763   4.477
 1447SOL    HW1 4903   0.945   3.768   4.408
 1447SOL    HW2 4904   0.993   3.694   4.546
 1448SOL     OW 4905   1.429   4.897   4.591
 1448SOL    HW1 4906   1.374   4.813   4.584
 1448SOL    HW2 4907   1.455   4.926   4.499
 1449SOL     OW 4908   1.466   4.314   4.716
 1449SOL    HW1 4909   1.436   4.219   4.723
 1449SOL    HW2 4910   1.539   4.330   4.782
 1450SOL     OW 4911   1.857   4.557   4.101
 1450SOL    HW1 4912   1.899   4.493   4.165
 1450SOL    HW2 4913   1.819   4.506   4.023
 1451SOL     OW 4914   1.664   5.004   4.381
 1451SOL    HW1 4915   1.763   5.012   4.395
 1451SOL    HW2 4916   1.619   5.088   4.412
 1452SOL     OW 4917   1.390   4.299   3.802
 1452SOL    HW1 4918   1.336   4.278   3.883
 1452SOL    HW2 4919   1.481   4.258   3.811
 1453SOL     OW 4920   0.527   3.980   4.052
 1453SOL    HW1 4921   0.554   3.921   3.977
 1453SOL    HW2 4922   0.527   4.075   4.021
 1454SOL     OW 4923   1.638   4.823   4.803
 1454SOL    HW1 4924   1.643   4.904   4.862
 1454SOL    HW2 4925   1.552   4.825   4.752
 1455SOL     OW 4926   0.705   4.774   4.092
 1455SOL    HW1 4927   0.691   4.781   4.191
 1455SOL    HW2 4928   0.789   4.723   4.074
 1456SOL     OW 4929   0.410   4.537   4.975
 1456SOL    HW1 4930   0.496   4.549   5.025
 1456SOL    HW2 4931   0.368   4.450   5.002
 1457SOL     OW 4932   1.274   4.110   4.986
 1457SOL    HW1 4933   1.295   4.184   5.050
 1457SOL    HW2 4934   1.185   4.127   4.943
 1458SOL     OW 4935   0.367   4.824   4.225
 1458SOL    HW1 4936   0.360   4.907   4.169
 1458SOL    HW2 4937   0.371   4.744   4.165
 1459SOL     OW 4938   0.566   4.261   4.589
 1459SOL    HW1 4939   0.578   4.327   4.515
 1459SOL    HW2 4940   0.612   4.295   4.672
 1460SOL     OW 4941   1.582   4.363   4.196
 1460SOL    HW1 4942   1.551   4.424   4.269
 1460SOL    HW2 4943   1.632   4.415   4.127
 1461SOL     OW 4944   0.573   4.594   4.753
 1461SOL    HW1 4945   0.617   4.683   4.744
 1461SOL    HW2 4946   0.510   4.594   4.830
 1462SOL     OW 4947   1.360   4.586   4.769
 1462SOL    HW1 4948   1.285   4.586   4.703
 1462SOL    HW2 4949   1.397   4.494   4.778
 1463SOL     OW 4950   1.209   4.249   3.999
 1463SOL    HW1 4951   1.222   4.165   4.053
 1463SOL    HW2 4952   1.180   4.323   4.059
 1464SOL     OW 4953   0.307   3.937   4.955
 1464SOL    HW1 4954   0.284   3.974   5.045
 1464SOL    HW2 4955   0.277   3.842   4.949
 1465SOL     OW 4956   0.732   4.358   4.788
 1465SOL    HW1 4957   0.791   4.332   4.712
 1465SOL    HW2 4958   0.704   4.454   4.777
 1466SOL     OW 4959   0.307   3.787   4.342
 1466SOL    HW1 4960   0.296   3.881   4.375
 1466SOL    HW2 4961   0.302   3.724   4.419
 1467SOL     OW 4962   1.622   4.091   4.098
 1467SOL    HW1 4963   1.624   4.015   4.162
 1467SOL    HW2 4964   1.574   4.168   4.138
 1468SOL     OW 4965   1.023   4.490   4.690
 1468SOL    HW1 4966   1.038   4.511   4.786
 1468SOL    HW2 4967   0.993   4.395   4.681
 1469SOL     OW 4968   1.540   3.998   3.849
 1469SOL    HW1 4969   1.479   3.923   3.872
 1469SOL    HW2 4970   1.562   4.050   3.932
 1470SOL     OW 4971   1.303   4.562   3.766
 1470SOL    HW1 4972   1.337   4.469   3.781
 1470SOL    HW2 4973   1.321   4.589   3.671
 1471SOL     OW 4974   0.319   4.534   4.673
 1471SOL    HW1 4975   0.412   4.570   4.678
 1471SOL    HW2 4976   0.313   4.449   4.725
 1472SOL     OW 4977   0.339   4.233   4.730
 1472SOL    HW1 4978   0.287   4.150   4.713
 1472SOL    HW2 4979   0.416   4.238   4.666
 1473SOL     OW 4980   1.160   3.931   5.201
 1473SOL    HW1 4981   1.160   3.995   5.278
 1473SOL    HW2 4982   1.188   3.979   5.118
 1474SOL     OW 4983   0.008   5.050   3.924
 1474SOL    HW1 4984  -0.085   5.071   3.893
 1474SOL    HW2 4985   0.018   4.951   3.937
 1475SOL     OW 4986   1.002   4.520   4.962
 1475SOL    HW1 4987   1.043   4.488   5.048
 1475SOL    HW2 4988   0.906   4.493   4.959
 1476SOL     OW 4989   0.040   4.268   4.838
 1476SOL    HW1 4990   0.125   4.235   4.797
 1476SOL    HW2 4991   0.053   4.283   4.936
 1477SOL     OW 4992   0.815   4.296   4.049
 1477SOL    HW1 4993   0.822   4.207   4.003
 1477SOL    HW2 4994   0.721   4.330   4.041
 1478SOL     OW 4995   1.657   4.328   4.930
 1478SOL    HW1 4996   1.619   4.259   4.992
 1478SOL    HW2 4997   1.739   4.292   4.886
 1479SOL     OW 4998   0.671   4.188   4.993
 1479SOL    HW1 4999   0.637   4.099   4.963
 1479SOL    HW2 5000   0.697   4.242   4.913
 1480SOL     OW 5001   0.473   4.224   3.915
 1480SOL    HW1 5002   0.534   4.304   3.919
 1480SOL    HW2 5003   0.378   4.255   3.922
 1481SOL     OW 5004   1.347   4.783   4.958
 1481SOL    HW1 5005   1.371   4.720   4.884
 1481SOL    HW2 5006   1.257   4.823   4.940
 1482SOL     OW 5007   1.302   4.579   4.033
 1482SOL    HW1 5008   1.216   4.548   4.075
 1482SOL    HW2 5009   1.298   4.565   3.934
 1483SOL     OW 5010   0.083   4.982   4.746
 1483SOL    HW1 5011   0.078   4.981   4.846
 1483SOL    HW2 5012   0.000   4.941   4.708
 1484SOL     OW 5013   1.726   3.859   4.247
 1484SOL    HW1 5014   1.799   3.842   4.180
 1484SOL    HW2 5015   1.695   3.772   4.285
 1485SOL     OW 5016   1.280   4.651   4.396
 1485SOL    HW1 5017   1.340   4.570   4.398
 1485SOL    HW2 5018   1.320   4.720   4.336
 1486SOL     OW 5019   0.830   4.997   5.146
 1486SOL    HW1 5020   0.825   5.030   5.241
 1486SOL    HW2 5021   0.744   5.016   5.100
 1487SOL     OW 5022   1.841   3.899   4.687
 1487SOL    HW1 5023   1.880   3.814   4.651
 1487SOL    HW2 5024   1.743   3.901   4.668
 1488SOL     OW 5025   0.263   4.050   4.444
 1488SOL    HW1 5026   0.184   4.101   4.410
 1488SOL    HW2 5027   0.254   4.035   4.542
 1489SOL     OW 5028   1.194   5.336   3.755
 1489SOL    HW1 5029   1.200   5.243   3.792
 1489SOL    HW2 5030   1.135   5.336   3.675
 1490SOL     OW 5031   0.822   4.726   5.096
 1490SOL    HW1 5032   0.862   4.725   5.004
 1490SOL    HW2 5033   0.832   4.818   5.136
 1491SOL     OW 5034   0.916   4.634   4.015
 1491SOL    HW1 5035   0.979   4.672   3.947
 1491SOL    HW2 5036   0.956   4.551   4.054
 1492SOL     OW 5037   1.039   4.822   4.420
 1492SOL    HW1 5038   0.969   4.775   4.474
 1492SOL    HW2 5039   1.098   4.754   4.377
 1493SOL     OW 5040   1.014   3.960   4.695
 1493SOL    HW1 5041   1.006   3.924   4.602
 1493SOL    HW2 5042   1.012   3.884   4.760
 1494SOL     OW 5043   1.709   4.109   5.105
 1494SOL    HW1 5044   1.782   4.178   5.109
 1494SOL    HW2 5045   1.737   4.034   5.046
 1495SOL     OW 5046   0.075   4.069   3.757
 1495SOL    HW1 5047  -0.017   4.041   3.728
 1495SOL    HW2 5048   0.106   4.146   3.701
 1496SOL     OW 5049   0.072   3.890   4.042
 1496SOL    HW1 5050   0.055   3.973   3.988
 1496SOL    HW2 5051   0.162   3.853   4.020
 1497SOL     OW 5052   1.450   4.944   5.357
 1497SOL    HW1 5053   1.441   4.934   5.456
 1497SOL    HW2 5054   1.546   4.937   5.331
 1498SOL     OW 5055   1.674   4.607   4.978
 1498SOL    HW1 5056   1.647   4.518   4.941
 1498SOL    HW2 5057   1.675   4.675   4.905
 1499SOL     OW 5058   1.225   4.049   4.173
 1499SOL    HW1 5059   1.290   3.975   4.162
 1499SOL    HW2 5060   1.245   4.099   4.257
 1500SOL     OW 5061   0.594   4.469   4.376
 1500SOL    HW1 5062   0.644   4.554   4.357
 1500SOL    HW2 5063   0.506   4.471   4.328
 1501SOL     OW 5064   1.730   4.658   5.241
 1501SOL    HW1 5065   1.768   4.749   5.256
 1501SOL    HW2 5066   1.722   4.641   5.142
 1502SOL     OW 5067   0.859   4.680   4.585
 1502SOL    HW1 5068   0.913   4.611   4.633
 1502SOL    HW2 5069   0.827   4.749   4.651
 1503SOL     OW 5070   1.083   4.708   3.811
 1503SOL    HW1 5071   1.060   4.761   3.729
 1503SOL    HW2 5072   1.164   4.652   3.792
 1504SOL     OW 5073   0.079   4.964   4.377
 1504SOL    HW1 5074   0.078   4.917   4.465
 1504SOL    HW2 5075   0.161   4.936   4.326
 1505SOL     OW 5076   1.824   3.916   4.951
 1505SOL    HW1 5077   1.820   3.826   4.995
 1505SOL    HW2 5078   1.827   3.905   4.852
 1506SOL     OW 5079   0.428   4.148   4.244
 1506SOL    HW1 5080   0.458   4.076   4.182
 1506SOL    HW2 5081   0.389   4.108   4.327
 1507SOL     OW 5082   1.424   3.938   4.836
 1507SOL    HW1 5083   1.476   3.873   4.891
 1507SOL    HW2 5084   1.375   4.001   4.897
 1508SOL     OW 5085   1.001   3.758   4.878
 1508SOL    HW1 5086   0.938   3.686   4.847
 1508SOL    HW2 5087   1.094   3.722   4.878
 1509SOL     OW 5088   0.770   5.054   4.025
 1509SOL    HW1 5089   0.724   4.967   4.042
 1509SOL    HW2 5090   0.861   5.051   4.066
 1510SOL     OW 5091   1.352   3.776   3.892
 1510SOL    HW1 5092   1.387   3.735   3.808
 1510SOL    HW2 5093   1.262   3.738   3.912
 1511SOL     OW 5094   1.300   4.177   4.415
 1511SOL    HW1 5095   1.241   4.257   4.419
 1511SOL    HW2 5096   1.315   4.142   4.508
 1512SOL     OW 5097   1.593   3.945   4.606
 1512SOL    HW1 5098   1.509   3.944   4.660
 1512SOL    HW2 5099   1.595   4.028   4.550
 1513SOL     OW 5100   0.039   4.801   4.024
 1513SOL    HW1 5101   0.138   4.790   4.015
 1513SOL    HW2 5102  -0.001   4.715   4.056
 1514SOL     OW 5103   2.092   0.628   0.113
 1514SOL    HW1 5104   1.999   0.626   0.150
 1514SOL    HW2 5105   2.093   0.589   0.021
 1515SOL     OW 5106   2.087   0.275   0.996
 1515SOL    HW1 5107   2.122   0.258   1.088
 1515SOL    HW2 5108   1.999   0.230   0.984
 1516SOL     OW 5109   1.881   0.368   0.647
 1516SOL    HW1 5110   1.799   0.411   0.686
 1516SOL    HW2 5111   1.853   0.295   0.584
 1517SOL     OW 5112   2.431   1.275   1.165
 1517SOL    HW1 5113   2.338   1.268   1.128
 1517SOL    HW2 5114   2.442   1.364   1.209
 1518SOL     OW 5115   3.417   1.511   0.703
 1518SOL    HW1 5116   3.360   1.495   0.784
 1518SOL    HW2 5117   3.358   1.521   0.623
 1519SOL     OW 5118   2.997   0.703   0.717
 1519SOL    HW1 5119   3.054   0.781   0.692
 1519SOL    HW2 5120   2.937   0.729   0.793
 1520SOL     OW 5121   3.617   0.607   0.231
 1520SOL    HW1 5122   3.605   0.594   0.132
 1520SOL    HW2 5123   3.587   0.526   0.280
 1521SOL     OW 5124   2.630   1.144   1.023
 1521SOL    HW1 5125   2.552   1.161   1.083
 1521SOL    HW2 5126   2.664   1.231   0.987
 1522SOL     OW 5127   2.712   0.798   1.823
 1522SOL    HW1 5128   2.708   0.874   1.888
 1522SOL    HW2 5129   2.734   0.834   1.732
 1523SOL     OW 5130   2.547   1.012   0.665
 1523SOL    HW1 5131   2.616   0.996   0.735
 1523SOL    HW2 5132   2.474   1.069   0.703
 1524SOL     OW 5133   2.548   1.161   1.803
 1524SOL    HW1 5134   2.608   1.240   1.817
 1524SOL    HW2 5135   2.462   1.192   1.762
 1525SOL     OW 5136   2.197   1.435   1.061
 1525SOL    HW1 5137   2.119   1.404   1.008
 1525SOL    HW2 5138   2.255   1.493   1.004
 1526SOL     OW 5139   3.322   1.505   1.339
 1526SOL    HW1 5140   3.346   1.599   1.365
 1526SOL    HW2 5141   3.306   1.451   1.421
 1527SOL     OW 5142   2.300   0.392   1.499
 1527SOL    HW1 5143   2.382   0.336   1.508
 1527SOL    HW2 5144   2.219   0.334   1.503
 1528SOL     OW 5145   3.465   0.447   0.737
 1528SOL    HW1 5146   3.391   0.493   0.687
 1528SOL    HW2 5147   3.516   0.515   0.790
 1529SOL     OW 5148   2.093   1.713   0.483
 1529SOL    HW1 5149   2.127   1.790   0.537
 1529SOL    HW2 5150   2.137   1.713   0.393
 1530SOL     OW 5151   2.989   1.341   1.690
 1530SOL    HW1 5152   3.036   1.341   1.778
 1530SOL    HW2 5153   2.941   1.254   1.679
 1531SOL     OW 5154   2.092   1.434   0.538
 1531SOL    HW1 5155   2.066   1.530   0.538
 1531SOL    HW2 5156   2.021   1.380   0.583
 1532SOL     OW 5157   2.102   1.091   0.886
 1532SOL    HW1 5158   2.116   1.007   0.938
 1532SOL    HW2 5159   2.047   1.155   0.941
 1533SOL     OW 5160   2.482   1.786   1.439
 1533SOL    HW1 5161   2.390   1.769   1.474
 1533SOL    HW2 5162   2.510   1.878   1.465
 1534SOL     OW 5163   2.468   0.964   0.123
 1534SOL    HW1 5164   2.475   1.048   0.069
 1534SOL    HW2 5165   2.514   0.977   0.211
 1535SOL     OW 5166   3.456   0.114   1.480
 1535SOL    HW1 5167   3.438   0.181   1.408
 1535SOL    HW2 5168   3.453   0.160   1.569
 1536SOL     OW 5169   1.984   0.643   0.563
 1536SOL    HW1 5170   1.939   0.555   0.580
 1536SOL    HW2 5171   1.983   0.697   0.647
 1537SOL     OW 5172   3.704   1.767   0.359
 1537SOL    HW1 5173   3.758   1.738   0.439
 1537SOL    HW2 5174   3.734   1.857   0.330
 1538SOL     OW 5175   1.889   1.596   0.117
 1538SOL    HW1 5176   1.870   1.500   0.138
 1538SOL    HW2 5177   1.856   1.654   0.192
 1539SOL     OW 5178   3.551   0.922   0.612
 1539SOL    HW1 5179   3.646   0.893   0.620
 1539SOL    HW2 5180   3.543   0.987   0.537
 1540SOL     OW 5181   3.503   1.108   0.432
 1540SOL    HW1 5182   3.589   1.110   0.380
 1540SOL    HW2 5183   3.517   1.155   0.520
 1541SOL     OW 5184   1.975   0.737   1.597
 1541SOL    HW1 5185   2.063   0.724   1.642
 1541SOL    HW2 5186   1.962   0.834   1.575
 1542SOL     OW 5187   2.475   1.365   0.726
 1542SOL    HW1 5188   2.426   1.278   0.735
 1542SOL    HW2 5189   2.452   1.408   0.639
 1543SOL     OW 5190   2.671   0.004   0.502
 1543SOL    HW1 5191   2.711   0.095   0.493
 1543SOL    HW2 5192   2.571   0.012   0.508
 1544SOL     OW 5193   2.059   0.976   1.264
 1544SOL    HW1 5194   2.148   0.931   1.250
 1544SOL    HW2 5195   1.986   0.911   1.245
 1545SOL     OW 5196   3.387   0.999   0.190
 1545SOL    HW1 5197   3.324   0.923   0.203
 1545SOL    HW2 5198   3.435   1.017   0.276
 1546SOL     OW 5199   3.049   1.792   1.616
 1546SOL    HW1 5200   3.073   1.852   1.540
 1546SOL    HW2 5201   3.056   1.697   1.586
 1547SOL     OW 5202   3.529   1.714   0.572
 1547SOL    HW1 5203   3.488   1.691   0.484
 1547SOL    HW2 5204   3.511   1.640   0.637
 1548SOL     OW 5205   2.460   0.729   0.270
 1548SOL    HW1 5206   2.484   0.798   0.202
 1548SOL    HW2 5207   2.382   0.762   0.324
 1549SOL     OW 5208   3.143   0.345   0.944
 1549SOL    HW1 5209   3.057   0.295   0.931
 1549SOL    HW2 5210   3.205   0.291   1.000
 1550SOL     OW 5211   3.438   1.662   0.307
 1550SOL    HW1 5212   3.527   1.708   0.310
 1550SOL    HW2 5213   3.417   1.638   0.212
 1551SOL     OW 5214   2.669   0.605   1.465
 1551SOL    HW1 5215   2.622   0.602   1.554
 1551SOL    HW2 5216   2.618   0.550   1.399
 1552SOL     OW 5217   3.256   0.469   1.674
 1552SOL    HW1 5218   3.236   0.512   1.762
 1552SOL    HW2 5219   3.334   0.407   1.683
 1553SOL     OW 5220   2.835   0.890   1.572
 1553SOL    HW1 5221   2.881   0.806   1.543
 1553SOL    HW2 5222   2.779   0.924   1.497
 1554SOL     OW 5223   2.853   0.410   1.242
 1554SOL    HW1 5224   2.776   0.444   1.296
 1554SOL    HW2 5225   2.819   0.359   1.163
 1555SOL     OW 5226   2.903   0.701   0.429
 1555SOL    HW1 5227   2.929   0.697   0.525
 1555SOL    HW2 5228   2.818   0.650   0.415
 1556SOL     OW 5229   1.938   0.811   0.789
 1556SOL    HW1 5230   2.037   0.799   0.798
 1556SOL    HW2 5231   1.914   0.906   0.810
 1557SOL     OW 5232   1.992   1.821   1.571
 1557SOL    HW1 5233   1.982   1.806   1.670
 1557SOL    HW2 5234   1.906   1.857   1.535
 1558SOL     OW 5235   2.727   0.348   0.195
 1558SOL    HW1 5236   2.786   0.411   0.146
 1558SOL    HW2 5237   2.746   0.254   0.166
 1559SOL     OW 5238   3.581   0.585   1.831
 1559SOL    HW1 5239   3.555   0.674   1.795
 1559SOL    HW2 5240   3.579   0.517   1.758
 1560SOL     OW 5241   3.224   1.144   0.545
 1560SOL    HW1 5242   3.307   1.115   0.497
 1560SOL    HW2 5243   3.175   1.211   0.489
 1561SOL     OW 5244   2.412   0.196   0.885
 1561SOL    HW1 5245   2.407   0.191   0.985
 1561SOL    HW2 5246   2.414   0.292   0.856
 1562SOL     OW 5247   2.870   1.456   0.477
 1562SOL    HW1 5248   2.824   1.528   0.425
 1562SOL    HW2 5249   2.866   1.476   0.575
 1563SOL     OW 5250   2.213   1.801   0.853
 1563SOL    HW1 5251   2.263   1.715   0.859
 1563SOL    HW2 5252   2.278   1.878   0.850
 1564SOL     OW 5253   3.089   1.550   1.506
 1564SOL    HW1 5254   3.095   1.473   1.570
 1564SOL    HW2 5255   3.037   1.524   1.426
 1565SOL     OW 5256   2.183   0.943   0.242
 1565SOL    HW1 5257   2.265   0.982   0.200
 1565SOL    HW2 5258   2.156   0.861   0.193
 1566SOL     OW 5259   3.320   0.735   0.728
 1566SOL    HW1 5260   3.315   0.670   0.803
 1566SOL    HW2 5261   3.400   0.794   0.741
 1567SOL     OW 5262   2.323   1.266   1.727
 1567SOL    HW1 5263   2.273   1.267   1.641
 1567SOL    HW2 5264   2.260   1.248   1.803
 1568SOL     OW 5265   2.973   1.776   0.237
 1568SOL    HW1 5266   2.913   1.714   0.287
 1568SOL    HW2 5267   3.004   1.732   0.152
 1569SOL     OW 5268   2.064   0.285   1.498
 1569SOL    HW1 5269   1.984   0.345   1.485
 1569SOL    HW2 5270   2.054   0.236   1.584
 1570SOL     OW 5271   3.494   1.377   0.081
 1570SOL    HW1 5272   3.462   1.471   0.071
 1570SOL    HW2 5273   3.418   1.314   0.069
 1571SOL     OW 5274   2.326   1.743   0.323
 1571SOL    HW1 5275   2.359   1.782   0.409
 1571SOL    HW2 5276   2.402   1.736   0.258
 1572SOL     OW 5277   3.262   0.107   0.426
 1572SOL    HW1 5278   3.238   0.070   0.336
 1572SOL    HW2 5279   3.361   0.123   0.430
 1573SOL     OW 5280   2.111   1.785   1.241
 1573SOL    HW1 5281   2.168   1.720   1.291
 1573SOL    HW2 5282   2.095   1.752   1.148
 1574SOL     OW 5283   2.802   1.698   0.904
 1574SOL    HW1 5284   2.882   1.641   0.925
 1574SOL    HW2 5285   2.753   1.658   0.827
 1575SOL     OW 5286   2.244   0.700   0.480
 1575SOL    HW1 5287   2.289   0.610   0.477
 1575SOL    HW2 5288   2.150   0.689   0.513
 1576SOL     OW 5289   3.409   0.222   1.729
 1576SOL    HW1 5290   3.404   0.259   1.821
 1576SOL    HW2 5291   3.337   0.153   1.717
 1577SOL     OW 5292   2.476   0.122   0.117
 1577SOL    HW1 5293   2.574   0.100   0.124
 1577SOL    HW2 5294   2.445   0.105   0.024
 1578SOL     OW 5295   2.643   0.264   1.749
 1578SOL    HW1 5296   2.710   0.203   1.792
 1578SOL    HW2 5297   2.570   0.283   1.814
 1579SOL     OW 5298   2.750   1.514   1.195
 1579SOL    HW1 5299   2.727   1.489   1.101
 1579SOL    HW2 5300   2.811   1.445   1.234
 1580SOL     OW 5301   2.665   1.402   0.924
 1580SOL    HW1 5302   2.755   1.416   0.882
 1580SOL    HW2 5303   2.594   1.404   0.853
 1581SOL     OW 5304   2.784   0.503   0.899
 1581SOL    HW1 5305   2.759   0.494   0.803
 1581SOL    HW2 5306   2.832   0.421   0.930
 1582SOL     OW 5307   2.401   0.064   0.512
 1582SOL    HW1 5308   2.320   0.065   0.570
 1582SOL    HW2 5309   2.404   0.147   0.457
 1583SOL     OW 5310   3.296   1.188   0.041
 1583SOL    HW1 5311   3.328   1.112   0.098
 1583SOL    HW2 5312   3.204   1.215   0.071
 1584SOL     OW 5313   2.159   0.035   0.171
 1584SOL    HW1 5314   2.208   0.119   0.150
 1584SOL    HW2 5315   2.221  -0.030   0.216
 1585SOL     OW 5316   2.797   0.236   0.480
 1585SOL    HW1 5317   2.749   0.277   0.402
 1585SOL    HW2 5318   2.896   0.234   0.461
 1586SOL     OW 5319   3.089   1.570   0.793
 1586SOL    HW1 5320   3.110   1.644   0.728
 1586SOL    HW2 5321   3.157   1.570   0.866
 1587SOL     OW 5322   2.321   1.152   0.741
 1587SOL    HW1 5323   2.250   1.125   0.806
 1587SOL    HW2 5324   2.295   1.124   0.648
 1588SOL     OW 5325   3.133   1.797   0.591
 1588SOL    HW1 5326   3.177   1.861   0.527
 1588SOL    HW2 5327   3.083   1.849   0.661
 1589SOL     OW 5328   2.894   0.549   0.016
 1589SOL    HW1 5329   2.853   0.631  -0.023
 1589SOL    HW2 5330   2.958   0.575   0.089
 1590SOL     OW 5331   1.940   0.556   1.386
 1590SOL    HW1 5332   2.032   0.555   1.345
 1590SOL    HW2 5333   1.934   0.630   1.453
 1591SOL     OW 5334   2.423   0.222   1.147
 1591SOL    HW1 5335   2.461   0.138   1.184
 1591SOL    HW2 5336   2.335   0.241   1.191
 1592SOL     OW 5337   2.728   0.454   0.642
 1592SOL    HW1 5338   2.696   0.526   0.580
 1592SOL    HW2 5339   2.752   0.373   0.589
 1593SOL     OW 5340   2.879   0.039   0.753
 1593SOL    HW1 5341   2.807   0.044   0.684
 1593SOL    HW2 5342   2.855  -0.030   0.822
 1594SOL     OW 5343   3.328   0.590   0.992
 1594SOL    HW1 5344   3.298   0.495   0.999
 1594SOL    HW2 5345   3.401   0.606   1.058
 1595SOL     OW 5346   3.719   0.833   0.377
 1595SOL    HW1 5347   3.761   0.769   0.441
 1595SOL    HW2 5348   3.681   0.782   0.299
 1596SOL     OW 5349   2.350   1.385   0.174
 1596SOL    HW1 5350   2.263   1.370   0.221
 1596SOL    HW2 5351   2.333   1.411   0.079
 1597SOL     OW 5352   3.526   1.280   0.657
 1597SOL    HW1 5353   3.625   1.288   0.671
 1597SOL    HW2 5354   3.481   1.364   0.688
 1598SOL     OW 5355   3.252   0.575   0.078
 1598SOL    HW1 5356   3.198   0.554   0.159
 1598SOL    HW2 5357   3.343   0.534   0.087
 1599SOL     OW 5358   2.389   0.256   0.328
 1599SOL    HW1 5359   2.416   0.197   0.253
 1599SOL    HW2 5360   2.389   0.351   0.297
 1600SOL     OW 5361   3.616   1.223   1.588
 1600SOL    HW1 5362   3.707   1.184   1.575
 1600SOL    HW2 5363   3.624   1.319   1.612
 1601SOL     OW 5364   3.454   1.629   1.625
 1601SOL    HW1 5365   3.481   1.663   1.535
 1601SOL    HW2 5366   3.533   1.591   1.671
 1602SOL     OW 5367   2.842   1.116   1.719
 1602SOL    HW1 5368   2.743   1.122   1.729
 1602SOL    HW2 5369   2.865   1.036   1.663
 1603SOL     OW 5370   2.567   1.050   0.368
 1603SOL    HW1 5371   2.553   1.057   0.467
 1603SOL    HW2 5372   2.651   0.999   0.350
 1604SOL     OW 5373   2.272   0.813   1.251
 1604SOL    HW1 5374   2.358   0.825   1.301
 1604SOL    HW2 5375   2.230   0.726   1.278
 1605SOL     OW 5376   1.926   1.564   1.331
 1605SOL    HW1 5377   1.880   1.646   1.297
 1605SOL    HW2 5378   2.024   1.583   1.340
 1606SOL     OW 5379   2.229   1.100   0.501
 1606SOL    HW1 5380   2.222   1.183   0.445
 1606SOL    HW2 5381   2.233   1.020   0.441
 1607SOL     OW 5382   2.428   0.537   0.865
 1607SOL    HW1 5383   2.440   0.603   0.791
 1607SOL    HW2 5384   2.474   0.571   0.948
 1608SOL     OW 5385   3.114   1.348   0.388
 1608SOL    HW1 5386   3.164   1.425   0.428
 1608SOL    HW2 5387   3.019   1.350   0.420
 1609SOL     OW 5388   3.444   0.639   0.472
 1609SOL    HW1 5389   3.413   0.700   0.545
 1609SOL    HW2 5390   3.494   0.691   0.403
 1610SOL     OW 5391   2.216   1.510   1.329
 1610SOL    HW1 5392   2.195   1.466   1.242
 1610SOL    HW2 5393   2.313   1.536   1.332
 1611SOL     OW 5394   2.264   0.751   1.598
 1611SOL    HW1 5395   2.332   0.806   1.551
 1611SOL    HW2 5396   2.304   0.663   1.625
 1612SOL     OW 5397   3.449   0.779   1.670
 1612SOL    HW1 5398   3.357   0.817   1.665
 1612SOL    HW2 5399   3.509   0.826   1.605
 1613SOL     OW 5400   2.435   0.870   1.029
 1613SOL    HW1 5401   2.479   0.959   1.020
 1613SOL    HW2 5402   2.372   0.870   1.106
 1614SOL     OW 5403   3.071   0.525   0.275
 1614SOL    HW1 5404   3.084   0.441   0.329
 1614SOL    HW2 5405   3.042   0.599   0.335
 1615SOL     OW 5406   2.169   0.213   1.231
 1615SOL    HW1 5407   2.146   0.250   1.321
 1615SOL    HW2 5408   2.139   0.118   1.225
 1616SOL     OW 5409   1.899   1.310   1.282
 1616SOL    HW1 5410   1.952   1.261   1.350
 1616SOL    HW2 5411   1.921   1.408   1.287
 1617SOL     OW 5412   2.594   0.634   1.064
 1617SOL    HW1 5413   2.653   0.608   0.988
 1617SOL    HW2 5414   2.566   0.730   1.053
 1618SOL     OW 5415   3.590   0.935   1.854
 1618SOL    HW1 5416   3.544   0.928   1.765
 1618SOL    HW2 5417   3.528   0.979   1.920
 1619SOL     OW 5418   2.169   0.063   0.618
 1619SOL    HW1 5419   2.158   0.157   0.651
 1619SOL    HW2 5420   2.164   0.000   0.695
 1620SOL     OW 5421   3.484   0.367   0.374
 1620SOL    HW1 5422   3.486   0.291   0.438
 1620SOL    HW2 5423   3.436   0.444   0.414
 1621SOL     OW 5424   2.885   0.766   0.966
 1621SOL    HW1 5425   2.900   0.787   1.062
 1621SOL    HW2 5426   2.855   0.671   0.957
 1622SOL     OW 5427   2.842   1.573   1.700
 1622SOL    HW1 5428   2.822   1.617   1.612
 1622SOL    HW2 5429   2.881   1.482   1.684
 1623SOL     OW 5430   3.721   1.518   1.605
 1623SOL    HW1 5431   3.735   1.545   1.510
 1623SOL    HW2 5432   3.804   1.540   1.658
 1624SOL     OW 5433   2.212   0.898   1.804
 1624SOL    HW1 5434   2.288   0.942   1.852
 1624SOL    HW2 5435   2.247   0.851   1.722
 1625SOL     OW 5436   3.402   0.274   0.125
 1625SOL    HW1 5437   3.341   0.199   0.148
 1625SOL    HW2 5438   3.424   0.326   0.208
 1626SOL     OW 5439   3.165   0.838   0.042
 1626SOL    HW1 5440   3.199   0.745   0.057
 1626SOL    HW2 5441   3.183   0.865  -0.053
 1627SOL     OW 5442   2.930   1.333   0.849
 1627SOL    HW1 5443   2.937   1.249   0.794
 1627SOL    HW2 5444   2.992   1.402   0.813
 1628SOL     OW 5445   2.181   0.810   0.949
 1628SOL    HW1 5446   2.274   0.846   0.954
 1628SOL    HW2 5447   2.175   0.725   1.001
 1629SOL     OW 5448   2.201   0.509   1.006
 1629SOL    HW1 5449   2.149   0.426   0.989
 1629SOL    HW2 5450   2.278   0.514   0.942
 1630SOL     OW 5451   1.950   1.801   0.927
 1630SOL    HW1 5452   1.908   1.715   0.900
 1630SOL    HW2 5453   2.044   1.804   0.893
 1631SOL     OW 5454   2.366   1.568   0.910
 1631SOL    HW1 5455   2.432   1.642   0.919
 1631SOL    HW2 5456   2.410   1.489   0.868
 1632SOL     OW 5457   2.864   0.796   1.238
 1632SOL    HW1 5458   2.905   0.764   1.324
 1632SOL    HW2 5459   2.768   0.769   1.235
 1633SOL     OW 5460   1.902   0.544   1.114
 1633SOL    HW1 5461   1.987   0.511   1.073
 1633SOL    HW2 5462   1.915   0.559   1.212
 1634SOL     OW 5463   2.051   0.520   1.722
 1634SOL    HW1 5464   2.110   0.480   1.652
 1634SOL    HW2 5465   1.993   0.591   1.681
 1635SOL     OW 5466   2.677   0.572   0.325
 1635SOL    HW1 5467   2.684   0.483   0.279
 1635SOL    HW2 5468   2.583   0.606   0.317
 1636SOL     OW 5469   3.519   0.604   1.206
 1636SOL    HW1 5470   3.481   0.535   1.268
 1636SOL    HW2 5471   3.601   0.568   1.162
 1637SOL     OW 5472   2.114   1.564   1.744
 1637SOL    HW1 5473   2.084   1.621   1.820
 1637SOL    HW2 5474   2.107   1.467   1.770
 1638SOL     OW 5475   2.533   0.464   1.269
 1638SOL    HW1 5476   2.499   0.375   1.239
 1638SOL    HW2 5477   2.559   0.518   1.189
 1639SOL     OW 5478   2.792   1.678   1.465
 1639SOL    HW1 5479   2.768   1.660   1.370
 1639SOL    HW2 5480   2.822   1.772   1.475
 1640SOL     OW 5481   2.335   0.500   0.191
 1640SOL    HW1 5482   2.396   0.580   0.195
 1640SOL    HW2 5483   2.240   0.531   0.198
 1641SOL     OW 5484   2.021   1.137   1.466
 1641SOL    HW1 5485   2.043   1.076   1.542
 1641SOL    HW2 5486   2.031   1.088   1.380
 1642SOL     OW 5487   3.164   0.855   0.309
 1642SOL    HW1 5488   3.078   0.824   0.351
 1642SOL    HW2 5489   3.160   0.841   0.210
 1643SOL     OW 5490   3.621   1.747   1.154
 1643SOL    HW1 5491   3.682   1.777   1.081
 1643SOL    HW2 5492   3.583   1.658   1.132
 1644SOL     OW 5493   3.114   1.731   1.128
 1644SOL    HW1 5494   3.198   1.736   1.074
 1644SOL    HW2 5495   3.091   1.635   1.146
 1645SOL     OW 5496   1.945   1.258   1.022
 1645SOL    HW1 5497   1.940   1.257   1.122
 1645SOL    HW2 5498   1.862   1.217   0.984
 1646SOL     OW 5499   2.550   1.662   1.716
 1646SOL    HW1 5500   2.494   1.743   1.725
 1646SOL    HW2 5501   2.602   1.666   1.630
 1647SOL     OW 5502   2.765   0.086   0.133
 1647SOL    HW1 5503   2.816   0.087   0.047
 1647SOL    HW2 5504   2.821   0.044   0.204
 1648SOL     OW 5505   3.588   0.135   0.523
 1648SOL    HW1 5506   3.661   0.118   0.456
 1648SOL    HW2 5507   3.557   0.048   0.561
 1649SOL     OW 5508   3.250   1.573   0.477
 1649SOL    HW1 5509   3.317   1.585   0.403
 1649SOL    HW2 5510   3.210   1.662   0.500
 1650SOL     OW 5511   1.992   1.794   1.851
 1650SOL    HW1 5512   1.951   1.720   1.904
 1650SOL    HW2 5513   2.056   1.845   1.909
 1651SOL     OW 5514   3.142   0.927   0.672
 1651SOL    HW1 5515   3.202   0.846   0.674
 1651SOL    HW2 5516   3.182   0.996   0.612
 1652SOL     OW 5517   2.692   1.273   1.422
 1652SOL    HW1 5518   2.687   1.306   1.517
 1652SOL    HW2 5519   2.606   1.292   1.376
 1653SOL     OW 5520   2.534   1.616   0.154
 1653SOL    HW1 5521   2.543   1.626   0.055
 1653SOL    HW2 5522   2.494   1.527   0.175
 1654SOL     OW 5523   3.512   1.720   1.394
 1654SOL    HW1 5524   3.565   1.730   1.310
 1654SOL    HW2 5525   3.485   1.810   1.428
 1655SOL     OW 5526   3.703   0.175   0.963
 1655SOL    HW1 5527   3.742   0.090   0.927
 1655SOL    HW2 5528   3.605   0.177   0.944
 1656SOL     OW 5529   2.125   0.326   0.720
 1656SOL    HW1 5530   2.046   0.377   0.686
 1656SOL    HW2 5531   2.116   0.311   0.818
 1657SOL     OW 5532   3.056   1.612   0.031
 1657SOL    HW1 5533   3.062   1.519   0.068
 1657SOL    HW2 5534   2.997   1.612  -0.049
 1658SOL     OW 5535   2.684   1.002   1.372
 1658SOL    HW1 5536   2.724   1.001   1.280
 1658SOL    HW2 5537   2.694   1.094   1.412
 1659SOL     OW 5538   2.778   0.910   0.291
 1659SOL    HW1 5539   2.841   0.948   0.223
 1659SOL    HW2 5540   2.818   0.827   0.330
 1660SOL     OW 5541   3.366   1.607   0.044
 1660SOL    HW1 5542   3.274   1.644   0.051
 1660SOL    HW2 5543   3.404   1.627  -0.046
 1661SOL     OW 5544   2.234   1.288   1.490
 1661SOL    HW1 5545   2.221   1.381   1.456
 1661SOL    HW2 5546   2.150   1.236   1.477
 1662SOL     OW 5547   2.901   1.098   0.696
 1662SOL    HW1 5548   2.831   1.051   0.750
 1662SOL    HW2 5549   2.960   1.030   0.653
 1663SOL     OW 5550   2.876   0.236   0.971
 1663SOL    HW1 5551   2.868   0.200   0.878
 1663SOL    HW2 5552   2.874   0.160   1.036
 1664SOL     OW 5553   2.452   1.487   0.491
 1664SOL    HW1 5554   2.494   1.429   0.421
 1664SOL    HW2 5555   2.408   1.566   0.447
 1665SOL     OW 5556   3.571   0.385   1.381
 1665SOL    HW1 5557   3.644   0.454   1.385
 1665SOL    HW2 5558   3.599   0.310   1.322
 1666SOL     OW 5559   2.117   1.348   0.290
 1666SOL    HW1 5560   2.021   1.349   0.263
 1666SOL    HW2 5561   2.129   1.401   0.374
 1667SOL     OW 5562   1.967   1.013   1.726
 1667SOL    HW1 5563   1.890   0.980   1.780
 1667SOL    HW2 5564   2.052   0.983   1.768
 1668SOL     OW 5565   2.534   0.203   1.489
 1668SOL    HW1 5566   2.624   0.187   1.449
 1668SOL    HW2 5567   2.542   0.208   1.588
 1669SOL     OW 5568   1.934   0.166   0.318
 1669SOL    HW1 5569   1.917   0.249   0.264
 1669SOL    HW2 5570   2.024   0.129   0.296
 1670SOL     OW 5571   3.045   1.335   0.119
 1670SOL    HW1 5572   2.946   1.324   0.121
 1670SOL    HW2 5573   3.079   1.350   0.212
 1671SOL     OW 5574   2.475   0.842   1.431
 1671SOL    HW1 5575   2.531   0.923   1.414
 1671SOL    HW2 5576   2.534   0.762   1.434
 1672SOL     OW 5577   3.355   1.767   0.959
 1672SOL    HW1 5578   3.388   1.831   0.890
 1672SOL    HW2 5579   3.421   1.761   1.034
 1673SOL     OW 5580   2.578   0.565   1.708
 1673SOL    HW1 5581   2.597   0.630   1.782
 1673SOL    HW2 5582   2.638   0.485   1.717
 1674SOL     OW 5583   3.312   1.220   1.633
 1674SOL    HW1 5584   3.303   1.210   1.732
 1674SOL    HW2 5585   3.408   1.213   1.607
 1675SOL     OW 5586   2.252   1.741   1.560
 1675SOL    HW1 5587   2.161   1.782   1.558
 1675SOL    HW2 5588   2.245   1.647   1.592
 1676SOL     OW 5589   3.536   0.883   1.254
 1676SOL    HW1 5590   3.509   0.794   1.217
 1676SOL    HW2 5591   3.537   0.951   1.181
 1677SOL     OW 5592   3.087   0.325   0.449
 1677SOL    HW1 5593   3.152   0.251   0.438
 1677SOL    HW2 5594   3.107   0.375   0.533
 1678SOL     OW 5595   2.456   0.745   0.652
 1678SOL    HW1 5596   2.506   0.830   0.633
 1678SOL    HW2 5597   2.368   0.747   0.604
 1679SOL     OW 5598   3.639   0.342   1.642
 1679SOL    HW1 5599   3.622   0.373   1.548
 1679SOL    HW2 5600   3.555   0.305   1.680
 1680SOL     OW 5601   3.592   0.934   1.517
 1680SOL    HW1 5602   3.630   1.025   1.532
 1680SOL    HW2 5603   3.584   0.917   1.418
 1681SOL     OW 5604   2.721   1.374   0.016
 1681SOL    HW1 5605   2.675   1.389   0.104
 1681SOL    HW2 5606   2.765   1.459  -0.014
 1682SOL     OW 5607   2.523   1.790   0.953
 1682SOL    HW1 5608   2.477   1.878   0.940
 1682SOL    HW2 5609   2.622   1.802   0.946
 1683SOL     OW 5610   2.721   0.956   0.861
 1683SOL    HW1 5611   2.775   0.887   0.909
 1683SOL    HW2 5612   2.689   1.025   0.927
 1684SOL     OW 5613   2.945   0.984   0.087
 1684SOL    HW1 5614   2.922   1.037   0.005
 1684SOL    HW2 5615   3.026   0.928   0.068
 1685SOL     OW 5616   3.723   1.569   0.851
 1685SOL    HW1 5617   3.652   1.557   0.781
 1685SOL    HW2 5618   3.724   1.490   0.911
 1686SOL     OW 5619   2.083   1.314   1.844
 1686SOL    HW1 5620   2.018   1.241   1.823
 1686SOL    HW2 5621   2.087   1.328   1.942
 1687SOL     OW 5622   1.941   1.240   0.653
 1687SOL    HW1 5623   1.940   1.193   0.741
 1687SOL    HW2 5624   2.023   1.212   0.602
 1688SOL     OW 5625   2.534   1.391   1.624
 1688SOL    HW1 5626   2.456   1.341   1.662
 1688SOL    HW2 5627   2.531   1.486   1.655
 1689SOL     OW 5628   3.686   0.192   1.227
 1689SOL    HW1 5629   3.682   0.102   1.271
 1689SOL    HW2 5630   3.689   0.181   1.128
 1690SOL     OW 5631   2.290   0.424   0.520
 1690SOL    HW1 5632   2.320   0.352   0.458
 1690SOL    HW2 5633   2.251   0.384   0.603
 1691SOL     OW 5634   3.567   1.487   1.104
 1691SOL    HW1 5635   3.474   1.462   1.077
 1691SOL    HW2 5636   3.593   1.437   1.186
 1692SOL     OW 5637   2.179   0.547   1.280
 1692SOL    HW1 5638   2.217   0.488   1.352
 1692SOL    HW2 5639   2.219   0.521   1.192
 1693SOL     OW 5640   2.674   1.586   0.687
 1693SOL    HW1 5641   2.706   1.596   0.593
 1693SOL    HW2 5642   2.595   1.524   0.689
 1694SOL     OW 5643   3.286   0.214   1.112
 1694SOL    HW1 5644   3.338   0.149   1.167
 1694SOL    HW2 5645   3.237   0.277   1.173
 1695SOL     OW 5646   2.863   0.034   1.154
 1695SOL    HW1 5647   2.800  -0.038   1.123
 1695SOL    HW2 5648   2.956  -0.002   1.154
 1696SOL     OW 5649   2.632   1.330   0.301
 1696SOL    HW1 5650   2.586   1.243   0.318
 1696SOL    HW2 5651   2.723   1.327   0.342
 1697SOL     OW 5652   2.480   1.567   1.284
 1697SOL    HW1 5653   2.475   1.649   1.341
 1697SOL    HW2 5654   2.569   1.564   1.239
 1698SOL     OW 5655   3.214   0.052   0.168
 1698SOL    HW1 5656   3.249   0.011   0.084
 1698SOL    HW2 5657   3.124   0.014   0.188
 1699SOL     OW 5658   3.162   0.453   0.691
 1699SOL    HW1 5659   3.103   0.533   0.695
 1699SOL    HW2 5660   3.177   0.418   0.784
 1700SOL     OW 5661   3.455   0.221   0.882
 1700SOL    HW1 5662   3.371   0.220   0.936
 1700SOL    HW2 5663   3.457   0.304   0.826
 1701SOL     OW 5664   1.901   1.077   0.300
 1701SOL    HW1 5665   2.000   1.066   0.291
 1701SOL    HW2 5666   1.861   0.991   0.332
 1702SOL     OW 5667   2.737   1.646   0.337
 1702SOL    HW1 5668   2.660   1.611   0.283
 1702SOL    HW2 5669   2.705   1.717   0.399
 1703SOL     OW 5670   2.092   0.628   1.975
 1703SOL    HW1 5671   1.999   0.626   2.012
 1703SOL    HW2 5672   2.093   0.589   1.883
 1704SOL     OW 5673   2.087   0.275   2.858
 1704SOL    HW1 5674   2.122   0.258   2.950
 1704SOL    HW2 5675   1.999   0.230   2.846
 1705SOL     OW 5676   1.881   0.368   2.509
 1705SOL    HW1 5677   1.799   0.411   2.548
 1705SOL    HW2 5678   1.853   0.295   2.446
 1706SOL     OW 5679   2.431   1.275   3.027
 1706SOL    HW1 5680   2.338   1.268   2.990
 1706SOL    HW2 5681   2.442   1.364   3.071
 1707SOL     OW 5682   3.417   1.511   2.565
 1707SOL    HW1 5683   3.360   1.495   2.646
 1707SOL    HW2 5684   3.358   1.521   2.485
 1708SOL     OW 5685   2.997   0.703   2.579
 1708SOL    HW1 5686   3.054   0.781   2.554
 1708SOL    HW2 5687   2.937   0.729   2.655
 1709SOL     OW 5688   3.617   0.607   2.093
 1709SOL    HW1 5689   3.605   0.594   1.994
 1709SOL    HW2 5690   3.587   0.526   2.142
 1710SOL     OW 5691   2.630   1.144   2.885
 1710SOL    HW1 5692   2.552   1.161   2.945
 1710SOL    HW2 5693   2.664   1.231   2.849
 1711SOL     OW 5694   2.547   1.012   2.527
 1711SOL    HW1 5695   2.616   0.996   2.597
 1711SOL    HW2 5696   2.474   1.069   2.565
 1712SOL     OW 5697   2.548   1.161   3.665
 1712SOL    HW1 5698   2.608   1.240   3.679
 1712SOL    HW2 5699   2.462   1.192   3.624
 1713SOL     OW 5700   2.197   1.435   2.923
 1713SOL    HW1 5701   2.119   1.404   2.870
 1713SOL    HW2 5702   2.255   1.493   2.866
 1714SOL     OW 5703   3.322   1.505   3.201
 1714SOL    HW1 5704   3.346   1.599   3.227
 1714SOL    HW2 5705   3.306   1.451   3.283
 1715SOL     OW 5706   2.300   0.392   3.361
 1715SOL    HW1 5707   2.382   0.336   3.370
 1715SOL    HW2 5708   2.219   0.334   3.365
 1716SOL     OW 5709   3.465   0.447   2.599
 1716SOL    HW1 5710   3.391   0.493   2.549
 1716SOL    HW2 5711   3.516   0.515   2.652
 1717SOL     OW 5712   2.093   1.713   2.345
 1717SOL    HW1 5713   2.127   1.790   2.399
 1717SOL    HW2 5714   2.137   1.713   2.255
 1718SOL     OW 5715   2.989   1.341   3.552
 1718SOL    HW1 5716   3.036   1.341   3.640
 1718SOL    HW2 5717   2.941   1.254   3.541
 1719SOL     OW 5718   2.092   1.434   2.400
 1719SOL    HW1 5719   2.066   1.530   2.400
 1719SOL    HW2 5720   2.021   1.380   2.445
 1720SOL     OW 5721   2.102   1.091   2.748
 1720SOL    HW1 5722   2.116   1.007   2.800
 1720SOL    HW2 5723   2.047   1.155   2.803
 1721SOL     OW 5724   2.482   1.786   3.301
 1721SOL    HW1 5725   2.390   1.769   3.336
 1721SOL    HW2 5726   2.510   1.878   3.327
 1722SOL     OW 5727   2.468   0.964   1.985
 1722SOL    HW1 5728   2.475   1.048   1.931
 1722SOL    HW2 5729   2.514   0.977   2.073
 1723SOL     OW 5730   3.456   0.114   3.342
 1723SOL    HW1 5731   3.438   0.181   3.270
 1723SOL    HW2 5732   3.453   0.160   3.431
 1724SOL     OW 5733   1.984   0.643   2.425
 1724SOL    HW1 5734   1.939   0.555   2.442
 1724SOL    HW2 5735   1.983   0.697   2.509
 1725SOL     OW 5736   3.704   1.767   2.221
 1725SOL    HW1 5737   3.758   1.738   2.301
 1725SOL    HW2 5738   3.734   1.857   2.192
 1726SOL     OW 5739   1.889   1.596   1.979
 1726SOL    HW1 5740   1.870   1.500   2.000
 1726SOL    HW2 5741   1.856   1.654   2.054
 1727SOL     OW 5742   3.551   0.922   2.474
 1727SOL    HW1 5743   3.646   0.893   2.482
 1727SOL    HW2 5744   3.543   0.987   2.399
 1728SOL     OW 5745   3.503   1.108   2.294
 1728SOL    HW1 5746   3.589   1.110   2.242
 1728SOL    HW2 5747   3.517   1.155   2.382
 1729SOL     OW 5748   1.975   0.737   3.459
 1729SOL    HW1 5749   2.063   0.724   3.504
 1729SOL    HW2 5750   1.962   0.834   3.437
 1730SOL     OW 5751   2.475   1.365   2.588
 1730SOL    HW1 5752   2.426   1.278   2.597
 1730SOL    HW2 5753   2.452   1.408   2.501
 1731SOL     OW 5754   2.671   0.004   2.364
 1731SOL    HW1 5755   2.711   0.095   2.355
 1731SOL    HW2 5756   2.571   0.012   2.370
 1732SOL     OW 5757   2.059   0.976   3.126
 1732SOL    HW1 5758   2.148   0.931   3.112
 1732SOL    HW2 5759   1.986   0.911   3.107
 1733SOL     OW 5760   3.387   0.999   2.052
 1733SOL    HW1 5761   3.324   0.923   2.065
 1733SOL    HW2 5762   3.435   1.017   2.138
 1734SOL     OW 5763   3.049   1.792   3.478
 1734SOL    HW1 5764   3.073   1.852   3.402
 1734SOL    HW2 5765   3.056   1.697   3.448
 1735SOL     OW 5766   2.179   0.251   3.663
 1735SOL    HW1 5767   2.250   0.322   3.669
 1735SOL    HW2 5768   2.091   0.290   3.691
 1736SOL     OW 5769   3.328   1.417   2.815
 1736SOL    HW1 5770   3.269   1.423   2.895
 1736SOL    HW2 5771   3.313   1.329   2.769
 1737SOL     OW 5772   3.529   1.714   2.434
 1737SOL    HW1 5773   3.488   1.691   2.346
 1737SOL    HW2 5774   3.511   1.640   2.499
 1738SOL     OW 5775   2.460   0.729   2.132
 1738SOL    HW1 5776   2.484   0.798   2.064
 1738SOL    HW2 5777   2.382   0.762   2.186
 1739SOL     OW 5778   3.143   0.345   2.806
 1739SOL    HW1 5779   3.057   0.295   2.793
 1739SOL    HW2 5780   3.205   0.291   2.862
 1740SOL     OW 5781   3.438   1.662   2.169
 1740SOL    HW1 5782   3.527   1.708   2.172
 1740SOL    HW2 5783   3.417   1.638   2.074
 1741SOL     OW 5784   3.256   0.469   3.536
 1741SOL    HW1 5785   3.236   0.512   3.624
 1741SOL    HW2 5786   3.334   0.407   3.545
 1742SOL     OW 5787   2.835   0.890   3.434
 1742SOL    HW1 5788   2.881   0.806   3.405
 1742SOL    HW2 5789   2.779   0.924   3.359
 1743SOL     OW 5790   2.903   0.701   2.291
 1743SOL    HW1 5791   2.929   0.697   2.387
 1743SOL    HW2 5792   2.818   0.650   2.277
 1744SOL     OW 5793   1.938   0.811   2.651
 1744SOL    HW1 5794   2.037   0.799   2.660
 1744SOL    HW2 5795   1.914   0.906   2.672
 1745SOL     OW 5796   1.992   1.821   3.433
 1745SOL    HW1 5797   1.982   1.806   3.532
 1745SOL    HW2 5798   1.906   1.857   3.397
 1746SOL     OW 5799   2.727   0.348   2.057
 1746SOL    HW1 5800   2.786   0.411   2.008
 1746SOL    HW2 5801   2.746   0.254   2.028
 1747SOL     OW 5802   3.581   0.585   3.693
 1747SOL    HW1 5803   3.555   0.674   3.657
 1747SOL    HW2 5804   3.579   0.517   3.620
 1748SOL     OW 5805   3.224   1.144   2.407
 1748SOL    HW1 5806   3.307   1.115   2.359
 1748SOL    HW2 5807   3.175   1.211   2.351
 1749SOL     OW 5808   2.412   0.196   2.747
 1749SOL    HW1 5809   2.407   0.191   2.847
 1749SOL    HW2 5810   2.414   0.292   2.718
 1750SOL     OW 5811   2.870   1.456   2.339
 1750SOL    HW1 5812   2.824   1.528   2.287
 1750SOL    HW2 5813   2.866   1.476   2.437
 1751SOL     OW 5814   2.213   1.801   2.715
 1751SOL    HW1 5815   2.263   1.715   2.721
 1751SOL    HW2 5816   2.278   1.878   2.712
 1752SOL     OW 5817   3.657   1.066   2.735
 1752SOL    HW1 5818   3.595   1.051   2.659
 1752SOL    HW2 5819   3.605   1.077   2.820
 1753SOL     OW 5820   3.089   1.550   3.368
 1753SOL    HW1 5821   3.095   1.473   3.432
 1753SOL    HW2 5822   3.037   1.524   3.288
 1754SOL     OW 5823   2.183   0.943   2.104
 1754SOL    HW1 5824   2.265   0.982   2.062
 1754SOL    HW2 5825   2.156   0.861   2.055
 1755SOL     OW 5826   3.320   0.735   2.590
 1755SOL    HW1 5827   3.315   0.670   2.665
 1755SOL    HW2 5828   3.400   0.794   2.603
 1756SOL     OW 5829   2.323   1.266   3.589
 1756SOL    HW1 5830   2.273   1.267   3.503
 1756SOL    HW2 5831   2.260   1.248   3.665
 1757SOL     OW 5832   2.973   1.776   2.099
 1757SOL    HW1 5833   2.913   1.714   2.149
 1757SOL    HW2 5834   3.004   1.732   2.014
 1758SOL     OW 5835   2.064   0.285   3.360
 1758SOL    HW1 5836   1.984   0.345   3.347
 1758SOL    HW2 5837   2.054   0.236   3.446
 1759SOL     OW 5838   3.494   1.377   1.943
 1759SOL    HW1 5839   3.462   1.471   1.933
 1759SOL    HW2 5840   3.418   1.314   1.931
 1760SOL     OW 5841   2.326   1.743   2.185
 1760SOL    HW1 5842   2.359   1.782   2.271
 1760SOL    HW2 5843   2.402   1.736   2.120
 1761SOL     OW 5844   3.262   0.107   2.288
 1761SOL    HW1 5845   3.238   0.070   2.198
 1761SOL    HW2 5846   3.361   0.123   2.292
 1762SOL     OW 5847   2.111   1.785   3.103
 1762SOL    HW1 5848   2.168   1.720   3.153
 1762SOL    HW2 5849   2.095   1.752   3.010
 1763SOL     OW 5850   2.802   1.698   2.766
 1763SOL    HW1 5851   2.882   1.641   2.787
 1763SOL    HW2 5852   2.753   1.658   2.689
 1764SOL     OW 5853   2.244   0.700   2.342
 1764SOL    HW1 5854   2.289   0.610   2.339
 1764SOL    HW2 5855   2.150   0.689   2.375
 1765SOL     OW 5856   3.409   0.222   3.591
 1765SOL    HW1 5857   3.404   0.259   3.683
 1765SOL    HW2 5858   3.337   0.153   3.579
 1766SOL     OW 5859   2.476   0.122   1.979
 1766SOL    HW1 5860   2.574   0.100   1.986
 1766SOL    HW2 5861   2.445   0.105   1.886
 1767SOL     OW 5862   2.643   0.264   3.611
 1767SOL    HW1 5863   2.710   0.203   3.654
 1767SOL    HW2 5864   2.570   0.283   3.676
 1768SOL     OW 5865   2.750   1.514   3.057
 1768SOL    HW1 5866   2.727   1.489   2.963
 1768SOL    HW2 5867   2.811   1.445   3.096
 1769SOL     OW 5868   3.213   0.590   3.295
 1769SOL    HW1 5869   3.241   0.547   3.380
 1769SOL    HW2 5870   3.238   0.686   3.296
 1770SOL     OW 5871   2.665   1.402   2.786
 1770SOL    HW1 5872   2.755   1.416   2.744
 1770SOL    HW2 5873   2.594   1.404   2.715
 1771SOL     OW 5874   2.784   0.503   2.761
 1771SOL    HW1 5875   2.759   0.494   2.665
 1771SOL    HW2 5876   2.832   0.421   2.792
 1772SOL     OW 5877   2.401   0.064   2.374
 1772SOL    HW1 5878   2.320   0.065   2.432
 1772SOL    HW2 5879   2.404   0.147   2.319
 1773SOL     OW 5880   3.296   1.188   1.903
 1773SOL    HW1 5881   3.328   1.112   1.960
 1773SOL    HW2 5882   3.204   1.215   1.933
 1774SOL     OW 5883   2.797   0.236   2.342
 1774SOL    HW1 5884   2.749   0.277   2.264
 1774SOL    HW2 5885   2.896   0.234   2.323
 1775SOL     OW 5886   3.089   1.570   2.655
 1775SOL    HW1 5887   3.110   1.644   2.590
 1775SOL    HW2 5888   3.157   1.570   2.728
 1776SOL     OW 5889   2.321   1.152   2.603
 1776SOL    HW1 5890   2.250   1.125   2.668
 1776SOL    HW2 5891   2.295   1.124   2.510
 1777SOL     OW 5892   3.133   1.797   2.453
 1777SOL    HW1 5893   3.177   1.861   2.389
 1777SOL    HW2 5894   3.083   1.849   2.523
 1778SOL     OW 5895   2.894   0.549   1.878
 1778SOL    HW1 5896   2.853   0.631   1.839
 1778SOL    HW2 5897   2.958   0.575   1.951
 1779SOL     OW 5898   1.940   0.556   3.248
 1779SOL    HW1 5899   2.032   0.555   3.207
 1779SOL    HW2 5900   1.934   0.630   3.315
 1780SOL     OW 5901   2.423   0.222   3.009
 1780SOL    HW1 5902   2.461   0.138   3.046
 1780SOL    HW2 5903   2.335   0.241   3.053
 1781SOL     OW 5904   2.728   0.454   2.504
 1781SOL    HW1 5905   2.696   0.526   2.442
 1781SOL    HW2 5906   2.752   0.373   2.451
 1782SOL     OW 5907   2.879   0.039   2.615
 1782SOL    HW1 5908   2.807   0.044   2.546
 1782SOL    HW2 5909   2.855  -0.030   2.684
 1783SOL     OW 5910   3.719   0.833   2.239
 1783SOL    HW1 5911   3.761   0.769   2.303
 1783SOL    HW2 5912   3.681   0.782   2.161
 1784SOL     OW 5913   2.350   1.385   2.036
 1784SOL    HW1 5914   2.263   1.370   2.083
 1784SOL    HW2 5915   2.333   1.411   1.941
 1785SOL     OW 5916   3.526   1.280   2.519
 1785SOL    HW1 5917   3.625   1.288   2.533
 1785SOL    HW2 5918   3.481   1.364   2.550
 1786SOL     OW 5919   3.252   0.575   1.940
 1786SOL    HW1 5920   3.198   0.554   2.021
 1786SOL    HW2 5921   3.343   0.534   1.949
 1787SOL     OW 5922   2.389   0.256   2.190
 1787SOL    HW1 5923   2.416   0.197   2.115
 1787SOL    HW2 5924   2.389   0.351   2.159
 1788SOL     OW 5925   3.616   1.223   3.450
 1788SOL    HW1 5926   3.707   1.184   3.437
 1788SOL    HW2 5927   3.624   1.319   3.474
 1789SOL     OW 5928   2.926   1.347   3.202
 1789SOL    HW1 5929   2.846   1.324   3.257
 1789SOL    HW2 5930   3.009   1.321   3.251
 1790SOL     OW 5931   3.454   1.629   3.487
 1790SOL    HW1 5932   3.481   1.663   3.397
 1790SOL    HW2 5933   3.533   1.591   3.533
 1791SOL     OW 5934   2.973   1.195   2.962
 1791SOL    HW1 5935   2.933   1.239   3.043
 1791SOL    HW2 5936   2.932   1.232   2.879
 1792SOL     OW 5937   2.777   0.089   3.264
 1792SOL    HW1 5938   2.802   0.069   3.169
 1792SOL    HW2 5939   2.849   0.145   3.306
 1793SOL     OW 5940   2.842   1.116   3.581
 1793SOL    HW1 5941   2.743   1.122   3.591
 1793SOL    HW2 5942   2.865   1.036   3.525
 1794SOL     OW 5943   2.567   1.050   2.230
 1794SOL    HW1 5944   2.553   1.057   2.329
 1794SOL    HW2 5945   2.651   0.999   2.212
 1795SOL     OW 5946   2.272   0.813   3.113
 1795SOL    HW1 5947   2.358   0.825   3.163
 1795SOL    HW2 5948   2.230   0.726   3.140
 1796SOL     OW 5949   1.926   1.564   3.193
 1796SOL    HW1 5950   1.880   1.646   3.159
 1796SOL    HW2 5951   2.024   1.583   3.202
 1797SOL     OW 5952   2.229   1.100   2.363
 1797SOL    HW1 5953   2.222   1.183   2.307
 1797SOL    HW2 5954   2.233   1.020   2.303
 1798SOL     OW 5955   2.428   0.537   2.727
 1798SOL    HW1 5956   2.440   0.603   2.653
 1798SOL    HW2 5957   2.474   0.571   2.810
 1799SOL     OW 5958   3.114   1.348   2.250
 1799SOL    HW1 5959   3.164   1.425   2.290
 1799SOL    HW2 5960   3.019   1.350   2.282
 1800SOL     OW 5961   3.134   1.445   3.004
 1800SOL    HW1 5962   3.181   1.458   3.091
 1800SOL    HW2 5963   3.068   1.371   3.013
 1801SOL     OW 5964   3.444   0.639   2.334
 1801SOL    HW1 5965   3.413   0.700   2.407
 1801SOL    HW2 5966   3.494   0.691   2.265
 1802SOL     OW 5967   2.216   1.510   3.191
 1802SOL    HW1 5968   2.195   1.466   3.104
 1802SOL    HW2 5969   2.313   1.536   3.194
 1803SOL     OW 5970   2.264   0.751   3.460
 1803SOL    HW1 5971   2.332   0.806   3.413
 1803SOL    HW2 5972   2.304   0.663   3.487
 1804SOL     OW 5973   3.449   0.779   3.532
 1804SOL    HW1 5974   3.357   0.817   3.527
 1804SOL    HW2 5975   3.509   0.826   3.467
 1805SOL     OW 5976   2.875   0.105   3.632
 1805SOL    HW1 5977   2.881   0.190   3.580
 1805SOL    HW2 5978   2.907   0.029   3.575
 1806SOL     OW 5979   2.366   0.050   3.602
 1806SOL    HW1 5980   2.324  -0.007   3.532
 1806SOL    HW2 5981   2.300   0.119   3.634
 1807SOL     OW 5982   2.435   0.870   2.891
 1807SOL    HW1 5983   2.479   0.959   2.882
 1807SOL    HW2 5984   2.372   0.870   2.968
 1808SOL     OW 5985   3.071   0.525   2.137
 1808SOL    HW1 5986   3.084   0.441   2.191
 1808SOL    HW2 5987   3.042   0.599   2.197
 1809SOL     OW 5988   2.169   0.213   3.093
 1809SOL    HW1 5989   2.146   0.250   3.183
 1809SOL    HW2 5990   2.139   0.118   3.087
 1810SOL     OW 5991   1.899   1.310   3.144
 1810SOL    HW1 5992   1.952   1.261   3.212
 1810SOL    HW2 5993   1.921   1.408   3.149
 1811SOL     OW 5994   2.594   0.634   2.926
 1811SOL    HW1 5995   2.653   0.608   2.850
 1811SOL    HW2 5996   2.566   0.730   2.915
 1812SOL     OW 5997   3.590   0.935   3.716
 1812SOL    HW1 5998   3.544   0.928   3.627
 1812SOL    HW2 5999   3.528   0.979   3.782
 1813SOL     OW 6000   2.169   0.063   2.480
 1813SOL    HW1 6001   2.158   0.157   2.513
 1813SOL    HW2 6002   2.164   0.000   2.557
 1814SOL     OW 6003   3.484   0.367   2.236
 1814SOL    HW1 6004   3.486   0.291   2.300
 1814SOL    HW2 6005   3.436   0.444   2.276
 1815SOL     OW 6006   2.885   0.766   2.828
 1815SOL    HW1 6007   2.900   0.787   2.924
 1815SOL    HW2 6008   2.855   0.671   2.819
 1816SOL     OW 6009   2.842   1.573   3.562
 1816SOL    HW1 6010   2.822   1.617   3.474
 1816SOL    HW2 6011   2.881   1.482   3.546
 1817SOL     OW 6012   3.721   1.518   3.467
 1817SOL    HW1 6013   3.735   1.545   3.372
 1817SOL    HW2 6014   3.804   1.540   3.520
 1818SOL     OW 6015   2.212   0.898   3.666
 1818SOL    HW1 6016   2.288   0.942   3.714
 1818SOL    HW2 6017   2.247   0.851   3.584
 1819SOL     OW 6018   3.402   0.274   1.987
 1819SOL    HW1 6019   3.341   0.199   2.010
 1819SOL    HW2 6020   3.424   0.326   2.070
 1820SOL     OW 6021   3.165   0.838   1.904
 1820SOL    HW1 6022   3.199   0.745   1.919
 1820SOL    HW2 6023   3.183   0.865   1.809
 1821SOL     OW 6024   2.930   1.333   2.711
 1821SOL    HW1 6025   2.937   1.249   2.656
 1821SOL    HW2 6026   2.992   1.402   2.675
 1822SOL     OW 6027   2.181   0.810   2.811
 1822SOL    HW1 6028   2.274   0.846   2.816
 1822SOL    HW2 6029   2.175   0.725   2.863
 1823SOL     OW 6030   2.201   0.509   2.868
 1823SOL    HW1 6031   2.149   0.426   2.851
 1823SOL    HW2 6032   2.278   0.514   2.804
 1824SOL     OW 6033   1.870   1.326   2.062
 1824SOL    HW1 6034   1.777   1.347   2.031
 1824SOL    HW2 6035   1.880   1.227   2.075
 1825SOL     OW 6036   1.950   1.801   2.789
 1825SOL    HW1 6037   1.908   1.715   2.762
 1825SOL    HW2 6038   2.044   1.804   2.755
 1826SOL     OW 6039   2.366   1.568   2.772
 1826SOL    HW1 6040   2.432   1.642   2.781
 1826SOL    HW2 6041   2.410   1.489   2.730
 1827SOL     OW 6042   2.864   0.796   3.100
 1827SOL    HW1 6043   2.905   0.764   3.186
 1827SOL    HW2 6044   2.768   0.769   3.097
 1828SOL     OW 6045   1.902   0.544   2.976
 1828SOL    HW1 6046   1.987   0.511   2.935
 1828SOL    HW2 6047   1.915   0.559   3.074
 1829SOL     OW 6048   2.051   0.520   3.584
 1829SOL    HW1 6049   2.110   0.480   3.514
 1829SOL    HW2 6050   1.993   0.591   3.543
 1830SOL     OW 6051   3.231   0.950   3.522
 1830SOL    HW1 6052   3.270   1.039   3.542
 1830SOL    HW2 6053   3.241   0.930   3.425
 1831SOL     OW 6054   2.677   0.572   2.187
 1831SOL    HW1 6055   2.684   0.483   2.141
 1831SOL    HW2 6056   2.583   0.606   2.179
 1832SOL     OW 6057   2.114   1.564   3.606
 1832SOL    HW1 6058   2.084   1.621   3.682
 1832SOL    HW2 6059   2.107   1.467   3.632
 1833SOL     OW 6060   2.533   0.464   3.131
 1833SOL    HW1 6061   2.499   0.375   3.101
 1833SOL    HW2 6062   2.559   0.518   3.051
 1834SOL     OW 6063   2.792   1.678   3.327
 1834SOL    HW1 6064   2.768   1.660   3.232
 1834SOL    HW2 6065   2.822   1.772   3.337
 1835SOL     OW 6066   2.335   0.500   2.053
 1835SOL    HW1 6067   2.396   0.580   2.057
 1835SOL    HW2 6068   2.240   0.531   2.060
 1836SOL     OW 6069   2.021   1.137   3.328
 1836SOL    HW1 6070   2.043   1.076   3.404
 1836SOL    HW2 6071   2.031   1.088   3.242
 1837SOL     OW 6072   3.164   0.855   2.171
 1837SOL    HW1 6073   3.078   0.824   2.213
 1837SOL    HW2 6074   3.160   0.841   2.072
 1838SOL     OW 6075   3.621   1.747   3.016
 1838SOL    HW1 6076   3.682   1.777   2.943
 1838SOL    HW2 6077   3.583   1.658   2.994
 1839SOL     OW 6078   3.114   1.731   2.990
 1839SOL    HW1 6079   3.198   1.736   2.936
 1839SOL    HW2 6080   3.091   1.635   3.008
 1840SOL     OW 6081   1.945   1.258   2.884
 1840SOL    HW1 6082   1.940   1.257   2.984
 1840SOL    HW2 6083   1.862   1.217   2.846
 1841SOL     OW 6084   2.550   1.662   3.578
 1841SOL    HW1 6085   2.494   1.743   3.587
 1841SOL    HW2 6086   2.602   1.666   3.492
 1842SOL     OW 6087   3.588   0.135   2.385
 1842SOL    HW1 6088   3.661   0.118   2.318
 1842SOL    HW2 6089   3.557   0.048   2.423
 1843SOL     OW 6090   3.250   1.573   2.339
 1843SOL    HW1 6091   3.317   1.585   2.265
 1843SOL    HW2 6092   3.210   1.662   2.362
 1844SOL     OW 6093   1.992   1.794   3.713
 1844SOL    HW1 6094   1.951   1.720   3.766
 1844SOL    HW2 6095   2.056   1.845   3.771
 1845SOL     OW 6096   3.142   0.927   2.534
 1845SOL    HW1 6097   3.202   0.846   2.536
 1845SOL    HW2 6098   3.182   0.996   2.474
 1846SOL     OW 6099   2.692   1.273   3.284
 1846SOL    HW1 6100   2.687   1.306   3.379
 1846SOL    HW2 6101   2.606   1.292   3.238
 1847SOL     OW 6102   2.534   1.616   2.016
 1847SOL    HW1 6103   2.543   1.626   1.917
 1847SOL    HW2 6104   2.494   1.527   2.037
 1848SOL     OW 6105   3.512   1.720   3.256
 1848SOL    HW1 6106   3.565   1.730   3.172
 1848SOL    HW2 6107   3.485   1.810   3.290
 1849SOL     OW 6108   3.703   0.175   2.825
 1849SOL    HW1 6109   3.742   0.090   2.789
 1849SOL    HW2 6110   3.605   0.177   2.806
 1850SOL     OW 6111   2.125   0.326   2.582
 1850SOL    HW1 6112   2.046   0.377   2.548
 1850SOL    HW2 6113   2.116   0.311   2.680
 1851SOL     OW 6114   3.056   1.612   1.893
 1851SOL    HW1 6115   3.062   1.519   1.930
 1851SOL    HW2 6116   2.997   1.612   1.813
 1852SOL     OW 6117   2.684   1.002   3.234
 1852SOL    HW1 6118   2.724   1.001   3.142
 1852SOL    HW2 6119   2.694   1.094   3.274
 1853SOL     OW 6120   2.778   0.910   2.153
 1853SOL    HW1 6121   2.841   0.948   2.085
 1853SOL    HW2 6122   2.818   0.827   2.192
 1854SOL     OW 6123   3.366   1.607   1.906
 1854SOL    HW1 6124   3.274   1.644   1.913
 1854SOL    HW2 6125   3.404   1.627   1.816
 1855SOL     OW 6126   2.234   1.288   3.352
 1855SOL    HW1 6127   2.221   1.381   3.318
 1855SOL    HW2 6128   2.150   1.236   3.339
 1856SOL     OW 6129   2.901   1.098   2.558
 1856SOL    HW1 6130   2.831   1.051   2.612
 1856SOL    HW2 6131   2.960   1.030   2.515
 1857SOL     OW 6132   2.876   0.236   2.833
 1857SOL    HW1 6133   2.868   0.200   2.740
 1857SOL    HW2 6134   2.874   0.160   2.898
 1858SOL     OW 6135   2.452   1.487   2.353
 1858SOL    HW1 6136   2.494   1.429   2.283
 1858SOL    HW2 6137   2.408   1.566   2.309
 1859SOL     OW 6138   3.571   0.385   3.243
 1859SOL    HW1 6139   3.644   0.454   3.247
 1859SOL    HW2 6140   3.599   0.310   3.184
 1860SOL     OW 6141   2.117   1.348   2.152
 1860SOL    HW1 6142   2.021   1.349   2.125
 1860SOL    HW2 6143   2.129   1.401   2.236
 1861SOL     OW 6144   1.967   1.013   3.588
 1861SOL    HW1 6145   1.890   0.980   3.642
 1861SOL    HW2 6146   2.052   0.983   3.630
 1862SOL     OW 6147   2.534   0.203   3.351
 1862SOL    HW1 6148   2.624   0.187   3.311
 1862SOL    HW2 6149   2.542   0.208   3.450
 1863SOL     OW 6150   3.045   1.335   1.981
 1863SOL    HW1 6151   2.946   1.324   1.983
 1863SOL    HW2 6152   3.079   1.350   2.074
 1864SOL     OW 6153   2.475   0.842   3.293
 1864SOL    HW1 6154   2.531   0.923   3.276
 1864SOL    HW2 6155   2.534   0.762   3.296
 1865SOL     OW 6156   3.355   1.767   2.821
 1865SOL    HW1 6157   3.388   1.831   2.752
 1865SOL    HW2 6158   3.421   1.761   2.896
 1866SOL     OW 6159   3.312   1.220   3.495
 1866SOL    HW1 6160   3.303   1.210   3.594
 1866SOL    HW2 6161   3.408   1.213   3.469
 1867SOL     OW 6162   2.252   1.741   3.422
 1867SOL    HW1 6163   2.161   1.782   3.420
 1867SOL    HW2 6164   2.245   1.647   3.454
 1868SOL     OW 6165   3.087   0.325   2.311
 1868SOL    HW1 6166   3.152   0.251   2.300
 1868SOL    HW2 6167   3.107   0.375   2.395
 1869SOL     OW 6168   2.456   0.745   2.514
 1869SOL    HW1 6169   2.506   0.830   2.495
 1869SOL    HW2 6170   2.368   0.747   2.466
 1870SOL     OW 6171   3.639   0.342   3.504
 1870SOL    HW1 6172   3.622   0.373   3.410
 1870SOL    HW2 6173   3.555   0.305   3.542
 1871SOL     OW 6174   3.592   0.934   3.379
 1871SOL    HW1 6175   3.630   1.025   3.394
 1871SOL    HW2 6176   3.584   0.917   3.280
 1872SOL     OW 6177   2.721   1.374   1.878
 1872SOL    HW1 6178   2.675   1.389   1.966
 1872SOL    HW2 6179   2.765   1.459   1.848
 1873SOL     OW 6180   2.523   1.790   2.815
 1873SOL    HW1 6181   2.477   1.878   2.802
 1873SOL    HW2 6182   2.622   1.802   2.808
 1874SOL     OW 6183   2.721   0.956   2.723
 1874SOL    HW1 6184   2.775   0.887   2.771
 1874SOL    HW2 6185   2.689   1.025   2.789
 1875SOL     OW 6186   2.945   0.984   1.949
 1875SOL    HW1 6187   2.922   1.037   1.867
 1875SOL    HW2 6188   3.026   0.928   1.930
 1876SOL     OW 6189   3.723   1.569   2.713
 1876SOL    HW1 6190   3.652   1.557   2.643
 1876SOL    HW2 6191   3.724   1.490   2.773
 1877SOL     OW 6192   2.083   1.314   3.706
 1877SOL    HW1 6193   2.018   1.241   3.685
 1877SOL    HW2 6194   2.087   1.328   3.804
 1878SOL     OW 6195   1.941   1.240   2.515
 1878SOL    HW1 6196   1.940   1.193   2.603
 1878SOL    HW2 6197   2.023   1.212   2.464
 1879SOL     OW 6198   2.534   1.391   3.486
 1879SOL    HW1 6199   2.456   1.341   3.524
 1879SOL    HW2 6200   2.531   1.486   3.517
 1880SOL     OW 6201   3.686   0.192   3.089
 1880SOL    HW1 6202   3.682   0.102   3.133
 1880SOL    HW2 6203   3.689   0.181   2.990
 1881SOL     OW 6204   2.290   0.424   2.382
 1881SOL    HW1 6205   2.320   0.352   2.320
 1881SOL    HW2 6206   2.251   0.384   2.465
 1882SOL     OW 6207   3.567   1.487   2.966
 1882SOL    HW1 6208   3.474   1.462   2.939
 1882SOL    HW2 6209   3.593   1.437   3.048
 1883SOL     OW 6210   2.179   0.547   3.142
 1883SOL    HW1 6211   2.217   0.488   3.214
 1883SOL    HW2 6212   2.219   0.521   3.054
 1884SOL     OW 6213   2.674   1.586   2.549
 1884SOL    HW1 6214   2.706   1.596   2.455
 1884SOL    HW2 6215   2.595   1.524   2.551
 1885SOL     OW 6216   3.286   0.214   2.974
 1885SOL    HW1 6217   3.338   0.149   3.029
 1885SOL    HW2 6218   3.237   0.277   3.035
 1886SOL     OW 6219   2.863   0.034   3.016
 1886SOL    HW1 6220   2.800  -0.038   2.985
 1886SOL    HW2 6221   2.956  -0.002   3.016
 1887SOL     OW 6222   2.632   1.330   2.163
 1887SOL    HW1 6223   2.586   1.243   2.180
 1887SOL    HW2 6224   2.723   1.327   2.204
 1888SOL     OW 6225   2.480   1.567   3.146
 1888SOL    HW1 6226   2.475   1.649   3.203
 1888SOL    HW2 6227   2.569   1.564   3.101
 1889SOL     OW 6228   3.214   0.052   2.030
 1889SOL    HW1 6229   3.249   0.011   1.946
 1889SOL    HW2 6230   3.124   0.014   2.050
 1890SOL     OW 6231   3.162   0.453   2.553
 1890SOL    HW1 6232   3.103   0.533   2.557
 1890SOL    HW2 6233   3.177   0.418   2.646
 1891SOL     OW 6234   3.455   0.221   2.744
 1891SOL    HW1 6235   3.371   0.220   2.798
 1891SOL    HW2 6236   3.457   0.304   2.688
 1892SOL     OW 6237   1.901   1.077   2.162
 1892SOL    HW1 6238   2.000   1.066   2.153
 1892SOL    HW2 6239   1.861   0.991   2.194
 1893SOL     OW 6240   2.737   1.646   2.199
 1893SOL    HW1 6241   2.660   1.611   2.145
 1893SOL    HW2 6242   2.705   1.717   2.261
 1894SOL     OW 6243   2.092   0.628   3.837
 1894SOL    HW1 6244   1.999   0.626   3.874
 1894SOL    HW2 6245   2.093   0.589   3.745
 1895SOL     OW 6246   2.087   0.275   4.720
 1895SOL    HW1 6247   2.122   0.258   4.812
 1895SOL    HW2 6248   1.999   0.230   4.708
 1896SOL     OW 6249   1.881   0.368   4.371
 1896SOL    HW1 6250   1.799   0.411   4.410
 1896SOL    HW2 6251   1.853   0.295   4.308
 1897SOL     OW 6252   2.431   1.275   4.889
 1897SOL    HW1 6253   2.338   1.268   4.852
 1897SOL    HW2 6254   2.442   1.364   4.933
 1898SOL     OW 6255   3.417   1.511   4.427
 1898SOL    HW1 6256   3.360   1.495   4.508
 1898SOL    HW2 6257   3.358   1.521   4.347
 1899SOL     OW 6258   2.997   0.703   4.441
 1899SOL    HW1 6259   3.054   0.781   4.416
 1899SOL    HW2 6260   2.937   0.729   4.517
 1900SOL     OW 6261   3.617   0.607   3.955
 1900SOL    HW1 6262   3.605   0.594   3.856
 1900SOL    HW2 6263   3.587   0.526   4.004
 1901SOL     OW 6264   2.630   1.144   4.747
 1901SOL    HW1 6265   2.552   1.161   4.807
 1901SOL    HW2 6266   2.664   1.231   4.711
 1902SOL     OW 6267   2.547   1.012   4.389
 1902SOL    HW1 6268   2.616   0.996   4.459
 1902SOL    HW2 6269   2.474   1.069   4.427
 1903SOL     OW 6270   2.197   1.435   4.785
 1903SOL    HW1 6271   2.119   1.404   4.732
 1903SOL    HW2 6272   2.255   1.493   4.728
 1904SOL     OW 6273   3.465   0.447   4.461
 1904SOL    HW1 6274   3.391   0.493   4.411
 1904SOL    HW2 6275   3.516   0.515   4.514
 1905SOL     OW 6276   2.093   1.713   4.207
 1905SOL    HW1 6277   2.127   1.790   4.261
 1905SOL    HW2 6278   2.137   1.713   4.117
 1906SOL     OW 6279   2.092   1.434   4.262
 1906SOL    HW1 6280   2.066   1.530   4.262
 1906SOL    HW2 6281   2.021   1.380   4.307
 1907SOL     OW 6282   2.102   1.091   4.610
 1907SOL    HW1 6283   2.116   1.007   4.662
 1907SOL    HW2 6284   2.047   1.155   4.665
 1908SOL     OW 6285   2.482   1.786   5.163
 1908SOL    HW1 6286   2.390   1.769   5.198
 1908SOL    HW2 6287   2.510   1.878   5.189
 1909SOL     OW 6288   2.468   0.964   3.847
 1909SOL    HW1 6289   2.475   1.048   3.793
 1909SOL    HW2 6290   2.514   0.977   3.935
 1910SOL     OW 6291   1.984   0.643   4.287
 1910SOL    HW1 6292   1.939   0.555   4.304
 1910SOL    HW2 6293   1.983   0.697   4.371
 1911SOL     OW 6294   3.704   1.767   4.083
 1911SOL    HW1 6295   3.758   1.738   4.163
 1911SOL    HW2 6296   3.734   1.857   4.054
 1912SOL     OW 6297   1.889   1.596   3.841
 1912SOL    HW1 6298   1.870   1.500   3.862
 1912SOL    HW2 6299   1.856   1.654   3.916
 1913SOL     OW 6300   3.551   0.922   4.336
 1913SOL    HW1 6301   3.646   0.893   4.344
 1913SOL    HW2 6302   3.543   0.987   4.261
 1914SOL     OW 6303   3.503   1.108   4.156
 1914SOL    HW1 6304   3.589   1.110   4.104
 1914SOL    HW2 6305   3.517   1.155   4.244
 1915SOL     OW 6306   2.475   1.365   4.450
 1915SOL    HW1 6307   2.426   1.278   4.459
 1915SOL    HW2 6308   2.452   1.408   4.363
 1916SOL     OW 6309   2.671   0.004   4.226
 1916SOL    HW1 6310   2.711   0.095   4.217
 1916SOL    HW2 6311   2.571   0.012   4.232
 1917SOL     OW 6312   2.059   0.976   4.988
 1917SOL    HW1 6313   2.148   0.931   4.974
 1917SOL    HW2 6314   1.986   0.911   4.969
 1918SOL     OW 6315   3.387   0.999   3.914
 1918SOL    HW1 6316   3.324   0.923   3.927
 1918SOL    HW2 6317   3.435   1.017   4.000
 1919SOL     OW 6318   3.328   1.417   4.677
 1919SOL    HW1 6319   3.269   1.423   4.757
 1919SOL    HW2 6320   3.313   1.329   4.631
 1920SOL     OW 6321   3.529   1.714   4.296
 1920SOL    HW1 6322   3.488   1.691   4.208
 1920SOL    HW2 6323   3.511   1.640   4.361
 1921SOL     OW 6324   2.460   0.729   3.994
 1921SOL    HW1 6325   2.484   0.798   3.926
 1921SOL    HW2 6326   2.382   0.762   4.048
 1922SOL     OW 6327   3.143   0.345   4.668
 1922SOL    HW1 6328   3.057   0.295   4.655
 1922SOL    HW2 6329   3.205   0.291   4.724
 1923SOL     OW 6330   3.438   1.662   4.031
 1923SOL    HW1 6331   3.527   1.708   4.034
 1923SOL    HW2 6332   3.417   1.638   3.936
 1924SOL     OW 6333   2.853   0.410   4.966
 1924SOL    HW1 6334   2.776   0.444   5.020
 1924SOL    HW2 6335   2.819   0.359   4.887
 1925SOL     OW 6336   1.938   0.811   4.513
 1925SOL    HW1 6337   2.037   0.799   4.522
 1925SOL    HW2 6338   1.914   0.906   4.534
 1926SOL     OW 6339   3.224   1.144   4.269
 1926SOL    HW1 6340   3.307   1.115   4.221
 1926SOL    HW2 6341   3.175   1.211   4.213
 1927SOL     OW 6342   2.412   0.196   4.609
 1927SOL    HW1 6343   2.407   0.191   4.709
 1927SOL    HW2 6344   2.414   0.292   4.580
 1928SOL     OW 6345   2.870   1.456   4.201
 1928SOL    HW1 6346   2.824   1.528   4.149
 1928SOL    HW2 6347   2.866   1.476   4.299
 1929SOL     OW 6348   2.213   1.801   4.577
 1929SOL    HW1 6349   2.263   1.715   4.583
 1929SOL    HW2 6350   2.278   1.878   4.574
 1930SOL     OW 6351   3.657   1.066   4.597
 1930SOL    HW1 6352   3.595   1.051   4.521
 1930SOL    HW2 6353   3.605   1.077   4.682
 1931SOL     OW 6354   2.183   0.943   3.966
 1931SOL    HW1 6355   2.265   0.982   3.924
 1931SOL    HW2 6356   2.156   0.861   3.917
 1932SOL     OW 6357   3.320   0.735   4.452
 1932SOL    HW1 6358   3.315   0.670   4.527
 1932SOL    HW2 6359   3.400   0.794   4.465
 1933SOL     OW 6360   2.973   1.776   3.961
 1933SOL    HW1 6361   2.913   1.714   4.011
 1933SOL    HW2 6362   3.004   1.732   3.876
 1934SOL     OW 6363   3.494   1.377   3.805
 1934SOL    HW1 6364   3.462   1.471   3.795
 1934SOL    HW2 6365   3.418   1.314   3.793
 1935SOL     OW 6366   2.326   1.743   4.047
 1935SOL    HW1 6367   2.359   1.782   4.133
 1935SOL    HW2 6368   2.402   1.736   3.982
 1936SOL     OW 6369   3.262   0.107   4.150
 1936SOL    HW1 6370   3.238   0.070   4.060
 1936SOL    HW2 6371   3.361   0.123   4.154
 1937SOL     OW 6372   2.111   1.785   4.965
 1937SOL    HW1 6373   2.168   1.720   5.015
 1937SOL    HW2 6374   2.095   1.752   4.872
 1938SOL     OW 6375   2.802   1.698   4.628
 1938SOL    HW1 6376   2.882   1.641   4.649
 1938SOL    HW2 6377   2.753   1.658   4.551
 1939SOL     OW 6378   2.244   0.700   4.204
 1939SOL    HW1 6379   2.289   0.610   4.201
 1939SOL    HW2 6380   2.150   0.689   4.237
 1940SOL     OW 6381   2.476   0.122   3.841
 1940SOL    HW1 6382   2.574   0.100   3.848
 1940SOL    HW2 6383   2.445   0.105   3.748
 1941SOL     OW 6384   2.665   1.402   4.648
 1941SOL    HW1 6385   2.755   1.416   4.606
 1941SOL    HW2 6386   2.594   1.404   4.577
 1942SOL     OW 6387   2.784   0.503   4.623
 1942SOL    HW1 6388   2.759   0.494   4.527
 1942SOL    HW2 6389   2.832   0.421   4.654
 1943SOL     OW 6390   2.401   0.064   4.236
 1943SOL    HW1 6391   2.320   0.065   4.294
 1943SOL    HW2 6392   2.404   0.147   4.181
 1944SOL     OW 6393   3.296   1.188   3.765
 1944SOL    HW1 6394   3.328   1.112   3.822
 1944SOL    HW2 6395   3.204   1.215   3.795
 1945SOL     OW 6396   2.159   0.035   3.895
 1945SOL    HW1 6397   2.208   0.119   3.874
 1945SOL    HW2 6398   2.221  -0.030   3.940
 1946SOL     OW 6399   2.797   0.236   4.204
 1946SOL    HW1 6400   2.749   0.277   4.126
 1946SOL    HW2 6401   2.896   0.234   4.185
 1947SOL     OW 6402   3.089   1.570   4.517
 1947SOL    HW1 6403   3.110   1.644   4.452
 1947SOL    HW2 6404   3.157   1.570   4.590
 1948SOL     OW 6405   2.321   1.152   4.465
 1948SOL    HW1 6406   2.250   1.125   4.530
 1948SOL    HW2 6407   2.295   1.124   4.372
 1949SOL     OW 6408   3.133   1.797   4.315
 1949SOL    HW1 6409   3.177   1.861   4.251
 1949SOL    HW2 6410   3.083   1.849   4.385
 1950SOL     OW 6411   2.423   0.222   4.871
 1950SOL    HW1 6412   2.461   0.138   4.908
 1950SOL    HW2 6413   2.335   0.241   4.915
 1951SOL     OW 6414   2.728   0.454   4.366
 1951SOL    HW1 6415   2.696   0.526   4.304
 1951SOL    HW2 6416   2.752   0.373   4.313
 1952SOL     OW 6417   2.879   0.039   4.477
 1952SOL    HW1 6418   2.807   0.044   4.408
 1952SOL    HW2 6419   2.855  -0.030   4.546
 1953SOL     OW 6420   3.291   1.173   4.591
 1953SOL    HW1 6421   3.236   1.089   4.584
 1953SOL    HW2 6422   3.317   1.202   4.499
 1954SOL     OW 6423   3.328   0.590   4.716
 1954SOL    HW1 6424   3.298   0.495   4.723
 1954SOL    HW2 6425   3.401   0.606   4.782
 1955SOL     OW 6426   3.719   0.833   4.101
 1955SOL    HW1 6427   3.761   0.769   4.165
 1955SOL    HW2 6428   3.681   0.782   4.023
 1956SOL     OW 6429   2.350   1.385   3.898
 1956SOL    HW1 6430   2.263   1.370   3.945
 1956SOL    HW2 6431   2.333   1.411   3.803
 1957SOL     OW 6432   3.526   1.280   4.381
 1957SOL    HW1 6433   3.625   1.288   4.395
 1957SOL    HW2 6434   3.481   1.364   4.412
 1958SOL     OW 6435   2.389   0.256   4.052
 1958SOL    HW1 6436   2.416   0.197   3.977
 1958SOL    HW2 6437   2.389   0.351   4.021
 1959SOL     OW 6438   2.973   1.195   4.824
 1959SOL    HW1 6439   2.933   1.239   4.905
 1959SOL    HW2 6440   2.932   1.232   4.741
 1960SOL     OW 6441   3.500   1.099   4.803
 1960SOL    HW1 6442   3.505   1.180   4.862
 1960SOL    HW2 6443   3.414   1.101   4.752
 1961SOL     OW 6444   2.567   1.050   4.092
 1961SOL    HW1 6445   2.553   1.057   4.191
 1961SOL    HW2 6446   2.651   0.999   4.074
 1962SOL     OW 6447   2.272   0.813   4.975
 1962SOL    HW1 6448   2.358   0.825   5.025
 1962SOL    HW2 6449   2.230   0.726   5.002
 1963SOL     OW 6450   3.136   0.386   4.986
 1963SOL    HW1 6451   3.157   0.460   5.050
 1963SOL    HW2 6452   3.047   0.403   4.943
 1964SOL     OW 6453   2.229   1.100   4.225
 1964SOL    HW1 6454   2.222   1.183   4.169
 1964SOL    HW2 6455   2.233   1.020   4.165
 1965SOL     OW 6456   2.428   0.537   4.589
 1965SOL    HW1 6457   2.440   0.603   4.515
 1965SOL    HW2 6458   2.474   0.571   4.672
 1966SOL     OW 6459   3.114   1.348   4.112
 1966SOL    HW1 6460   3.164   1.425   4.152
 1966SOL    HW2 6461   3.019   1.350   4.144
 1967SOL     OW 6462   3.134   1.445   4.866
 1967SOL    HW1 6463   3.181   1.458   4.953
 1967SOL    HW2 6464   3.068   1.371   4.875
 1968SOL     OW 6465   3.444   0.639   4.196
 1968SOL    HW1 6466   3.413   0.700   4.269
 1968SOL    HW2 6467   3.494   0.691   4.127
 1969SOL     OW 6468   2.216   1.510   5.053
 1969SOL    HW1 6469   2.195   1.466   4.966
 1969SOL    HW2 6470   2.313   1.536   5.056
 1970SOL     OW 6471   2.435   0.870   4.753
 1970SOL    HW1 6472   2.479   0.959   4.744
 1970SOL    HW2 6473   2.372   0.870   4.830
 1971SOL     OW 6474   3.222   0.862   4.769
 1971SOL    HW1 6475   3.147   0.862   4.703
 1971SOL    HW2 6476   3.259   0.770   4.778
 1972SOL     OW 6477   2.169   0.213   4.955
 1972SOL    HW1 6478   2.146   0.250   5.045
 1972SOL    HW2 6479   2.139   0.118   4.949
 1973SOL     OW 6480   1.899   1.310   5.006
 1973SOL    HW1 6481   1.952   1.261   5.074
 1973SOL    HW2 6482   1.921   1.408   5.011
 1974SOL     OW 6483   2.594   0.634   4.788
 1974SOL    HW1 6484   2.653   0.608   4.712
 1974SOL    HW2 6485   2.566   0.730   4.777
 1975SOL     OW 6486   2.169   0.063   4.342
 1975SOL    HW1 6487   2.158   0.157   4.375
 1975SOL    HW2 6488   2.164   0.000   4.419
 1976SOL     OW 6489   3.484   0.367   4.098
 1976SOL    HW1 6490   3.486   0.291   4.162
 1976SOL    HW2 6491   3.436   0.444   4.138
 1977SOL     OW 6492   2.885   0.766   4.690
 1977SOL    HW1 6493   2.900   0.787   4.786
 1977SOL    HW2 6494   2.855   0.671   4.681
 1978SOL     OW 6495   3.402   0.274   3.849
 1978SOL    HW1 6496   3.341   0.199   3.872
 1978SOL    HW2 6497   3.424   0.326   3.932
 1979SOL     OW 6498   3.165   0.838   3.766
 1979SOL    HW1 6499   3.199   0.745   3.781
 1979SOL    HW2 6500   3.183   0.865   3.671
 1980SOL     OW 6501   2.930   1.333   4.573
 1980SOL    HW1 6502   2.937   1.249   4.518
 1980SOL    HW2 6503   2.992   1.402   4.537
 1981SOL     OW 6504   2.181   0.810   4.673
 1981SOL    HW1 6505   2.274   0.846   4.678
 1981SOL    HW2 6506   2.175   0.725   4.725
 1982SOL     OW 6507   2.201   0.509   4.730
 1982SOL    HW1 6508   2.149   0.426   4.713
 1982SOL    HW2 6509   2.278   0.514   4.666
 1983SOL     OW 6510   3.022   0.207   5.201
 1983SOL    HW1 6511   3.022   0.271   5.278
 1983SOL    HW2 6512   3.050   0.255   5.118
 1984SOL     OW 6513   1.870   1.326   3.924
 1984SOL    HW1 6514   1.777   1.347   3.893
 1984SOL    HW2 6515   1.880   1.227   3.937
 1985SOL     OW 6516   1.950   1.801   4.651
 1985SOL    HW1 6517   1.908   1.715   4.624
 1985SOL    HW2 6518   2.044   1.804   4.617
 1986SOL     OW 6519   2.366   1.568   4.634
 1986SOL    HW1 6520   2.432   1.642   4.643
 1986SOL    HW2 6521   2.410   1.489   4.592
 1987SOL     OW 6522   2.864   0.796   4.962
 1987SOL    HW1 6523   2.905   0.764   5.048
 1987SOL    HW2 6524   2.768   0.769   4.959
 1988SOL     OW 6525   1.902   0.544   4.838
 1988SOL    HW1 6526   1.987   0.511   4.797
 1988SOL    HW2 6527   1.915   0.559   4.936
 1989SOL     OW 6528   3.519   0.604   4.930
 1989SOL    HW1 6529   3.481   0.535   4.992
 1989SOL    HW2 6530   3.601   0.568   4.886
 1990SOL     OW 6531   2.533   0.464   4.993
 1990SOL    HW1 6532   2.499   0.375   4.963
 1990SOL    HW2 6533   2.559   0.518   4.913
 1991SOL     OW 6534   2.792   1.678   5.189
 1991SOL    HW1 6535   2.768   1.660   5.094
 1991SOL    HW2 6536   2.822   1.772   5.199
 1992SOL     OW 6537   2.335   0.500   3.915
 1992SOL    HW1 6538   2.396   0.580   3.919
 1992SOL    HW2 6539   2.240   0.531   3.922
 1993SOL     OW 6540   3.209   1.059   4.958
 1993SOL    HW1 6541   3.233   0.996   4.884
 1993SOL    HW2 6542   3.119   1.099   4.940
 1994SOL     OW 6543   3.164   0.855   4.033
 1994SOL    HW1 6544   3.078   0.824   4.075
 1994SOL    HW2 6545   3.160   0.841   3.934
 1995SOL     OW 6546   3.621   1.747   4.878
 1995SOL    HW1 6547   3.682   1.777   4.805
 1995SOL    HW2 6548   3.583   1.658   4.856
 1996SOL     OW 6549   3.114   1.731   4.852
 1996SOL    HW1 6550   3.198   1.736   4.798
 1996SOL    HW2 6551   3.091   1.635   4.870
 1997SOL     OW 6552   1.945   1.258   4.746
 1997SOL    HW1 6553   1.940   1.257   4.846
 1997SOL    HW2 6554   1.862   1.217   4.708
 1998SOL     OW 6555   3.588   0.135   4.247
 1998SOL    HW1 6556   3.661   0.118   4.180
 1998SOL    HW2 6557   3.557   0.048   4.285
 1999SOL     OW 6558   3.250   1.573   4.201
 1999SOL    HW1 6559   3.317   1.585   4.127
 1999SOL    HW2 6560   3.210   1.662   4.224
 2000SOL     OW 6561   3.142   0.927   4.396
 2000SOL    HW1 6562   3.202   0.846   4.398
 2000SOL    HW2 6563   3.182   0.996   4.336
 2001SOL     OW 6564   2.534   1.616   3.878
 2001SOL    HW1 6565   2.543   1.626   3.779
 2001SOL    HW2 6566   2.494   1.527   3.899
 2002SOL     OW 6567   3.512   1.720   5.118
 2002SOL    HW1 6568   3.565   1.730   5.034
 2002SOL    HW2 6569   3.485   1.810   5.152
 2003SOL     OW 6570   3.703   0.175   4.687
 2003SOL    HW1 6571   3.742   0.090   4.651
 2003SOL    HW2 6572   3.605   0.177   4.668
 2004SOL     OW 6573   2.125   0.326   4.444
 2004SOL    HW1 6574   2.046   0.377   4.410
 2004SOL    HW2 6575   2.116   0.311   4.542
 2005SOL     OW 6576   3.056   1.612   3.755
 2005SOL    HW1 6577   3.062   1.519   3.792
 2005SOL    HW2 6578   2.997   1.612   3.675
 2006SOL     OW 6579   2.684   1.002   5.096
 2006SOL    HW1 6580   2.724   1.001   5.004
 2006SOL    HW2 6581   2.694   1.094   5.136
 2007SOL     OW 6582   3.366   1.607   3.768
 2007SOL    HW1 6583   3.274   1.644   3.775
 2007SOL    HW2 6584   3.404   1.627   3.678
 2008SOL     OW 6585   2.901   1.098   4.420
 2008SOL    HW1 6586   2.831   1.051   4.474
 2008SOL    HW2 6587   2.960   1.030   4.377
 2009SOL     OW 6588   2.876   0.236   4.695
 2009SOL    HW1 6589   2.868   0.200   4.602
 2009SOL    HW2 6590   2.874   0.160   4.760
 2010SOL     OW 6591   2.452   1.487   4.215
 2010SOL    HW1 6592   2.494   1.429   4.145
 2010SOL    HW2 6593   2.408   1.566   4.171
 2011SOL     OW 6594   3.571   0.385   5.105
 2011SOL    HW1 6595   3.644   0.454   5.109
 2011SOL    HW2 6596   3.599   0.310   5.046
 2012SOL     OW 6597   2.117   1.348   4.014
 2012SOL    HW1 6598   2.021   1.349   3.987
 2012SOL    HW2 6599   2.129   1.401   4.098
 2013SOL     OW 6600   1.937   0.345   3.757
 2013SOL    HW1 6601   1.845   0.317   3.728
 2013SOL    HW2 6602   1.968   0.422   3.701
 2014SOL     OW 6603   1.934   0.166   4.042
 2014SOL    HW1 6604   1.917   0.249   3.988
 2014SOL    HW2 6605   2.024   0.129   4.020
 2015SOL     OW 6606   3.045   1.335   3.843
 2015SOL    HW1 6607   2.946   1.324   3.845
 2015SOL    HW2 6608   3.079   1.350   3.936
 2016SOL     OW 6609   3.355   1.767   4.683
 2016SOL    HW1 6610   3.388   1.831   4.614
 2016SOL    HW2 6611   3.421   1.761   4.758
 2017SOL     OW 6612   3.312   1.220   5.357
 2017SOL    HW1 6613   3.303   1.210   5.456
 2017SOL    HW2 6614   3.408   1.213   5.331
 2018SOL     OW 6615   3.536   0.883   4.978
 2018SOL    HW1 6616   3.509   0.794   4.941
 2018SOL    HW2 6617   3.537   0.951   4.905
 2019SOL     OW 6618   2.456   0.745   4.376
 2019SOL    HW1 6619   2.506   0.830   4.357
 2019SOL    HW2 6620   2.368   0.747   4.328
 2020SOL     OW 6621   3.592   0.934   5.241
 2020SOL    HW1 6622   3.630   1.025   5.256
 2020SOL    HW2 6623   3.584   0.917   5.142
 2021SOL     OW 6624   2.721   1.374   3.740
 2021SOL    HW1 6625   2.675   1.389   3.828
 2021SOL    HW2 6626   2.765   1.459   3.710
 2022SOL     OW 6627   2.523   1.790   4.677
 2022SOL    HW1 6628   2.477   1.878   4.664
 2022SOL    HW2 6629   2.622   1.802   4.670
 2023SOL     OW 6630   2.721   0.956   4.585
 2023SOL    HW1 6631   2.775   0.887   4.633
 2023SOL    HW2 6632   2.689   1.025   4.651
 2024SOL     OW 6633   2.945   0.984   3.811
 2024SOL    HW1 6634   2.922   1.037   3.729
 2024SOL    HW2 6635   3.026   0.928   3.792
 2025SOL     OW 6636   3.723   1.569   4.575
 2025SOL    HW1 6637   3.652   1.557   4.505
 2025SOL    HW2 6638   3.724   1.490   4.635
 2026SOL     OW 6639   1.941   1.240   4.377
 2026SOL    HW1 6640   1.940   1.193   4.465
 2026SOL    HW2 6641   2.023   1.212   4.326
 2027SOL     OW 6642   3.686   0.192   4.951
 2027SOL    HW1 6643   3.682   0.102   4.995
 2027SOL    HW2 6644   3.689   0.181   4.852
 2028SOL     OW 6645   2.290   0.424   4.244
 2028SOL    HW1 6646   2.320   0.352   4.182
 2028SOL    HW2 6647   2.251   0.384   4.327
 2029SOL     OW 6648   3.567   1.487   4.828
 2029SOL    HW1 6649   3.474   1.462   4.801
 2029SOL    HW2 6650   3.593   1.437   4.910
 2030SOL     OW 6651   2.674   1.586   4.411
 2030SOL    HW1 6652   2.706   1.596   4.317
 2030SOL    HW2 6653   2.595   1.524   4.413
 2031SOL     OW 6654   3.286   0.214   4.836
 2031SOL    HW1 6655   3.338   0.149   4.891
 2031SOL    HW2 6656   3.237   0.277   4.897
 2032SOL     OW 6657   2.863   0.034   4.878
 2032SOL    HW1 6658   2.800  -0.038   4.847
 2032SOL    HW2 6659   2.956  -0.002   4.878
 2033SOL     OW 6660   2.632   1.330   4.025
 2033SOL    HW1 6661   2.586   1.243   4.042
 2033SOL    HW2 6662   2.723   1.327   4.066
 2034SOL     OW 6663   3.214   0.052   3.892
 2034SOL    HW1 6664   3.249   0.011   3.808
 2034SOL    HW2 6665   3.124   0.014   3.912
 2035SOL     OW 6666   3.455   0.221   4.606
 2035SOL    HW1 6667   3.371   0.220   4.660
 2035SOL    HW2 6668   3.457   0.304   4.550
 2036SOL     OW 6669   1.901   1.077   4.024
 2036SOL    HW1 6670   2.000   1.066   4.015
 2036SOL    HW2 6671   1.861   0.991   4.056
 2037SOL     OW 6672   2.737   1.646   4.061
 2037SOL    HW1 6673   2.660   1.611   4.007
 2037SOL    HW2 6674   2.705   1.717   4.123
 2038SOL     OW 6675   2.092   2.490   0.113
 2038SOL    HW1 6676   1.999   2.488   0.150
 2038SOL    HW2 6677   2.093   2.451   0.021
 2039SOL     OW 6678   2.087   2.137   0.996
 2039SOL    HW1 6679   2.122   2.120   1.088
 2039SOL    HW2 6680   1.999   2.092   0.984
 2040SOL     OW 6681   1.881   2.230   0.647
 2040SOL    HW1 6682   1.799   2.273   0.686
 2040SOL    HW2 6683   1.853   2.157   0.584
 2041SOL     OW 6684   2.431   3.137   1.165
 2041SOL    HW1 6685   2.338   3.130   1.128
 2041SOL    HW2 6686   2.442   3.226   1.209
 2042SOL     OW 6687   3.417   3.373   0.703
 2042SOL    HW1 6688   3.360   3.357   0.784
 2042SOL    HW2 6689   3.358   3.383   0.623
 2043SOL     OW 6690   2.997   2.565   0.717
 2043SOL    HW1 6691   3.054   2.643   0.692
 2043SOL    HW2 6692   2.937   2.591   0.793
 2044SOL     OW 6693   3.617   2.469   0.231
 2044SOL    HW1 6694   3.605   2.456   0.132
 2044SOL    HW2 6695   3.587   2.388   0.280
 2045SOL     OW 6696   2.630   3.006   1.023
 2045SOL    HW1 6697   2.552   3.023   1.083
 2045SOL    HW2 6698   2.664   3.093   0.987
 2046SOL     OW 6699   2.712   2.660   1.823
 2046SOL    HW1 6700   2.708   2.736   1.888
 2046SOL    HW2 6701   2.734   2.696   1.732
 2047SOL     OW 6702   2.547   2.874   0.665
 2047SOL    HW1 6703   2.616   2.858   0.735
 2047SOL    HW2 6704   2.474   2.931   0.703
 2048SOL     OW 6705   2.548   3.023   1.803
 2048SOL    HW1 6706   2.608   3.102   1.817
 2048SOL    HW2 6707   2.462   3.054   1.762
 2049SOL     OW 6708   2.197   3.297   1.061
 2049SOL    HW1 6709   2.119   3.266   1.008
 2049SOL    HW2 6710   2.255   3.355   1.004
 2050SOL     OW 6711   2.300   2.254   1.499
 2050SOL    HW1 6712   2.382   2.198   1.508
 2050SOL    HW2 6713   2.219   2.196   1.503
 2051SOL     OW 6714   3.465   2.309   0.737
 2051SOL    HW1 6715   3.391   2.355   0.687
 2051SOL    HW2 6716   3.516   2.377   0.790
 2052SOL     OW 6717   2.093   3.575   0.483
 2052SOL    HW1 6718   2.127   3.652   0.537
 2052SOL    HW2 6719   2.137   3.575   0.393
 2053SOL     OW 6720   2.989   3.203   1.690
 2053SOL    HW1 6721   3.036   3.203   1.778
 2053SOL    HW2 6722   2.941   3.116   1.679
 2054SOL     OW 6723   2.092   3.296   0.538
 2054SOL    HW1 6724   2.066   3.392   0.538
 2054SOL    HW2 6725   2.021   3.242   0.583
 2055SOL     OW 6726   2.102   2.953   0.886
 2055SOL    HW1 6727   2.116   2.869   0.938
 2055SOL    HW2 6728   2.047   3.017   0.941
 2056SOL     OW 6729   2.482   3.648   1.439
 2056SOL    HW1 6730   2.390   3.631   1.474
 2056SOL    HW2 6731   2.510   3.740   1.465
 2057SOL     OW 6732   2.468   2.826   0.123
 2057SOL    HW1 6733   2.475   2.910   0.069
 2057SOL    HW2 6734   2.514   2.839   0.211
 2058SOL     OW 6735   3.456   1.976   1.480
 2058SOL    HW1 6736   3.438   2.043   1.408
 2058SOL    HW2 6737   3.453   2.022   1.569
 2059SOL     OW 6738   1.984   2.505   0.563
 2059SOL    HW1 6739   1.939   2.417   0.580
 2059SOL    HW2 6740   1.983   2.559   0.647
 2060SOL     OW 6741   3.704   3.629   0.359
 2060SOL    HW1 6742   3.758   3.600   0.439
 2060SOL    HW2 6743   3.734   3.719   0.330
 2061SOL     OW 6744   1.889   3.458   0.117
 2061SOL    HW1 6745   1.870   3.362   0.138
 2061SOL    HW2 6746   1.856   3.516   0.192
 2062SOL     OW 6747   3.551   2.784   0.612
 2062SOL    HW1 6748   3.646   2.755   0.620
 2062SOL    HW2 6749   3.543   2.849   0.537
 2063SOL     OW 6750   3.503   2.970   0.432
 2063SOL    HW1 6751   3.589   2.972   0.380
 2063SOL    HW2 6752   3.517   3.017   0.520
 2064SOL     OW 6753   1.975   2.599   1.597
 2064SOL    HW1 6754   2.063   2.586   1.642
 2064SOL    HW2 6755   1.962   2.696   1.575
 2065SOL     OW 6756   2.475   3.227   0.726
 2065SOL    HW1 6757   2.426   3.140   0.735
 2065SOL    HW2 6758   2.452   3.270   0.639
 2066SOL     OW 6759   3.155   3.090   1.423
 2066SOL    HW1 6760   3.192   3.017   1.365
 2066SOL    HW2 6761   3.207   3.095   1.508
 2067SOL     OW 6762   2.671   1.866   0.502
 2067SOL    HW1 6763   2.711   1.957   0.493
 2067SOL    HW2 6764   2.571   1.874   0.508
 2068SOL     OW 6765   2.059   2.838   1.264
 2068SOL    HW1 6766   2.148   2.793   1.250
 2068SOL    HW2 6767   1.986   2.773   1.245
 2069SOL     OW 6768   3.387   2.861   0.190
 2069SOL    HW1 6769   3.324   2.785   0.203
 2069SOL    HW2 6770   3.435   2.879   0.276
 2070SOL     OW 6771   2.179   2.113   1.801
 2070SOL    HW1 6772   2.250   2.184   1.807
 2070SOL    HW2 6773   2.091   2.152   1.829
 2071SOL     OW 6774   3.328   3.279   0.953
 2071SOL    HW1 6775   3.269   3.285   1.033
 2071SOL    HW2 6776   3.313   3.191   0.907
 2072SOL     OW 6777   3.529   3.576   0.572
 2072SOL    HW1 6778   3.488   3.553   0.484
 2072SOL    HW2 6779   3.511   3.502   0.637
 2073SOL     OW 6780   2.460   2.591   0.270
 2073SOL    HW1 6781   2.484   2.660   0.202
 2073SOL    HW2 6782   2.382   2.624   0.324
 2074SOL     OW 6783   3.143   2.207   0.944
 2074SOL    HW1 6784   3.057   2.157   0.931
 2074SOL    HW2 6785   3.205   2.153   1.000
 2075SOL     OW 6786   3.438   3.524   0.307
 2075SOL    HW1 6787   3.527   3.570   0.310
 2075SOL    HW2 6788   3.417   3.500   0.212
 2076SOL     OW 6789   2.669   2.467   1.465
 2076SOL    HW1 6790   2.622   2.464   1.554
 2076SOL    HW2 6791   2.618   2.412   1.399
 2077SOL     OW 6792   3.256   2.331   1.674
 2077SOL    HW1 6793   3.236   2.374   1.762
 2077SOL    HW2 6794   3.334   2.269   1.683
 2078SOL     OW 6795   2.835   2.752   1.572
 2078SOL    HW1 6796   2.881   2.668   1.543
 2078SOL    HW2 6797   2.779   2.786   1.497
 2079SOL     OW 6798   2.853   2.272   1.242
 2079SOL    HW1 6799   2.776   2.306   1.296
 2079SOL    HW2 6800   2.819   2.221   1.163
 2080SOL     OW 6801   2.903   2.563   0.429
 2080SOL    HW1 6802   2.929   2.559   0.525
 2080SOL    HW2 6803   2.818   2.512   0.415
 2081SOL     OW 6804   1.938   2.673   0.789
 2081SOL    HW1 6805   2.037   2.661   0.798
 2081SOL    HW2 6806   1.914   2.768   0.810
 2082SOL     OW 6807   1.992   3.683   1.571
 2082SOL    HW1 6808   1.982   3.668   1.670
 2082SOL    HW2 6809   1.906   3.719   1.535
 2083SOL     OW 6810   2.727   2.210   0.195
 2083SOL    HW1 6811   2.786   2.273   0.146
 2083SOL    HW2 6812   2.746   2.116   0.166
 2084SOL     OW 6813   3.581   2.447   1.831
 2084SOL    HW1 6814   3.555   2.536   1.795
 2084SOL    HW2 6815   3.579   2.379   1.758
 2085SOL     OW 6816   3.224   3.006   0.545
 2085SOL    HW1 6817   3.307   2.977   0.497
 2085SOL    HW2 6818   3.175   3.073   0.489
 2086SOL     OW 6819   2.412   2.058   0.885
 2086SOL    HW1 6820   2.407   2.053   0.985
 2086SOL    HW2 6821   2.414   2.154   0.856
 2087SOL     OW 6822   2.870   3.318   0.477
 2087SOL    HW1 6823   2.824   3.390   0.425
 2087SOL    HW2 6824   2.866   3.338   0.575
 2088SOL     OW 6825   2.213   3.663   0.853
 2088SOL    HW1 6826   2.263   3.577   0.859
 2088SOL    HW2 6827   2.278   3.740   0.850
 2089SOL     OW 6828   3.657   2.928   0.873
 2089SOL    HW1 6829   3.595   2.913   0.797
 2089SOL    HW2 6830   3.605   2.939   0.958
 2090SOL     OW 6831   3.089   3.412   1.506
 2090SOL    HW1 6832   3.095   3.335   1.570
 2090SOL    HW2 6833   3.037   3.386   1.426
 2091SOL     OW 6834   2.183   2.805   0.242
 2091SOL    HW1 6835   2.265   2.844   0.200
 2091SOL    HW2 6836   2.156   2.723   0.193
 2092SOL     OW 6837   3.320   2.597   0.728
 2092SOL    HW1 6838   3.315   2.532   0.803
 2092SOL    HW2 6839   3.400   2.656   0.741
 2093SOL     OW 6840   2.323   3.128   1.727
 2093SOL    HW1 6841   2.273   3.129   1.641
 2093SOL    HW2 6842   2.260   3.110   1.803
 2094SOL     OW 6843   2.973   3.638   0.237
 2094SOL    HW1 6844   2.913   3.576   0.287
 2094SOL    HW2 6845   3.004   3.594   0.152
 2095SOL     OW 6846   2.064   2.147   1.498
 2095SOL    HW1 6847   1.984   2.207   1.485
 2095SOL    HW2 6848   2.054   2.098   1.584
 2096SOL     OW 6849   3.494   3.239   0.081
 2096SOL    HW1 6850   3.462   3.333   0.071
 2096SOL    HW2 6851   3.418   3.176   0.069
 2097SOL     OW 6852   2.326   3.605   0.323
 2097SOL    HW1 6853   2.359   3.644   0.409
 2097SOL    HW2 6854   2.402   3.598   0.258
 2098SOL     OW 6855   3.262   1.969   0.426
 2098SOL    HW1 6856   3.238   1.932   0.336
 2098SOL    HW2 6857   3.361   1.985   0.430
 2099SOL     OW 6858   2.111   3.647   1.241
 2099SOL    HW1 6859   2.168   3.582   1.291
 2099SOL    HW2 6860   2.095   3.614   1.148
 2100SOL     OW 6861   2.244   2.562   0.480
 2100SOL    HW1 6862   2.289   2.472   0.477
 2100SOL    HW2 6863   2.150   2.551   0.513
 2101SOL     OW 6864   3.409   2.084   1.729
 2101SOL    HW1 6865   3.404   2.121   1.821
 2101SOL    HW2 6866   3.337   2.015   1.717
 2102SOL     OW 6867   2.643   2.126   1.749
 2102SOL    HW1 6868   2.710   2.065   1.792
 2102SOL    HW2 6869   2.570   2.145   1.814
 2103SOL     OW 6870   2.750   3.376   1.195
 2103SOL    HW1 6871   2.727   3.351   1.101
 2103SOL    HW2 6872   2.811   3.307   1.234
 2104SOL     OW 6873   3.213   2.452   1.433
 2104SOL    HW1 6874   3.241   2.409   1.518
 2104SOL    HW2 6875   3.238   2.548   1.434
 2105SOL     OW 6876   2.665   3.264   0.924
 2105SOL    HW1 6877   2.755   3.278   0.882
 2105SOL    HW2 6878   2.594   3.266   0.853
 2106SOL     OW 6879   2.784   2.365   0.899
 2106SOL    HW1 6880   2.759   2.356   0.803
 2106SOL    HW2 6881   2.832   2.283   0.930
 2107SOL     OW 6882   2.401   1.926   0.512
 2107SOL    HW1 6883   2.320   1.927   0.570
 2107SOL    HW2 6884   2.404   2.009   0.457
 2108SOL     OW 6885   3.296   3.050   0.041
 2108SOL    HW1 6886   3.328   2.974   0.098
 2108SOL    HW2 6887   3.204   3.077   0.071
 2109SOL     OW 6888   2.159   1.897   0.171
 2109SOL    HW1 6889   2.208   1.981   0.150
 2109SOL    HW2 6890   2.221   1.832   0.216
 2110SOL     OW 6891   2.797   2.098   0.480
 2110SOL    HW1 6892   2.749   2.139   0.402
 2110SOL    HW2 6893   2.896   2.096   0.461
 2111SOL     OW 6894   2.938   2.545   1.464
 2111SOL    HW1 6895   2.858   2.484   1.467
 2111SOL    HW2 6896   3.019   2.492   1.440
 2112SOL     OW 6897   3.089   3.432   0.793
 2112SOL    HW1 6898   3.110   3.506   0.728
 2112SOL    HW2 6899   3.157   3.432   0.866
 2113SOL     OW 6900   2.321   3.014   0.741
 2113SOL    HW1 6901   2.250   2.987   0.806
 2113SOL    HW2 6902   2.295   2.986   0.648
 2114SOL     OW 6903   3.133   3.659   0.591
 2114SOL    HW1 6904   3.177   3.723   0.527
 2114SOL    HW2 6905   3.083   3.711   0.661
 2115SOL     OW 6906   2.894   2.411   0.016
 2115SOL    HW1 6907   2.853   2.493  -0.023
 2115SOL    HW2 6908   2.958   2.437   0.089
 2116SOL     OW 6909   1.940   2.418   1.386
 2116SOL    HW1 6910   2.032   2.417   1.345
 2116SOL    HW2 6911   1.934   2.492   1.453
 2117SOL     OW 6912   2.423   2.084   1.147
 2117SOL    HW1 6913   2.461   2.000   1.184
 2117SOL    HW2 6914   2.335   2.103   1.191
 2118SOL     OW 6915   2.728   2.316   0.642
 2118SOL    HW1 6916   2.696   2.388   0.580
 2118SOL    HW2 6917   2.752   2.235   0.589
 2119SOL     OW 6918   2.879   1.901   0.753
 2119SOL    HW1 6919   2.807   1.906   0.684
 2119SOL    HW2 6920   2.855   1.832   0.822
 2120SOL     OW 6921   3.291   3.035   0.867
 2120SOL    HW1 6922   3.236   2.951   0.860
 2120SOL    HW2 6923   3.317   3.064   0.775
 2121SOL     OW 6924   3.328   2.452   0.992
 2121SOL    HW1 6925   3.298   2.357   0.999
 2121SOL    HW2 6926   3.401   2.468   1.058
 2122SOL     OW 6927   3.719   2.695   0.377
 2122SOL    HW1 6928   3.761   2.631   0.441
 2122SOL    HW2 6929   3.681   2.644   0.299
 2123SOL     OW 6930   2.350   3.247   0.174
 2123SOL    HW1 6931   2.263   3.232   0.221
 2123SOL    HW2 6932   2.333   3.273   0.079
 2124SOL     OW 6933   3.526   3.142   0.657
 2124SOL    HW1 6934   3.625   3.150   0.671
 2124SOL    HW2 6935   3.481   3.226   0.688
 2125SOL     OW 6936   3.252   2.437   0.078
 2125SOL    HW1 6937   3.198   2.416   0.159
 2125SOL    HW2 6938   3.343   2.396   0.087
 2126SOL     OW 6939   2.389   2.118   0.328
 2126SOL    HW1 6940   2.416   2.059   0.253
 2126SOL    HW2 6941   2.389   2.213   0.297
 2127SOL     OW 6942   3.616   3.085   1.588
 2127SOL    HW1 6943   3.707   3.046   1.575
 2127SOL    HW2 6944   3.624   3.181   1.612
 2128SOL     OW 6945   2.926   3.209   1.340
 2128SOL    HW1 6946   2.846   3.186   1.395
 2128SOL    HW2 6947   3.009   3.183   1.389
 2129SOL     OW 6948   3.454   3.491   1.625
 2129SOL    HW1 6949   3.481   3.525   1.535
 2129SOL    HW2 6950   3.533   3.453   1.671
 2130SOL     OW 6951   2.973   3.057   1.100
 2130SOL    HW1 6952   2.933   3.101   1.181
 2130SOL    HW2 6953   2.932   3.094   1.017
 2131SOL     OW 6954   3.500   2.961   1.079
 2131SOL    HW1 6955   3.505   3.042   1.138
 2131SOL    HW2 6956   3.414   2.963   1.028
 2132SOL     OW 6957   2.777   1.951   1.402
 2132SOL    HW1 6958   2.802   1.931   1.307
 2132SOL    HW2 6959   2.849   2.007   1.444
 2133SOL     OW 6960   2.842   2.978   1.719
 2133SOL    HW1 6961   2.743   2.984   1.729
 2133SOL    HW2 6962   2.865   2.898   1.663
 2134SOL     OW 6963   2.567   2.912   0.368
 2134SOL    HW1 6964   2.553   2.919   0.467
 2134SOL    HW2 6965   2.651   2.861   0.350
 2135SOL     OW 6966   2.272   2.675   1.251
 2135SOL    HW1 6967   2.358   2.687   1.301
 2135SOL    HW2 6968   2.230   2.588   1.278
 2136SOL     OW 6969   3.136   2.248   1.262
 2136SOL    HW1 6970   3.157   2.322   1.326
 2136SOL    HW2 6971   3.047   2.265   1.219
 2137SOL     OW 6972   1.926   3.426   1.331
 2137SOL    HW1 6973   1.880   3.508   1.297
 2137SOL    HW2 6974   2.024   3.445   1.340
 2138SOL     OW 6975   2.229   2.962   0.501
 2138SOL    HW1 6976   2.222   3.045   0.445
 2138SOL    HW2 6977   2.233   2.882   0.441
 2139SOL     OW 6978   2.428   2.399   0.865
 2139SOL    HW1 6979   2.440   2.465   0.791
 2139SOL    HW2 6980   2.474   2.433   0.948
 2140SOL     OW 6981   3.114   3.210   0.388
 2140SOL    HW1 6982   3.164   3.287   0.428
 2140SOL    HW2 6983   3.019   3.212   0.420
 2141SOL     OW 6984   3.134   3.307   1.142
 2141SOL    HW1 6985   3.181   3.320   1.229
 2141SOL    HW2 6986   3.068   3.233   1.151
 2142SOL     OW 6987   3.444   2.501   0.472
 2142SOL    HW1 6988   3.413   2.562   0.545
 2142SOL    HW2 6989   3.494   2.553   0.403
 2143SOL     OW 6990   2.216   3.372   1.329
 2143SOL    HW1 6991   2.195   3.328   1.242
 2143SOL    HW2 6992   2.313   3.398   1.332
 2144SOL     OW 6993   2.264   2.613   1.598
 2144SOL    HW1 6994   2.332   2.668   1.551
 2144SOL    HW2 6995   2.304   2.525   1.625
 2145SOL     OW 6996   3.449   2.641   1.670
 2145SOL    HW1 6997   3.357   2.679   1.665
 2145SOL    HW2 6998   3.509   2.688   1.605
 2146SOL     OW 6999   2.875   1.967   1.770
 2146SOL    HW1 7000   2.881   2.052   1.718
 2146SOL    HW2 7001   2.907   1.891   1.713
 2147SOL     OW 7002   2.366   1.912   1.740
 2147SOL    HW1 7003   2.324   1.855   1.670
 2147SOL    HW2 7004   2.300   1.981   1.772
 2148SOL     OW 7005   2.435   2.732   1.029
 2148SOL    HW1 7006   2.479   2.821   1.020
 2148SOL    HW2 7007   2.372   2.732   1.106
 2149SOL     OW 7008   3.222   2.724   1.045
 2149SOL    HW1 7009   3.147   2.724   0.979
 2149SOL    HW2 7010   3.259   2.632   1.054
 2150SOL     OW 7011   3.071   2.387   0.275
 2150SOL    HW1 7012   3.084   2.303   0.329
 2150SOL    HW2 7013   3.042   2.461   0.335
 2151SOL     OW 7014   2.169   2.075   1.231
 2151SOL    HW1 7015   2.146   2.112   1.321
 2151SOL    HW2 7016   2.139   1.980   1.225
 2152SOL     OW 7017   1.899   3.172   1.282
 2152SOL    HW1 7018   1.952   3.123   1.350
 2152SOL    HW2 7019   1.921   3.270   1.287
 2153SOL     OW 7020   2.594   2.496   1.064
 2153SOL    HW1 7021   2.653   2.470   0.988
 2153SOL    HW2 7022   2.566   2.592   1.053
 2154SOL     OW 7023   3.590   2.797   1.854
 2154SOL    HW1 7024   3.544   2.790   1.765
 2154SOL    HW2 7025   3.528   2.841   1.920
 2155SOL     OW 7026   2.169   1.925   0.618
 2155SOL    HW1 7027   2.158   2.019   0.651
 2155SOL    HW2 7028   2.164   1.862   0.695
 2156SOL     OW 7029   3.484   2.229   0.374
 2156SOL    HW1 7030   3.486   2.153   0.438
 2156SOL    HW2 7031   3.436   2.306   0.414
 2157SOL     OW 7032   2.885   2.628   0.966
 2157SOL    HW1 7033   2.900   2.649   1.062
 2157SOL    HW2 7034   2.855   2.533   0.957
 2158SOL     OW 7035   3.721   3.380   1.605
 2158SOL    HW1 7036   3.735   3.407   1.510
 2158SOL    HW2 7037   3.804   3.402   1.658
 2159SOL     OW 7038   2.212   2.760   1.804
 2159SOL    HW1 7039   2.288   2.804   1.852
 2159SOL    HW2 7040   2.247   2.713   1.722
 2160SOL     OW 7041   3.402   2.136   0.125
 2160SOL    HW1 7042   3.341   2.061   0.148
 2160SOL    HW2 7043   3.424   2.188   0.208
 2161SOL     OW 7044   3.165   2.700   0.042
 2161SOL    HW1 7045   3.199   2.607   0.057
 2161SOL    HW2 7046   3.183   2.727  -0.053
 2162SOL     OW 7047   2.930   3.195   0.849
 2162SOL    HW1 7048   2.937   3.111   0.794
 2162SOL    HW2 7049   2.992   3.264   0.813
 2163SOL     OW 7050   2.181   2.672   0.949
 2163SOL    HW1 7051   2.274   2.708   0.954
 2163SOL    HW2 7052   2.175   2.587   1.001
 2164SOL     OW 7053   2.201   2.371   1.006
 2164SOL    HW1 7054   2.149   2.288   0.989
 2164SOL    HW2 7055   2.278   2.376   0.942
 2165SOL     OW 7056   3.000   2.242   1.678
 2165SOL    HW1 7057   2.955   2.305   1.742
 2165SOL    HW2 7058   3.093   2.273   1.661
 2166SOL     OW 7059   3.022   2.069   1.477
 2166SOL    HW1 7060   3.022   2.133   1.554
 2166SOL    HW2 7061   3.050   2.117   1.394
 2167SOL     OW 7062   1.950   3.663   0.927
 2167SOL    HW1 7063   1.908   3.577   0.900
 2167SOL    HW2 7064   2.044   3.666   0.893
 2168SOL     OW 7065   2.366   3.430   0.910
 2168SOL    HW1 7066   2.432   3.504   0.919
 2168SOL    HW2 7067   2.410   3.351   0.868
 2169SOL     OW 7068   2.864   2.658   1.238
 2169SOL    HW1 7069   2.905   2.626   1.324
 2169SOL    HW2 7070   2.768   2.631   1.235
 2170SOL     OW 7071   1.902   2.406   1.114
 2170SOL    HW1 7072   1.987   2.373   1.073
 2170SOL    HW2 7073   1.915   2.421   1.212
 2171SOL     OW 7074   2.051   2.382   1.722
 2171SOL    HW1 7075   2.110   2.342   1.652
 2171SOL    HW2 7076   1.993   2.453   1.681
 2172SOL     OW 7077   3.231   2.812   1.660
 2172SOL    HW1 7078   3.270   2.901   1.680
 2172SOL    HW2 7079   3.241   2.792   1.563
 2173SOL     OW 7080   2.677   2.434   0.325
 2173SOL    HW1 7081   2.684   2.345   0.279
 2173SOL    HW2 7082   2.583   2.468   0.317
 2174SOL     OW 7083   3.519   2.466   1.206
 2174SOL    HW1 7084   3.481   2.397   1.268
 2174SOL    HW2 7085   3.601   2.430   1.162
 2175SOL     OW 7086   2.114   3.426   1.744
 2175SOL    HW1 7087   2.084   3.483   1.820
 2175SOL    HW2 7088   2.107   3.329   1.770
 2176SOL     OW 7089   2.533   2.326   1.269
 2176SOL    HW1 7090   2.499   2.237   1.239
 2176SOL    HW2 7091   2.559   2.380   1.189
 2177SOL     OW 7092   2.335   2.362   0.191
 2177SOL    HW1 7093   2.396   2.442   0.195
 2177SOL    HW2 7094   2.240   2.393   0.198
 2178SOL     OW 7095   2.021   2.999   1.466
 2178SOL    HW1 7096   2.043   2.938   1.542
 2178SOL    HW2 7097   2.031   2.950   1.380
 2179SOL     OW 7098   3.209   2.921   1.234
 2179SOL    HW1 7099   3.233   2.858   1.160
 2179SOL    HW2 7100   3.119   2.961   1.216
 2180SOL     OW 7101   3.164   2.717   0.309
 2180SOL    HW1 7102   3.078   2.686   0.351
 2180SOL    HW2 7103   3.160   2.703   0.210
 2181SOL     OW 7104   3.621   3.609   1.154
 2181SOL    HW1 7105   3.682   3.639   1.081
 2181SOL    HW2 7106   3.583   3.520   1.132
 2182SOL     OW 7107   3.114   3.593   1.128
 2182SOL    HW1 7108   3.198   3.598   1.074
 2182SOL    HW2 7109   3.091   3.497   1.146
 2183SOL     OW 7110   1.945   3.120   1.022
 2183SOL    HW1 7111   1.940   3.119   1.122
 2183SOL    HW2 7112   1.862   3.079   0.984
 2184SOL     OW 7113   2.550   3.524   1.716
 2184SOL    HW1 7114   2.494   3.605   1.725
 2184SOL    HW2 7115   2.602   3.528   1.630
 2185SOL     OW 7116   2.765   1.948   0.133
 2185SOL    HW1 7117   2.816   1.949   0.047
 2185SOL    HW2 7118   2.821   1.906   0.204
 2186SOL     OW 7119   3.588   1.997   0.523
 2186SOL    HW1 7120   3.661   1.980   0.456
 2186SOL    HW2 7121   3.557   1.910   0.561
 2187SOL     OW 7122   3.250   3.435   0.477
 2187SOL    HW1 7123   3.317   3.447   0.403
 2187SOL    HW2 7124   3.210   3.524   0.500
 2188SOL     OW 7125   1.992   3.656   1.851
 2188SOL    HW1 7126   1.951   3.582   1.904
 2188SOL    HW2 7127   2.056   3.707   1.909
 2189SOL     OW 7128   3.142   2.789   0.672
 2189SOL    HW1 7129   3.202   2.708   0.674
 2189SOL    HW2 7130   3.182   2.858   0.612
 2190SOL     OW 7131   2.692   3.135   1.422
 2190SOL    HW1 7132   2.687   3.168   1.517
 2190SOL    HW2 7133   2.606   3.154   1.376
 2191SOL     OW 7134   2.534   3.478   0.154
 2191SOL    HW1 7135   2.543   3.488   0.055
 2191SOL    HW2 7136   2.494   3.389   0.175
 2192SOL     OW 7137   3.512   3.582   1.394
 2192SOL    HW1 7138   3.565   3.592   1.310
 2192SOL    HW2 7139   3.485   3.672   1.428
 2193SOL     OW 7140   3.703   2.037   0.963
 2193SOL    HW1 7141   3.742   1.952   0.927
 2193SOL    HW2 7142   3.605   2.039   0.944
 2194SOL     OW 7143   2.125   2.188   0.720
 2194SOL    HW1 7144   2.046   2.239   0.686
 2194SOL    HW2 7145   2.116   2.173   0.818
 2195SOL     OW 7146   3.056   3.474   0.031
 2195SOL    HW1 7147   3.062   3.381   0.068
 2195SOL    HW2 7148   2.997   3.474  -0.049
 2196SOL     OW 7149   2.684   2.864   1.372
 2196SOL    HW1 7150   2.724   2.863   1.280
 2196SOL    HW2 7151   2.694   2.956   1.412
 2197SOL     OW 7152   2.778   2.772   0.291
 2197SOL    HW1 7153   2.841   2.810   0.223
 2197SOL    HW2 7154   2.818   2.689   0.330
 2198SOL     OW 7155   3.366   3.469   0.044
 2198SOL    HW1 7156   3.274   3.506   0.051
 2198SOL    HW2 7157   3.404   3.489  -0.046
 2199SOL     OW 7158   2.234   3.150   1.490
 2199SOL    HW1 7159   2.221   3.243   1.456
 2199SOL    HW2 7160   2.150   3.098   1.477
 2200SOL     OW 7161   3.476   3.154   1.289
 2200SOL    HW1 7162   3.536   3.157   1.369
 2200SOL    HW2 7163   3.401   3.218   1.302
 2201SOL     OW 7164   2.901   2.960   0.696
 2201SOL    HW1 7165   2.831   2.913   0.750
 2201SOL    HW2 7166   2.960   2.892   0.653
 2202SOL     OW 7167   2.876   2.098   0.971
 2202SOL    HW1 7168   2.868   2.062   0.878
 2202SOL    HW2 7169   2.874   2.022   1.036
 2203SOL     OW 7170   2.452   3.349   0.491
 2203SOL    HW1 7171   2.494   3.291   0.421
 2203SOL    HW2 7172   2.408   3.428   0.447
 2204SOL     OW 7173   3.571   2.247   1.381
 2204SOL    HW1 7174   3.644   2.316   1.385
 2204SOL    HW2 7175   3.599   2.172   1.322
 2205SOL     OW 7176   2.117   3.210   0.290
 2205SOL    HW1 7177   2.021   3.211   0.263
 2205SOL    HW2 7178   2.129   3.263   0.374
 2206SOL     OW 7179   1.967   2.875   1.726
 2206SOL    HW1 7180   1.890   2.842   1.780
 2206SOL    HW2 7181   2.052   2.845   1.768
 2207SOL     OW 7182   2.534   2.065   1.489
 2207SOL    HW1 7183   2.624   2.049   1.449
 2207SOL    HW2 7184   2.542   2.070   1.588
 2208SOL     OW 7185   3.302   2.718   1.398
 2208SOL    HW1 7186   3.245   2.770   1.335
 2208SOL    HW2 7187   3.398   2.730   1.374
 2209SOL     OW 7188   1.934   2.028   0.318
 2209SOL    HW1 7189   1.917   2.111   0.264
 2209SOL    HW2 7190   2.024   1.991   0.296
 2210SOL     OW 7191   3.045   3.197   0.119
 2210SOL    HW1 7192   2.946   3.186   0.121
 2210SOL    HW2 7193   3.079   3.212   0.212
 2211SOL     OW 7194   2.475   2.704   1.431
 2211SOL    HW1 7195   2.531   2.785   1.414
 2211SOL    HW2 7196   2.534   2.624   1.434
 2212SOL     OW 7197   3.355   3.629   0.959
 2212SOL    HW1 7198   3.388   3.693   0.890
 2212SOL    HW2 7199   3.421   3.623   1.034
 2213SOL     OW 7200   2.578   2.427   1.708
 2213SOL    HW1 7201   2.597   2.492   1.782
 2213SOL    HW2 7202   2.638   2.347   1.717
 2214SOL     OW 7203   3.312   3.082   1.633
 2214SOL    HW1 7204   3.303   3.072   1.732
 2214SOL    HW2 7205   3.408   3.075   1.607
 2215SOL     OW 7206   2.252   3.603   1.560
 2215SOL    HW1 7207   2.161   3.644   1.558
 2215SOL    HW2 7208   2.245   3.509   1.592
 2216SOL     OW 7209   3.536   2.745   1.254
 2216SOL    HW1 7210   3.509   2.656   1.217
 2216SOL    HW2 7211   3.537   2.813   1.181
 2217SOL     OW 7212   3.087   2.187   0.449
 2217SOL    HW1 7213   3.152   2.113   0.438
 2217SOL    HW2 7214   3.107   2.237   0.533
 2218SOL     OW 7215   2.456   2.607   0.652
 2218SOL    HW1 7216   2.506   2.692   0.633
 2218SOL    HW2 7217   2.368   2.609   0.604
 2219SOL     OW 7218   3.639   2.204   1.642
 2219SOL    HW1 7219   3.622   2.235   1.548
 2219SOL    HW2 7220   3.555   2.167   1.680
 2220SOL     OW 7221   3.592   2.796   1.517
 2220SOL    HW1 7222   3.630   2.887   1.532
 2220SOL    HW2 7223   3.584   2.779   1.418
 2221SOL     OW 7224   2.721   3.236   0.016
 2221SOL    HW1 7225   2.675   3.251   0.104
 2221SOL    HW2 7226   2.765   3.321  -0.014
 2222SOL     OW 7227   2.523   3.652   0.953
 2222SOL    HW1 7228   2.477   3.740   0.940
 2222SOL    HW2 7229   2.622   3.664   0.946
 2223SOL     OW 7230   2.721   2.818   0.861
 2223SOL    HW1 7231   2.775   2.749   0.909
 2223SOL    HW2 7232   2.689   2.887   0.927
 2224SOL     OW 7233   2.945   2.846   0.087
 2224SOL    HW1 7234   2.922   2.899   0.005
 2224SOL    HW2 7235   3.026   2.790   0.068
 2225SOL     OW 7236   3.723   3.431   0.851
 2225SOL    HW1 7237   3.652   3.419   0.781
 2225SOL    HW2 7238   3.724   3.352   0.911
 2226SOL     OW 7239   2.083   3.176   1.844
 2226SOL    HW1 7240   2.018   3.103   1.823
 2226SOL    HW2 7241   2.087   3.190   1.942
 2227SOL     OW 7242   1.941   3.102   0.653
 2227SOL    HW1 7243   1.940   3.055   0.741
 2227SOL    HW2 7244   2.023   3.074   0.602
 2228SOL     OW 7245   2.534   3.253   1.624
 2228SOL    HW1 7246   2.456   3.203   1.662
 2228SOL    HW2 7247   2.531   3.348   1.655
 2229SOL     OW 7248   3.686   2.054   1.227
 2229SOL    HW1 7249   3.682   1.964   1.271
 2229SOL    HW2 7250   3.689   2.043   1.128
 2230SOL     OW 7251   2.290   2.286   0.520
 2230SOL    HW1 7252   2.320   2.214   0.458
 2230SOL    HW2 7253   2.251   2.246   0.603
 2231SOL     OW 7254   3.567   3.349   1.104
 2231SOL    HW1 7255   3.474   3.324   1.077
 2231SOL    HW2 7256   3.593   3.299   1.186
 2232SOL     OW 7257   2.179   2.409   1.280
 2232SOL    HW1 7258   2.217   2.350   1.352
 2232SOL    HW2 7259   2.219   2.383   1.192
 2233SOL     OW 7260   2.674   3.448   0.687
 2233SOL    HW1 7261   2.706   3.458   0.593
 2233SOL    HW2 7262   2.595   3.386   0.689
 2234SOL     OW 7263   3.286   2.076   1.112
 2234SOL    HW1 7264   3.338   2.011   1.167
 2234SOL    HW2 7265   3.237   2.139   1.173
 2235SOL     OW 7266   2.863   1.896   1.154
 2235SOL    HW1 7267   2.800   1.824   1.123
 2235SOL    HW2 7268   2.956   1.860   1.154
 2236SOL     OW 7269   2.632   3.192   0.301
 2236SOL    HW1 7270   2.586   3.105   0.318
 2236SOL    HW2 7271   2.723   3.189   0.342
 2237SOL     OW 7272   2.480   3.429   1.284
 2237SOL    HW1 7273   2.475   3.511   1.341
 2237SOL    HW2 7274   2.569   3.426   1.239
 2238SOL     OW 7275   3.214   1.914   0.168
 2238SOL    HW1 7276   3.249   1.873   0.084
 2238SOL    HW2 7277   3.124   1.876   0.188
 2239SOL     OW 7278   3.162   2.315   0.691
 2239SOL    HW1 7279   3.103   2.395   0.695
 2239SOL    HW2 7280   3.177   2.280   0.784
 2240SOL     OW 7281   3.455   2.083   0.882
 2240SOL    HW1 7282   3.371   2.082   0.936
 2240SOL    HW2 7283   3.457   2.166   0.826
 2241SOL     OW 7284   1.901   2.939   0.300
 2241SOL    HW1 7285   2.000   2.928   0.291
 2241SOL    HW2 7286   1.861   2.853   0.332
 2242SOL     OW 7287   2.737   3.508   0.337
 2242SOL    HW1 7288   2.660   3.473   0.283
 2242SOL    HW2 7289   2.705   3.579   0.399
 2243SOL     OW 7290   2.092   2.490   1.975
 2243SOL    HW1 7291   1.999   2.488   2.012
 2243SOL    HW2 7292   2.093   2.451   1.883
 2244SOL     OW 7293   2.087   2.137   2.858
 2244SOL    HW1 7294   2.122   2.120   2.950
 2244SOL    HW2 7295   1.999   2.092   2.846
 2245SOL     OW 7296   1.881   2.230   2.509
 2245SOL    HW1 7297   1.799   2.273   2.548
 2245SOL    HW2 7298   1.853   2.157   2.446
 2246SOL     OW 7299   2.431   3.137   3.027
 2246SOL    HW1 7300   2.338   3.130   2.990
 2246SOL    HW2 7301   2.442   3.226   3.071
 2247SOL     OW 7302   3.417   3.373   2.565
 2247SOL    HW1 7303   3.360   3.357   2.646
 2247SOL    HW2 7304   3.358   3.383   2.485
 2248SOL     OW 7305   3.617   2.469   2.093
 2248SOL    HW1 7306   3.605   2.456   1.994
 2248SOL    HW2 7307   3.587   2.388   2.142
 2249SOL     OW 7308   2.630   3.006   2.885
 2249SOL    HW1 7309   2.552   3.023   2.945
 2249SOL    HW2 7310   2.664   3.093   2.849
 2250SOL     OW 7311   2.712   2.660   3.685
 2250SOL    HW1 7312   2.708   2.736   3.750
 2250SOL    HW2 7313   2.734   2.696   3.594
 2251SOL     OW 7314   2.548   3.023   3.665
 2251SOL    HW1 7315   2.608   3.102   3.679
 2251SOL    HW2 7316   2.462   3.054   3.624
 2252SOL     OW 7317   2.197   3.297   2.923
 2252SOL    HW1 7318   2.119   3.266   2.870
 2252SOL    HW2 7319   2.255   3.355   2.866
 2253SOL     OW 7320   3.322   3.367   3.201
 2253SOL    HW1 7321   3.346   3.461   3.227
 2253SOL    HW2 7322   3.306   3.313   3.283
 2254SOL     OW 7323   2.300   2.254   3.361
 2254SOL    HW1 7324   2.382   2.198   3.370
 2254SOL    HW2 7325   2.219   2.196   3.365
 2255SOL     OW 7326   3.465   2.309   2.599
 2255SOL    HW1 7327   3.391   2.355   2.549
 2255SOL    HW2 7328   3.516   2.377   2.652
 2256SOL     OW 7329   2.093   3.575   2.345
 2256SOL    HW1 7330   2.127   3.652   2.399
 2256SOL    HW2 7331   2.137   3.575   2.255
 2257SOL     OW 7332   2.989   3.203   3.552
 2257SOL    HW1 7333   3.036   3.203   3.640
 2257SOL    HW2 7334   2.941   3.116   3.541
 2258SOL     OW 7335   2.092   3.296   2.400
 2258SOL    HW1 7336   2.066   3.392   2.400
 2258SOL    HW2 7337   2.021   3.242   2.445
 2259SOL     OW 7338   2.102   2.953   2.748
 2259SOL    HW1 7339   2.116   2.869   2.800
 2259SOL    HW2 7340   2.047   3.017   2.803
 2260SOL     OW 7341   2.482   3.648   3.301
 2260SOL    HW1 7342   2.390   3.631   3.336
 2260SOL    HW2 7343   2.510   3.740   3.327
 2261SOL     OW 7344   2.468   2.826   1.985
 2261SOL    HW1 7345   2.475   2.910   1.931
 2261SOL    HW2 7346   2.514   2.839   2.073
 2262SOL     OW 7347   3.456   1.976   3.342
 2262SOL    HW1 7348   3.438   2.043   3.270
 2262SOL    HW2 7349   3.453   2.022   3.431
 2263SOL     OW 7350   3.704   3.629   2.221
 2263SOL    HW1 7351   3.758   3.600   2.301
 2263SOL    HW2 7352   3.734   3.719   2.192
 2264SOL     OW 7353   1.889   3.458   1.979
 2264SOL    HW1 7354   1.870   3.362   2.000
 2264SOL    HW2 7355   1.856   3.516   2.054
 2265SOL     OW 7356   3.551   2.784   2.474
 2265SOL    HW1 7357   3.646   2.755   2.482
 2265SOL    HW2 7358   3.543   2.849   2.399
 2266SOL     OW 7359   3.503   2.970   2.294
 2266SOL    HW1 7360   3.589   2.972   2.242
 2266SOL    HW2 7361   3.517   3.017   2.382
 2267SOL     OW 7362   1.975   2.599   3.459
 2267SOL    HW1 7363   2.063   2.586   3.504
 2267SOL    HW2 7364   1.962   2.696   3.437
 2268SOL     OW 7365   2.475   3.227   2.588
 2268SOL    HW1 7366   2.426   3.140   2.597
 2268SOL    HW2 7367   2.452   3.270   2.501
 2269SOL     OW 7368   3.155   3.090   3.285
 2269SOL    HW1 7369   3.192   3.017   3.227
 2269SOL    HW2 7370   3.207   3.095   3.370
 2270SOL     OW 7371   2.671   1.866   2.364
 2270SOL    HW1 7372   2.711   1.957   2.355
 2270SOL    HW2 7373   2.571   1.874   2.370
 2271SOL     OW 7374   2.059   2.838   3.126
 2271SOL    HW1 7375   2.148   2.793   3.112
 2271SOL    HW2 7376   1.986   2.773   3.107
 2272SOL     OW 7377   3.387   2.861   2.052
 2272SOL    HW1 7378   3.324   2.785   2.065
 2272SOL    HW2 7379   3.435   2.879   2.138
 2273SOL     OW 7380   3.049   3.654   3.478
 2273SOL    HW1 7381   3.073   3.714   3.402
 2273SOL    HW2 7382   3.056   3.559   3.448
 2274SOL     OW 7383   2.179   2.113   3.663
 2274SOL    HW1 7384   2.250   2.184   3.669
 2274SOL    HW2 7385   2.091   2.152   3.691
 2275SOL     OW 7386   3.328   3.279   2.815
 2275SOL    HW1 7387   3.269   3.285   2.895
 2275SOL    HW2 7388   3.313   3.191   2.769
 2276SOL     OW 7389   3.529   3.576   2.434
 2276SOL    HW1 7390   3.488   3.553   2.346
 2276SOL    HW2 7391   3.511   3.502   2.499
 2277SOL     OW 7392   2.460   2.591   2.132
 2277SOL    HW1 7393   2.484   2.660   2.064
 2277SOL    HW2 7394   2.382   2.624   2.186
 2278SOL     OW 7395   3.143   2.207   2.806
 2278SOL    HW1 7396   3.057   2.157   2.793
 2278SOL    HW2 7397   3.205   2.153   2.862
 2279SOL     OW 7398   3.438   3.524   2.169
 2279SOL    HW1 7399   3.527   3.570   2.172
 2279SOL    HW2 7400   3.417   3.500   2.074
 2280SOL     OW 7401   2.669   2.467   3.327
 2280SOL    HW1 7402   2.622   2.464   3.416
 2280SOL    HW2 7403   2.618   2.412   3.261
 2281SOL     OW 7404   3.256   2.331   3.536
 2281SOL    HW1 7405   3.236   2.374   3.624
 2281SOL    HW2 7406   3.334   2.269   3.545
 2282SOL     OW 7407   2.835   2.752   3.434
 2282SOL    HW1 7408   2.881   2.668   3.405
 2282SOL    HW2 7409   2.779   2.786   3.359
 2283SOL     OW 7410   2.853   2.272   3.104
 2283SOL    HW1 7411   2.776   2.306   3.158
 2283SOL    HW2 7412   2.819   2.221   3.025
 2284SOL     OW 7413   2.903   2.563   2.291
 2284SOL    HW1 7414   2.929   2.559   2.387
 2284SOL    HW2 7415   2.818   2.512   2.277
 2285SOL     OW 7416   1.938   2.673   2.651
 2285SOL    HW1 7417   2.037   2.661   2.660
 2285SOL    HW2 7418   1.914   2.768   2.672
 2286SOL     OW 7419   1.992   3.683   3.433
 2286SOL    HW1 7420   1.982   3.668   3.532
 2286SOL    HW2 7421   1.906   3.719   3.397
 2287SOL     OW 7422   2.727   2.210   2.057
 2287SOL    HW1 7423   2.786   2.273   2.008
 2287SOL    HW2 7424   2.746   2.116   2.028
 2288SOL     OW 7425   3.581   2.447   3.693
 2288SOL    HW1 7426   3.555   2.536   3.657
 2288SOL    HW2 7427   3.579   2.379   3.620
 2289SOL     OW 7428   3.224   3.006   2.407
 2289SOL    HW1 7429   3.307   2.977   2.359
 2289SOL    HW2 7430   3.175   3.073   2.351
 2290SOL     OW 7431   2.412   2.058   2.747
 2290SOL    HW1 7432   2.407   2.053   2.847
 2290SOL    HW2 7433   2.414   2.154   2.718
 2291SOL     OW 7434   2.870   3.318   2.339
 2291SOL    HW1 7435   2.824   3.390   2.287
 2291SOL    HW2 7436   2.866   3.338   2.437
 2292SOL     OW 7437   2.213   3.663   2.715
 2292SOL    HW1 7438   2.263   3.577   2.721
 2292SOL    HW2 7439   2.278   3.740   2.712
 2293SOL     OW 7440   3.657   2.928   2.735
 2293SOL    HW1 7441   3.595   2.913   2.659
 2293SOL    HW2 7442   3.605   2.939   2.820
 2294SOL     OW 7443   3.089   3.412   3.368
 2294SOL    HW1 7444   3.095   3.335   3.432
 2294SOL    HW2 7445   3.037   3.386   3.288
 2295SOL     OW 7446   2.183   2.805   2.104
 2295SOL    HW1 7447   2.265   2.844   2.062
 2295SOL    HW2 7448   2.156   2.723   2.055
 2296SOL     OW 7449   3.320   2.597   2.590
 2296SOL    HW1 7450   3.315   2.532   2.665
 2296SOL    HW2 7451   3.400   2.656   2.603
 2297SOL     OW 7452   2.323   3.128   3.589
 2297SOL    HW1 7453   2.273   3.129   3.503
 2297SOL    HW2 7454   2.260   3.110   3.665
 2298SOL     OW 7455   2.064   2.147   3.360
 2298SOL    HW1 7456   1.984   2.207   3.347
 2298SOL    HW2 7457   2.054   2.098   3.446
 2299SOL     OW 7458   3.494   3.239   1.943
 2299SOL    HW1 7459   3.462   3.333   1.933
 2299SOL    HW2 7460   3.418   3.176   1.931
 2300SOL     OW 7461   2.326   3.605   2.185
 2300SOL    HW1 7462   2.359   3.644   2.271
 2300SOL    HW2 7463   2.402   3.598   2.120
 2301SOL     OW 7464   3.262   1.969   2.288
 2301SOL    HW1 7465   3.238   1.932   2.198
 2301SOL    HW2 7466   3.361   1.985   2.292
 2302SOL     OW 7467   2.111   3.647   3.103
 2302SOL    HW1 7468   2.168   3.582   3.153
 2302SOL    HW2 7469   2.095   3.614   3.010
 2303SOL     OW 7470   2.802   3.560   2.766
 2303SOL    HW1 7471   2.882   3.503   2.787
 2303SOL    HW2 7472   2.753   3.520   2.689
 2304SOL     OW 7473   2.244   2.562   2.342
 2304SOL    HW1 7474   2.289   2.472   2.339
 2304SOL    HW2 7475   2.150   2.551   2.375
 2305SOL     OW 7476   3.409   2.084   3.591
 2305SOL    HW1 7477   3.404   2.121   3.683
 2305SOL    HW2 7478   3.337   2.015   3.579
 2306SOL     OW 7479   2.476   1.984   1.979
 2306SOL    HW1 7480   2.574   1.962   1.986
 2306SOL    HW2 7481   2.445   1.967   1.886
 2307SOL     OW 7482   2.643   2.126   3.611
 2307SOL    HW1 7483   2.710   2.065   3.654
 2307SOL    HW2 7484   2.570   2.145   3.676
 2308SOL     OW 7485   2.750   3.376   3.057
 2308SOL    HW1 7486   2.727   3.351   2.963
 2308SOL    HW2 7487   2.811   3.307   3.096
 2309SOL     OW 7488   3.213   2.452   3.295
 2309SOL    HW1 7489   3.241   2.409   3.380
 2309SOL    HW2 7490   3.238   2.548   3.296
 2310SOL     OW 7491   2.665   3.264   2.786
 2310SOL    HW1 7492   2.755   3.278   2.744
 2310SOL    HW2 7493   2.594   3.266   2.715
 2311SOL     OW 7494   2.401   1.926   2.374
 2311SOL    HW1 7495   2.320   1.927   2.432
 2311SOL    HW2 7496   2.404   2.009   2.319
 2312SOL     OW 7497   3.296   3.050   1.903
 2312SOL    HW1 7498   3.328   2.974   1.960
 2312SOL    HW2 7499   3.204   3.077   1.933
 2313SOL     OW 7500   2.159   1.897   2.033
 2313SOL    HW1 7501   2.208   1.981   2.012
 2313SOL    HW2 7502   2.221   1.832   2.078
 2314SOL     OW 7503   2.797   2.098   2.342
 2314SOL    HW1 7504   2.749   2.139   2.264
 2314SOL    HW2 7505   2.896   2.096   2.323
 2315SOL     OW 7506   2.938   2.545   3.326
 2315SOL    HW1 7507   2.858   2.484   3.329
 2315SOL    HW2 7508   3.019   2.492   3.302
 2316SOL     OW 7509   3.089   3.432   2.655
 2316SOL    HW1 7510   3.110   3.506   2.590
 2316SOL    HW2 7511   3.157   3.432   2.728
 2317SOL     OW 7512   2.321   3.014   2.603
 2317SOL    HW1 7513   2.250   2.987   2.668
 2317SOL    HW2 7514   2.295   2.986   2.510
 2318SOL     OW 7515   3.133   3.659   2.453
 2318SOL    HW1 7516   3.177   3.723   2.389
 2318SOL    HW2 7517   3.083   3.711   2.523
 2319SOL     OW 7518   2.894   2.411   1.878
 2319SOL    HW1 7519   2.853   2.493   1.839
 2319SOL    HW2 7520   2.958   2.437   1.951
 2320SOL     OW 7521   1.940   2.418   3.248
 2320SOL    HW1 7522   2.032   2.417   3.207
 2320SOL    HW2 7523   1.934   2.492   3.315
 2321SOL     OW 7524   2.423   2.084   3.009
 2321SOL    HW1 7525   2.461   2.000   3.046
 2321SOL    HW2 7526   2.335   2.103   3.053
 2322SOL     OW 7527   2.879   1.901   2.615
 2322SOL    HW1 7528   2.807   1.906   2.546
 2322SOL    HW2 7529   2.855   1.832   2.684
 2323SOL     OW 7530   3.291   3.035   2.729
 2323SOL    HW1 7531   3.236   2.951   2.722
 2323SOL    HW2 7532   3.317   3.064   2.637
 2324SOL     OW 7533   3.328   2.452   2.854
 2324SOL    HW1 7534   3.298   2.357   2.861
 2324SOL    HW2 7535   3.401   2.468   2.920
 2325SOL     OW 7536   3.719   2.695   2.239
 2325SOL    HW1 7537   3.761   2.631   2.303
 2325SOL    HW2 7538   3.681   2.644   2.161
 2326SOL     OW 7539   2.350   3.247   2.036
 2326SOL    HW1 7540   2.263   3.232   2.083
 2326SOL    HW2 7541   2.333   3.273   1.941
 2327SOL     OW 7542   3.526   3.142   2.519
 2327SOL    HW1 7543   3.625   3.150   2.533
 2327SOL    HW2 7544   3.481   3.226   2.550
 2328SOL     OW 7545   3.252   2.437   1.940
 2328SOL    HW1 7546   3.198   2.416   2.021
 2328SOL    HW2 7547   3.343   2.396   1.949
 2329SOL     OW 7548   2.389   2.118   2.190
 2329SOL    HW1 7549   2.416   2.059   2.115
 2329SOL    HW2 7550   2.389   2.213   2.159
 2330SOL     OW 7551   3.616   3.085   3.450
 2330SOL    HW1 7552   3.707   3.046   3.437
 2330SOL    HW2 7553   3.624   3.181   3.474
 2331SOL     OW 7554   2.926   3.209   3.202
 2331SOL    HW1 7555   2.846   3.186   3.257
 2331SOL    HW2 7556   3.009   3.183   3.251
 2332SOL     OW 7557   3.454   3.491   3.487
 2332SOL    HW1 7558   3.481   3.525   3.397
 2332SOL    HW2 7559   3.533   3.453   3.533
 2333SOL     OW 7560   2.973   3.057   2.962
 2333SOL    HW1 7561   2.933   3.101   3.043
 2333SOL    HW2 7562   2.932   3.094   2.879
 2334SOL     OW 7563   3.500   2.961   2.941
 2334SOL    HW1 7564   3.505   3.042   3.000
 2334SOL    HW2 7565   3.414   2.963   2.890
 2335SOL     OW 7566   2.777   1.951   3.264
 2335SOL    HW1 7567   2.802   1.931   3.169
 2335SOL    HW2 7568   2.849   2.007   3.306
 2336SOL     OW 7569   2.842   2.978   3.581
 2336SOL    HW1 7570   2.743   2.984   3.591
 2336SOL    HW2 7571   2.865   2.898   3.525
 2337SOL     OW 7572   2.272   2.675   3.113
 2337SOL    HW1 7573   2.358   2.687   3.163
 2337SOL    HW2 7574   2.230   2.588   3.140
 2338SOL     OW 7575   3.136   2.248   3.124
 2338SOL    HW1 7576   3.157   2.322   3.188
 2338SOL    HW2 7577   3.047   2.265   3.081
 2339SOL     OW 7578   1.926   3.426   3.193
 2339SOL    HW1 7579   1.880   3.508   3.159
 2339SOL    HW2 7580   2.024   3.445   3.202
 2340SOL     OW 7581   2.229   2.962   2.363
 2340SOL    HW1 7582   2.222   3.045   2.307
 2340SOL    HW2 7583   2.233   2.882   2.303
 2341SOL     OW 7584   3.114   3.210   2.250
 2341SOL    HW1 7585   3.164   3.287   2.290
 2341SOL    HW2 7586   3.019   3.212   2.282
 2342SOL     OW 7587   3.134   3.307   3.004
 2342SOL    HW1 7588   3.181   3.320   3.091
 2342SOL    HW2 7589   3.068   3.233   3.013
 2343SOL     OW 7590   3.444   2.501   2.334
 2343SOL    HW1 7591   3.413   2.562   2.407
 2343SOL    HW2 7592   3.494   2.553   2.265
 2344SOL     OW 7593   2.216   3.372   3.191
 2344SOL    HW1 7594   2.195   3.328   3.104
 2344SOL    HW2 7595   2.313   3.398   3.194
 2345SOL     OW 7596   2.264   2.613   3.460
 2345SOL    HW1 7597   2.332   2.668   3.413
 2345SOL    HW2 7598   2.304   2.525   3.487
 2346SOL     OW 7599   3.449   2.641   3.532
 2346SOL    HW1 7600   3.357   2.679   3.527
 2346SOL    HW2 7601   3.509   2.688   3.467
 2347SOL     OW 7602   2.875   1.967   3.632
 2347SOL    HW1 7603   2.881   2.052   3.580
 2347SOL    HW2 7604   2.907   1.891   3.575
 2348SOL     OW 7605   2.366   1.912   3.602
 2348SOL    HW1 7606   2.324   1.855   3.532
 2348SOL    HW2 7607   2.300   1.981   3.634
 2349SOL     OW 7608   2.435   2.732   2.891
 2349SOL    HW1 7609   2.479   2.821   2.882
 2349SOL    HW2 7610   2.372   2.732   2.968
 2350SOL     OW 7611   3.222   2.724   2.907
 2350SOL    HW1 7612   3.147   2.724   2.841
 2350SOL    HW2 7613   3.259   2.632   2.916
 2351SOL     OW 7614   3.071   2.387   2.137
 2351SOL    HW1 7615   3.084   2.303   2.191
 2351SOL    HW2 7616   3.042   2.461   2.197
 2352SOL     OW 7617   2.169   2.075   3.093
 2352SOL    HW1 7618   2.146   2.112   3.183
 2352SOL    HW2 7619   2.139   1.980   3.087
 2353SOL     OW 7620   1.899   3.172   3.144
 2353SOL    HW1 7621   1.952   3.123   3.212
 2353SOL    HW2 7622   1.921   3.270   3.149
 2354SOL     OW 7623   3.590   2.797   3.716
 2354SOL    HW1 7624   3.544   2.790   3.627
 2354SOL    HW2 7625   3.528   2.841   3.782
 2355SOL     OW 7626   2.169   1.925   2.480
 2355SOL    HW1 7627   2.158   2.019   2.513
 2355SOL    HW2 7628   2.164   1.862   2.557
 2356SOL     OW 7629   3.484   2.229   2.236
 2356SOL    HW1 7630   3.486   2.153   2.300
 2356SOL    HW2 7631   3.436   2.306   2.276
 2357SOL     OW 7632   2.885   2.628   2.828
 2357SOL    HW1 7633   2.900   2.649   2.924
 2357SOL    HW2 7634   2.855   2.533   2.819
 2358SOL     OW 7635   2.842   3.435   3.562
 2358SOL    HW1 7636   2.822   3.479   3.474
 2358SOL    HW2 7637   2.881   3.344   3.546
 2359SOL     OW 7638   3.721   3.380   3.467
 2359SOL    HW1 7639   3.735   3.407   3.372
 2359SOL    HW2 7640   3.804   3.402   3.520
 2360SOL     OW 7641   2.212   2.760   3.666
 2360SOL    HW1 7642   2.288   2.804   3.714
 2360SOL    HW2 7643   2.247   2.713   3.584
 2361SOL     OW 7644   3.402   2.136   1.987
 2361SOL    HW1 7645   3.341   2.061   2.010
 2361SOL    HW2 7646   3.424   2.188   2.070
 2362SOL     OW 7647   3.165   2.700   1.904
 2362SOL    HW1 7648   3.199   2.607   1.919
 2362SOL    HW2 7649   3.183   2.727   1.809
 2363SOL     OW 7650   2.930   3.195   2.711
 2363SOL    HW1 7651   2.937   3.111   2.656
 2363SOL    HW2 7652   2.992   3.264   2.675
 2364SOL     OW 7653   2.181   2.672   2.811
 2364SOL    HW1 7654   2.274   2.708   2.816
 2364SOL    HW2 7655   2.175   2.587   2.863
 2365SOL     OW 7656   2.201   2.371   2.868
 2365SOL    HW1 7657   2.149   2.288   2.851
 2365SOL    HW2 7658   2.278   2.376   2.804
 2366SOL     OW 7659   3.000   2.242   3.540
 2366SOL    HW1 7660   2.955   2.305   3.604
 2366SOL    HW2 7661   3.093   2.273   3.523
 2367SOL     OW 7662   3.022   2.069   3.339
 2367SOL    HW1 7663   3.022   2.133   3.416
 2367SOL    HW2 7664   3.050   2.117   3.256
 2368SOL     OW 7665   1.870   3.188   2.062
 2368SOL    HW1 7666   1.777   3.209   2.031
 2368SOL    HW2 7667   1.880   3.089   2.075
 2369SOL     OW 7668   1.950   3.663   2.789
 2369SOL    HW1 7669   1.908   3.577   2.762
 2369SOL    HW2 7670   2.044   3.666   2.755
 2370SOL     OW 7671   2.366   3.430   2.772
 2370SOL    HW1 7672   2.432   3.504   2.781
 2370SOL    HW2 7673   2.410   3.351   2.730
 2371SOL     OW 7674   2.864   2.658   3.100
 2371SOL    HW1 7675   2.905   2.626   3.186
 2371SOL    HW2 7676   2.768   2.631   3.097
 2372SOL     OW 7677   1.902   2.406   2.976
 2372SOL    HW1 7678   1.987   2.373   2.935
 2372SOL    HW2 7679   1.915   2.421   3.074
 2373SOL     OW 7680   2.051   2.382   3.584
 2373SOL    HW1 7681   2.110   2.342   3.514
 2373SOL    HW2 7682   1.993   2.453   3.543
 2374SOL     OW 7683   3.231   2.812   3.522
 2374SOL    HW1 7684   3.270   2.901   3.542
 2374SOL    HW2 7685   3.241   2.792   3.425
 2375SOL     OW 7686   2.677   2.434   2.187
 2375SOL    HW1 7687   2.684   2.345   2.141
 2375SOL    HW2 7688   2.583   2.468   2.179
 2376SOL     OW 7689   3.519   2.466   3.068
 2376SOL    HW1 7690   3.481   2.397   3.130
 2376SOL    HW2 7691   3.601   2.430   3.024
 2377SOL     OW 7692   2.114   3.426   3.606
 2377SOL    HW1 7693   2.084   3.483   3.682
 2377SOL    HW2 7694   2.107   3.329   3.632
 2378SOL     OW 7695   2.533   2.326   3.131
 2378SOL    HW1 7696   2.499   2.237   3.101
 2378SOL    HW2 7697   2.559   2.380   3.051
 2379SOL     OW 7698   2.792   3.540   3.327
 2379SOL    HW1 7699   2.768   3.522   3.232
 2379SOL    HW2 7700   2.822   3.634   3.337
 2380SOL     OW 7701   2.335   2.362   2.053
 2380SOL    HW1 7702   2.396   2.442   2.057
 2380SOL    HW2 7703   2.240   2.393   2.060
 2381SOL     OW 7704   2.021   2.999   3.328
 2381SOL    HW1 7705   2.043   2.938   3.404
 2381SOL    HW2 7706   2.031   2.950   3.242
 2382SOL     OW 7707   3.209   2.921   3.096
 2382SOL    HW1 7708   3.233   2.858   3.022
 2382SOL    HW2 7709   3.119   2.961   3.078
 2383SOL     OW 7710   3.164   2.717   2.171
 2383SOL    HW1 7711   3.078   2.686   2.213
 2383SOL    HW2 7712   3.160   2.703   2.072
 2384SOL     OW 7713   3.621   3.609   3.016
 2384SOL    HW1 7714   3.682   3.639   2.943
 2384SOL    HW2 7715   3.583   3.520   2.994
 2385SOL     OW 7716   3.114   3.593   2.990
 2385SOL    HW1 7717   3.198   3.598   2.936
 2385SOL    HW2 7718   3.091   3.497   3.008
 2386SOL     OW 7719   1.945   3.120   2.884
 2386SOL    HW1 7720   1.940   3.119   2.984
 2386SOL    HW2 7721   1.862   3.079   2.846
 2387SOL     OW 7722   2.550   3.524   3.578
 2387SOL    HW1 7723   2.494   3.605   3.587
 2387SOL    HW2 7724   2.602   3.528   3.492
 2388SOL     OW 7725   3.588   1.997   2.385
 2388SOL    HW1 7726   3.661   1.980   2.318
 2388SOL    HW2 7727   3.557   1.910   2.423
 2389SOL     OW 7728   3.250   3.435   2.339
 2389SOL    HW1 7729   3.317   3.447   2.265
 2389SOL    HW2 7730   3.210   3.524   2.362
 2390SOL     OW 7731   1.992   3.656   3.713
 2390SOL    HW1 7732   1.951   3.582   3.766
 2390SOL    HW2 7733   2.056   3.707   3.771
 2391SOL     OW 7734   3.142   2.789   2.534
 2391SOL    HW1 7735   3.202   2.708   2.536
 2391SOL    HW2 7736   3.182   2.858   2.474
 2392SOL     OW 7737   2.692   3.135   3.284
 2392SOL    HW1 7738   2.687   3.168   3.379
 2392SOL    HW2 7739   2.606   3.154   3.238
 2393SOL     OW 7740   2.534   3.478   2.016
 2393SOL    HW1 7741   2.543   3.488   1.917
 2393SOL    HW2 7742   2.494   3.389   2.037
 2394SOL     OW 7743   3.512   3.582   3.256
 2394SOL    HW1 7744   3.565   3.592   3.172
 2394SOL    HW2 7745   3.485   3.672   3.290
 2395SOL     OW 7746   3.703   2.037   2.825
 2395SOL    HW1 7747   3.742   1.952   2.789
 2395SOL    HW2 7748   3.605   2.039   2.806
 2396SOL     OW 7749   2.684   2.864   3.234
 2396SOL    HW1 7750   2.724   2.863   3.142
 2396SOL    HW2 7751   2.694   2.956   3.274
 2397SOL     OW 7752   2.778   2.772   2.153
 2397SOL    HW1 7753   2.841   2.810   2.085
 2397SOL    HW2 7754   2.818   2.689   2.192
 2398SOL     OW 7755   3.366   3.469   1.906
 2398SOL    HW1 7756   3.274   3.506   1.913
 2398SOL    HW2 7757   3.404   3.489   1.816
 2399SOL     OW 7758   2.234   3.150   3.352
 2399SOL    HW1 7759   2.221   3.243   3.318
 2399SOL    HW2 7760   2.150   3.098   3.339
 2400SOL     OW 7761   3.476   3.154   3.151
 2400SOL    HW1 7762   3.536   3.157   3.231
 2400SOL    HW2 7763   3.401   3.218   3.164
 2401SOL     OW 7764   2.901   2.960   2.558
 2401SOL    HW1 7765   2.831   2.913   2.612
 2401SOL    HW2 7766   2.960   2.892   2.515
 2402SOL     OW 7767   2.876   2.098   2.833
 2402SOL    HW1 7768   2.868   2.062   2.740
 2402SOL    HW2 7769   2.874   2.022   2.898
 2403SOL     OW 7770   2.452   3.349   2.353
 2403SOL    HW1 7771   2.494   3.291   2.283
 2403SOL    HW2 7772   2.408   3.428   2.309
 2404SOL     OW 7773   3.571   2.247   3.243
 2404SOL    HW1 7774   3.644   2.316   3.247
 2404SOL    HW2 7775   3.599   2.172   3.184
 2405SOL     OW 7776   2.117   3.210   2.152
 2405SOL    HW1 7777   2.021   3.211   2.125
 2405SOL    HW2 7778   2.129   3.263   2.236
 2406SOL     OW 7779   1.967   2.875   3.588
 2406SOL    HW1 7780   1.890   2.842   3.642
 2406SOL    HW2 7781   2.052   2.845   3.630
 2407SOL     OW 7782   2.534   2.065   3.351
 2407SOL    HW1 7783   2.624   2.049   3.311
 2407SOL    HW2 7784   2.542   2.070   3.450
 2408SOL     OW 7785   1.937   2.207   1.895
 2408SOL    HW1 7786   1.845   2.179   1.866
 2408SOL    HW2 7787   1.968   2.284   1.839
 2409SOL     OW 7788   3.302   2.718   3.260
 2409SOL    HW1 7789   3.245   2.770   3.197
 2409SOL    HW2 7790   3.398   2.730   3.236
 2410SOL     OW 7791   1.934   2.028   2.180
 2410SOL    HW1 7792   1.917   2.111   2.126
 2410SOL    HW2 7793   2.024   1.991   2.158
 2411SOL     OW 7794   3.045   3.197   1.981
 2411SOL    HW1 7795   2.946   3.186   1.983
 2411SOL    HW2 7796   3.079   3.212   2.074
 2412SOL     OW 7797   2.475   2.704   3.293
 2412SOL    HW1 7798   2.531   2.785   3.276
 2412SOL    HW2 7799   2.534   2.624   3.296
 2413SOL     OW 7800   3.355   3.629   2.821
 2413SOL    HW1 7801   3.388   3.693   2.752
 2413SOL    HW2 7802   3.421   3.623   2.896
 2414SOL     OW 7803   2.578   2.427   3.570
 2414SOL    HW1 7804   2.597   2.492   3.644
 2414SOL    HW2 7805   2.638   2.347   3.579
 2415SOL     OW 7806   3.312   3.082   3.495
 2415SOL    HW1 7807   3.303   3.072   3.594
 2415SOL    HW2 7808   3.408   3.075   3.469
 2416SOL     OW 7809   2.252   3.603   3.422
 2416SOL    HW1 7810   2.161   3.644   3.420
 2416SOL    HW2 7811   2.245   3.509   3.454
 2417SOL     OW 7812   3.536   2.745   3.116
 2417SOL    HW1 7813   3.509   2.656   3.079
 2417SOL    HW2 7814   3.537   2.813   3.043
 2418SOL     OW 7815   3.087   2.187   2.311
 2418SOL    HW1 7816   3.152   2.113   2.300
 2418SOL    HW2 7817   3.107   2.237   2.395
 2419SOL     OW 7818   3.639   2.204   3.504
 2419SOL    HW1 7819   3.622   2.235   3.410
 2419SOL    HW2 7820   3.555   2.167   3.542
 2420SOL     OW 7821   3.592   2.796   3.379
 2420SOL    HW1 7822   3.630   2.887   3.394
 2420SOL    HW2 7823   3.584   2.779   3.280
 2421SOL     OW 7824   2.721   3.236   1.878
 2421SOL    HW1 7825   2.675   3.251   1.966
 2421SOL    HW2 7826   2.765   3.321   1.848
 2422SOL     OW 7827   2.523   3.652   2.815
 2422SOL    HW1 7828   2.477   3.740   2.802
 2422SOL    HW2 7829   2.622   3.664   2.808
 2423SOL     OW 7830   2.945   2.846   1.949
 2423SOL    HW1 7831   2.922   2.899   1.867
 2423SOL    HW2 7832   3.026   2.790   1.930
 2424SOL     OW 7833   3.723   3.431   2.713
 2424SOL    HW1 7834   3.652   3.419   2.643
 2424SOL    HW2 7835   3.724   3.352   2.773
 2425SOL     OW 7836   2.083   3.176   3.706
 2425SOL    HW1 7837   2.018   3.103   3.685
 2425SOL    HW2 7838   2.087   3.190   3.804
 2426SOL     OW 7839   1.941   3.102   2.515
 2426SOL    HW1 7840   1.940   3.055   2.603
 2426SOL    HW2 7841   2.023   3.074   2.464
 2427SOL     OW 7842   2.534   3.253   3.486
 2427SOL    HW1 7843   2.456   3.203   3.524
 2427SOL    HW2 7844   2.531   3.348   3.517
 2428SOL     OW 7845   3.686   2.054   3.089
 2428SOL    HW1 7846   3.682   1.964   3.133
 2428SOL    HW2 7847   3.689   2.043   2.990
 2429SOL     OW 7848   3.567   3.349   2.966
 2429SOL    HW1 7849   3.474   3.324   2.939
 2429SOL    HW2 7850   3.593   3.299   3.048
 2430SOL     OW 7851   2.179   2.409   3.142
 2430SOL    HW1 7852   2.217   2.350   3.214
 2430SOL    HW2 7853   2.219   2.383   3.054
 2431SOL     OW 7854   2.674   3.448   2.549
 2431SOL    HW1 7855   2.706   3.458   2.455
 2431SOL    HW2 7856   2.595   3.386   2.551
 2432SOL     OW 7857   3.286   2.076   2.974
 2432SOL    HW1 7858   3.338   2.011   3.029
 2432SOL    HW2 7859   3.237   2.139   3.035
 2433SOL     OW 7860   2.863   1.896   3.016
 2433SOL    HW1 7861   2.800   1.824   2.985
 2433SOL    HW2 7862   2.956   1.860   3.016
 2434SOL     OW 7863   2.632   3.192   2.163
 2434SOL    HW1 7864   2.586   3.105   2.180
 2434SOL    HW2 7865   2.723   3.189   2.204
 2435SOL     OW 7866   2.480   3.429   3.146
 2435SOL    HW1 7867   2.475   3.511   3.203
 2435SOL    HW2 7868   2.569   3.426   3.101
 2436SOL     OW 7869   3.214   1.914   2.030
 2436SOL    HW1 7870   3.249   1.873   1.946
 2436SOL    HW2 7871   3.124   1.876   2.050
 2437SOL     OW 7872   3.455   2.083   2.744
 2437SOL    HW1 7873   3.371   2.082   2.798
 2437SOL    HW2 7874   3.457   2.166   2.688
 2438SOL     OW 7875   1.901   2.939   2.162
 2438SOL    HW1 7876   2.000   2.928   2.153
 2438SOL    HW2 7877   1.861   2.853   2.194
 2439SOL     OW 7878   2.737   3.508   2.199
 2439SOL    HW1 7879   2.660   3.473   2.145
 2439SOL    HW2 7880   2.705   3.579   2.261
 2440SOL     OW 7881   2.092   2.490   3.837
 2440SOL    HW1 7882   1.999   2.488   3.874
 2440SOL    HW2 7883   2.093   2.451   3.745
 2441SOL     OW 7884   2.087   2.137   4.720
 2441SOL    HW1 7885   2.122   2.120   4.812
 2441SOL    HW2 7886   1.999   2.092   4.708
 2442SOL     OW 7887   1.881   2.230   4.371
 2442SOL    HW1 7888   1.799   2.273   4.410
 2442SOL    HW2 7889   1.853   2.157   4.308
 2443SOL     OW 7890   2.431   3.137   4.889
 2443SOL    HW1 7891   2.338   3.130   4.852
 2443SOL    HW2 7892   2.442   3.226   4.933
 2444SOL     OW 7893   3.417   3.373   4.427
 2444SOL    HW1 7894   3.360   3.357   4.508
 2444SOL    HW2 7895   3.358   3.383   4.347
 2445SOL     OW 7896   2.997   2.565   4.441
 2445SOL    HW1 7897   3.054   2.643   4.416
 2445SOL    HW2 7898   2.937   2.591   4.517
 2446SOL     OW 7899   3.617   2.469   3.955
 2446SOL    HW1 7900   3.605   2.456   3.856
 2446SOL    HW2 7901   3.587   2.388   4.004
 2447SOL     OW 7902   2.630   3.006   4.747
 2447SOL    HW1 7903   2.552   3.023   4.807
 2447SOL    HW2 7904   2.664   3.093   4.711
 2448SOL     OW 7905   2.547   2.874   4.389
 2448SOL    HW1 7906   2.616   2.858   4.459
 2448SOL    HW2 7907   2.474   2.931   4.427
 2449SOL     OW 7908   2.197   3.297   4.785
 2449SOL    HW1 7909   2.119   3.266   4.732
 2449SOL    HW2 7910   2.255   3.355   4.728
 2450SOL     OW 7911   3.465   2.309   4.461
 2450SOL    HW1 7912   3.391   2.355   4.411
 2450SOL    HW2 7913   3.516   2.377   4.514
 2451SOL     OW 7914   2.093   3.575   4.207
 2451SOL    HW1 7915   2.127   3.652   4.261
 2451SOL    HW2 7916   2.137   3.575   4.117
 2452SOL     OW 7917   2.092   3.296   4.262
 2452SOL    HW1 7918   2.066   3.392   4.262
 2452SOL    HW2 7919   2.021   3.242   4.307
 2453SOL     OW 7920   2.102   2.953   4.610
 2453SOL    HW1 7921   2.116   2.869   4.662
 2453SOL    HW2 7922   2.047   3.017   4.665
 2454SOL     OW 7923   2.482   3.648   5.163
 2454SOL    HW1 7924   2.390   3.631   5.198
 2454SOL    HW2 7925   2.510   3.740   5.189
 2455SOL     OW 7926   2.468   2.826   3.847
 2455SOL    HW1 7927   2.475   2.910   3.793
 2455SOL    HW2 7928   2.514   2.839   3.935
 2456SOL     OW 7929   1.984   2.505   4.287
 2456SOL    HW1 7930   1.939   2.417   4.304
 2456SOL    HW2 7931   1.983   2.559   4.371
 2457SOL     OW 7932   3.704   3.629   4.083
 2457SOL    HW1 7933   3.758   3.600   4.163
 2457SOL    HW2 7934   3.734   3.719   4.054
 2458SOL     OW 7935   1.889   3.458   3.841
 2458SOL    HW1 7936   1.870   3.362   3.862
 2458SOL    HW2 7937   1.856   3.516   3.916
 2459SOL     OW 7938   3.551   2.784   4.336
 2459SOL    HW1 7939   3.646   2.755   4.344
 2459SOL    HW2 7940   3.543   2.849   4.261
 2460SOL     OW 7941   3.503   2.970   4.156
 2460SOL    HW1 7942   3.589   2.972   4.104
 2460SOL    HW2 7943   3.517   3.017   4.244
 2461SOL     OW 7944   2.475   3.227   4.450
 2461SOL    HW1 7945   2.426   3.140   4.459
 2461SOL    HW2 7946   2.452   3.270   4.363
 2462SOL     OW 7947   2.671   1.866   4.226
 2462SOL    HW1 7948   2.711   1.957   4.217
 2462SOL    HW2 7949   2.571   1.874   4.232
 2463SOL     OW 7950   2.059   2.838   4.988
 2463SOL    HW1 7951   2.148   2.793   4.974
 2463SOL    HW2 7952   1.986   2.773   4.969
 2464SOL     OW 7953   3.387   2.861   3.914
 2464SOL    HW1 7954   3.324   2.785   3.927
 2464SOL    HW2 7955   3.435   2.879   4.000
 2465SOL     OW 7956   3.328   3.279   4.677
 2465SOL    HW1 7957   3.269   3.285   4.757
 2465SOL    HW2 7958   3.313   3.191   4.631
 2466SOL     OW 7959   3.529   3.576   4.296
 2466SOL    HW1 7960   3.488   3.553   4.208
 2466SOL    HW2 7961   3.511   3.502   4.361
 2467SOL     OW 7962   2.460   2.591   3.994
 2467SOL    HW1 7963   2.484   2.660   3.926
 2467SOL    HW2 7964   2.382   2.624   4.048
 2468SOL     OW 7965   3.143   2.207   4.668
 2468SOL    HW1 7966   3.057   2.157   4.655
 2468SOL    HW2 7967   3.205   2.153   4.724
 2469SOL     OW 7968   3.438   3.524   4.031
 2469SOL    HW1 7969   3.527   3.570   4.034
 2469SOL    HW2 7970   3.417   3.500   3.936
 2470SOL     OW 7971   2.853   2.272   4.966
 2470SOL    HW1 7972   2.776   2.306   5.020
 2470SOL    HW2 7973   2.819   2.221   4.887
 2471SOL     OW 7974   2.903   2.563   4.153
 2471SOL    HW1 7975   2.929   2.559   4.249
 2471SOL    HW2 7976   2.818   2.512   4.139
 2472SOL     OW 7977   1.938   2.673   4.513
 2472SOL    HW1 7978   2.037   2.661   4.522
 2472SOL    HW2 7979   1.914   2.768   4.534
 2473SOL     OW 7980   2.727   2.210   3.919
 2473SOL    HW1 7981   2.786   2.273   3.870
 2473SOL    HW2 7982   2.746   2.116   3.890
 2474SOL     OW 7983   3.224   3.006   4.269
 2474SOL    HW1 7984   3.307   2.977   4.221
 2474SOL    HW2 7985   3.175   3.073   4.213
 2475SOL     OW 7986   2.412   2.058   4.609
 2475SOL    HW1 7987   2.407   2.053   4.709
 2475SOL    HW2 7988   2.414   2.154   4.580
 2476SOL     OW 7989   2.870   3.318   4.201
 2476SOL    HW1 7990   2.824   3.390   4.149
 2476SOL    HW2 7991   2.866   3.338   4.299
 2477SOL     OW 7992   2.213   3.663   4.577
 2477SOL    HW1 7993   2.263   3.577   4.583
 2477SOL    HW2 7994   2.278   3.740   4.574
 2478SOL     OW 7995   3.657   2.928   4.597
 2478SOL    HW1 7996   3.595   2.913   4.521
 2478SOL    HW2 7997   3.605   2.939   4.682
 2479SOL     OW 7998   2.183   2.805   3.966
 2479SOL    HW1 7999   2.265   2.844   3.924
 2479SOL    HW2 8000   2.156   2.723   3.917
 2480SOL     OW 8001   3.320   2.597   4.452
 2480SOL    HW1 8002   3.315   2.532   4.527
 2480SOL    HW2 8003   3.400   2.656   4.465
 2481SOL     OW 8004   2.973   3.638   3.961
 2481SOL    HW1 8005   2.913   3.576   4.011
 2481SOL    HW2 8006   3.004   3.594   3.876
 2482SOL     OW 8007   3.494   3.239   3.805
 2482SOL    HW1 8008   3.462   3.333   3.795
 2482SOL    HW2 8009   3.418   3.176   3.793
 2483SOL     OW 8010   2.326   3.605   4.047
 2483SOL    HW1 8011   2.359   3.644   4.133
 2483SOL    HW2 8012   2.402   3.598   3.982
 2484SOL     OW 8013   3.262   1.969   4.150
 2484SOL    HW1 8014   3.238   1.932   4.060
 2484SOL    HW2 8015   3.361   1.985   4.154
 2485SOL     OW 8016   2.111   3.647   4.965
 2485SOL    HW1 8017   2.168   3.582   5.015
 2485SOL    HW2 8018   2.095   3.614   4.872
 2486SOL     OW 8019   2.802   3.560   4.628
 2486SOL    HW1 8020   2.882   3.503   4.649
 2486SOL    HW2 8021   2.753   3.520   4.551
 2487SOL     OW 8022   2.244   2.562   4.204
 2487SOL    HW1 8023   2.289   2.472   4.201
 2487SOL    HW2 8024   2.150   2.551   4.237
 2488SOL     OW 8025   2.476   1.984   3.841
 2488SOL    HW1 8026   2.574   1.962   3.848
 2488SOL    HW2 8027   2.445   1.967   3.748
 2489SOL     OW 8028   2.665   3.264   4.648
 2489SOL    HW1 8029   2.755   3.278   4.606
 2489SOL    HW2 8030   2.594   3.266   4.577
 2490SOL     OW 8031   2.784   2.365   4.623
 2490SOL    HW1 8032   2.759   2.356   4.527
 2490SOL    HW2 8033   2.832   2.283   4.654
 2491SOL     OW 8034   2.401   1.926   4.236
 2491SOL    HW1 8035   2.320   1.927   4.294
 2491SOL    HW2 8036   2.404   2.009   4.181
 2492SOL     OW 8037   3.296   3.050   3.765
 2492SOL    HW1 8038   3.328   2.974   3.822
 2492SOL    HW2 8039   3.204   3.077   3.795
 2493SOL     OW 8040   2.159   1.897   3.895
 2493SOL    HW1 8041   2.208   1.981   3.874
 2493SOL    HW2 8042   2.221   1.832   3.940
 2494SOL     OW 8043   2.797   2.098   4.204
 2494SOL    HW1 8044   2.749   2.139   4.126
 2494SOL    HW2 8045   2.896   2.096   4.185
 2495SOL     OW 8046   3.089   3.432   4.517
 2495SOL    HW1 8047   3.110   3.506   4.452
 2495SOL    HW2 8048   3.157   3.432   4.590
 2496SOL     OW 8049   2.321   3.014   4.465
 2496SOL    HW1 8050   2.250   2.987   4.530
 2496SOL    HW2 8051   2.295   2.986   4.372
 2497SOL     OW 8052   3.133   3.659   4.315
 2497SOL    HW1 8053   3.177   3.723   4.251
 2497SOL    HW2 8054   3.083   3.711   4.385
 2498SOL     OW 8055   2.894   2.411   3.740
 2498SOL    HW1 8056   2.853   2.493   3.701
 2498SOL    HW2 8057   2.958   2.437   3.813
 2499SOL     OW 8058   2.423   2.084   4.871
 2499SOL    HW1 8059   2.461   2.000   4.908
 2499SOL    HW2 8060   2.335   2.103   4.915
 2500SOL     OW 8061   2.728   2.316   4.366
 2500SOL    HW1 8062   2.696   2.388   4.304
 2500SOL    HW2 8063   2.752   2.235   4.313
 2501SOL     OW 8064   2.879   1.901   4.477
 2501SOL    HW1 8065   2.807   1.906   4.408
 2501SOL    HW2 8066   2.855   1.832   4.546
 2502SOL     OW 8067   3.291   3.035   4.591
 2502SOL    HW1 8068   3.236   2.951   4.584
 2502SOL    HW2 8069   3.317   3.064   4.499
 2503SOL     OW 8070   3.328   2.452   4.716
 2503SOL    HW1 8071   3.298   2.357   4.723
 2503SOL    HW2 8072   3.401   2.468   4.782
 2504SOL     OW 8073   3.719   2.695   4.101
 2504SOL    HW1 8074   3.761   2.631   4.165
 2504SOL    HW2 8075   3.681   2.644   4.023
 2505SOL     OW 8076   2.350   3.247   3.898
 2505SOL    HW1 8077   2.263   3.232   3.945
 2505SOL    HW2 8078   2.333   3.273   3.803
 2506SOL     OW 8079   3.526   3.142   4.381
 2506SOL    HW1 8080   3.625   3.150   4.395
 2506SOL    HW2 8081   3.481   3.226   4.412
 2507SOL     OW 8082   3.252   2.437   3.802
 2507SOL    HW1 8083   3.198   2.416   3.883
 2507SOL    HW2 8084   3.343   2.396   3.811
 2508SOL     OW 8085   2.389   2.118   4.052
 2508SOL    HW1 8086   2.416   2.059   3.977
 2508SOL    HW2 8087   2.389   2.213   4.021
 2509SOL     OW 8088   2.973   3.057   4.824
 2509SOL    HW1 8089   2.933   3.101   4.905
 2509SOL    HW2 8090   2.932   3.094   4.741
 2510SOL     OW 8091   3.500   2.961   4.803
 2510SOL    HW1 8092   3.505   3.042   4.862
 2510SOL    HW2 8093   3.414   2.963   4.752
 2511SOL     OW 8094   2.567   2.912   4.092
 2511SOL    HW1 8095   2.553   2.919   4.191
 2511SOL    HW2 8096   2.651   2.861   4.074
 2512SOL     OW 8097   2.272   2.675   4.975
 2512SOL    HW1 8098   2.358   2.687   5.025
 2512SOL    HW2 8099   2.230   2.588   5.002
 2513SOL     OW 8100   3.136   2.248   4.986
 2513SOL    HW1 8101   3.157   2.322   5.050
 2513SOL    HW2 8102   3.047   2.265   4.943
 2514SOL     OW 8103   2.229   2.962   4.225
 2514SOL    HW1 8104   2.222   3.045   4.169
 2514SOL    HW2 8105   2.233   2.882   4.165
 2515SOL     OW 8106   2.428   2.399   4.589
 2515SOL    HW1 8107   2.440   2.465   4.515
 2515SOL    HW2 8108   2.474   2.433   4.672
 2516SOL     OW 8109   3.114   3.210   4.112
 2516SOL    HW1 8110   3.164   3.287   4.152
 2516SOL    HW2 8111   3.019   3.212   4.144
 2517SOL     OW 8112   3.134   3.307   4.866
 2517SOL    HW1 8113   3.181   3.320   4.953
 2517SOL    HW2 8114   3.068   3.233   4.875
 2518SOL     OW 8115   3.444   2.501   4.196
 2518SOL    HW1 8116   3.413   2.562   4.269
 2518SOL    HW2 8117   3.494   2.553   4.127
 2519SOL     OW 8118   2.216   3.372   5.053
 2519SOL    HW1 8119   2.195   3.328   4.966
 2519SOL    HW2 8120   2.313   3.398   5.056
 2520SOL     OW 8121   2.435   2.732   4.753
 2520SOL    HW1 8122   2.479   2.821   4.744
 2520SOL    HW2 8123   2.372   2.732   4.830
 2521SOL     OW 8124   3.222   2.724   4.769
 2521SOL    HW1 8125   3.147   2.724   4.703
 2521SOL    HW2 8126   3.259   2.632   4.778
 2522SOL     OW 8127   3.071   2.387   3.999
 2522SOL    HW1 8128   3.084   2.303   4.053
 2522SOL    HW2 8129   3.042   2.461   4.059
 2523SOL     OW 8130   2.169   2.075   4.955
 2523SOL    HW1 8131   2.146   2.112   5.045
 2523SOL    HW2 8132   2.139   1.980   4.949
 2524SOL     OW 8133   1.899   3.172   5.006
 2524SOL    HW1 8134   1.952   3.123   5.074
 2524SOL    HW2 8135   1.921   3.270   5.011
 2525SOL     OW 8136   2.594   2.496   4.788
 2525SOL    HW1 8137   2.653   2.470   4.712
 2525SOL    HW2 8138   2.566   2.592   4.777
 2526SOL     OW 8139   2.169   1.925   4.342
 2526SOL    HW1 8140   2.158   2.019   4.375
 2526SOL    HW2 8141   2.164   1.862   4.419
 2527SOL     OW 8142   3.484   2.229   4.098
 2527SOL    HW1 8143   3.486   2.153   4.162
 2527SOL    HW2 8144   3.436   2.306   4.138
 2528SOL     OW 8145   2.885   2.628   4.690
 2528SOL    HW1 8146   2.900   2.649   4.786
 2528SOL    HW2 8147   2.855   2.533   4.681
 2529SOL     OW 8148   3.402   2.136   3.849
 2529SOL    HW1 8149   3.341   2.061   3.872
 2529SOL    HW2 8150   3.424   2.188   3.932
 2530SOL     OW 8151   3.165   2.700   3.766
 2530SOL    HW1 8152   3.199   2.607   3.781
 2530SOL    HW2 8153   3.183   2.727   3.671
 2531SOL     OW 8154   2.930   3.195   4.573
 2531SOL    HW1 8155   2.937   3.111   4.518
 2531SOL    HW2 8156   2.992   3.264   4.537
 2532SOL     OW 8157   2.181   2.672   4.673
 2532SOL    HW1 8158   2.274   2.708   4.678
 2532SOL    HW2 8159   2.175   2.587   4.725
 2533SOL     OW 8160   2.201   2.371   4.730
 2533SOL    HW1 8161   2.149   2.288   4.713
 2533SOL    HW2 8162   2.278   2.376   4.666
 2534SOL     OW 8163   3.022   2.069   5.201
 2534SOL    HW1 8164   3.022   2.133   5.278
 2534SOL    HW2 8165   3.050   2.117   5.118
 2535SOL     OW 8166   1.870   3.188   3.924
 2535SOL    HW1 8167   1.777   3.209   3.893
 2535SOL    HW2 8168   1.880   3.089   3.937
 2536SOL     OW 8169   1.950   3.663   4.651
 2536SOL    HW1 8170   1.908   3.577   4.624
 2536SOL    HW2 8171   2.044   3.666   4.617
 2537SOL     OW 8172   2.366   3.430   4.634
 2537SOL    HW1 8173   2.432   3.504   4.643
 2537SOL    HW2 8174   2.410   3.351   4.592
 2538SOL     OW 8175   2.864   2.658   4.962
 2538SOL    HW1 8176   2.905   2.626   5.048
 2538SOL    HW2 8177   2.768   2.631   4.959
 2539SOL     OW 8178   1.902   2.406   4.838
 2539SOL    HW1 8179   1.987   2.373   4.797
 2539SOL    HW2 8180   1.915   2.421   4.936
 2540SOL     OW 8181   2.677   2.434   4.049
 2540SOL    HW1 8182   2.684   2.345   4.003
 2540SOL    HW2 8183   2.583   2.468   4.041
 2541SOL     OW 8184   3.519   2.466   4.930
 2541SOL    HW1 8185   3.481   2.397   4.992
 2541SOL    HW2 8186   3.601   2.430   4.886
 2542SOL     OW 8187   2.533   2.326   4.993
 2542SOL    HW1 8188   2.499   2.237   4.963
 2542SOL    HW2 8189   2.559   2.380   4.913
 2543SOL     OW 8190   2.792   3.540   5.189
 2543SOL    HW1 8191   2.768   3.522   5.094
 2543SOL    HW2 8192   2.822   3.634   5.199
 2544SOL     OW 8193   2.335   2.362   3.915
 2544SOL    HW1 8194   2.396   2.442   3.919
 2544SOL    HW2 8195   2.240   2.393   3.922
 2545SOL     OW 8196   3.209   2.921   4.958
 2545SOL    HW1 8197   3.233   2.858   4.884
 2545SOL    HW2 8198   3.119   2.961   4.940
 2546SOL     OW 8199   3.164   2.717   4.033
 2546SOL    HW1 8200   3.078   2.686   4.075
 2546SOL    HW2 8201   3.160   2.703   3.934
 2547SOL     OW 8202   3.621   3.609   4.878
 2547SOL    HW1 8203   3.682   3.639   4.805
 2547SOL    HW2 8204   3.583   3.520   4.856
 2548SOL     OW 8205   3.114   3.593   4.852
 2548SOL    HW1 8206   3.198   3.598   4.798
 2548SOL    HW2 8207   3.091   3.497   4.870
 2549SOL     OW 8208   1.945   3.120   4.746
 2549SOL    HW1 8209   1.940   3.119   4.846
 2549SOL    HW2 8210   1.862   3.079   4.708
 2550SOL     OW 8211   3.588   1.997   4.247
 2550SOL    HW1 8212   3.661   1.980   4.180
 2550SOL    HW2 8213   3.557   1.910   4.285
 2551SOL     OW 8214   3.250   3.435   4.201
 2551SOL    HW1 8215   3.317   3.447   4.127
 2551SOL    HW2 8216   3.210   3.524   4.224
 2552SOL     OW 8217   3.142   2.789   4.396
 2552SOL    HW1 8218   3.202   2.708   4.398
 2552SOL    HW2 8219   3.182   2.858   4.336
 2553SOL     OW 8220   2.534   3.478   3.878
 2553SOL    HW1 8221   2.543   3.488   3.779
 2553SOL    HW2 8222   2.494   3.389   3.899
 2554SOL     OW 8223   3.512   3.582   5.118
 2554SOL    HW1 8224   3.565   3.592   5.034
 2554SOL    HW2 8225   3.485   3.672   5.152
 2555SOL     OW 8226   3.703   2.037   4.687
 2555SOL    HW1 8227   3.742   1.952   4.651
 2555SOL    HW2 8228   3.605   2.039   4.668
 2556SOL     OW 8229   2.125   2.188   4.444
 2556SOL    HW1 8230   2.046   2.239   4.410
 2556SOL    HW2 8231   2.116   2.173   4.542
 2557SOL     OW 8232   3.056   3.474   3.755
 2557SOL    HW1 8233   3.062   3.381   3.792
 2557SOL    HW2 8234   2.997   3.474   3.675
 2558SOL     OW 8235   2.684   2.864   5.096
 2558SOL    HW1 8236   2.724   2.863   5.004
 2558SOL    HW2 8237   2.694   2.956   5.136
 2559SOL     OW 8238   2.778   2.772   4.015
 2559SOL    HW1 8239   2.841   2.810   3.947
 2559SOL    HW2 8240   2.818   2.689   4.054
 2560SOL     OW 8241   3.366   3.469   3.768
 2560SOL    HW1 8242   3.274   3.506   3.775
 2560SOL    HW2 8243   3.404   3.489   3.678
 2561SOL     OW 8244   2.901   2.960   4.420
 2561SOL    HW1 8245   2.831   2.913   4.474
 2561SOL    HW2 8246   2.960   2.892   4.377
 2562SOL     OW 8247   2.876   2.098   4.695
 2562SOL    HW1 8248   2.868   2.062   4.602
 2562SOL    HW2 8249   2.874   2.022   4.760
 2563SOL     OW 8250   2.452   3.349   4.215
 2563SOL    HW1 8251   2.494   3.291   4.145
 2563SOL    HW2 8252   2.408   3.428   4.171
 2564SOL     OW 8253   3.571   2.247   5.105
 2564SOL    HW1 8254   3.644   2.316   5.109
 2564SOL    HW2 8255   3.599   2.172   5.046
 2565SOL     OW 8256   2.117   3.210   4.014
 2565SOL    HW1 8257   2.021   3.211   3.987
 2565SOL    HW2 8258   2.129   3.263   4.098
 2566SOL     OW 8259   1.937   2.207   3.757
 2566SOL    HW1 8260   1.845   2.179   3.728
 2566SOL    HW2 8261   1.968   2.284   3.701
 2567SOL     OW 8262   1.934   2.028   4.042
 2567SOL    HW1 8263   1.917   2.111   3.988
 2567SOL    HW2 8264   2.024   1.991   4.020
 2568SOL     OW 8265   3.045   3.197   3.843
 2568SOL    HW1 8266   2.946   3.186   3.845
 2568SOL    HW2 8267   3.079   3.212   3.936
 2569SOL     OW 8268   3.355   3.629   4.683
 2569SOL    HW1 8269   3.388   3.693   4.614
 2569SOL    HW2 8270   3.421   3.623   4.758
 2570SOL     OW 8271   3.312   3.082   5.357
 2570SOL    HW1 8272   3.303   3.072   5.456
 2570SOL    HW2 8273   3.408   3.075   5.331
 2571SOL     OW 8274   3.536   2.745   4.978
 2571SOL    HW1 8275   3.509   2.656   4.941
 2571SOL    HW2 8276   3.537   2.813   4.905
 2572SOL     OW 8277   3.087   2.187   4.173
 2572SOL    HW1 8278   3.152   2.113   4.162
 2572SOL    HW2 8279   3.107   2.237   4.257
 2573SOL     OW 8280   2.456   2.607   4.376
 2573SOL    HW1 8281   2.506   2.692   4.357
 2573SOL    HW2 8282   2.368   2.609   4.328
 2574SOL     OW 8283   3.592   2.796   5.241
 2574SOL    HW1 8284   3.630   2.887   5.256
 2574SOL    HW2 8285   3.584   2.779   5.142
 2575SOL     OW 8286   2.721   3.236   3.740
 2575SOL    HW1 8287   2.675   3.251   3.828
 2575SOL    HW2 8288   2.765   3.321   3.710
 2576SOL     OW 8289   2.523   3.652   4.677
 2576SOL    HW1 8290   2.477   3.740   4.664
 2576SOL    HW2 8291   2.622   3.664   4.670
 2577SOL     OW 8292   2.721   2.818   4.585
 2577SOL    HW1 8293   2.775   2.749   4.633
 2577SOL    HW2 8294   2.689   2.887   4.651
 2578SOL     OW 8295   2.945   2.846   3.811
 2578SOL    HW1 8296   2.922   2.899   3.729
 2578SOL    HW2 8297   3.026   2.790   3.792
 2579SOL     OW 8298   3.723   3.431   4.575
 2579SOL    HW1 8299   3.652   3.419   4.505
 2579SOL    HW2 8300   3.724   3.352   4.635
 2580SOL     OW 8301   1.941   3.102   4.377
 2580SOL    HW1 8302   1.940   3.055   4.465
 2580SOL    HW2 8303   2.023   3.074   4.326
 2581SOL     OW 8304   3.686   2.054   4.951
 2581SOL    HW1 8305   3.682   1.964   4.995
 2581SOL    HW2 8306   3.689   2.043   4.852
 2582SOL     OW 8307   2.290   2.286   4.244
 2582SOL    HW1 8308   2.320   2.214   4.182
 2582SOL    HW2 8309   2.251   2.246   4.327
 2583SOL     OW 8310   3.567   3.349   4.828
 2583SOL    HW1 8311   3.474   3.324   4.801
 2583SOL    HW2 8312   3.593   3.299   4.910
 2584SOL     OW 8313   2.674   3.448   4.411
 2584SOL    HW1 8314   2.706   3.458   4.317
 2584SOL    HW2 8315   2.595   3.386   4.413
 2585SOL     OW 8316   3.286   2.076   4.836
 2585SOL    HW1 8317   3.338   2.011   4.891
 2585SOL    HW2 8318   3.237   2.139   4.897
 2586SOL     OW 8319   2.863   1.896   4.878
 2586SOL    HW1 8320   2.800   1.824   4.847
 2586SOL    HW2 8321   2.956   1.860   4.878
 2587SOL     OW 8322   2.632   3.192   4.025
 2587SOL    HW1 8323   2.586   3.105   4.042
 2587SOL    HW2 8324   2.723   3.189   4.066
 2588SOL     OW 8325   3.214   1.914   3.892
 2588SOL    HW1 8326   3.249   1.873   3.808
 2588SOL    HW2 8327   3.124   1.876   3.912
 2589SOL     OW 8328   3.162   2.315   4.415
 2589SOL    HW1 8329   3.103   2.395   4.419
 2589SOL    HW2 8330   3.177   2.280   4.508
 2590SOL     OW 8331   3.455   2.083   4.606
 2590SOL    HW1 8332   3.371   2.082   4.660
 2590SOL    HW2 8333   3.457   2.166   4.550
 2591SOL     OW 8334   1.901   2.939   4.024
 2591SOL    HW1 8335   2.000   2.928   4.015
 2591SOL    HW2 8336   1.861   2.853   4.056
 2592SOL     OW 8337   2.737   3.508   4.061
 2592SOL    HW1 8338   2.660   3.473   4.007
 2592SOL    HW2 8339   2.705   3.579   4.123
 2593SOL     OW 8340   2.087   3.999   0.996
 2593SOL    HW1 8341   2.122   3.982   1.088
 2593SOL    HW2 8342   1.999   3.954   0.984
 2594SOL     OW 8343   1.881   4.092   0.647
 2594SOL    HW1 8344   1.799   4.135   0.686
 2594SOL    HW2 8345   1.853   4.019   0.584
 2595SOL     OW 8346   2.431   4.999   1.165
 2595SOL    HW1 8347   2.338   4.992   1.128
 2595SOL    HW2 8348   2.442   5.088   1.209
 2596SOL     OW 8349   3.417   5.235   0.703
 2596SOL    HW1 8350   3.360   5.219   0.784
 2596SOL    HW2 8351   3.358   5.245   0.623
 2597SOL     OW 8352   2.997   4.427   0.717
 2597SOL    HW1 8353   3.054   4.505   0.692
 2597SOL    HW2 8354   2.937   4.453   0.793
 2598SOL     OW 8355   3.617   4.331   0.231
 2598SOL    HW1 8356   3.605   4.318   0.132
 2598SOL    HW2 8357   3.587   4.250   0.280
 2599SOL     OW 8358   2.630   4.868   1.023
 2599SOL    HW1 8359   2.552   4.885   1.083
 2599SOL    HW2 8360   2.664   4.955   0.987
 2600SOL     OW 8361   2.712   4.522   1.823
 2600SOL    HW1 8362   2.708   4.598   1.888
 2600SOL    HW2 8363   2.734   4.558   1.732
 2601SOL     OW 8364   2.547   4.736   0.665
 2601SOL    HW1 8365   2.616   4.720   0.735
 2601SOL    HW2 8366   2.474   4.793   0.703
 2602SOL     OW 8367   2.197   5.159   1.061
 2602SOL    HW1 8368   2.119   5.128   1.008
 2602SOL    HW2 8369   2.255   5.217   1.004
 2603SOL     OW 8370   2.300   4.116   1.499
 2603SOL    HW1 8371   2.382   4.060   1.508
 2603SOL    HW2 8372   2.219   4.058   1.503
 2604SOL     OW 8373   3.465   4.171   0.737
 2604SOL    HW1 8374   3.391   4.217   0.687
 2604SOL    HW2 8375   3.516   4.239   0.790
 2605SOL     OW 8376   2.102   4.815   0.886
 2605SOL    HW1 8377   2.116   4.731   0.938
 2605SOL    HW2 8378   2.047   4.879   0.941
 2606SOL     OW 8379   2.468   4.688   0.123
 2606SOL    HW1 8380   2.475   4.772   0.069
 2606SOL    HW2 8381   2.514   4.701   0.211
 2607SOL     OW 8382   1.984   4.367   0.563
 2607SOL    HW1 8383   1.939   4.279   0.580
 2607SOL    HW2 8384   1.983   4.421   0.647
 2608SOL     OW 8385   3.551   4.646   0.612
 2608SOL    HW1 8386   3.646   4.617   0.620
 2608SOL    HW2 8387   3.543   4.711   0.537
 2609SOL     OW 8388   3.503   4.832   0.432
 2609SOL    HW1 8389   3.589   4.834   0.380
 2609SOL    HW2 8390   3.517   4.879   0.520
 2610SOL     OW 8391   1.975   4.461   1.597
 2610SOL    HW1 8392   2.063   4.448   1.642
 2610SOL    HW2 8393   1.962   4.558   1.575
 2611SOL     OW 8394   3.155   4.952   1.423
 2611SOL    HW1 8395   3.192   4.879   1.365
 2611SOL    HW2 8396   3.207   4.957   1.508
 2612SOL     OW 8397   2.671   3.728   0.502
 2612SOL    HW1 8398   2.711   3.819   0.493
 2612SOL    HW2 8399   2.571   3.736   0.508
 2613SOL     OW 8400   2.059   4.700   1.264
 2613SOL    HW1 8401   2.148   4.655   1.250
 2613SOL    HW2 8402   1.986   4.635   1.245
 2614SOL     OW 8403   3.387   4.723   0.190
 2614SOL    HW1 8404   3.324   4.647   0.203
 2614SOL    HW2 8405   3.435   4.741   0.276
 2615SOL     OW 8406   2.179   3.975   1.801
 2615SOL    HW1 8407   2.250   4.046   1.807
 2615SOL    HW2 8408   2.091   4.014   1.829
 2616SOL     OW 8409   3.328   5.141   0.953
 2616SOL    HW1 8410   3.269   5.147   1.033
 2616SOL    HW2 8411   3.313   5.053   0.907
 2617SOL     OW 8412   3.143   4.069   0.944
 2617SOL    HW1 8413   3.057   4.019   0.931
 2617SOL    HW2 8414   3.205   4.015   1.000
 2618SOL     OW 8415   2.669   4.329   1.465
 2618SOL    HW1 8416   2.622   4.326   1.554
 2618SOL    HW2 8417   2.618   4.274   1.399
 2619SOL     OW 8418   3.256   4.193   1.674
 2619SOL    HW1 8419   3.236   4.236   1.762
 2619SOL    HW2 8420   3.334   4.131   1.683
 2620SOL     OW 8421   2.835   4.614   1.572
 2620SOL    HW1 8422   2.881   4.530   1.543
 2620SOL    HW2 8423   2.779   4.648   1.497
 2621SOL     OW 8424   2.853   4.134   1.242
 2621SOL    HW1 8425   2.776   4.168   1.296
 2621SOL    HW2 8426   2.819   4.083   1.163
 2622SOL     OW 8427   2.903   4.425   0.429
 2622SOL    HW1 8428   2.929   4.421   0.525
 2622SOL    HW2 8429   2.818   4.374   0.415
 2623SOL     OW 8430   1.938   4.535   0.789
 2623SOL    HW1 8431   2.037   4.523   0.798
 2623SOL    HW2 8432   1.914   4.630   0.810
 2624SOL     OW 8433   2.727   4.072   0.195
 2624SOL    HW1 8434   2.786   4.135   0.146
 2624SOL    HW2 8435   2.746   3.978   0.166
 2625SOL     OW 8436   3.581   4.309   1.831
 2625SOL    HW1 8437   3.555   4.398   1.795
 2625SOL    HW2 8438   3.579   4.241   1.758
 2626SOL     OW 8439   3.224   4.868   0.545
 2626SOL    HW1 8440   3.307   4.839   0.497
 2626SOL    HW2 8441   3.175   4.935   0.489
 2627SOL     OW 8442   2.412   3.920   0.885
 2627SOL    HW1 8443   2.407   3.915   0.985
 2627SOL    HW2 8444   2.414   4.016   0.856
 2628SOL     OW 8445   3.657   4.790   0.873
 2628SOL    HW1 8446   3.595   4.775   0.797
 2628SOL    HW2 8447   3.605   4.801   0.958
 2629SOL     OW 8448   2.183   4.667   0.242
 2629SOL    HW1 8449   2.265   4.706   0.200
 2629SOL    HW2 8450   2.156   4.585   0.193
 2630SOL     OW 8451   3.320   4.459   0.728
 2630SOL    HW1 8452   3.315   4.394   0.803
 2630SOL    HW2 8453   3.400   4.518   0.741
 2631SOL     OW 8454   2.064   4.009   1.498
 2631SOL    HW1 8455   1.984   4.069   1.485
 2631SOL    HW2 8456   2.054   3.960   1.584
 2632SOL     OW 8457   3.494   5.101   0.081
 2632SOL    HW1 8458   3.462   5.195   0.071
 2632SOL    HW2 8459   3.418   5.038   0.069
 2633SOL     OW 8460   3.262   3.831   0.426
 2633SOL    HW1 8461   3.238   3.794   0.336
 2633SOL    HW2 8462   3.361   3.847   0.430
 2634SOL     OW 8463   3.409   3.946   1.729
 2634SOL    HW1 8464   3.404   3.983   1.821
 2634SOL    HW2 8465   3.337   3.877   1.717
 2635SOL     OW 8466   2.643   3.988   1.749
 2635SOL    HW1 8467   2.710   3.927   1.792
 2635SOL    HW2 8468   2.570   4.007   1.814
 2636SOL     OW 8469   3.213   4.314   1.433
 2636SOL    HW1 8470   3.241   4.271   1.518
 2636SOL    HW2 8471   3.238   4.410   1.434
 2637SOL     OW 8472   2.665   5.126   0.924
 2637SOL    HW1 8473   2.755   5.140   0.882
 2637SOL    HW2 8474   2.594   5.128   0.853
 2638SOL     OW 8475   2.784   4.227   0.899
 2638SOL    HW1 8476   2.759   4.218   0.803
 2638SOL    HW2 8477   2.832   4.145   0.930
 2639SOL     OW 8478   2.401   3.788   0.512
 2639SOL    HW1 8479   2.320   3.789   0.570
 2639SOL    HW2 8480   2.404   3.871   0.457
 2640SOL     OW 8481   3.296   4.912   0.041
 2640SOL    HW1 8482   3.328   4.836   0.098
 2640SOL    HW2 8483   3.204   4.939   0.071
 2641SOL     OW 8484   2.159   3.759   0.171
 2641SOL    HW1 8485   2.208   3.843   0.150
 2641SOL    HW2 8486   2.221   3.694   0.216
 2642SOL     OW 8487   2.797   3.960   0.480
 2642SOL    HW1 8488   2.749   4.001   0.402
 2642SOL    HW2 8489   2.896   3.958   0.461
 2643SOL     OW 8490   2.938   4.407   1.464
 2643SOL    HW1 8491   2.858   4.346   1.467
 2643SOL    HW2 8492   3.019   4.354   1.440
 2644SOL     OW 8493   3.089   5.294   0.793
 2644SOL    HW1 8494   3.110   5.368   0.728
 2644SOL    HW2 8495   3.157   5.294   0.866
 2645SOL     OW 8496   2.321   4.876   0.741
 2645SOL    HW1 8497   2.250   4.849   0.806
 2645SOL    HW2 8498   2.295   4.848   0.648
 2646SOL     OW 8499   2.894   4.273   0.016
 2646SOL    HW1 8500   2.853   4.355  -0.023
 2646SOL    HW2 8501   2.958   4.299   0.089
 2647SOL     OW 8502   1.940   4.280   1.386
 2647SOL    HW1 8503   2.032   4.279   1.345
 2647SOL    HW2 8504   1.934   4.354   1.453
 2648SOL     OW 8505   2.423   3.946   1.147
 2648SOL    HW1 8506   2.461   3.862   1.184
 2648SOL    HW2 8507   2.335   3.965   1.191
 2649SOL     OW 8508   2.728   4.178   0.642
 2649SOL    HW1 8509   2.696   4.250   0.580
 2649SOL    HW2 8510   2.752   4.097   0.589
 2650SOL     OW 8511   2.879   3.763   0.753
 2650SOL    HW1 8512   2.807   3.768   0.684
 2650SOL    HW2 8513   2.855   3.694   0.822
 2651SOL     OW 8514   3.291   4.897   0.867
 2651SOL    HW1 8515   3.236   4.813   0.860
 2651SOL    HW2 8516   3.317   4.926   0.775
 2652SOL     OW 8517   3.328   4.314   0.992
 2652SOL    HW1 8518   3.298   4.219   0.999
 2652SOL    HW2 8519   3.401   4.330   1.058
 2653SOL     OW 8520   3.719   4.557   0.377
 2653SOL    HW1 8521   3.761   4.493   0.441
 2653SOL    HW2 8522   3.681   4.506   0.299
 2654SOL     OW 8523   3.526   5.004   0.657
 2654SOL    HW1 8524   3.625   5.012   0.671
 2654SOL    HW2 8525   3.481   5.088   0.688
 2655SOL     OW 8526   3.252   4.299   0.078
 2655SOL    HW1 8527   3.198   4.278   0.159
 2655SOL    HW2 8528   3.343   4.258   0.087
 2656SOL     OW 8529   2.389   3.980   0.328
 2656SOL    HW1 8530   2.416   3.921   0.253
 2656SOL    HW2 8531   2.389   4.075   0.297
 2657SOL     OW 8532   3.616   4.947   1.588
 2657SOL    HW1 8533   3.707   4.908   1.575
 2657SOL    HW2 8534   3.624   5.043   1.612
 2658SOL     OW 8535   3.500   4.823   1.079
 2658SOL    HW1 8536   3.505   4.904   1.138
 2658SOL    HW2 8537   3.414   4.825   1.028
 2659SOL     OW 8538   2.567   4.774   0.368
 2659SOL    HW1 8539   2.553   4.781   0.467
 2659SOL    HW2 8540   2.651   4.723   0.350
 2660SOL     OW 8541   2.272   4.537   1.251
 2660SOL    HW1 8542   2.358   4.549   1.301
 2660SOL    HW2 8543   2.230   4.450   1.278
 2661SOL     OW 8544   2.229   4.824   0.501
 2661SOL    HW1 8545   2.222   4.907   0.445
 2661SOL    HW2 8546   2.233   4.744   0.441
 2662SOL     OW 8547   2.428   4.261   0.865
 2662SOL    HW1 8548   2.440   4.327   0.791
 2662SOL    HW2 8549   2.474   4.295   0.948
 2663SOL     OW 8550   3.444   4.363   0.472
 2663SOL    HW1 8551   3.413   4.424   0.545
 2663SOL    HW2 8552   3.494   4.415   0.403
 2664SOL     OW 8553   2.264   4.475   1.598
 2664SOL    HW1 8554   2.332   4.530   1.551
 2664SOL    HW2 8555   2.304   4.387   1.625
 2665SOL     OW 8556   3.449   4.503   1.670
 2665SOL    HW1 8557   3.357   4.541   1.665
 2665SOL    HW2 8558   3.509   4.550   1.605
 2666SOL     OW 8559   2.366   3.774   1.740
 2666SOL    HW1 8560   2.324   3.717   1.670
 2666SOL    HW2 8561   2.300   3.843   1.772
 2667SOL     OW 8562   2.435   4.594   1.029
 2667SOL    HW1 8563   2.479   4.683   1.020
 2667SOL    HW2 8564   2.372   4.594   1.106
 2668SOL     OW 8565   3.222   4.586   1.045
 2668SOL    HW1 8566   3.147   4.586   0.979
 2668SOL    HW2 8567   3.259   4.494   1.054
 2669SOL     OW 8568   3.071   4.249   0.275
 2669SOL    HW1 8569   3.084   4.165   0.329
 2669SOL    HW2 8570   3.042   4.323   0.335
 2670SOL     OW 8571   2.169   3.937   1.231
 2670SOL    HW1 8572   2.146   3.974   1.321
 2670SOL    HW2 8573   2.139   3.842   1.225
 2671SOL     OW 8574   2.594   4.358   1.064
 2671SOL    HW1 8575   2.653   4.332   0.988
 2671SOL    HW2 8576   2.566   4.454   1.053
 2672SOL     OW 8577   3.590   4.659   1.854
 2672SOL    HW1 8578   3.544   4.652   1.765
 2672SOL    HW2 8579   3.528   4.703   1.920
 2673SOL     OW 8580   2.169   3.787   0.618
 2673SOL    HW1 8581   2.158   3.881   0.651
 2673SOL    HW2 8582   2.164   3.724   0.695
 2674SOL     OW 8583   3.484   4.091   0.374
 2674SOL    HW1 8584   3.486   4.015   0.438
 2674SOL    HW2 8585   3.436   4.168   0.414
 2675SOL     OW 8586   2.885   4.490   0.966
 2675SOL    HW1 8587   2.900   4.511   1.062
 2675SOL    HW2 8588   2.855   4.395   0.957
 2676SOL     OW 8589   3.721   5.242   1.605
 2676SOL    HW1 8590   3.735   5.269   1.510
 2676SOL    HW2 8591   3.804   5.264   1.658
 2677SOL     OW 8592   2.212   4.622   1.804
 2677SOL    HW1 8593   2.288   4.666   1.852
 2677SOL    HW2 8594   2.247   4.575   1.722
 2678SOL     OW 8595   3.402   3.998   0.125
 2678SOL    HW1 8596   3.341   3.923   0.148
 2678SOL    HW2 8597   3.424   4.050   0.208
 2679SOL     OW 8598   3.165   4.562   0.042
 2679SOL    HW1 8599   3.199   4.469   0.057
 2679SOL    HW2 8600   3.183   4.589  -0.053
 2680SOL     OW 8601   2.181   4.534   0.949
 2680SOL    HW1 8602   2.274   4.570   0.954
 2680SOL    HW2 8603   2.175   4.449   1.001
 2681SOL     OW 8604   2.201   4.233   1.006
 2681SOL    HW1 8605   2.149   4.150   0.989
 2681SOL    HW2 8606   2.278   4.238   0.942
 2682SOL     OW 8607   3.000   4.104   1.678
 2682SOL    HW1 8608   2.955   4.167   1.742
 2682SOL    HW2 8609   3.093   4.135   1.661
 2683SOL     OW 8610   2.864   4.520   1.238
 2683SOL    HW1 8611   2.905   4.488   1.324
 2683SOL    HW2 8612   2.768   4.493   1.235
 2684SOL     OW 8613   1.902   4.268   1.114
 2684SOL    HW1 8614   1.987   4.235   1.073
 2684SOL    HW2 8615   1.915   4.283   1.212
 2685SOL     OW 8616   2.051   4.244   1.722
 2685SOL    HW1 8617   2.110   4.204   1.652
 2685SOL    HW2 8618   1.993   4.315   1.681
 2686SOL     OW 8619   3.519   4.328   1.206
 2686SOL    HW1 8620   3.481   4.259   1.268
 2686SOL    HW2 8621   3.601   4.292   1.162
 2687SOL     OW 8622   2.533   4.188   1.269
 2687SOL    HW1 8623   2.499   4.099   1.239
 2687SOL    HW2 8624   2.559   4.242   1.189
 2688SOL     OW 8625   2.021   4.861   1.466
 2688SOL    HW1 8626   2.043   4.800   1.542
 2688SOL    HW2 8627   2.031   4.812   1.380
 2689SOL     OW 8628   3.209   4.783   1.234
 2689SOL    HW1 8629   3.233   4.720   1.160
 2689SOL    HW2 8630   3.119   4.823   1.216
 2690SOL     OW 8631   3.164   4.579   0.309
 2690SOL    HW1 8632   3.078   4.548   0.351
 2690SOL    HW2 8633   3.160   4.565   0.210
 2691SOL     OW 8634   1.945   4.982   1.022
 2691SOL    HW1 8635   1.940   4.981   1.122
 2691SOL    HW2 8636   1.862   4.941   0.984
 2692SOL     OW 8637   2.765   3.810   0.133
 2692SOL    HW1 8638   2.816   3.811   0.047
 2692SOL    HW2 8639   2.821   3.768   0.204
 2693SOL     OW 8640   3.588   3.859   0.523
 2693SOL    HW1 8641   3.661   3.842   0.456
 2693SOL    HW2 8642   3.557   3.772   0.561
 2694SOL     OW 8643   3.142   4.651   0.672
 2694SOL    HW1 8644   3.202   4.570   0.674
 2694SOL    HW2 8645   3.182   4.720   0.612
 2695SOL     OW 8646   3.703   3.899   0.963
 2695SOL    HW1 8647   3.742   3.814   0.927
 2695SOL    HW2 8648   3.605   3.901   0.944
 2696SOL     OW 8649   2.125   4.050   0.720
 2696SOL    HW1 8650   2.046   4.101   0.686
 2696SOL    HW2 8651   2.116   4.035   0.818
 2697SOL     OW 8652   2.684   4.726   1.372
 2697SOL    HW1 8653   2.724   4.725   1.280
 2697SOL    HW2 8654   2.694   4.818   1.412
 2698SOL     OW 8655   2.778   4.634   0.291
 2698SOL    HW1 8656   2.841   4.672   0.223
 2698SOL    HW2 8657   2.818   4.551   0.330
 2699SOL     OW 8658   2.234   5.012   1.490
 2699SOL    HW1 8659   2.221   5.105   1.456
 2699SOL    HW2 8660   2.150   4.960   1.477
 2700SOL     OW 8661   3.476   5.016   1.289
 2700SOL    HW1 8662   3.536   5.019   1.369
 2700SOL    HW2 8663   3.401   5.080   1.302
 2701SOL     OW 8664   2.901   4.822   0.696
 2701SOL    HW1 8665   2.831   4.775   0.750
 2701SOL    HW2 8666   2.960   4.754   0.653
 2702SOL     OW 8667   2.876   3.960   0.971
 2702SOL    HW1 8668   2.868   3.924   0.878
 2702SOL    HW2 8669   2.874   3.884   1.036
 2703SOL     OW 8670   3.571   4.109   1.381
 2703SOL    HW1 8671   3.644   4.178   1.385
 2703SOL    HW2 8672   3.599   4.034   1.322
 2704SOL     OW 8673   1.967   4.737   1.726
 2704SOL    HW1 8674   1.890   4.704   1.780
 2704SOL    HW2 8675   2.052   4.707   1.768
 2705SOL     OW 8676   2.534   3.927   1.489
 2705SOL    HW1 8677   2.624   3.911   1.449
 2705SOL    HW2 8678   2.542   3.932   1.588
 2706SOL     OW 8679   3.302   4.580   1.398
 2706SOL    HW1 8680   3.245   4.632   1.335
 2706SOL    HW2 8681   3.398   4.592   1.374
 2707SOL     OW 8682   1.934   3.890   0.318
 2707SOL    HW1 8683   1.917   3.973   0.264
 2707SOL    HW2 8684   2.024   3.853   0.296
 2708SOL     OW 8685   2.475   4.566   1.431
 2708SOL    HW1 8686   2.531   4.647   1.414
 2708SOL    HW2 8687   2.534   4.486   1.434
 2709SOL     OW 8688   2.578   4.289   1.708
 2709SOL    HW1 8689   2.597   4.354   1.782
 2709SOL    HW2 8690   2.638   4.209   1.717
 2710SOL     OW 8691   3.536   4.607   1.254
 2710SOL    HW1 8692   3.509   4.518   1.217
 2710SOL    HW2 8693   3.537   4.675   1.181
 2711SOL     OW 8694   3.087   4.049   0.449
 2711SOL    HW1 8695   3.152   3.975   0.438
 2711SOL    HW2 8696   3.107   4.099   0.533
 2712SOL     OW 8697   2.456   4.469   0.652
 2712SOL    HW1 8698   2.506   4.554   0.633
 2712SOL    HW2 8699   2.368   4.471   0.604
 2713SOL     OW 8700   3.639   4.066   1.642
 2713SOL    HW1 8701   3.622   4.097   1.548
 2713SOL    HW2 8702   3.555   4.029   1.680
 2714SOL     OW 8703   3.592   4.658   1.517
 2714SOL    HW1 8704   3.630   4.749   1.532
 2714SOL    HW2 8705   3.584   4.641   1.418
 2715SOL     OW 8706   2.721   4.680   0.861
 2715SOL    HW1 8707   2.775   4.611   0.909
 2715SOL    HW2 8708   2.689   4.749   0.927
 2716SOL     OW 8709   2.945   4.708   0.087
 2716SOL    HW1 8710   2.922   4.761   0.005
 2716SOL    HW2 8711   3.026   4.652   0.068
 2717SOL     OW 8712   1.941   4.964   0.653
 2717SOL    HW1 8713   1.940   4.917   0.741
 2717SOL    HW2 8714   2.023   4.936   0.602
 2718SOL     OW 8715   3.686   3.916   1.227
 2718SOL    HW1 8716   3.682   3.826   1.271
 2718SOL    HW2 8717   3.689   3.905   1.128
 2719SOL     OW 8718   2.290   4.148   0.520
 2719SOL    HW1 8719   2.320   4.076   0.458
 2719SOL    HW2 8720   2.251   4.108   0.603
 2720SOL     OW 8721   2.179   4.271   1.280
 2720SOL    HW1 8722   2.217   4.212   1.352
 2720SOL    HW2 8723   2.219   4.245   1.192
 2721SOL     OW 8724   2.632   5.054   0.301
 2721SOL    HW1 8725   2.586   4.967   0.318
 2721SOL    HW2 8726   2.723   5.051   0.342
 2722SOL     OW 8727   3.214   3.776   0.168
 2722SOL    HW1 8728   3.249   3.735   0.084
 2722SOL    HW2 8729   3.124   3.738   0.188
 2723SOL     OW 8730   3.162   4.177   0.691
 2723SOL    HW1 8731   3.103   4.257   0.695
 2723SOL    HW2 8732   3.177   4.142   0.784
 2724SOL     OW 8733   3.455   3.945   0.882
 2724SOL    HW1 8734   3.371   3.944   0.936
 2724SOL    HW2 8735   3.457   4.028   0.826
 2725SOL     OW 8736   1.901   4.801   0.300
 2725SOL    HW1 8737   2.000   4.790   0.291
 2725SOL    HW2 8738   1.861   4.715   0.332
 2726SOL     OW 8739   2.092   4.352   1.975
 2726SOL    HW1 8740   1.999   4.350   2.012
 2726SOL    HW2 8741   2.093   4.313   1.883
 2727SOL     OW 8742   2.087   3.999   2.858
 2727SOL    HW1 8743   2.122   3.982   2.950
 2727SOL    HW2 8744   1.999   3.954   2.846
 2728SOL     OW 8745   1.881   4.092   2.509
 2728SOL    HW1 8746   1.799   4.135   2.548
 2728SOL    HW2 8747   1.853   4.019   2.446
 2729SOL     OW 8748   2.431   4.999   3.027
 2729SOL    HW1 8749   2.338   4.992   2.990
 2729SOL    HW2 8750   2.442   5.088   3.071
 2730SOL     OW 8751   3.417   5.235   2.565
 2730SOL    HW1 8752   3.360   5.219   2.646
 2730SOL    HW2 8753   3.358   5.245   2.485
 2731SOL     OW 8754   2.997   4.427   2.579
 2731SOL    HW1 8755   3.054   4.505   2.554
 2731SOL    HW2 8756   2.937   4.453   2.655
 2732SOL     OW 8757   3.617   4.331   2.093
 2732SOL    HW1 8758   3.605   4.318   1.994
 2732SOL    HW2 8759   3.587   4.250   2.142
 2733SOL     OW 8760   2.630   4.868   2.885
 2733SOL    HW1 8761   2.552   4.885   2.945
 2733SOL    HW2 8762   2.664   4.955   2.849
 2734SOL     OW 8763   2.712   4.522   3.685
 2734SOL    HW1 8764   2.708   4.598   3.750
 2734SOL    HW2 8765   2.734   4.558   3.594
 2735SOL     OW 8766   2.547   4.736   2.527
 2735SOL    HW1 8767   2.616   4.720   2.597
 2735SOL    HW2 8768   2.474   4.793   2.565
 2736SOL     OW 8769   2.197   5.159   2.923
 2736SOL    HW1 8770   2.119   5.128   2.870
 2736SOL    HW2 8771   2.255   5.217   2.866
 2737SOL     OW 8772   2.300   4.116   3.361
 2737SOL    HW1 8773   2.382   4.060   3.370
 2737SOL    HW2 8774   2.219   4.058   3.365
 2738SOL     OW 8775   3.465   4.171   2.599
 2738SOL    HW1 8776   3.391   4.217   2.549
 2738SOL    HW2 8777   3.516   4.239   2.652
 2739SOL     OW 8778   2.102   4.815   2.748
 2739SOL    HW1 8779   2.116   4.731   2.800
 2739SOL    HW2 8780   2.047   4.879   2.803
 2740SOL     OW 8781   2.468   4.688   1.985
 2740SOL    HW1 8782   2.475   4.772   1.931
 2740SOL    HW2 8783   2.514   4.701   2.073
 2741SOL     OW 8784   3.456   3.838   3.342
 2741SOL    HW1 8785   3.438   3.905   3.270
 2741SOL    HW2 8786   3.453   3.884   3.431
 2742SOL     OW 8787   1.984   4.367   2.425
 2742SOL    HW1 8788   1.939   4.279   2.442
 2742SOL    HW2 8789   1.983   4.421   2.509
 2743SOL     OW 8790   1.975   4.461   3.459
 2743SOL    HW1 8791   2.063   4.448   3.504
 2743SOL    HW2 8792   1.962   4.558   3.437
 2744SOL     OW 8793   3.155   4.952   3.285
 2744SOL    HW1 8794   3.192   4.879   3.227
 2744SOL    HW2 8795   3.207   4.957   3.370
 2745SOL     OW 8796   2.671   3.728   2.364
 2745SOL    HW1 8797   2.711   3.819   2.355
 2745SOL    HW2 8798   2.571   3.736   2.370
 2746SOL     OW 8799   3.387   4.723   2.052
 2746SOL    HW1 8800   3.324   4.647   2.065
 2746SOL    HW2 8801   3.435   4.741   2.138
 2747SOL     OW 8802   2.179   3.975   3.663
 2747SOL    HW1 8803   2.250   4.046   3.669
 2747SOL    HW2 8804   2.091   4.014   3.691
 2748SOL     OW 8805   3.328   5.141   2.815
 2748SOL    HW1 8806   3.269   5.147   2.895
 2748SOL    HW2 8807   3.313   5.053   2.769
 2749SOL     OW 8808   2.460   4.453   2.132
 2749SOL    HW1 8809   2.484   4.522   2.064
 2749SOL    HW2 8810   2.382   4.486   2.186
 2750SOL     OW 8811   3.143   4.069   2.806
 2750SOL    HW1 8812   3.057   4.019   2.793
 2750SOL    HW2 8813   3.205   4.015   2.862
 2751SOL     OW 8814   3.256   4.193   3.536
 2751SOL    HW1 8815   3.236   4.236   3.624
 2751SOL    HW2 8816   3.334   4.131   3.545
 2752SOL     OW 8817   2.835   4.614   3.434
 2752SOL    HW1 8818   2.881   4.530   3.405
 2752SOL    HW2 8819   2.779   4.648   3.359
 2753SOL     OW 8820   2.853   4.134   3.104
 2753SOL    HW1 8821   2.776   4.168   3.158
 2753SOL    HW2 8822   2.819   4.083   3.025
 2754SOL     OW 8823   2.903   4.425   2.291
 2754SOL    HW1 8824   2.929   4.421   2.387
 2754SOL    HW2 8825   2.818   4.374   2.277
 2755SOL     OW 8826   2.727   4.072   2.057
 2755SOL    HW1 8827   2.786   4.135   2.008
 2755SOL    HW2 8828   2.746   3.978   2.028
 2756SOL     OW 8829   3.581   4.309   3.693
 2756SOL    HW1 8830   3.555   4.398   3.657
 2756SOL    HW2 8831   3.579   4.241   3.620
 2757SOL     OW 8832   3.224   4.868   2.407
 2757SOL    HW1 8833   3.307   4.839   2.359
 2757SOL    HW2 8834   3.175   4.935   2.351
 2758SOL     OW 8835   2.412   3.920   2.747
 2758SOL    HW1 8836   2.407   3.915   2.847
 2758SOL    HW2 8837   2.414   4.016   2.718
 2759SOL     OW 8838   2.183   4.667   2.104
 2759SOL    HW1 8839   2.265   4.706   2.062
 2759SOL    HW2 8840   2.156   4.585   2.055
 2760SOL     OW 8841   3.320   4.459   2.590
 2760SOL    HW1 8842   3.315   4.394   2.665
 2760SOL    HW2 8843   3.400   4.518   2.603
 2761SOL     OW 8844   2.064   4.009   3.360
 2761SOL    HW1 8845   1.984   4.069   3.347
 2761SOL    HW2 8846   2.054   3.960   3.446
 2762SOL     OW 8847   3.494   5.101   1.943
 2762SOL    HW1 8848   3.462   5.195   1.933
 2762SOL    HW2 8849   3.418   5.038   1.931
 2763SOL     OW 8850   3.262   3.831   2.288
 2763SOL    HW1 8851   3.238   3.794   2.198
 2763SOL    HW2 8852   3.361   3.847   2.292
 2764SOL     OW 8853   2.244   4.424   2.342
 2764SOL    HW1 8854   2.289   4.334   2.339
 2764SOL    HW2 8855   2.150   4.413   2.375
 2765SOL     OW 8856   3.409   3.946   3.591
 2765SOL    HW1 8857   3.404   3.983   3.683
 2765SOL    HW2 8858   3.337   3.877   3.579
 2766SOL     OW 8859   2.476   3.846   1.979
 2766SOL    HW1 8860   2.574   3.824   1.986
 2766SOL    HW2 8861   2.445   3.829   1.886
 2767SOL     OW 8862   2.643   3.988   3.611
 2767SOL    HW1 8863   2.710   3.927   3.654
 2767SOL    HW2 8864   2.570   4.007   3.676
 2768SOL     OW 8865   3.213   4.314   3.295
 2768SOL    HW1 8866   3.241   4.271   3.380
 2768SOL    HW2 8867   3.238   4.410   3.296
 2769SOL     OW 8868   2.665   5.126   2.786
 2769SOL    HW1 8869   2.755   5.140   2.744
 2769SOL    HW2 8870   2.594   5.128   2.715
 2770SOL     OW 8871   2.784   4.227   2.761
 2770SOL    HW1 8872   2.759   4.218   2.665
 2770SOL    HW2 8873   2.832   4.145   2.792
 2771SOL     OW 8874   2.401   3.788   2.374
 2771SOL    HW1 8875   2.320   3.789   2.432
 2771SOL    HW2 8876   2.404   3.871   2.319
 2772SOL     OW 8877   2.159   3.759   2.033
 2772SOL    HW1 8878   2.208   3.843   2.012
 2772SOL    HW2 8879   2.221   3.694   2.078
 2773SOL     OW 8880   2.797   3.960   2.342
 2773SOL    HW1 8881   2.749   4.001   2.264
 2773SOL    HW2 8882   2.896   3.958   2.323
 2774SOL     OW 8883   2.938   4.407   3.326
 2774SOL    HW1 8884   2.858   4.346   3.329
 2774SOL    HW2 8885   3.019   4.354   3.302
 2775SOL     OW 8886   3.089   5.294   2.655
 2775SOL    HW1 8887   3.110   5.368   2.590
 2775SOL    HW2 8888   3.157   5.294   2.728
 2776SOL     OW 8889   2.321   4.876   2.603
 2776SOL    HW1 8890   2.250   4.849   2.668
 2776SOL    HW2 8891   2.295   4.848   2.510
 2777SOL     OW 8892   2.894   4.273   1.878
 2777SOL    HW1 8893   2.853   4.355   1.839
 2777SOL    HW2 8894   2.958   4.299   1.951
 2778SOL     OW 8895   1.940   4.280   3.248
 2778SOL    HW1 8896   2.032   4.279   3.207
 2778SOL    HW2 8897   1.934   4.354   3.315
 2779SOL     OW 8898   2.423   3.946   3.009
 2779SOL    HW1 8899   2.461   3.862   3.046
 2779SOL    HW2 8900   2.335   3.965   3.053
 2780SOL     OW 8901   2.728   4.178   2.504
 2780SOL    HW1 8902   2.696   4.250   2.442
 2780SOL    HW2 8903   2.752   4.097   2.451
 2781SOL     OW 8904   2.879   3.763   2.615
 2781SOL    HW1 8905   2.807   3.768   2.546
 2781SOL    HW2 8906   2.855   3.694   2.684
 2782SOL     OW 8907   3.291   4.897   2.729
 2782SOL    HW1 8908   3.236   4.813   2.722
 2782SOL    HW2 8909   3.317   4.926   2.637
 2783SOL     OW 8910   3.328   4.314   2.854
 2783SOL    HW1 8911   3.298   4.219   2.861
 2783SOL    HW2 8912   3.401   4.330   2.920
 2784SOL     OW 8913   3.526   5.004   2.519
 2784SOL    HW1 8914   3.625   5.012   2.533
 2784SOL    HW2 8915   3.481   5.088   2.550
 2785SOL     OW 8916   3.252   4.299   1.940
 2785SOL    HW1 8917   3.198   4.278   2.021
 2785SOL    HW2 8918   3.343   4.258   1.949
 2786SOL     OW 8919   2.389   3.980   2.190
 2786SOL    HW1 8920   2.416   3.921   2.115
 2786SOL    HW2 8921   2.389   4.075   2.159
 2787SOL     OW 8922   3.616   4.947   3.450
 2787SOL    HW1 8923   3.707   4.908   3.437
 2787SOL    HW2 8924   3.624   5.043   3.474
 2788SOL     OW 8925   3.500   4.823   2.941
 2788SOL    HW1 8926   3.505   4.904   3.000
 2788SOL    HW2 8927   3.414   4.825   2.890
 2789SOL     OW 8928   2.777   3.813   3.264
 2789SOL    HW1 8929   2.802   3.793   3.169
 2789SOL    HW2 8930   2.849   3.869   3.306
 2790SOL     OW 8931   2.842   4.840   3.581
 2790SOL    HW1 8932   2.743   4.846   3.591
 2790SOL    HW2 8933   2.865   4.760   3.525
 2791SOL     OW 8934   2.567   4.774   2.230
 2791SOL    HW1 8935   2.553   4.781   2.329
 2791SOL    HW2 8936   2.651   4.723   2.212
 2792SOL     OW 8937   3.136   4.110   3.124
 2792SOL    HW1 8938   3.157   4.184   3.188
 2792SOL    HW2 8939   3.047   4.127   3.081
 2793SOL     OW 8940   2.229   4.824   2.363
 2793SOL    HW1 8941   2.222   4.907   2.307
 2793SOL    HW2 8942   2.233   4.744   2.303
 2794SOL     OW 8943   3.444   4.363   2.334
 2794SOL    HW1 8944   3.413   4.424   2.407
 2794SOL    HW2 8945   3.494   4.415   2.265
 2795SOL     OW 8946   3.449   4.503   3.532
 2795SOL    HW1 8947   3.357   4.541   3.527
 2795SOL    HW2 8948   3.509   4.550   3.467
 2796SOL     OW 8949   2.875   3.829   3.632
 2796SOL    HW1 8950   2.881   3.914   3.580
 2796SOL    HW2 8951   2.907   3.753   3.575
 2797SOL     OW 8952   2.366   3.774   3.602
 2797SOL    HW1 8953   2.324   3.717   3.532
 2797SOL    HW2 8954   2.300   3.843   3.634
 2798SOL     OW 8955   3.222   4.586   2.907
 2798SOL    HW1 8956   3.147   4.586   2.841
 2798SOL    HW2 8957   3.259   4.494   2.916
 2799SOL     OW 8958   3.071   4.249   2.137
 2799SOL    HW1 8959   3.084   4.165   2.191
 2799SOL    HW2 8960   3.042   4.323   2.197
 2800SOL     OW 8961   2.169   3.937   3.093
 2800SOL    HW1 8962   2.146   3.974   3.183
 2800SOL    HW2 8963   2.139   3.842   3.087
 2801SOL     OW 8964   3.590   4.659   3.716
 2801SOL    HW1 8965   3.544   4.652   3.627
 2801SOL    HW2 8966   3.528   4.703   3.782
 2802SOL     OW 8967   2.169   3.787   2.480
 2802SOL    HW1 8968   2.158   3.881   2.513
 2802SOL    HW2 8969   2.164   3.724   2.557
 2803SOL     OW 8970   3.484   4.091   2.236
 2803SOL    HW1 8971   3.486   4.015   2.300
 2803SOL    HW2 8972   3.436   4.168   2.276
 2804SOL     OW 8973   2.885   4.490   2.828
 2804SOL    HW1 8974   2.900   4.511   2.924
 2804SOL    HW2 8975   2.855   4.395   2.819
 2805SOL     OW 8976   3.721   5.242   3.467
 2805SOL    HW1 8977   3.735   5.269   3.372
 2805SOL    HW2 8978   3.804   5.264   3.520
 2806SOL     OW 8979   2.212   4.622   3.666
 2806SOL    HW1 8980   2.288   4.666   3.714
 2806SOL    HW2 8981   2.247   4.575   3.584
 2807SOL     OW 8982   3.402   3.998   1.987
 2807SOL    HW1 8983   3.341   3.923   2.010
 2807SOL    HW2 8984   3.424   4.050   2.070
 2808SOL     OW 8985   3.000   4.104   3.540
 2808SOL    HW1 8986   2.955   4.167   3.604
 2808SOL    HW2 8987   3.093   4.135   3.523
 2809SOL     OW 8988   3.022   3.931   3.339
 2809SOL    HW1 8989   3.022   3.995   3.416
 2809SOL    HW2 8990   3.050   3.979   3.256
 2810SOL     OW 8991   2.864   4.520   3.100
 2810SOL    HW1 8992   2.905   4.488   3.186
 2810SOL    HW2 8993   2.768   4.493   3.097
 2811SOL     OW 8994   1.902   4.268   2.976
 2811SOL    HW1 8995   1.987   4.235   2.935
 2811SOL    HW2 8996   1.915   4.283   3.074
 2812SOL     OW 8997   2.051   4.244   3.584
 2812SOL    HW1 8998   2.110   4.204   3.514
 2812SOL    HW2 8999   1.993   4.315   3.543
 2813SOL     OW 9000   3.231   4.674   3.522
 2813SOL    HW1 9001   3.270   4.763   3.542
 2813SOL    HW2 9002   3.241   4.654   3.425
 2814SOL     OW 9003   2.677   4.296   2.187
 2814SOL    HW1 9004   2.684   4.207   2.141
 2814SOL    HW2 9005   2.583   4.330   2.179
 2815SOL     OW 9006   3.519   4.328   3.068
 2815SOL    HW1 9007   3.481   4.259   3.130
 2815SOL    HW2 9008   3.601   4.292   3.024
 2816SOL     OW 9009   2.335   4.224   2.053
 2816SOL    HW1 9010   2.396   4.304   2.057
 2816SOL    HW2 9011   2.240   4.255   2.060
 2817SOL     OW 9012   2.021   4.861   3.328
 2817SOL    HW1 9013   2.043   4.800   3.404
 2817SOL    HW2 9014   2.031   4.812   3.242
 2818SOL     OW 9015   3.209   4.783   3.096
 2818SOL    HW1 9016   3.233   4.720   3.022
 2818SOL    HW2 9017   3.119   4.823   3.078
 2819SOL     OW 9018   3.164   4.579   2.171
 2819SOL    HW1 9019   3.078   4.548   2.213
 2819SOL    HW2 9020   3.160   4.565   2.072
 2820SOL     OW 9021   1.945   4.982   2.884
 2820SOL    HW1 9022   1.940   4.981   2.984
 2820SOL    HW2 9023   1.862   4.941   2.846
 2821SOL     OW 9024   3.588   3.859   2.385
 2821SOL    HW1 9025   3.661   3.842   2.318
 2821SOL    HW2 9026   3.557   3.772   2.423
 2822SOL     OW 9027   3.142   4.651   2.534
 2822SOL    HW1 9028   3.202   4.570   2.536
 2822SOL    HW2 9029   3.182   4.720   2.474
 2823SOL     OW 9030   2.692   4.997   3.284
 2823SOL    HW1 9031   2.687   5.030   3.379
 2823SOL    HW2 9032   2.606   5.016   3.238
 2824SOL     OW 9033   3.703   3.899   2.825
 2824SOL    HW1 9034   3.742   3.814   2.789
 2824SOL    HW2 9035   3.605   3.901   2.806
 2825SOL     OW 9036   2.125   4.050   2.582
 2825SOL    HW1 9037   2.046   4.101   2.548
 2825SOL    HW2 9038   2.116   4.035   2.680
 2826SOL     OW 9039   2.684   4.726   3.234
 2826SOL    HW1 9040   2.724   4.725   3.142
 2826SOL    HW2 9041   2.694   4.818   3.274
 2827SOL     OW 9042   2.778   4.634   2.153
 2827SOL    HW1 9043   2.841   4.672   2.085
 2827SOL    HW2 9044   2.818   4.551   2.192
 2828SOL     OW 9045   2.234   5.012   3.352
 2828SOL    HW1 9046   2.221   5.105   3.318
 2828SOL    HW2 9047   2.150   4.960   3.339
 2829SOL     OW 9048   3.476   5.016   3.151
 2829SOL    HW1 9049   3.536   5.019   3.231
 2829SOL    HW2 9050   3.401   5.080   3.164
 2830SOL     OW 9051   2.901   4.822   2.558
 2830SOL    HW1 9052   2.831   4.775   2.612
 2830SOL    HW2 9053   2.960   4.754   2.515
 2831SOL     OW 9054   2.876   3.960   2.833
 2831SOL    HW1 9055   2.868   3.924   2.740
 2831SOL    HW2 9056   2.874   3.884   2.898
 2832SOL     OW 9057   3.571   4.109   3.243
 2832SOL    HW1 9058   3.644   4.178   3.247
 2832SOL    HW2 9059   3.599   4.034   3.184
 2833SOL     OW 9060   1.967   4.737   3.588
 2833SOL    HW1 9061   1.890   4.704   3.642
 2833SOL    HW2 9062   2.052   4.707   3.630
 2834SOL     OW 9063   2.534   3.927   3.351
 2834SOL    HW1 9064   2.624   3.911   3.311
 2834SOL    HW2 9065   2.542   3.932   3.450
 2835SOL     OW 9066   1.937   4.069   1.895
 2835SOL    HW1 9067   1.845   4.041   1.866
 2835SOL    HW2 9068   1.968   4.146   1.839
 2836SOL     OW 9069   3.302   4.580   3.260
 2836SOL    HW1 9070   3.245   4.632   3.197
 2836SOL    HW2 9071   3.398   4.592   3.236
 2837SOL     OW 9072   1.934   3.890   2.180
 2837SOL    HW1 9073   1.917   3.973   2.126
 2837SOL    HW2 9074   2.024   3.853   2.158
 2838SOL     OW 9075   2.578   4.289   3.570
 2838SOL    HW1 9076   2.597   4.354   3.644
 2838SOL    HW2 9077   2.638   4.209   3.579
 2839SOL     OW 9078   3.312   4.944   3.495
 2839SOL    HW1 9079   3.303   4.934   3.594
 2839SOL    HW2 9080   3.408   4.937   3.469
 2840SOL     OW 9081   3.536   4.607   3.116
 2840SOL    HW1 9082   3.509   4.518   3.079
 2840SOL    HW2 9083   3.537   4.675   3.043
 2841SOL     OW 9084   3.087   4.049   2.311
 2841SOL    HW1 9085   3.152   3.975   2.300
 2841SOL    HW2 9086   3.107   4.099   2.395
 2842SOL     OW 9087   2.456   4.469   2.514
 2842SOL    HW1 9088   2.506   4.554   2.495
 2842SOL    HW2 9089   2.368   4.471   2.466
 2843SOL     OW 9090   3.639   4.066   3.504
 2843SOL    HW1 9091   3.622   4.097   3.410
 2843SOL    HW2 9092   3.555   4.029   3.542
 2844SOL     OW 9093   3.592   4.658   3.379
 2844SOL    HW1 9094   3.630   4.749   3.394
 2844SOL    HW2 9095   3.584   4.641   3.280
 2845SOL     OW 9096   2.721   4.680   2.723
 2845SOL    HW1 9097   2.775   4.611   2.771
 2845SOL    HW2 9098   2.689   4.749   2.789
 2846SOL     OW 9099   1.941   4.964   2.515
 2846SOL    HW1 9100   1.940   4.917   2.603
 2846SOL    HW2 9101   2.023   4.936   2.464
 2847SOL     OW 9102   3.686   3.916   3.089
 2847SOL    HW1 9103   3.682   3.826   3.133
 2847SOL    HW2 9104   3.689   3.905   2.990
 2848SOL     OW 9105   2.290   4.148   2.382
 2848SOL    HW1 9106   2.320   4.076   2.320
 2848SOL    HW2 9107   2.251   4.108   2.465
 2849SOL     OW 9108   2.179   4.271   3.142
 2849SOL    HW1 9109   2.217   4.212   3.214
 2849SOL    HW2 9110   2.219   4.245   3.054
 2850SOL     OW 9111   3.286   3.938   2.974
 2850SOL    HW1 9112   3.338   3.873   3.029
 2850SOL    HW2 9113   3.237   4.001   3.035
 2851SOL     OW 9114   2.863   3.758   3.016
 2851SOL    HW1 9115   2.800   3.686   2.985
 2851SOL    HW2 9116   2.956   3.722   3.016
 2852SOL     OW 9117   2.632   5.054   2.163
 2852SOL    HW1 9118   2.586   4.967   2.180
 2852SOL    HW2 9119   2.723   5.051   2.204
 2853SOL     OW 9120   3.162   4.177   2.553
 2853SOL    HW1 9121   3.103   4.257   2.557
 2853SOL    HW2 9122   3.177   4.142   2.646
 2854SOL     OW 9123   3.455   3.945   2.744
 2854SOL    HW1 9124   3.371   3.944   2.798
 2854SOL    HW2 9125   3.457   4.028   2.688
 2855SOL     OW 9126   2.092   4.352   3.837
 2855SOL    HW1 9127   1.999   4.350   3.874
 2855SOL    HW2 9128   2.093   4.313   3.745
 2856SOL     OW 9129   2.087   3.999   4.720
 2856SOL    HW1 9130   2.122   3.982   4.812
 2856SOL    HW2 9131   1.999   3.954   4.708
 2857SOL     OW 9132   1.881   4.092   4.371
 2857SOL    HW1 9133   1.799   4.135   4.410
 2857SOL    HW2 9134   1.853   4.019   4.308
 2858SOL     OW 9135   2.431   4.999   4.889
 2858SOL    HW1 9136   2.338   4.992   4.852
 2858SOL    HW2 9137   2.442   5.088   4.933
 2859SOL     OW 9138   3.417   5.235   4.427
 2859SOL    HW1 9139   3.360   5.219   4.508
 2859SOL    HW2 9140   3.358   5.245   4.347
 2860SOL     OW 9141   2.997   4.427   4.441
 2860SOL    HW1 9142   3.054   4.505   4.416
 2860SOL    HW2 9143   2.937   4.453   4.517
 2861SOL     OW 9144   3.617   4.331   3.955
 2861SOL    HW1 9145   3.605   4.318   3.856
 2861SOL    HW2 9146   3.587   4.250   4.004
 2862SOL     OW 9147   2.630   4.868   4.747
 2862SOL    HW1 9148   2.552   4.885   4.807
 2862SOL    HW2 9149   2.664   4.955   4.711
 2863SOL     OW 9150   2.547   4.736   4.389
 2863SOL    HW1 9151   2.616   4.720   4.459
 2863SOL    HW2 9152   2.474   4.793   4.427
 2864SOL     OW 9153   2.197   5.159   4.785
 2864SOL    HW1 9154   2.119   5.128   4.732
 2864SOL    HW2 9155   2.255   5.217   4.728
 2865SOL     OW 9156   3.465   4.171   4.461
 2865SOL    HW1 9157   3.391   4.217   4.411
 2865SOL    HW2 9158   3.516   4.239   4.514
 2866SOL     OW 9159   2.102   4.815   4.610
 2866SOL    HW1 9160   2.116   4.731   4.662
 2866SOL    HW2 9161   2.047   4.879   4.665
 2867SOL     OW 9162   2.468   4.688   3.847
 2867SOL    HW1 9163   2.475   4.772   3.793
 2867SOL    HW2 9164   2.514   4.701   3.935
 2868SOL     OW 9165   1.984   4.367   4.287
 2868SOL    HW1 9166   1.939   4.279   4.304
 2868SOL    HW2 9167   1.983   4.421   4.371
 2869SOL     OW 9168   3.551   4.646   4.336
 2869SOL    HW1 9169   3.646   4.617   4.344
 2869SOL    HW2 9170   3.543   4.711   4.261
 2870SOL     OW 9171   3.503   4.832   4.156
 2870SOL    HW1 9172   3.589   4.834   4.104
 2870SOL    HW2 9173   3.517   4.879   4.244
 2871SOL     OW 9174   2.671   3.728   4.226
 2871SOL    HW1 9175   2.711   3.819   4.217
 2871SOL    HW2 9176   2.571   3.736   4.232
 2872SOL     OW 9177   2.059   4.700   4.988
 2872SOL    HW1 9178   2.148   4.655   4.974
 2872SOL    HW2 9179   1.986   4.635   4.969
 2873SOL     OW 9180   3.387   4.723   3.914
 2873SOL    HW1 9181   3.324   4.647   3.927
 2873SOL    HW2 9182   3.435   4.741   4.000
 2874SOL     OW 9183   3.328   5.141   4.677
 2874SOL    HW1 9184   3.269   5.147   4.757
 2874SOL    HW2 9185   3.313   5.053   4.631
 2875SOL     OW 9186   2.460   4.453   3.994
 2875SOL    HW1 9187   2.484   4.522   3.926
 2875SOL    HW2 9188   2.382   4.486   4.048
 2876SOL     OW 9189   3.143   4.069   4.668
 2876SOL    HW1 9190   3.057   4.019   4.655
 2876SOL    HW2 9191   3.205   4.015   4.724
 2877SOL     OW 9192   2.853   4.134   4.966
 2877SOL    HW1 9193   2.776   4.168   5.020
 2877SOL    HW2 9194   2.819   4.083   4.887
 2878SOL     OW 9195   2.903   4.425   4.153
 2878SOL    HW1 9196   2.929   4.421   4.249
 2878SOL    HW2 9197   2.818   4.374   4.139
 2879SOL     OW 9198   1.938   4.535   4.513
 2879SOL    HW1 9199   2.037   4.523   4.522
 2879SOL    HW2 9200   1.914   4.630   4.534
 2880SOL     OW 9201   2.727   4.072   3.919
 2880SOL    HW1 9202   2.786   4.135   3.870
 2880SOL    HW2 9203   2.746   3.978   3.890
 2881SOL     OW 9204   3.224   4.868   4.269
 2881SOL    HW1 9205   3.307   4.839   4.221
 2881SOL    HW2 9206   3.175   4.935   4.213
 2882SOL     OW 9207   2.412   3.920   4.609
 2882SOL    HW1 9208   2.407   3.915   4.709
 2882SOL    HW2 9209   2.414   4.016   4.580
 2883SOL     OW 9210   3.657   4.790   4.597
 2883SOL    HW1 9211   3.595   4.775   4.521
 2883SOL    HW2 9212   3.605   4.801   4.682
 2884SOL     OW 9213   2.183   4.667   3.966
 2884SOL    HW1 9214   2.265   4.706   3.924
 2884SOL    HW2 9215   2.156   4.585   3.917
 2885SOL     OW 9216   3.320   4.459   4.452
 2885SOL    HW1 9217   3.315   4.394   4.527
 2885SOL    HW2 9218   3.400   4.518   4.465
 2886SOL     OW 9219   3.494   5.101   3.805
 2886SOL    HW1 9220   3.462   5.195   3.795
 2886SOL    HW2 9221   3.418   5.038   3.793
 2887SOL     OW 9222   3.262   3.831   4.150
 2887SOL    HW1 9223   3.238   3.794   4.060
 2887SOL    HW2 9224   3.361   3.847   4.154
 2888SOL     OW 9225   2.244   4.424   4.204
 2888SOL    HW1 9226   2.289   4.334   4.201
 2888SOL    HW2 9227   2.150   4.413   4.237
 2889SOL     OW 9228   2.476   3.846   3.841
 2889SOL    HW1 9229   2.574   3.824   3.848
 2889SOL    HW2 9230   2.445   3.829   3.748
 2890SOL     OW 9231   2.665   5.126   4.648
 2890SOL    HW1 9232   2.755   5.140   4.606
 2890SOL    HW2 9233   2.594   5.128   4.577
 2891SOL     OW 9234   2.784   4.227   4.623
 2891SOL    HW1 9235   2.759   4.218   4.527
 2891SOL    HW2 9236   2.832   4.145   4.654
 2892SOL     OW 9237   2.401   3.788   4.236
 2892SOL    HW1 9238   2.320   3.789   4.294
 2892SOL    HW2 9239   2.404   3.871   4.181
 2893SOL     OW 9240   3.296   4.912   3.765
 2893SOL    HW1 9241   3.328   4.836   3.822
 2893SOL    HW2 9242   3.204   4.939   3.795
 2894SOL     OW 9243   2.159   3.759   3.895
 2894SOL    HW1 9244   2.208   3.843   3.874
 2894SOL    HW2 9245   2.221   3.694   3.940
 2895SOL     OW 9246   2.797   3.960   4.204
 2895SOL    HW1 9247   2.749   4.001   4.126
 2895SOL    HW2 9248   2.896   3.958   4.185
 2896SOL     OW 9249   3.089   5.294   4.517
 2896SOL    HW1 9250   3.110   5.368   4.452
 2896SOL    HW2 9251   3.157   5.294   4.590
 2897SOL     OW 9252   2.321   4.876   4.465
 2897SOL    HW1 9253   2.250   4.849   4.530
 2897SOL    HW2 9254   2.295   4.848   4.372
 2898SOL     OW 9255   2.894   4.273   3.740
 2898SOL    HW1 9256   2.853   4.355   3.701
 2898SOL    HW2 9257   2.958   4.299   3.813
 2899SOL     OW 9258   2.423   3.946   4.871
 2899SOL    HW1 9259   2.461   3.862   4.908
 2899SOL    HW2 9260   2.335   3.965   4.915
 2900SOL     OW 9261   2.728   4.178   4.366
 2900SOL    HW1 9262   2.696   4.250   4.304
 2900SOL    HW2 9263   2.752   4.097   4.313
 2901SOL     OW 9264   2.879   3.763   4.477
 2901SOL    HW1 9265   2.807   3.768   4.408
 2901SOL    HW2 9266   2.855   3.694   4.546
 2902SOL     OW 9267   3.291   4.897   4.591
 2902SOL    HW1 9268   3.236   4.813   4.584
 2902SOL    HW2 9269   3.317   4.926   4.499
 2903SOL     OW 9270   3.328   4.314   4.716
 2903SOL    HW1 9271   3.298   4.219   4.723
 2903SOL    HW2 9272   3.401   4.330   4.782
 2904SOL     OW 9273   3.719   4.557   4.101
 2904SOL    HW1 9274   3.761   4.493   4.165
 2904SOL    HW2 9275   3.681   4.506   4.023
 2905SOL     OW 9276   3.526   5.004   4.381
 2905SOL    HW1 9277   3.625   5.012   4.395
 2905SOL    HW2 9278   3.481   5.088   4.412
 2906SOL     OW 9279   3.252   4.299   3.802
 2906SOL    HW1 9280   3.198   4.278   3.883
 2906SOL    HW2 9281   3.343   4.258   3.811
 2907SOL     OW 9282   2.389   3.980   4.052
 2907SOL    HW1 9283   2.416   3.921   3.977
 2907SOL    HW2 9284   2.389   4.075   4.021
 2908SOL     OW 9285   3.500   4.823   4.803
 2908SOL    HW1 9286   3.505   4.904   4.862
 2908SOL    HW2 9287   3.414   4.825   4.752
 2909SOL     OW 9288   2.567   4.774   4.092
 2909SOL    HW1 9289   2.553   4.781   4.191
 2909SOL    HW2 9290   2.651   4.723   4.074
 2910SOL     OW 9291   3.136   4.110   4.986
 2910SOL    HW1 9292   3.157   4.184   5.050
 2910SOL    HW2 9293   3.047   4.127   4.943
 2911SOL     OW 9294   2.229   4.824   4.225
 2911SOL    HW1 9295   2.222   4.907   4.169
 2911SOL    HW2 9296   2.233   4.744   4.165
 2912SOL     OW 9297   2.428   4.261   4.589
 2912SOL    HW1 9298   2.440   4.327   4.515
 2912SOL    HW2 9299   2.474   4.295   4.672
 2913SOL     OW 9300   3.444   4.363   4.196
 2913SOL    HW1 9301   3.413   4.424   4.269
 2913SOL    HW2 9302   3.494   4.415   4.127
 2914SOL     OW 9303   3.222   4.586   4.769
 2914SOL    HW1 9304   3.147   4.586   4.703
 2914SOL    HW2 9305   3.259   4.494   4.778
 2915SOL     OW 9306   3.071   4.249   3.999
 2915SOL    HW1 9307   3.084   4.165   4.053
 2915SOL    HW2 9308   3.042   4.323   4.059
 2916SOL     OW 9309   2.169   3.937   4.955
 2916SOL    HW1 9310   2.146   3.974   5.045
 2916SOL    HW2 9311   2.139   3.842   4.949
 2917SOL     OW 9312   2.169   3.787   4.342
 2917SOL    HW1 9313   2.158   3.881   4.375
 2917SOL    HW2 9314   2.164   3.724   4.419
 2918SOL     OW 9315   3.484   4.091   4.098
 2918SOL    HW1 9316   3.486   4.015   4.162
 2918SOL    HW2 9317   3.436   4.168   4.138
 2919SOL     OW 9318   2.885   4.490   4.690
 2919SOL    HW1 9319   2.900   4.511   4.786
 2919SOL    HW2 9320   2.855   4.395   4.681
 2920SOL     OW 9321   3.402   3.998   3.849
 2920SOL    HW1 9322   3.341   3.923   3.872
 2920SOL    HW2 9323   3.424   4.050   3.932
 2921SOL     OW 9324   3.165   4.562   3.766
 2921SOL    HW1 9325   3.199   4.469   3.781
 2921SOL    HW2 9326   3.183   4.589   3.671
 2922SOL     OW 9327   2.181   4.534   4.673
 2922SOL    HW1 9328   2.274   4.570   4.678
 2922SOL    HW2 9329   2.175   4.449   4.725
 2923SOL     OW 9330   3.022   3.931   5.201
 2923SOL    HW1 9331   3.022   3.995   5.278
 2923SOL    HW2 9332   3.050   3.979   5.118
 2924SOL     OW 9333   1.870   5.050   3.924
 2924SOL    HW1 9334   1.777   5.071   3.893
 2924SOL    HW2 9335   1.880   4.951   3.937
 2925SOL     OW 9336   2.864   4.520   4.962
 2925SOL    HW1 9337   2.905   4.488   5.048
 2925SOL    HW2 9338   2.768   4.493   4.959
 2926SOL     OW 9339   2.677   4.296   4.049
 2926SOL    HW1 9340   2.684   4.207   4.003
 2926SOL    HW2 9341   2.583   4.330   4.041
 2927SOL     OW 9342   3.519   4.328   4.930
 2927SOL    HW1 9343   3.481   4.259   4.992
 2927SOL    HW2 9344   3.601   4.292   4.886
 2928SOL     OW 9345   2.335   4.224   3.915
 2928SOL    HW1 9346   2.396   4.304   3.919
 2928SOL    HW2 9347   2.240   4.255   3.922
 2929SOL     OW 9348   3.209   4.783   4.958
 2929SOL    HW1 9349   3.233   4.720   4.884
 2929SOL    HW2 9350   3.119   4.823   4.940
 2930SOL     OW 9351   3.164   4.579   4.033
 2930SOL    HW1 9352   3.078   4.548   4.075
 2930SOL    HW2 9353   3.160   4.565   3.934
 2931SOL     OW 9354   1.945   4.982   4.746
 2931SOL    HW1 9355   1.940   4.981   4.846
 2931SOL    HW2 9356   1.862   4.941   4.708
 2932SOL     OW 9357   3.588   3.859   4.247
 2932SOL    HW1 9358   3.661   3.842   4.180
 2932SOL    HW2 9359   3.557   3.772   4.285
 2933SOL     OW 9360   3.142   4.651   4.396
 2933SOL    HW1 9361   3.202   4.570   4.398
 2933SOL    HW2 9362   3.182   4.720   4.336
 2934SOL     OW 9363   2.692   4.997   5.146
 2934SOL    HW1 9364   2.687   5.030   5.241
 2934SOL    HW2 9365   2.606   5.016   5.100
 2935SOL     OW 9366   3.703   3.899   4.687
 2935SOL    HW1 9367   3.742   3.814   4.651
 2935SOL    HW2 9368   3.605   3.901   4.668
 2936SOL     OW 9369   2.125   4.050   4.444
 2936SOL    HW1 9370   2.046   4.101   4.410
 2936SOL    HW2 9371   2.116   4.035   4.542
 2937SOL     OW 9372   3.056   5.336   3.755
 2937SOL    HW1 9373   3.062   5.243   3.792
 2937SOL    HW2 9374   2.997   5.336   3.675
 2938SOL     OW 9375   2.778   4.634   4.015
 2938SOL    HW1 9376   2.841   4.672   3.947
 2938SOL    HW2 9377   2.818   4.551   4.054
 2939SOL     OW 9378   2.901   4.822   4.420
 2939SOL    HW1 9379   2.831   4.775   4.474
 2939SOL    HW2 9380   2.960   4.754   4.377
 2940SOL     OW 9381   2.876   3.960   4.695
 2940SOL    HW1 9382   2.868   3.924   4.602
 2940SOL    HW2 9383   2.874   3.884   4.760
 2941SOL     OW 9384   3.571   4.109   5.105
 2941SOL    HW1 9385   3.644   4.178   5.109
 2941SOL    HW2 9386   3.599   4.034   5.046
 2942SOL     OW 9387   1.937   4.069   3.757
 2942SOL    HW1 9388   1.845   4.041   3.728
 2942SOL    HW2 9389   1.968   4.146   3.701
 2943SOL     OW 9390   1.934   3.890   4.042
 2943SOL    HW1 9391   1.917   3.973   3.988
 2943SOL    HW2 9392   2.024   3.853   4.020
 2944SOL     OW 9393   3.312   4.944   5.357
 2944SOL    HW1 9394   3.303   4.934   5.456
 2944SOL    HW2 9395   3.408   4.937   5.331
 2945SOL     OW 9396   3.536   4.607   4.978
 2945SOL    HW1 9397   3.509   4.518   4.941
 2945SOL    HW2 9398   3.537   4.675   4.905
 2946SOL     OW 9399   3.087   4.049   4.173
 2946SOL    HW1 9400   3.152   3.975   4.162
 2946SOL    HW2 9401   3.107   4.099   4.257
 2947SOL     OW 9402   2.456   4.469   4.376
 2947SOL    HW1 9403   2.506   4.554   4.357
 2947SOL    HW2 9404   2.368   4.471   4.328
 2948SOL     OW 9405   3.592   4.658   5.241
 2948SOL    HW1 9406   3.630   4.749   5.256
 2948SOL    HW2 9407   3.584   4.641   5.142
 2949SOL     OW 9408   2.945   4.708   3.811
 2949SOL    HW1 9409   2.922   4.761   3.729
 2949SOL    HW2 9410   3.026   4.652   3.792
 2950SOL     OW 9411   1.941   4.964   4.377
 2950SOL    HW1 9412   1.940   4.917   4.465
 2950SOL    HW2 9413   2.023   4.936   4.326
 2951SOL     OW 9414   3.686   3.916   4.951
 2951SOL    HW1 9415   3.682   3.826   4.995
 2951SOL    HW2 9416   3.689   3.905   4.852
 2952SOL     OW 9417   2.290   4.148   4.244
 2952SOL    HW1 9418   2.320   4.076   4.182
 2952SOL    HW2 9419   2.251   4.108   4.327
 2953SOL     OW 9420   3.286   3.938   4.836
 2953SOL    HW1 9421   3.338   3.873   4.891
 2953SOL    HW2 9422   3.237   4.001   4.897
 2954SOL     OW 9423   2.863   3.758   4.878
 2954SOL    HW1 9424   2.800   3.686   4.847
 2954SOL    HW2 9425   2.956   3.722   4.878
 2955SOL     OW 9426   2.632   5.054   4.025
 2955SOL    HW1 9427   2.586   4.967   4.042
 2955SOL    HW2 9428   2.723   5.051   4.066
 2956SOL     OW 9429   3.214   3.776   3.892
 2956SOL    HW1 9430   3.249   3.735   3.808
 2956SOL    HW2 9431   3.124   3.738   3.912
 2957SOL     OW 9432   3.162   4.177   4.415
 2957SOL    HW1 9433   3.103   4.257   4.419
 2957SOL    HW2 9434   3.177   4.142   4.508
 2958SOL     OW 9435   3.455   3.945   4.606
 2958SOL    HW1 9436   3.371   3.944   4.660
 2958SOL    HW2 9437   3.457   4.028   4.550
 2959SOL     OW 9438   1.901   4.801   4.024
 2959SOL    HW1 9439   2.000   4.790   4.015
 2959SOL    HW2 9440   1.861   4.715   4.056
 2960SOL     OW 9441   3.954   0.628   0.113
 2960SOL    HW1 9442   3.861   0.626   0.150
 2960SOL    HW2 9443   3.955   0.589   0.021
 2961SOL     OW 9444   3.949   0.275   0.996
 2961SOL    HW1 9445   3.984   0.258   1.088
 2961SOL    HW2 9446   3.861   0.230   0.984
 2962SOL     OW 9447   3.743   0.368   0.647
 2962SOL    HW1 9448   3.661   0.411   0.686
 2962SOL    HW2 9449   3.715   0.295   0.584
 2963SOL     OW 9450   4.293   1.275   1.165
 2963SOL    HW1 9451   4.200   1.268   1.128
 2963SOL    HW2 9452   4.304   1.364   1.209
 2964SOL     OW 9453   4.859   0.703   0.717
 2964SOL    HW1 9454   4.916   0.781   0.692
 2964SOL    HW2 9455   4.799   0.729   0.793
 2965SOL     OW 9456   4.492   1.144   1.023
 2965SOL    HW1 9457   4.414   1.161   1.083
 2965SOL    HW2 9458   4.526   1.231   0.987
 2966SOL     OW 9459   4.574   0.798   1.823
 2966SOL    HW1 9460   4.570   0.874   1.888
 2966SOL    HW2 9461   4.596   0.834   1.732
 2967SOL     OW 9462   4.409   1.012   0.665
 2967SOL    HW1 9463   4.478   0.996   0.735
 2967SOL    HW2 9464   4.336   1.069   0.703
 2968SOL     OW 9465   4.410   1.161   1.803
 2968SOL    HW1 9466   4.470   1.240   1.817
 2968SOL    HW2 9467   4.324   1.192   1.762
 2969SOL     OW 9468   4.059   1.435   1.061
 2969SOL    HW1 9469   3.981   1.404   1.008
 2969SOL    HW2 9470   4.117   1.493   1.004
 2970SOL     OW 9471   4.162   0.392   1.499
 2970SOL    HW1 9472   4.244   0.336   1.508
 2970SOL    HW2 9473   4.081   0.334   1.503
 2971SOL     OW 9474   3.955   1.713   0.483
 2971SOL    HW1 9475   3.989   1.790   0.537
 2971SOL    HW2 9476   3.999   1.713   0.393
 2972SOL     OW 9477   4.851   1.341   1.690
 2972SOL    HW1 9478   4.898   1.341   1.778
 2972SOL    HW2 9479   4.803   1.254   1.679
 2973SOL     OW 9480   3.954   1.434   0.538
 2973SOL    HW1 9481   3.928   1.530   0.538
 2973SOL    HW2 9482   3.883   1.380   0.583
 2974SOL     OW 9483   3.964   1.091   0.886
 2974SOL    HW1 9484   3.978   1.007   0.938
 2974SOL    HW2 9485   3.909   1.155   0.941
 2975SOL     OW 9486   4.344   1.786   1.439
 2975SOL    HW1 9487   4.252   1.769   1.474
 2975SOL    HW2 9488   4.372   1.878   1.465
 2976SOL     OW 9489   4.330   0.964   0.123
 2976SOL    HW1 9490   4.337   1.048   0.069
 2976SOL    HW2 9491   4.376   0.977   0.211
 2977SOL     OW 9492   3.846   0.643   0.563
 2977SOL    HW1 9493   3.801   0.555   0.580
 2977SOL    HW2 9494   3.845   0.697   0.647
 2978SOL     OW 9495   3.751   1.596   0.117
 2978SOL    HW1 9496   3.732   1.500   0.138
 2978SOL    HW2 9497   3.718   1.654   0.192
 2979SOL     OW 9498   3.837   0.737   1.597
 2979SOL    HW1 9499   3.925   0.724   1.642
 2979SOL    HW2 9500   3.824   0.834   1.575
 2980SOL     OW 9501   4.337   1.365   0.726
 2980SOL    HW1 9502   4.288   1.278   0.735
 2980SOL    HW2 9503   4.314   1.408   0.639
 2981SOL     OW 9504   4.533   0.004   0.502
 2981SOL    HW1 9505   4.573   0.095   0.493
 2981SOL    HW2 9506   4.433   0.012   0.508
 2982SOL     OW 9507   3.921   0.976   1.264
 2982SOL    HW1 9508   4.010   0.931   1.250
 2982SOL    HW2 9509   3.848   0.911   1.245
 2983SOL     OW 9510   4.911   1.792   1.616
 2983SOL    HW1 9511   4.935   1.852   1.540
 2983SOL    HW2 9512   4.918   1.697   1.586
 2984SOL     OW 9513   4.041   0.251   1.801
 2984SOL    HW1 9514   4.112   0.322   1.807
 2984SOL    HW2 9515   3.953   0.290   1.829
 2985SOL     OW 9516   4.322   0.729   0.270
 2985SOL    HW1 9517   4.346   0.798   0.202
 2985SOL    HW2 9518   4.244   0.762   0.324
 2986SOL     OW 9519   5.005   0.345   0.944
 2986SOL    HW1 9520   4.919   0.295   0.931
 2986SOL    HW2 9521   5.067   0.291   1.000
 2987SOL     OW 9522   4.697   0.890   1.572
 2987SOL    HW1 9523   4.743   0.806   1.543
 2987SOL    HW2 9524   4.641   0.924   1.497
 2988SOL     OW 9525   4.715   0.410   1.242
 2988SOL    HW1 9526   4.638   0.444   1.296
 2988SOL    HW2 9527   4.681   0.359   1.163
 2989SOL     OW 9528   4.765   0.701   0.429
 2989SOL    HW1 9529   4.791   0.697   0.525
 2989SOL    HW2 9530   4.680   0.650   0.415
 2990SOL     OW 9531   3.800   0.811   0.789
 2990SOL    HW1 9532   3.899   0.799   0.798
 2990SOL    HW2 9533   3.776   0.906   0.810
 2991SOL     OW 9534   3.854   1.821   1.571
 2991SOL    HW1 9535   3.844   1.806   1.670
 2991SOL    HW2 9536   3.768   1.857   1.535
 2992SOL     OW 9537   4.274   0.196   0.885
 2992SOL    HW1 9538   4.269   0.191   0.985
 2992SOL    HW2 9539   4.276   0.292   0.856
 2993SOL     OW 9540   4.732   1.456   0.477
 2993SOL    HW1 9541   4.686   1.528   0.425
 2993SOL    HW2 9542   4.728   1.476   0.575
 2994SOL     OW 9543   4.075   1.801   0.853
 2994SOL    HW1 9544   4.125   1.715   0.859
 2994SOL    HW2 9545   4.140   1.878   0.850
 2995SOL     OW 9546   4.951   1.550   1.506
 2995SOL    HW1 9547   4.957   1.473   1.570
 2995SOL    HW2 9548   4.899   1.524   1.426
 2996SOL     OW 9549   4.045   0.943   0.242
 2996SOL    HW1 9550   4.127   0.982   0.200
 2996SOL    HW2 9551   4.018   0.861   0.193
 2997SOL     OW 9552   4.185   1.266   1.727
 2997SOL    HW1 9553   4.135   1.267   1.641
 2997SOL    HW2 9554   4.122   1.248   1.803
 2998SOL     OW 9555   4.835   1.776   0.237
 2998SOL    HW1 9556   4.775   1.714   0.287
 2998SOL    HW2 9557   4.866   1.732   0.152
 2999SOL     OW 9558   3.926   0.285   1.498
 2999SOL    HW1 9559   3.846   0.345   1.485
 2999SOL    HW2 9560   3.916   0.236   1.584
 3000SOL     OW 9561   5.356   1.377   0.081
 3000SOL    HW1 9562   5.324   1.471   0.071
 3000SOL    HW2 9563   5.280   1.314   0.069
 3001SOL     OW 9564   4.188   1.743   0.323
 3001SOL    HW1 9565   4.221   1.782   0.409
 3001SOL    HW2 9566   4.264   1.736   0.258
 3002SOL     OW 9567   3.973   1.785   1.241
 3002SOL    HW1 9568   4.030   1.720   1.291
 3002SOL    HW2 9569   3.957   1.752   1.148
 3003SOL     OW 9570   4.664   1.698   0.904
 3003SOL    HW1 9571   4.744   1.641   0.925
 3003SOL    HW2 9572   4.615   1.658   0.827
 3004SOL     OW 9573   4.106   0.700   0.480
 3004SOL    HW1 9574   4.151   0.610   0.477
 3004SOL    HW2 9575   4.012   0.689   0.513
 3005SOL     OW 9576   4.338   0.122   0.117
 3005SOL    HW1 9577   4.436   0.100   0.124
 3005SOL    HW2 9578   4.307   0.105   0.024
 3006SOL     OW 9579   4.612   1.514   1.195
 3006SOL    HW1 9580   4.589   1.489   1.101
 3006SOL    HW2 9581   4.673   1.445   1.234
 3007SOL     OW 9582   4.527   1.402   0.924
 3007SOL    HW1 9583   4.617   1.416   0.882
 3007SOL    HW2 9584   4.456   1.404   0.853
 3008SOL     OW 9585   4.646   0.503   0.899
 3008SOL    HW1 9586   4.621   0.494   0.803
 3008SOL    HW2 9587   4.694   0.421   0.930
 3009SOL     OW 9588   4.263   0.064   0.512
 3009SOL    HW1 9589   4.182   0.065   0.570
 3009SOL    HW2 9590   4.266   0.147   0.457
 3010SOL     OW 9591   4.021   0.035   0.171
 3010SOL    HW1 9592   4.070   0.119   0.150
 3010SOL    HW2 9593   4.083  -0.030   0.216
 3011SOL     OW 9594   4.659   0.236   0.480
 3011SOL    HW1 9595   4.611   0.277   0.402
 3011SOL    HW2 9596   4.758   0.234   0.461
 3012SOL     OW 9597   4.951   1.570   0.793
 3012SOL    HW1 9598   4.972   1.644   0.728
 3012SOL    HW2 9599   5.019   1.570   0.866
 3013SOL     OW 9600   4.183   1.152   0.741
 3013SOL    HW1 9601   4.112   1.125   0.806
 3013SOL    HW2 9602   4.157   1.124   0.648
 3014SOL     OW 9603   4.995   1.797   0.591
 3014SOL    HW1 9604   5.039   1.861   0.527
 3014SOL    HW2 9605   4.945   1.849   0.661
 3015SOL     OW 9606   3.802   0.556   1.386
 3015SOL    HW1 9607   3.894   0.555   1.345
 3015SOL    HW2 9608   3.796   0.630   1.453
 3016SOL     OW 9609   4.285   0.222   1.147
 3016SOL    HW1 9610   4.323   0.138   1.184
 3016SOL    HW2 9611   4.197   0.241   1.191
 3017SOL     OW 9612   4.590   0.454   0.642
 3017SOL    HW1 9613   4.558   0.526   0.580
 3017SOL    HW2 9614   4.614   0.373   0.589
 3018SOL     OW 9615   4.741   0.039   0.753
 3018SOL    HW1 9616   4.669   0.044   0.684
 3018SOL    HW2 9617   4.717  -0.030   0.822
 3019SOL     OW 9618   4.212   1.385   0.174
 3019SOL    HW1 9619   4.125   1.370   0.221
 3019SOL    HW2 9620   4.195   1.411   0.079
 3020SOL     OW 9621   5.388   1.280   0.657
 3020SOL    HW1 9622   5.487   1.288   0.671
 3020SOL    HW2 9623   5.343   1.364   0.688
 3021SOL     OW 9624   4.251   0.256   0.328
 3021SOL    HW1 9625   4.278   0.197   0.253
 3021SOL    HW2 9626   4.251   0.351   0.297
 3022SOL     OW 9627   4.788   1.347   1.340
 3022SOL    HW1 9628   4.708   1.324   1.395
 3022SOL    HW2 9629   4.871   1.321   1.389
 3023SOL     OW 9630   4.835   1.195   1.100
 3023SOL    HW1 9631   4.795   1.239   1.181
 3023SOL    HW2 9632   4.794   1.232   1.017
 3024SOL     OW 9633   4.639   0.089   1.402
 3024SOL    HW1 9634   4.664   0.069   1.307
 3024SOL    HW2 9635   4.711   0.145   1.444
 3025SOL     OW 9636   4.704   1.116   1.719
 3025SOL    HW1 9637   4.605   1.122   1.729
 3025SOL    HW2 9638   4.727   1.036   1.663
 3026SOL     OW 9639   4.429   1.050   0.368
 3026SOL    HW1 9640   4.415   1.057   0.467
 3026SOL    HW2 9641   4.513   0.999   0.350
 3027SOL     OW 9642   4.134   0.813   1.251
 3027SOL    HW1 9643   4.220   0.825   1.301
 3027SOL    HW2 9644   4.092   0.726   1.278
 3028SOL     OW 9645   3.788   1.564   1.331
 3028SOL    HW1 9646   3.742   1.646   1.297
 3028SOL    HW2 9647   3.886   1.583   1.340
 3029SOL     OW 9648   4.091   1.100   0.501
 3029SOL    HW1 9649   4.084   1.183   0.445
 3029SOL    HW2 9650   4.095   1.020   0.441
 3030SOL     OW 9651   4.290   0.537   0.865
 3030SOL    HW1 9652   4.302   0.603   0.791
 3030SOL    HW2 9653   4.336   0.571   0.948
 3031SOL     OW 9654   4.976   1.348   0.388
 3031SOL    HW1 9655   5.026   1.425   0.428
 3031SOL    HW2 9656   4.881   1.350   0.420
 3032SOL     OW 9657   4.078   1.510   1.329
 3032SOL    HW1 9658   4.057   1.466   1.242
 3032SOL    HW2 9659   4.175   1.536   1.332
 3033SOL     OW 9660   4.228   0.050   1.740
 3033SOL    HW1 9661   4.186  -0.007   1.670
 3033SOL    HW2 9662   4.162   0.119   1.772
 3034SOL     OW 9663   4.297   0.870   1.029
 3034SOL    HW1 9664   4.341   0.959   1.020
 3034SOL    HW2 9665   4.234   0.870   1.106
 3035SOL     OW 9666   4.933   0.525   0.275
 3035SOL    HW1 9667   4.946   0.441   0.329
 3035SOL    HW2 9668   4.904   0.599   0.335
 3036SOL     OW 9669   4.031   0.213   1.231
 3036SOL    HW1 9670   4.008   0.250   1.321
 3036SOL    HW2 9671   4.001   0.118   1.225
 3037SOL     OW 9672   3.761   1.310   1.282
 3037SOL    HW1 9673   3.814   1.261   1.350
 3037SOL    HW2 9674   3.783   1.408   1.287
 3038SOL     OW 9675   4.456   0.634   1.064
 3038SOL    HW1 9676   4.515   0.608   0.988
 3038SOL    HW2 9677   4.428   0.730   1.053
 3039SOL     OW 9678   4.031   0.063   0.618
 3039SOL    HW1 9679   4.020   0.157   0.651
 3039SOL    HW2 9680   4.026   0.000   0.695
 3040SOL     OW 9681   5.346   0.367   0.374
 3040SOL    HW1 9682   5.348   0.291   0.438
 3040SOL    HW2 9683   5.298   0.444   0.414
 3041SOL     OW 9684   4.747   0.766   0.966
 3041SOL    HW1 9685   4.762   0.787   1.062
 3041SOL    HW2 9686   4.717   0.671   0.957
 3042SOL     OW 9687   4.704   1.573   1.700
 3042SOL    HW1 9688   4.684   1.617   1.612
 3042SOL    HW2 9689   4.743   1.482   1.684
 3043SOL     OW 9690   4.074   0.898   1.804
 3043SOL    HW1 9691   4.150   0.942   1.852
 3043SOL    HW2 9692   4.109   0.851   1.722
 3044SOL     OW 9693   4.792   1.333   0.849
 3044SOL    HW1 9694   4.799   1.249   0.794
 3044SOL    HW2 9695   4.854   1.402   0.813
 3045SOL     OW 9696   4.043   0.810   0.949
 3045SOL    HW1 9697   4.136   0.846   0.954
 3045SOL    HW2 9698   4.037   0.725   1.001
 3046SOL     OW 9699   4.063   0.509   1.006
 3046SOL    HW1 9700   4.011   0.426   0.989
 3046SOL    HW2 9701   4.140   0.514   0.942
 3047SOL     OW 9702   3.812   1.801   0.927
 3047SOL    HW1 9703   3.770   1.715   0.900
 3047SOL    HW2 9704   3.906   1.804   0.893
 3048SOL     OW 9705   4.228   1.568   0.910
 3048SOL    HW1 9706   4.294   1.642   0.919
 3048SOL    HW2 9707   4.272   1.489   0.868
 3049SOL     OW 9708   3.764   0.544   1.114
 3049SOL    HW1 9709   3.849   0.511   1.073
 3049SOL    HW2 9710   3.777   0.559   1.212
 3050SOL     OW 9711   3.913   0.520   1.722
 3050SOL    HW1 9712   3.972   0.480   1.652
 3050SOL    HW2 9713   3.855   0.591   1.681
 3051SOL     OW 9714   4.539   0.572   0.325
 3051SOL    HW1 9715   4.546   0.483   0.279
 3051SOL    HW2 9716   4.445   0.606   0.317
 3052SOL     OW 9717   3.976   1.564   1.744
 3052SOL    HW1 9718   3.946   1.621   1.820
 3052SOL    HW2 9719   3.969   1.467   1.770
 3053SOL     OW 9720   4.395   0.464   1.269
 3053SOL    HW1 9721   4.361   0.375   1.239
 3053SOL    HW2 9722   4.421   0.518   1.189
 3054SOL     OW 9723   4.654   1.678   1.465
 3054SOL    HW1 9724   4.630   1.660   1.370
 3054SOL    HW2 9725   4.684   1.772   1.475
 3055SOL     OW 9726   4.197   0.500   0.191
 3055SOL    HW1 9727   4.258   0.580   0.195
 3055SOL    HW2 9728   4.102   0.531   0.198
 3056SOL     OW 9729   3.883   1.137   1.466
 3056SOL    HW1 9730   3.905   1.076   1.542
 3056SOL    HW2 9731   3.893   1.088   1.380
 3057SOL     OW 9732   4.976   1.731   1.128
 3057SOL    HW1 9733   5.060   1.736   1.074
 3057SOL    HW2 9734   4.953   1.635   1.146
 3058SOL     OW 9735   3.807   1.258   1.022
 3058SOL    HW1 9736   3.802   1.257   1.122
 3058SOL    HW2 9737   3.724   1.217   0.984
 3059SOL     OW 9738   4.412   1.662   1.716
 3059SOL    HW1 9739   4.356   1.743   1.725
 3059SOL    HW2 9740   4.464   1.666   1.630
 3060SOL     OW 9741   5.112   1.573   0.477
 3060SOL    HW1 9742   5.179   1.585   0.403
 3060SOL    HW2 9743   5.072   1.662   0.500
 3061SOL     OW 9744   3.854   1.794   1.851
 3061SOL    HW1 9745   3.813   1.720   1.904
 3061SOL    HW2 9746   3.918   1.845   1.909
 3062SOL     OW 9747   4.554   1.273   1.422
 3062SOL    HW1 9748   4.549   1.306   1.517
 3062SOL    HW2 9749   4.468   1.292   1.376
 3063SOL     OW 9750   4.396   1.616   0.154
 3063SOL    HW1 9751   4.405   1.626   0.055
 3063SOL    HW2 9752   4.356   1.527   0.175
 3064SOL     OW 9753   3.987   0.326   0.720
 3064SOL    HW1 9754   3.908   0.377   0.686
 3064SOL    HW2 9755   3.978   0.311   0.818
 3065SOL     OW 9756   4.918   1.612   0.031
 3065SOL    HW1 9757   4.924   1.519   0.068
 3065SOL    HW2 9758   4.859   1.612  -0.049
 3066SOL     OW 9759   4.546   1.002   1.372
 3066SOL    HW1 9760   4.586   1.001   1.280
 3066SOL    HW2 9761   4.556   1.094   1.412
 3067SOL     OW 9762   4.640   0.910   0.291
 3067SOL    HW1 9763   4.703   0.948   0.223
 3067SOL    HW2 9764   4.680   0.827   0.330
 3068SOL     OW 9765   4.096   1.288   1.490
 3068SOL    HW1 9766   4.083   1.381   1.456
 3068SOL    HW2 9767   4.012   1.236   1.477
 3069SOL     OW 9768   4.738   0.236   0.971
 3069SOL    HW1 9769   4.730   0.200   0.878
 3069SOL    HW2 9770   4.736   0.160   1.036
 3070SOL     OW 9771   4.314   1.487   0.491
 3070SOL    HW1 9772   4.356   1.429   0.421
 3070SOL    HW2 9773   4.270   1.566   0.447
 3071SOL     OW 9774   3.979   1.348   0.290
 3071SOL    HW1 9775   3.883   1.349   0.263
 3071SOL    HW2 9776   3.991   1.401   0.374
 3072SOL     OW 9777   3.829   1.013   1.726
 3072SOL    HW1 9778   3.752   0.980   1.780
 3072SOL    HW2 9779   3.914   0.983   1.768
 3073SOL     OW 9780   3.796   0.166   0.318
 3073SOL    HW1 9781   3.779   0.249   0.264
 3073SOL    HW2 9782   3.886   0.129   0.296
 3074SOL     OW 9783   4.337   0.842   1.431
 3074SOL    HW1 9784   4.393   0.923   1.414
 3074SOL    HW2 9785   4.396   0.762   1.434
 3075SOL     OW 9786   4.114   1.741   1.560
 3075SOL    HW1 9787   4.023   1.782   1.558
 3075SOL    HW2 9788   4.107   1.647   1.592
 3076SOL     OW 9789   4.949   0.325   0.449
 3076SOL    HW1 9790   5.014   0.251   0.438
 3076SOL    HW2 9791   4.969   0.375   0.533
 3077SOL     OW 9792   4.318   0.745   0.652
 3077SOL    HW1 9793   4.368   0.830   0.633
 3077SOL    HW2 9794   4.230   0.747   0.604
 3078SOL     OW 9795   4.583   1.374   0.016
 3078SOL    HW1 9796   4.537   1.389   0.104
 3078SOL    HW2 9797   4.627   1.459  -0.014
 3079SOL     OW 9798   4.385   1.790   0.953
 3079SOL    HW1 9799   4.339   1.878   0.940
 3079SOL    HW2 9800   4.484   1.802   0.946
 3080SOL     OW 9801   4.807   0.984   0.087
 3080SOL    HW1 9802   4.784   1.037   0.005
 3080SOL    HW2 9803   4.888   0.928   0.068
 3081SOL     OW 9804   3.945   1.314   1.844
 3081SOL    HW1 9805   3.880   1.241   1.823
 3081SOL    HW2 9806   3.949   1.328   1.942
 3082SOL     OW 9807   3.803   1.240   0.653
 3082SOL    HW1 9808   3.802   1.193   0.741
 3082SOL    HW2 9809   3.885   1.212   0.602
 3083SOL     OW 9810   4.396   1.391   1.624
 3083SOL    HW1 9811   4.318   1.341   1.662
 3083SOL    HW2 9812   4.393   1.486   1.655
 3084SOL     OW 9813   4.152   0.424   0.520
 3084SOL    HW1 9814   4.182   0.352   0.458
 3084SOL    HW2 9815   4.113   0.384   0.603
 3085SOL     OW 9816   4.041   0.547   1.280
 3085SOL    HW1 9817   4.079   0.488   1.352
 3085SOL    HW2 9818   4.081   0.521   1.192
 3086SOL     OW 9819   4.536   1.586   0.687
 3086SOL    HW1 9820   4.568   1.596   0.593
 3086SOL    HW2 9821   4.457   1.524   0.689
 3087SOL     OW 9822   4.725   0.034   1.154
 3087SOL    HW1 9823   4.662  -0.038   1.123
 3087SOL    HW2 9824   4.818  -0.002   1.154
 3088SOL     OW 9825   4.494   1.330   0.301
 3088SOL    HW1 9826   4.448   1.243   0.318
 3088SOL    HW2 9827   4.585   1.327   0.342
 3089SOL     OW 9828   4.342   1.567   1.284
 3089SOL    HW1 9829   4.337   1.649   1.341
 3089SOL    HW2 9830   4.431   1.564   1.239
 3090SOL     OW 9831   3.763   1.077   0.300
 3090SOL    HW1 9832   3.862   1.066   0.291
 3090SOL    HW2 9833   3.723   0.991   0.332
 3091SOL     OW 9834   4.599   1.646   0.337
 3091SOL    HW1 9835   4.522   1.611   0.283
 3091SOL    HW2 9836   4.567   1.717   0.399
 3092SOL     OW 9837   3.954   0.628   1.975
 3092SOL    HW1 9838   3.861   0.626   2.012
 3092SOL    HW2 9839   3.955   0.589   1.883
 3093SOL     OW 9840   3.949   0.275   2.858
 3093SOL    HW1 9841   3.984   0.258   2.950
 3093SOL    HW2 9842   3.861   0.230   2.846
 3094SOL     OW 9843   3.743   0.368   2.509
 3094SOL    HW1 9844   3.661   0.411   2.548
 3094SOL    HW2 9845   3.715   0.295   2.446
 3095SOL     OW 9846   4.293   1.275   3.027
 3095SOL    HW1 9847   4.200   1.268   2.990
 3095SOL    HW2 9848   4.304   1.364   3.071
 3096SOL     OW 9849   4.859   0.703   2.579
 3096SOL    HW1 9850   4.916   0.781   2.554
 3096SOL    HW2 9851   4.799   0.729   2.655
 3097SOL     OW 9852   4.492   1.144   2.885
 3097SOL    HW1 9853   4.414   1.161   2.945
 3097SOL    HW2 9854   4.526   1.231   2.849
 3098SOL     OW 9855   4.574   0.798   3.685
 3098SOL    HW1 9856   4.570   0.874   3.750
 3098SOL    HW2 9857   4.596   0.834   3.594
 3099SOL     OW 9858   4.409   1.012   2.527
 3099SOL    HW1 9859   4.478   0.996   2.597
 3099SOL    HW2 9860   4.336   1.069   2.565
 3100SOL     OW 9861   4.410   1.161   3.665
 3100SOL    HW1 9862   4.470   1.240   3.679
 3100SOL    HW2 9863   4.324   1.192   3.624
 3101SOL     OW 9864   4.059   1.435   2.923
 3101SOL    HW1 9865   3.981   1.404   2.870
 3101SOL    HW2 9866   4.117   1.493   2.866
 3102SOL     OW 9867   4.162   0.392   3.361
 3102SOL    HW1 9868   4.244   0.336   3.370
 3102SOL    HW2 9869   4.081   0.334   3.365
 3103SOL     OW 9870   3.955   1.713   2.345
 3103SOL    HW1 9871   3.989   1.790   2.399
 3103SOL    HW2 9872   3.999   1.713   2.255
 3104SOL     OW 9873   4.851   1.341   3.552
 3104SOL    HW1 9874   4.898   1.341   3.640
 3104SOL    HW2 9875   4.803   1.254   3.541
 3105SOL     OW 9876   3.954   1.434   2.400
 3105SOL    HW1 9877   3.928   1.530   2.400
 3105SOL    HW2 9878   3.883   1.380   2.445
 3106SOL     OW 9879   4.344   1.786   3.301
 3106SOL    HW1 9880   4.252   1.769   3.336
 3106SOL    HW2 9881   4.372   1.878   3.327
 3107SOL     OW 9882   4.330   0.964   1.985
 3107SOL    HW1 9883   4.337   1.048   1.931
 3107SOL    HW2 9884   4.376   0.977   2.073
 3108SOL     OW 9885   3.846   0.643   2.425
 3108SOL    HW1 9886   3.801   0.555   2.442
 3108SOL    HW2 9887   3.845   0.697   2.509
 3109SOL     OW 9888   3.751   1.596   1.979
 3109SOL    HW1 9889   3.732   1.500   2.000
 3109SOL    HW2 9890   3.718   1.654   2.054
 3110SOL     OW 9891   3.837   0.737   3.459
 3110SOL    HW1 9892   3.925   0.724   3.504
 3110SOL    HW2 9893   3.824   0.834   3.437
 3111SOL     OW 9894   4.337   1.365   2.588
 3111SOL    HW1 9895   4.288   1.278   2.597
 3111SOL    HW2 9896   4.314   1.408   2.501
 3112SOL     OW 9897   5.017   1.228   3.285
 3112SOL    HW1 9898   5.054   1.155   3.227
 3112SOL    HW2 9899   5.069   1.233   3.370
 3113SOL     OW 9900   4.533   0.004   2.364
 3113SOL    HW1 9901   4.573   0.095   2.355
 3113SOL    HW2 9902   4.433   0.012   2.370
 3114SOL     OW 9903   4.911   1.792   3.478
 3114SOL    HW1 9904   4.935   1.852   3.402
 3114SOL    HW2 9905   4.918   1.697   3.448
 3115SOL     OW 9906   4.041   0.251   3.663
 3115SOL    HW1 9907   4.112   0.322   3.669
 3115SOL    HW2 9908   3.953   0.290   3.691
 3116SOL     OW 9909   4.322   0.729   2.132
 3116SOL    HW1 9910   4.346   0.798   2.064
 3116SOL    HW2 9911   4.244   0.762   2.186
 3117SOL     OW 9912   5.005   0.345   2.806
 3117SOL    HW1 9913   4.919   0.295   2.793
 3117SOL    HW2 9914   5.067   0.291   2.862
 3118SOL     OW 9915   4.531   0.605   3.327
 3118SOL    HW1 9916   4.484   0.602   3.416
 3118SOL    HW2 9917   4.480   0.550   3.261
 3119SOL     OW 9918   4.697   0.890   3.434
 3119SOL    HW1 9919   4.743   0.806   3.405
 3119SOL    HW2 9920   4.641   0.924   3.359
 3120SOL     OW 9921   4.715   0.410   3.104
 3120SOL    HW1 9922   4.638   0.444   3.158
 3120SOL    HW2 9923   4.681   0.359   3.025
 3121SOL     OW 9924   4.765   0.701   2.291
 3121SOL    HW1 9925   4.791   0.697   2.387
 3121SOL    HW2 9926   4.680   0.650   2.277
 3122SOL     OW 9927   3.800   0.811   2.651
 3122SOL    HW1 9928   3.899   0.799   2.660
 3122SOL    HW2 9929   3.776   0.906   2.672
 3123SOL     OW 9930   3.854   1.821   3.433
 3123SOL    HW1 9931   3.844   1.806   3.532
 3123SOL    HW2 9932   3.768   1.857   3.397
 3124SOL     OW 9933   4.589   0.348   2.057
 3124SOL    HW1 9934   4.648   0.411   2.008
 3124SOL    HW2 9935   4.608   0.254   2.028
 3125SOL     OW 9936   4.274   0.196   2.747
 3125SOL    HW1 9937   4.269   0.191   2.847
 3125SOL    HW2 9938   4.276   0.292   2.718
 3126SOL     OW 9939   4.075   1.801   2.715
 3126SOL    HW1 9940   4.125   1.715   2.721
 3126SOL    HW2 9941   4.140   1.878   2.712
 3127SOL     OW 9942   4.951   1.550   3.368
 3127SOL    HW1 9943   4.957   1.473   3.432
 3127SOL    HW2 9944   4.899   1.524   3.288
 3128SOL     OW 9945   4.045   0.943   2.104
 3128SOL    HW1 9946   4.127   0.982   2.062
 3128SOL    HW2 9947   4.018   0.861   2.055
 3129SOL     OW 9948   4.185   1.266   3.589
 3129SOL    HW1 9949   4.135   1.267   3.503
 3129SOL    HW2 9950   4.122   1.248   3.665
 3130SOL     OW 9951   4.835   1.776   2.099
 3130SOL    HW1 9952   4.775   1.714   2.149
 3130SOL    HW2 9953   4.866   1.732   2.014
 3131SOL     OW 9954   3.926   0.285   3.360
 3131SOL    HW1 9955   3.846   0.345   3.347
 3131SOL    HW2 9956   3.916   0.236   3.446
 3132SOL     OW 9957   4.188   1.743   2.185
 3132SOL    HW1 9958   4.221   1.782   2.271
 3132SOL    HW2 9959   4.264   1.736   2.120
 3133SOL     OW 9960   3.973   1.785   3.103
 3133SOL    HW1 9961   4.030   1.720   3.153
 3133SOL    HW2 9962   3.957   1.752   3.010
 3134SOL     OW 9963   4.664   1.698   2.766
 3134SOL    HW1 9964   4.744   1.641   2.787
 3134SOL    HW2 9965   4.615   1.658   2.689
 3135SOL     OW 9966   4.106   0.700   2.342
 3135SOL    HW1 9967   4.151   0.610   2.339
 3135SOL    HW2 9968   4.012   0.689   2.375
 3136SOL     OW 9969   4.338   0.122   1.979
 3136SOL    HW1 9970   4.436   0.100   1.986
 3136SOL    HW2 9971   4.307   0.105   1.886
 3137SOL     OW 9972   4.505   0.264   3.611
 3137SOL    HW1 9973   4.572   0.203   3.654
 3137SOL    HW2 9974   4.432   0.283   3.676
 3138SOL     OW 9975   4.612   1.514   3.057
 3138SOL    HW1 9976   4.589   1.489   2.963
 3138SOL    HW2 9977   4.673   1.445   3.096
 3139SOL     OW 9978   4.527   1.402   2.786
 3139SOL    HW1 9979   4.617   1.416   2.744
 3139SOL    HW2 9980   4.456   1.404   2.715
 3140SOL     OW 9981   4.646   0.503   2.761
 3140SOL    HW1 9982   4.621   0.494   2.665
 3140SOL    HW2 9983   4.694   0.421   2.792
 3141SOL     OW 9984   4.263   0.064   2.374
 3141SOL    HW1 9985   4.182   0.065   2.432
 3141SOL    HW2 9986   4.266   0.147   2.319
 3142SOL     OW 9987   4.021   0.035   2.033
 3142SOL    HW1 9988   4.070   0.119   2.012
 3142SOL    HW2 9989   4.083  -0.030   2.078
 3143SOL     OW 9990   4.659   0.236   2.342
 3143SOL    HW1 9991   4.611   0.277   2.264
 3143SOL    HW2 9992   4.758   0.234   2.323
 3144SOL     OW 9993   4.800   0.683   3.326
 3144SOL    HW1 9994   4.720   0.622   3.329
 3144SOL    HW2 9995   4.881   0.630   3.302
 3145SOL     OW 9996   4.183   1.152   2.603
 3145SOL    HW1 9997   4.112   1.125   2.668
 3145SOL    HW2 9998   4.157   1.124   2.510
 3146SOL     OW 9999   3.802   0.556   3.248
 3146SOL    HW110000   3.894   0.555   3.207
 3146SOL    HW210001   3.796   0.630   3.315
 3147SOL     OW10002   4.285   0.222   3.009
 3147SOL    HW110003   4.323   0.138   3.046
 3147SOL    HW210004   4.197   0.241   3.053
 3148SOL     OW10005   4.590   0.454   2.504
 3148SOL    HW110006   4.558   0.526   2.442
 3148SOL    HW210007   4.614   0.373   2.451
 3149SOL     OW10008   4.741   0.039   2.615
 3149SOL    HW110009   4.669   0.044   2.546
 3149SOL    HW210010   4.717  -0.030   2.684
 3150SOL     OW10011   4.212   1.385   2.036
 3150SOL    HW110012   4.125   1.370   2.083
 3150SOL    HW210013   4.195   1.411   1.941
 3151SOL     OW10014   5.388   1.280   2.519
 3151SOL    HW110015   5.487   1.288   2.533
 3151SOL    HW210016   5.343   1.364   2.550
 3152SOL     OW10017   4.251   0.256   2.190
 3152SOL    HW110018   4.278   0.197   2.115
 3152SOL    HW210019   4.251   0.351   2.159
 3153SOL     OW10020   4.788   1.347   3.202
 3153SOL    HW110021   4.708   1.324   3.257
 3153SOL    HW210022   4.871   1.321   3.251
 3154SOL     OW10023   4.835   1.195   2.962
 3154SOL    HW110024   4.795   1.239   3.043
 3154SOL    HW210025   4.794   1.232   2.879
 3155SOL     OW10026   4.639   0.089   3.264
 3155SOL    HW110027   4.664   0.069   3.169
 3155SOL    HW210028   4.711   0.145   3.306
 3156SOL     OW10029   4.704   1.116   3.581
 3156SOL    HW110030   4.605   1.122   3.591
 3156SOL    HW210031   4.727   1.036   3.525
 3157SOL     OW10032   4.429   1.050   2.230
 3157SOL    HW110033   4.415   1.057   2.329
 3157SOL    HW210034   4.513   0.999   2.212
 3158SOL     OW10035   4.134   0.813   3.113
 3158SOL    HW110036   4.220   0.825   3.163
 3158SOL    HW210037   4.092   0.726   3.140
 3159SOL     OW10038   4.998   0.386   3.124
 3159SOL    HW110039   5.019   0.460   3.188
 3159SOL    HW210040   4.909   0.403   3.081
 3160SOL     OW10041   3.788   1.564   3.193
 3160SOL    HW110042   3.742   1.646   3.159
 3160SOL    HW210043   3.886   1.583   3.202
 3161SOL     OW10044   4.091   1.100   2.363
 3161SOL    HW110045   4.084   1.183   2.307
 3161SOL    HW210046   4.095   1.020   2.303
 3162SOL     OW10047   4.290   0.537   2.727
 3162SOL    HW110048   4.302   0.603   2.653
 3162SOL    HW210049   4.336   0.571   2.810
 3163SOL     OW10050   4.078   1.510   3.191
 3163SOL    HW110051   4.057   1.466   3.104
 3163SOL    HW210052   4.175   1.536   3.194
 3164SOL     OW10053   4.126   0.751   3.460
 3164SOL    HW110054   4.194   0.806   3.413
 3164SOL    HW210055   4.166   0.663   3.487
 3165SOL     OW10056   4.737   0.105   3.632
 3165SOL    HW110057   4.743   0.190   3.580
 3165SOL    HW210058   4.769   0.029   3.575
 3166SOL     OW10059   4.228   0.050   3.602
 3166SOL    HW110060   4.186  -0.007   3.532
 3166SOL    HW210061   4.162   0.119   3.634
 3167SOL     OW10062   4.297   0.870   2.891
 3167SOL    HW110063   4.341   0.959   2.882
 3167SOL    HW210064   4.234   0.870   2.968
 3168SOL     OW10065   5.084   0.862   2.907
 3168SOL    HW110066   5.009   0.862   2.841
 3168SOL    HW210067   5.121   0.770   2.916
 3169SOL     OW10068   4.933   0.525   2.137
 3169SOL    HW110069   4.946   0.441   2.191
 3169SOL    HW210070   4.904   0.599   2.197
 3170SOL     OW10071   4.031   0.213   3.093
 3170SOL    HW110072   4.008   0.250   3.183
 3170SOL    HW210073   4.001   0.118   3.087
 3171SOL     OW10074   3.761   1.310   3.144
 3171SOL    HW110075   3.814   1.261   3.212
 3171SOL    HW210076   3.783   1.408   3.149
 3172SOL     OW10077   4.456   0.634   2.926
 3172SOL    HW110078   4.515   0.608   2.850
 3172SOL    HW210079   4.428   0.730   2.915
 3173SOL     OW10080   5.346   0.367   2.236
 3173SOL    HW110081   5.348   0.291   2.300
 3173SOL    HW210082   5.298   0.444   2.276
 3174SOL     OW10083   4.747   0.766   2.828
 3174SOL    HW110084   4.762   0.787   2.924
 3174SOL    HW210085   4.717   0.671   2.819
 3175SOL     OW10086   4.704   1.573   3.562
 3175SOL    HW110087   4.684   1.617   3.474
 3175SOL    HW210088   4.743   1.482   3.546
 3176SOL     OW10089   4.074   0.898   3.666
 3176SOL    HW110090   4.150   0.942   3.714
 3176SOL    HW210091   4.109   0.851   3.584
 3177SOL     OW10092   5.027   0.838   1.904
 3177SOL    HW110093   5.061   0.745   1.919
 3177SOL    HW210094   5.045   0.865   1.809
 3178SOL     OW10095   4.043   0.810   2.811
 3178SOL    HW110096   4.136   0.846   2.816
 3178SOL    HW210097   4.037   0.725   2.863
 3179SOL     OW10098   4.063   0.509   2.868
 3179SOL    HW110099   4.011   0.426   2.851
 3179SOL    HW210100   4.140   0.514   2.804
 3180SOL     OW10101   4.862   0.380   3.540
 3180SOL    HW110102   4.817   0.443   3.604
 3180SOL    HW210103   4.955   0.411   3.523
 3181SOL     OW10104   4.884   0.207   3.339
 3181SOL    HW110105   4.884   0.271   3.416
 3181SOL    HW210106   4.912   0.255   3.256
 3182SOL     OW10107   3.732   1.326   2.062
 3182SOL    HW110108   3.639   1.347   2.031
 3182SOL    HW210109   3.742   1.227   2.075
 3183SOL     OW10110   3.812   1.801   2.789
 3183SOL    HW110111   3.770   1.715   2.762
 3183SOL    HW210112   3.906   1.804   2.755
 3184SOL     OW10113   4.228   1.568   2.772
 3184SOL    HW110114   4.294   1.642   2.781
 3184SOL    HW210115   4.272   1.489   2.730
 3185SOL     OW10116   4.726   0.796   3.100
 3185SOL    HW110117   4.767   0.764   3.186
 3185SOL    HW210118   4.630   0.769   3.097
 3186SOL     OW10119   3.764   0.544   2.976
 3186SOL    HW110120   3.849   0.511   2.935
 3186SOL    HW210121   3.777   0.559   3.074
 3187SOL     OW10122   3.913   0.520   3.584
 3187SOL    HW110123   3.972   0.480   3.514
 3187SOL    HW210124   3.855   0.591   3.543
 3188SOL     OW10125   4.539   0.572   2.187
 3188SOL    HW110126   4.546   0.483   2.141
 3188SOL    HW210127   4.445   0.606   2.179
 3189SOL     OW10128   3.976   1.564   3.606
 3189SOL    HW110129   3.946   1.621   3.682
 3189SOL    HW210130   3.969   1.467   3.632
 3190SOL     OW10131   4.395   0.464   3.131
 3190SOL    HW110132   4.361   0.375   3.101
 3190SOL    HW210133   4.421   0.518   3.051
 3191SOL     OW10134   4.654   1.678   3.327
 3191SOL    HW110135   4.630   1.660   3.232
 3191SOL    HW210136   4.684   1.772   3.337
 3192SOL     OW10137   4.197   0.500   2.053
 3192SOL    HW110138   4.258   0.580   2.057
 3192SOL    HW210139   4.102   0.531   2.060
 3193SOL     OW10140   3.883   1.137   3.328
 3193SOL    HW110141   3.905   1.076   3.404
 3193SOL    HW210142   3.893   1.088   3.242
 3194SOL     OW10143   5.071   1.059   3.096
 3194SOL    HW110144   5.095   0.996   3.022
 3194SOL    HW210145   4.981   1.099   3.078
 3195SOL     OW10146   4.976   1.731   2.990
 3195SOL    HW110147   5.060   1.736   2.936
 3195SOL    HW210148   4.953   1.635   3.008
 3196SOL     OW10149   4.412   1.662   3.578
 3196SOL    HW110150   4.356   1.743   3.587
 3196SOL    HW210151   4.464   1.666   3.492
 3197SOL     OW10152   3.854   1.794   3.713
 3197SOL    HW110153   3.813   1.720   3.766
 3197SOL    HW210154   3.918   1.845   3.771
 3198SOL     OW10155   5.004   0.927   2.534
 3198SOL    HW110156   5.064   0.846   2.536
 3198SOL    HW210157   5.044   0.996   2.474
 3199SOL     OW10158   4.554   1.273   3.284
 3199SOL    HW110159   4.549   1.306   3.379
 3199SOL    HW210160   4.468   1.292   3.238
 3200SOL     OW10161   4.396   1.616   2.016
 3200SOL    HW110162   4.405   1.626   1.917
 3200SOL    HW210163   4.356   1.527   2.037
 3201SOL     OW10164   3.987   0.326   2.582
 3201SOL    HW110165   3.908   0.377   2.548
 3201SOL    HW210166   3.978   0.311   2.680
 3202SOL     OW10167   4.918   1.612   1.893
 3202SOL    HW110168   4.924   1.519   1.930
 3202SOL    HW210169   4.859   1.612   1.813
 3203SOL     OW10170   4.546   1.002   3.234
 3203SOL    HW110171   4.586   1.001   3.142
 3203SOL    HW210172   4.556   1.094   3.274
 3204SOL     OW10173   4.640   0.910   2.153
 3204SOL    HW110174   4.703   0.948   2.085
 3204SOL    HW210175   4.680   0.827   2.192
 3205SOL     OW10176   4.096   1.288   3.352
 3205SOL    HW110177   4.083   1.381   3.318
 3205SOL    HW210178   4.012   1.236   3.339
 3206SOL     OW10179   4.763   1.098   2.558
 3206SOL    HW110180   4.693   1.051   2.612
 3206SOL    HW210181   4.822   1.030   2.515
 3207SOL     OW10182   4.738   0.236   2.833
 3207SOL    HW110183   4.730   0.200   2.740
 3207SOL    HW210184   4.736   0.160   2.898
 3208SOL     OW10185   4.314   1.487   2.353
 3208SOL    HW110186   4.356   1.429   2.283
 3208SOL    HW210187   4.270   1.566   2.309
 3209SOL     OW10188   3.979   1.348   2.152
 3209SOL    HW110189   3.883   1.349   2.125
 3209SOL    HW210190   3.991   1.401   2.236
 3210SOL     OW10191   3.829   1.013   3.588
 3210SOL    HW110192   3.752   0.980   3.642
 3210SOL    HW210193   3.914   0.983   3.630
 3211SOL     OW10194   4.396   0.203   3.351
 3211SOL    HW110195   4.486   0.187   3.311
 3211SOL    HW210196   4.404   0.208   3.450
 3212SOL     OW10197   3.799   0.345   1.895
 3212SOL    HW110198   3.707   0.317   1.866
 3212SOL    HW210199   3.830   0.422   1.839
 3213SOL     OW10200   5.164   0.856   3.260
 3213SOL    HW110201   5.107   0.908   3.197
 3213SOL    HW210202   5.260   0.868   3.236
 3214SOL     OW10203   3.796   0.166   2.180
 3214SOL    HW110204   3.779   0.249   2.126
 3214SOL    HW210205   3.886   0.129   2.158
 3215SOL     OW10206   4.337   0.842   3.293
 3215SOL    HW110207   4.393   0.923   3.276
 3215SOL    HW210208   4.396   0.762   3.296
 3216SOL     OW10209   4.440   0.565   3.570
 3216SOL    HW110210   4.459   0.630   3.644
 3216SOL    HW210211   4.500   0.485   3.579
 3217SOL     OW10212   4.114   1.741   3.422
 3217SOL    HW110213   4.023   1.782   3.420
 3217SOL    HW210214   4.107   1.647   3.454
 3218SOL     OW10215   4.949   0.325   2.311
 3218SOL    HW110216   5.014   0.251   2.300
 3218SOL    HW210217   4.969   0.375   2.395
 3219SOL     OW10218   4.318   0.745   2.514
 3219SOL    HW110219   4.368   0.830   2.495
 3219SOL    HW210220   4.230   0.747   2.466
 3220SOL     OW10221   4.583   1.374   1.878
 3220SOL    HW110222   4.537   1.389   1.966
 3220SOL    HW210223   4.627   1.459   1.848
 3221SOL     OW10224   4.385   1.790   2.815
 3221SOL    HW110225   4.339   1.878   2.802
 3221SOL    HW210226   4.484   1.802   2.808
 3222SOL     OW10227   4.583   0.956   2.723
 3222SOL    HW110228   4.637   0.887   2.771
 3222SOL    HW210229   4.551   1.025   2.789
 3223SOL     OW10230   4.807   0.984   1.949
 3223SOL    HW110231   4.784   1.037   1.867
 3223SOL    HW210232   4.888   0.928   1.930
 3224SOL     OW10233   3.945   1.314   3.706
 3224SOL    HW110234   3.880   1.241   3.685
 3224SOL    HW210235   3.949   1.328   3.804
 3225SOL     OW10236   3.803   1.240   2.515
 3225SOL    HW110237   3.802   1.193   2.603
 3225SOL    HW210238   3.885   1.212   2.464
 3226SOL     OW10239   4.396   1.391   3.486
 3226SOL    HW110240   4.318   1.341   3.524
 3226SOL    HW210241   4.393   1.486   3.517
 3227SOL     OW10242   4.152   0.424   2.382
 3227SOL    HW110243   4.182   0.352   2.320
 3227SOL    HW210244   4.113   0.384   2.465
 3228SOL     OW10245   4.041   0.547   3.142
 3228SOL    HW110246   4.079   0.488   3.214
 3228SOL    HW210247   4.081   0.521   3.054
 3229SOL     OW10248   4.536   1.586   2.549
 3229SOL    HW110249   4.568   1.596   2.455
 3229SOL    HW210250   4.457   1.524   2.551
 3230SOL     OW10251   4.725   0.034   3.016
 3230SOL    HW110252   4.662  -0.038   2.985
 3230SOL    HW210253   4.818  -0.002   3.016
 3231SOL     OW10254   4.494   1.330   2.163
 3231SOL    HW110255   4.448   1.243   2.180
 3231SOL    HW210256   4.585   1.327   2.204
 3232SOL     OW10257   4.342   1.567   3.146
 3232SOL    HW110258   4.337   1.649   3.203
 3232SOL    HW210259   4.431   1.564   3.101
 3233SOL     OW10260   3.763   1.077   2.162
 3233SOL    HW110261   3.862   1.066   2.153
 3233SOL    HW210262   3.723   0.991   2.194
 3234SOL     OW10263   4.599   1.646   2.199
 3234SOL    HW110264   4.522   1.611   2.145
 3234SOL    HW210265   4.567   1.717   2.261
 3235SOL     OW10266   3.954   0.628   3.837
 3235SOL    HW110267   3.861   0.626   3.874
 3235SOL    HW210268   3.955   0.589   3.745
 3236SOL     OW10269   3.949   0.275   4.720
 3236SOL    HW110270   3.984   0.258   4.812
 3236SOL    HW210271   3.861   0.230   4.708
 3237SOL     OW10272   3.743   0.368   4.371
 3237SOL    HW110273   3.661   0.411   4.410
 3237SOL    HW210274   3.715   0.295   4.308
 3238SOL     OW10275   4.293   1.275   4.889
 3238SOL    HW110276   4.200   1.268   4.852
 3238SOL    HW210277   4.304   1.364   4.933
 3239SOL     OW10278   4.859   0.703   4.441
 3239SOL    HW110279   4.916   0.781   4.416
 3239SOL    HW210280   4.799   0.729   4.517
 3240SOL     OW10281   4.492   1.144   4.747
 3240SOL    HW110282   4.414   1.161   4.807
 3240SOL    HW210283   4.526   1.231   4.711
 3241SOL     OW10284   4.409   1.012   4.389
 3241SOL    HW110285   4.478   0.996   4.459
 3241SOL    HW210286   4.336   1.069   4.427
 3242SOL     OW10287   4.059   1.435   4.785
 3242SOL    HW110288   3.981   1.404   4.732
 3242SOL    HW210289   4.117   1.493   4.728
 3243SOL     OW10290   3.955   1.713   4.207
 3243SOL    HW110291   3.989   1.790   4.261
 3243SOL    HW210292   3.999   1.713   4.117
 3244SOL     OW10293   3.954   1.434   4.262
 3244SOL    HW110294   3.928   1.530   4.262
 3244SOL    HW210295   3.883   1.380   4.307
 3245SOL     OW10296   3.964   1.091   4.610
 3245SOL    HW110297   3.978   1.007   4.662
 3245SOL    HW210298   3.909   1.155   4.665
 3246SOL     OW10299   4.344   1.786   5.163
 3246SOL    HW110300   4.252   1.769   5.198
 3246SOL    HW210301   4.372   1.878   5.189
 3247SOL     OW10302   4.330   0.964   3.847
 3247SOL    HW110303   4.337   1.048   3.793
 3247SOL    HW210304   4.376   0.977   3.935
 3248SOL     OW10305   3.846   0.643   4.287
 3248SOL    HW110306   3.801   0.555   4.304
 3248SOL    HW210307   3.845   0.697   4.371
 3249SOL     OW10308   3.751   1.596   3.841
 3249SOL    HW110309   3.732   1.500   3.862
 3249SOL    HW210310   3.718   1.654   3.916
 3250SOL     OW10311   4.337   1.365   4.450
 3250SOL    HW110312   4.288   1.278   4.459
 3250SOL    HW210313   4.314   1.408   4.363
 3251SOL     OW10314   4.533   0.004   4.226
 3251SOL    HW110315   4.573   0.095   4.217
 3251SOL    HW210316   4.433   0.012   4.232
 3252SOL     OW10317   3.921   0.976   4.988
 3252SOL    HW110318   4.010   0.931   4.974
 3252SOL    HW210319   3.848   0.911   4.969
 3253SOL     OW10320   4.322   0.729   3.994
 3253SOL    HW110321   4.346   0.798   3.926
 3253SOL    HW210322   4.244   0.762   4.048
 3254SOL     OW10323   4.765   0.701   4.153
 3254SOL    HW110324   4.791   0.697   4.249
 3254SOL    HW210325   4.680   0.650   4.139
 3255SOL     OW10326   3.800   0.811   4.513
 3255SOL    HW110327   3.899   0.799   4.522
 3255SOL    HW210328   3.776   0.906   4.534
 3256SOL     OW10329   4.589   0.348   3.919
 3256SOL    HW110330   4.648   0.411   3.870
 3256SOL    HW210331   4.608   0.254   3.890
 3257SOL     OW10332   4.274   0.196   4.609
 3257SOL    HW110333   4.269   0.191   4.709
 3257SOL    HW210334   4.276   0.292   4.580
 3258SOL     OW10335   4.732   1.456   4.201
 3258SOL    HW110336   4.686   1.528   4.149
 3258SOL    HW210337   4.728   1.476   4.299
 3259SOL     OW10338   4.075   1.801   4.577
 3259SOL    HW110339   4.125   1.715   4.583
 3259SOL    HW210340   4.140   1.878   4.574
 3260SOL     OW10341   4.045   0.943   3.966
 3260SOL    HW110342   4.127   0.982   3.924
 3260SOL    HW210343   4.018   0.861   3.917
 3261SOL     OW10344   4.835   1.776   3.961
 3261SOL    HW110345   4.775   1.714   4.011
 3261SOL    HW210346   4.866   1.732   3.876
 3262SOL     OW10347   4.188   1.743   4.047
 3262SOL    HW110348   4.221   1.782   4.133
 3262SOL    HW210349   4.264   1.736   3.982
 3263SOL     OW10350   3.973   1.785   4.965
 3263SOL    HW110351   4.030   1.720   5.015
 3263SOL    HW210352   3.957   1.752   4.872
 3264SOL     OW10353   4.664   1.698   4.628
 3264SOL    HW110354   4.744   1.641   4.649
 3264SOL    HW210355   4.615   1.658   4.551
 3265SOL     OW10356   4.106   0.700   4.204
 3265SOL    HW110357   4.151   0.610   4.201
 3265SOL    HW210358   4.012   0.689   4.237
 3266SOL     OW10359   4.338   0.122   3.841
 3266SOL    HW110360   4.436   0.100   3.848
 3266SOL    HW210361   4.307   0.105   3.748
 3267SOL     OW10362   4.527   1.402   4.648
 3267SOL    HW110363   4.617   1.416   4.606
 3267SOL    HW210364   4.456   1.404   4.577
 3268SOL     OW10365   4.646   0.503   4.623
 3268SOL    HW110366   4.621   0.494   4.527
 3268SOL    HW210367   4.694   0.421   4.654
 3269SOL     OW10368   4.263   0.064   4.236
 3269SOL    HW110369   4.182   0.065   4.294
 3269SOL    HW210370   4.266   0.147   4.181
 3270SOL     OW10371   4.021   0.035   3.895
 3270SOL    HW110372   4.070   0.119   3.874
 3270SOL    HW210373   4.083  -0.030   3.940
 3271SOL     OW10374   4.659   0.236   4.204
 3271SOL    HW110375   4.611   0.277   4.126
 3271SOL    HW210376   4.758   0.234   4.185
 3272SOL     OW10377   4.951   1.570   4.517
 3272SOL    HW110378   4.972   1.644   4.452
 3272SOL    HW210379   5.019   1.570   4.590
 3273SOL     OW10380   4.183   1.152   4.465
 3273SOL    HW110381   4.112   1.125   4.530
 3273SOL    HW210382   4.157   1.124   4.372
 3274SOL     OW10383   4.995   1.797   4.315
 3274SOL    HW110384   5.039   1.861   4.251
 3274SOL    HW210385   4.945   1.849   4.385
 3275SOL     OW10386   4.756   0.549   3.740
 3275SOL    HW110387   4.715   0.631   3.701
 3275SOL    HW210388   4.820   0.575   3.813
 3276SOL     OW10389   4.285   0.222   4.871
 3276SOL    HW110390   4.323   0.138   4.908
 3276SOL    HW210391   4.197   0.241   4.915
 3277SOL     OW10392   4.590   0.454   4.366
 3277SOL    HW110393   4.558   0.526   4.304
 3277SOL    HW210394   4.614   0.373   4.313
 3278SOL     OW10395   4.741   0.039   4.477
 3278SOL    HW110396   4.669   0.044   4.408
 3278SOL    HW210397   4.717  -0.030   4.546
 3279SOL     OW10398   4.212   1.385   3.898
 3279SOL    HW110399   4.125   1.370   3.945
 3279SOL    HW210400   4.195   1.411   3.803
 3280SOL     OW10401   5.388   1.280   4.381
 3280SOL    HW110402   5.487   1.288   4.395
 3280SOL    HW210403   5.343   1.364   4.412
 3281SOL     OW10404   4.251   0.256   4.052
 3281SOL    HW110405   4.278   0.197   3.977
 3281SOL    HW210406   4.251   0.351   4.021
 3282SOL     OW10407   5.316   1.629   5.349
 3282SOL    HW110408   5.343   1.663   5.259
 3282SOL    HW210409   5.395   1.591   5.395
 3283SOL     OW10410   4.835   1.195   4.824
 3283SOL    HW110411   4.795   1.239   4.905
 3283SOL    HW210412   4.794   1.232   4.741
 3284SOL     OW10413   4.429   1.050   4.092
 3284SOL    HW110414   4.415   1.057   4.191
 3284SOL    HW210415   4.513   0.999   4.074
 3285SOL     OW10416   4.134   0.813   4.975
 3285SOL    HW110417   4.220   0.825   5.025
 3285SOL    HW210418   4.092   0.726   5.002
 3286SOL     OW10419   4.091   1.100   4.225
 3286SOL    HW110420   4.084   1.183   4.169
 3286SOL    HW210421   4.095   1.020   4.165
 3287SOL     OW10422   4.290   0.537   4.589
 3287SOL    HW110423   4.302   0.603   4.515
 3287SOL    HW210424   4.336   0.571   4.672
 3288SOL     OW10425   4.976   1.348   4.112
 3288SOL    HW110426   5.026   1.425   4.152
 3288SOL    HW210427   4.881   1.350   4.144
 3289SOL     OW10428   4.078   1.510   5.053
 3289SOL    HW110429   4.057   1.466   4.966
 3289SOL    HW210430   4.175   1.536   5.056
 3290SOL     OW10431   4.297   0.870   4.753
 3290SOL    HW110432   4.341   0.959   4.744
 3290SOL    HW210433   4.234   0.870   4.830
 3291SOL     OW10434   5.084   0.862   4.769
 3291SOL    HW110435   5.009   0.862   4.703
 3291SOL    HW210436   5.121   0.770   4.778
 3292SOL     OW10437   4.933   0.525   3.999
 3292SOL    HW110438   4.946   0.441   4.053
 3292SOL    HW210439   4.904   0.599   4.059
 3293SOL     OW10440   4.031   0.213   4.955
 3293SOL    HW110441   4.008   0.250   5.045
 3293SOL    HW210442   4.001   0.118   4.949
 3294SOL     OW10443   3.761   1.310   5.006
 3294SOL    HW110444   3.814   1.261   5.074
 3294SOL    HW210445   3.783   1.408   5.011
 3295SOL     OW10446   4.456   0.634   4.788
 3295SOL    HW110447   4.515   0.608   4.712
 3295SOL    HW210448   4.428   0.730   4.777
 3296SOL     OW10449   4.031   0.063   4.342
 3296SOL    HW110450   4.020   0.157   4.375
 3296SOL    HW210451   4.026   0.000   4.419
 3297SOL     OW10452   5.346   0.367   4.098
 3297SOL    HW110453   5.348   0.291   4.162
 3297SOL    HW210454   5.298   0.444   4.138
 3298SOL     OW10455   4.747   0.766   4.690
 3298SOL    HW110456   4.762   0.787   4.786
 3298SOL    HW210457   4.717   0.671   4.681
 3299SOL     OW10458   5.027   0.838   3.766
 3299SOL    HW110459   5.061   0.745   3.781
 3299SOL    HW210460   5.045   0.865   3.671
 3300SOL     OW10461   4.792   1.333   4.573
 3300SOL    HW110462   4.799   1.249   4.518
 3300SOL    HW210463   4.854   1.402   4.537
 3301SOL     OW10464   4.043   0.810   4.673
 3301SOL    HW110465   4.136   0.846   4.678
 3301SOL    HW210466   4.037   0.725   4.725
 3302SOL     OW10467   4.063   0.509   4.730
 3302SOL    HW110468   4.011   0.426   4.713
 3302SOL    HW210469   4.140   0.514   4.666
 3303SOL     OW10470   3.732   1.326   3.924
 3303SOL    HW110471   3.639   1.347   3.893
 3303SOL    HW210472   3.742   1.227   3.937
 3304SOL     OW10473   3.812   1.801   4.651
 3304SOL    HW110474   3.770   1.715   4.624
 3304SOL    HW210475   3.906   1.804   4.617
 3305SOL     OW10476   4.228   1.568   4.634
 3305SOL    HW110477   4.294   1.642   4.643
 3305SOL    HW210478   4.272   1.489   4.592
 3306SOL     OW10479   3.764   0.544   4.838
 3306SOL    HW110480   3.849   0.511   4.797
 3306SOL    HW210481   3.777   0.559   4.936
 3307SOL     OW10482   4.539   0.572   4.049
 3307SOL    HW110483   4.546   0.483   4.003
 3307SOL    HW210484   4.445   0.606   4.041
 3308SOL     OW10485   4.395   0.464   4.993
 3308SOL    HW110486   4.361   0.375   4.963
 3308SOL    HW210487   4.421   0.518   4.913
 3309SOL     OW10488   4.654   1.678   5.189
 3309SOL    HW110489   4.630   1.660   5.094
 3309SOL    HW210490   4.684   1.772   5.199
 3310SOL     OW10491   4.197   0.500   3.915
 3310SOL    HW110492   4.258   0.580   3.919
 3310SOL    HW210493   4.102   0.531   3.922
 3311SOL     OW10494   4.976   1.731   4.852
 3311SOL    HW110495   5.060   1.736   4.798
 3311SOL    HW210496   4.953   1.635   4.870
 3312SOL     OW10497   3.807   1.258   4.746
 3312SOL    HW110498   3.802   1.257   4.846
 3312SOL    HW210499   3.724   1.217   4.708
 3313SOL     OW10500   5.112   1.573   4.201
 3313SOL    HW110501   5.179   1.585   4.127
 3313SOL    HW210502   5.072   1.662   4.224
 3314SOL     OW10503   5.004   0.927   4.396
 3314SOL    HW110504   5.064   0.846   4.398
 3314SOL    HW210505   5.044   0.996   4.336
 3315SOL     OW10506   4.396   1.616   3.878
 3315SOL    HW110507   4.405   1.626   3.779
 3315SOL    HW210508   4.356   1.527   3.899
 3316SOL     OW10509   3.987   0.326   4.444
 3316SOL    HW110510   3.908   0.377   4.410
 3316SOL    HW210511   3.978   0.311   4.542
 3317SOL     OW10512   4.918   1.612   3.755
 3317SOL    HW110513   4.924   1.519   3.792
 3317SOL    HW210514   4.859   1.612   3.675
 3318SOL     OW10515   4.546   1.002   5.096
 3318SOL    HW110516   4.586   1.001   5.004
 3318SOL    HW210517   4.556   1.094   5.136
 3319SOL     OW10518   4.640   0.910   4.015
 3319SOL    HW110519   4.703   0.948   3.947
 3319SOL    HW210520   4.680   0.827   4.054
 3320SOL     OW10521   4.763   1.098   4.420
 3320SOL    HW110522   4.693   1.051   4.474
 3320SOL    HW210523   4.822   1.030   4.377
 3321SOL     OW10524   4.314   1.487   4.215
 3321SOL    HW110525   4.356   1.429   4.145
 3321SOL    HW210526   4.270   1.566   4.171
 3322SOL     OW10527   3.979   1.348   4.014
 3322SOL    HW110528   3.883   1.349   3.987
 3322SOL    HW210529   3.991   1.401   4.098
 3323SOL     OW10530   3.799   0.345   3.757
 3323SOL    HW110531   3.707   0.317   3.728
 3323SOL    HW210532   3.830   0.422   3.701
 3324SOL     OW10533   3.796   0.166   4.042
 3324SOL    HW110534   3.779   0.249   3.988
 3324SOL    HW210535   3.886   0.129   4.020
 3325SOL     OW10536   4.949   0.325   4.173
 3325SOL    HW110537   5.014   0.251   4.162
 3325SOL    HW210538   4.969   0.375   4.257
 3326SOL     OW10539   4.318   0.745   4.376
 3326SOL    HW110540   4.368   0.830   4.357
 3326SOL    HW210541   4.230   0.747   4.328
 3327SOL     OW10542   4.583   1.374   3.740
 3327SOL    HW110543   4.537   1.389   3.828
 3327SOL    HW210544   4.627   1.459   3.710
 3328SOL     OW10545   4.385   1.790   4.677
 3328SOL    HW110546   4.339   1.878   4.664
 3328SOL    HW210547   4.484   1.802   4.670
 3329SOL     OW10548   4.583   0.956   4.585
 3329SOL    HW110549   4.637   0.887   4.633
 3329SOL    HW210550   4.551   1.025   4.651
 3330SOL     OW10551   4.807   0.984   3.811
 3330SOL    HW110552   4.784   1.037   3.729
 3330SOL    HW210553   4.888   0.928   3.792
 3331SOL     OW10554   3.803   1.240   4.377
 3331SOL    HW110555   3.802   1.193   4.465
 3331SOL    HW210556   3.885   1.212   4.326
 3332SOL     OW10557   4.152   0.424   4.244
 3332SOL    HW110558   4.182   0.352   4.182
 3332SOL    HW210559   4.113   0.384   4.327
 3333SOL     OW10560   4.536   1.586   4.411
 3333SOL    HW110561   4.568   1.596   4.317
 3333SOL    HW210562   4.457   1.524   4.413
 3334SOL     OW10563   4.725   0.034   4.878
 3334SOL    HW110564   4.662  -0.038   4.847
 3334SOL    HW210565   4.818  -0.002   4.878
 3335SOL     OW10566   4.494   1.330   4.025
 3335SOL    HW110567   4.448   1.243   4.042
 3335SOL    HW210568   4.585   1.327   4.066
 3336SOL     OW10569   3.763   1.077   4.024
 3336SOL    HW110570   3.862   1.066   4.015
 3336SOL    HW210571   3.723   0.991   4.056
 3337SOL     OW10572   4.599   1.646   4.061
 3337SOL    HW110573   4.522   1.611   4.007
 3337SOL    HW210574   4.567   1.717   4.123
 3338SOL     OW10575   3.954   2.490   0.113
 3338SOL    HW110576   3.861   2.488   0.150
 3338SOL    HW210577   3.955   2.451   0.021
 3339SOL     OW10578   3.949   2.137   0.996
 3339SOL    HW110579   3.984   2.120   1.088
 3339SOL    HW210580   3.861   2.092   0.984
 3340SOL     OW10581   3.743   2.230   0.647
 3340SOL    HW110582   3.661   2.273   0.686
 3340SOL    HW210583   3.715   2.157   0.584
 3341SOL     OW10584   4.293   3.137   1.165
 3341SOL    HW110585   4.200   3.130   1.128
 3341SOL    HW210586   4.304   3.226   1.209
 3342SOL     OW10587   4.859   2.565   0.717
 3342SOL    HW110588   4.916   2.643   0.692
 3342SOL    HW210589   4.799   2.591   0.793
 3343SOL     OW10590   4.492   3.006   1.023
 3343SOL    HW110591   4.414   3.023   1.083
 3343SOL    HW210592   4.526   3.093   0.987
 3344SOL     OW10593   4.574   2.660   1.823
 3344SOL    HW110594   4.570   2.736   1.888
 3344SOL    HW210595   4.596   2.696   1.732
 3345SOL     OW10596   4.409   2.874   0.665
 3345SOL    HW110597   4.478   2.858   0.735
 3345SOL    HW210598   4.336   2.931   0.703
 3346SOL     OW10599   4.410   3.023   1.803
 3346SOL    HW110600   4.470   3.102   1.817
 3346SOL    HW210601   4.324   3.054   1.762
 3347SOL     OW10602   4.059   3.297   1.061
 3347SOL    HW110603   3.981   3.266   1.008
 3347SOL    HW210604   4.117   3.355   1.004
 3348SOL     OW10605   4.162   2.254   1.499
 3348SOL    HW110606   4.244   2.198   1.508
 3348SOL    HW210607   4.081   2.196   1.503
 3349SOL     OW10608   3.955   3.575   0.483
 3349SOL    HW110609   3.989   3.652   0.537
 3349SOL    HW210610   3.999   3.575   0.393
 3350SOL     OW10611   4.851   3.203   1.690
 3350SOL    HW110612   4.898   3.203   1.778
 3350SOL    HW210613   4.803   3.116   1.679
 3351SOL     OW10614   3.954   3.296   0.538
 3351SOL    HW110615   3.928   3.392   0.538
 3351SOL    HW210616   3.883   3.242   0.583
 3352SOL     OW10617   3.964   2.953   0.886
 3352SOL    HW110618   3.978   2.869   0.938
 3352SOL    HW210619   3.909   3.017   0.941
 3353SOL     OW10620   4.344   3.648   1.439
 3353SOL    HW110621   4.252   3.631   1.474
 3353SOL    HW210622   4.372   3.740   1.465
 3354SOL     OW10623   4.330   2.826   0.123
 3354SOL    HW110624   4.337   2.910   0.069
 3354SOL    HW210625   4.376   2.839   0.211
 3355SOL     OW10626   3.846   2.505   0.563
 3355SOL    HW110627   3.801   2.417   0.580
 3355SOL    HW210628   3.845   2.559   0.647
 3356SOL     OW10629   3.751   3.458   0.117
 3356SOL    HW110630   3.732   3.362   0.138
 3356SOL    HW210631   3.718   3.516   0.192
 3357SOL     OW10632   3.837   2.599   1.597
 3357SOL    HW110633   3.925   2.586   1.642
 3357SOL    HW210634   3.824   2.696   1.575
 3358SOL     OW10635   4.337   3.227   0.726
 3358SOL    HW110636   4.288   3.140   0.735
 3358SOL    HW210637   4.314   3.270   0.639
 3359SOL     OW10638   5.017   3.090   1.423
 3359SOL    HW110639   5.054   3.017   1.365
 3359SOL    HW210640   5.069   3.095   1.508
 3360SOL     OW10641   4.533   1.866   0.502
 3360SOL    HW110642   4.573   1.957   0.493
 3360SOL    HW210643   4.433   1.874   0.508
 3361SOL     OW10644   3.921   2.838   1.264
 3361SOL    HW110645   4.010   2.793   1.250
 3361SOL    HW210646   3.848   2.773   1.245
 3362SOL     OW10647   4.911   3.654   1.616
 3362SOL    HW110648   4.935   3.714   1.540
 3362SOL    HW210649   4.918   3.559   1.586
 3363SOL     OW10650   4.041   2.113   1.801
 3363SOL    HW110651   4.112   2.184   1.807
 3363SOL    HW210652   3.953   2.152   1.829
 3364SOL     OW10653   4.322   2.591   0.270
 3364SOL    HW110654   4.346   2.660   0.202
 3364SOL    HW210655   4.244   2.624   0.324
 3365SOL     OW10656   5.005   2.207   0.944
 3365SOL    HW110657   4.919   2.157   0.931
 3365SOL    HW210658   5.067   2.153   1.000
 3366SOL     OW10659   4.531   2.467   1.465
 3366SOL    HW110660   4.484   2.464   1.554
 3366SOL    HW210661   4.480   2.412   1.399
 3367SOL     OW10662   4.697   2.752   1.572
 3367SOL    HW110663   4.743   2.668   1.543
 3367SOL    HW210664   4.641   2.786   1.497
 3368SOL     OW10665   4.715   2.272   1.242
 3368SOL    HW110666   4.638   2.306   1.296
 3368SOL    HW210667   4.681   2.221   1.163
 3369SOL     OW10668   4.765   2.563   0.429
 3369SOL    HW110669   4.791   2.559   0.525
 3369SOL    HW210670   4.680   2.512   0.415
 3370SOL     OW10671   3.800   2.673   0.789
 3370SOL    HW110672   3.899   2.661   0.798
 3370SOL    HW210673   3.776   2.768   0.810
 3371SOL     OW10674   3.854   3.683   1.571
 3371SOL    HW110675   3.844   3.668   1.670
 3371SOL    HW210676   3.768   3.719   1.535
 3372SOL     OW10677   4.589   2.210   0.195
 3372SOL    HW110678   4.648   2.273   0.146
 3372SOL    HW210679   4.608   2.116   0.166
 3373SOL     OW10680   4.274   2.058   0.885
 3373SOL    HW110681   4.269   2.053   0.985
 3373SOL    HW210682   4.276   2.154   0.856
 3374SOL     OW10683   4.732   3.318   0.477
 3374SOL    HW110684   4.686   3.390   0.425
 3374SOL    HW210685   4.728   3.338   0.575
 3375SOL     OW10686   4.075   3.663   0.853
 3375SOL    HW110687   4.125   3.577   0.859
 3375SOL    HW210688   4.140   3.740   0.850
 3376SOL     OW10689   4.951   3.412   1.506
 3376SOL    HW110690   4.957   3.335   1.570
 3376SOL    HW210691   4.899   3.386   1.426
 3377SOL     OW10692   4.045   2.805   0.242
 3377SOL    HW110693   4.127   2.844   0.200
 3377SOL    HW210694   4.018   2.723   0.193
 3378SOL     OW10695   4.185   3.128   1.727
 3378SOL    HW110696   4.135   3.129   1.641
 3378SOL    HW210697   4.122   3.110   1.803
 3379SOL     OW10698   4.835   3.638   0.237
 3379SOL    HW110699   4.775   3.576   0.287
 3379SOL    HW210700   4.866   3.594   0.152
 3380SOL     OW10701   3.926   2.147   1.498
 3380SOL    HW110702   3.846   2.207   1.485
 3380SOL    HW210703   3.916   2.098   1.584
 3381SOL     OW10704   5.356   3.239   0.081
 3381SOL    HW110705   5.324   3.333   0.071
 3381SOL    HW210706   5.280   3.176   0.069
 3382SOL     OW10707   4.188   3.605   0.323
 3382SOL    HW110708   4.221   3.644   0.409
 3382SOL    HW210709   4.264   3.598   0.258
 3383SOL     OW10710   3.973   3.647   1.241
 3383SOL    HW110711   4.030   3.582   1.291
 3383SOL    HW210712   3.957   3.614   1.148
 3384SOL     OW10713   4.106   2.562   0.480
 3384SOL    HW110714   4.151   2.472   0.477
 3384SOL    HW210715   4.012   2.551   0.513
 3385SOL     OW10716   4.505   2.126   1.749
 3385SOL    HW110717   4.572   2.065   1.792
 3385SOL    HW210718   4.432   2.145   1.814
 3386SOL     OW10719   4.527   3.264   0.924
 3386SOL    HW110720   4.617   3.278   0.882
 3386SOL    HW210721   4.456   3.266   0.853
 3387SOL     OW10722   4.646   2.365   0.899
 3387SOL    HW110723   4.621   2.356   0.803
 3387SOL    HW210724   4.694   2.283   0.930
 3388SOL     OW10725   4.263   1.926   0.512
 3388SOL    HW110726   4.182   1.927   0.570
 3388SOL    HW210727   4.266   2.009   0.457
 3389SOL     OW10728   4.021   1.897   0.171
 3389SOL    HW110729   4.070   1.981   0.150
 3389SOL    HW210730   4.083   1.832   0.216
 3390SOL     OW10731   4.659   2.098   0.480
 3390SOL    HW110732   4.611   2.139   0.402
 3390SOL    HW210733   4.758   2.096   0.461
 3391SOL     OW10734   4.800   2.545   1.464
 3391SOL    HW110735   4.720   2.484   1.467
 3391SOL    HW210736   4.881   2.492   1.440
 3392SOL     OW10737   4.183   3.014   0.741
 3392SOL    HW110738   4.112   2.987   0.806
 3392SOL    HW210739   4.157   2.986   0.648
 3393SOL     OW10740   4.995   3.659   0.591
 3393SOL    HW110741   5.039   3.723   0.527
 3393SOL    HW210742   4.945   3.711   0.661
 3394SOL     OW10743   4.756   2.411   0.016
 3394SOL    HW110744   4.715   2.493  -0.023
 3394SOL    HW210745   4.820   2.437   0.089
 3395SOL     OW10746   3.802   2.418   1.386
 3395SOL    HW110747   3.894   2.417   1.345
 3395SOL    HW210748   3.796   2.492   1.453
 3396SOL     OW10749   4.285   2.084   1.147
 3396SOL    HW110750   4.323   2.000   1.184
 3396SOL    HW210751   4.197   2.103   1.191
 3397SOL     OW10752   4.590   2.316   0.642
 3397SOL    HW110753   4.558   2.388   0.580
 3397SOL    HW210754   4.614   2.235   0.589
 3398SOL     OW10755   4.741   1.901   0.753
 3398SOL    HW110756   4.669   1.906   0.684
 3398SOL    HW210757   4.717   1.832   0.822
 3399SOL     OW10758   4.212   3.247   0.174
 3399SOL    HW110759   4.125   3.232   0.221
 3399SOL    HW210760   4.195   3.273   0.079
 3400SOL     OW10761   5.388   3.142   0.657
 3400SOL    HW110762   5.487   3.150   0.671
 3400SOL    HW210763   5.343   3.226   0.688
 3401SOL     OW10764   4.251   2.118   0.328
 3401SOL    HW110765   4.278   2.059   0.253
 3401SOL    HW210766   4.251   2.213   0.297
 3402SOL     OW10767   4.639   1.951   1.402
 3402SOL    HW110768   4.664   1.931   1.307
 3402SOL    HW210769   4.711   2.007   1.444
 3403SOL     OW10770   4.704   2.978   1.719
 3403SOL    HW110771   4.605   2.984   1.729
 3403SOL    HW210772   4.727   2.898   1.663
 3404SOL     OW10773   4.429   2.912   0.368
 3404SOL    HW110774   4.415   2.919   0.467
 3404SOL    HW210775   4.513   2.861   0.350
 3405SOL     OW10776   4.134   2.675   1.251
 3405SOL    HW110777   4.220   2.687   1.301
 3405SOL    HW210778   4.092   2.588   1.278
 3406SOL     OW10779   4.998   2.248   1.262
 3406SOL    HW110780   5.019   2.322   1.326
 3406SOL    HW210781   4.909   2.265   1.219
 3407SOL     OW10782   3.788   3.426   1.331
 3407SOL    HW110783   3.742   3.508   1.297
 3407SOL    HW210784   3.886   3.445   1.340
 3408SOL     OW10785   4.091   2.962   0.501
 3408SOL    HW110786   4.084   3.045   0.445
 3408SOL    HW210787   4.095   2.882   0.441
 3409SOL     OW10788   4.290   2.399   0.865
 3409SOL    HW110789   4.302   2.465   0.791
 3409SOL    HW210790   4.336   2.433   0.948
 3410SOL     OW10791   4.078   3.372   1.329
 3410SOL    HW110792   4.057   3.328   1.242
 3410SOL    HW210793   4.175   3.398   1.332
 3411SOL     OW10794   4.126   2.613   1.598
 3411SOL    HW110795   4.194   2.668   1.551
 3411SOL    HW210796   4.166   2.525   1.625
 3412SOL     OW10797   4.737   1.967   1.770
 3412SOL    HW110798   4.743   2.052   1.718
 3412SOL    HW210799   4.769   1.891   1.713
 3413SOL     OW10800   4.228   1.912   1.740
 3413SOL    HW110801   4.186   1.855   1.670
 3413SOL    HW210802   4.162   1.981   1.772
 3414SOL     OW10803   4.297   2.732   1.029
 3414SOL    HW110804   4.341   2.821   1.020
 3414SOL    HW210805   4.234   2.732   1.106
 3415SOL     OW10806   5.084   2.724   1.045
 3415SOL    HW110807   5.009   2.724   0.979
 3415SOL    HW210808   5.121   2.632   1.054
 3416SOL     OW10809   4.933   2.387   0.275
 3416SOL    HW110810   4.946   2.303   0.329
 3416SOL    HW210811   4.904   2.461   0.335
 3417SOL     OW10812   4.031   2.075   1.231
 3417SOL    HW110813   4.008   2.112   1.321
 3417SOL    HW210814   4.001   1.980   1.225
 3418SOL     OW10815   3.761   3.172   1.282
 3418SOL    HW110816   3.814   3.123   1.350
 3418SOL    HW210817   3.783   3.270   1.287
 3419SOL     OW10818   4.456   2.496   1.064
 3419SOL    HW110819   4.515   2.470   0.988
 3419SOL    HW210820   4.428   2.592   1.053
 3420SOL     OW10821   4.031   1.925   0.618
 3420SOL    HW110822   4.020   2.019   0.651
 3420SOL    HW210823   4.026   1.862   0.695
 3421SOL     OW10824   5.346   2.229   0.374
 3421SOL    HW110825   5.348   2.153   0.438
 3421SOL    HW210826   5.298   2.306   0.414
 3422SOL     OW10827   4.747   2.628   0.966
 3422SOL    HW110828   4.762   2.649   1.062
 3422SOL    HW210829   4.717   2.533   0.957
 3423SOL     OW10830   4.704   3.435   1.700
 3423SOL    HW110831   4.684   3.479   1.612
 3423SOL    HW210832   4.743   3.344   1.684
 3424SOL     OW10833   4.074   2.760   1.804
 3424SOL    HW110834   4.150   2.804   1.852
 3424SOL    HW210835   4.109   2.713   1.722
 3425SOL     OW10836   5.027   2.700   0.042
 3425SOL    HW110837   5.061   2.607   0.057
 3425SOL    HW210838   5.045   2.727  -0.053
 3426SOL     OW10839   4.043   2.672   0.949
 3426SOL    HW110840   4.136   2.708   0.954
 3426SOL    HW210841   4.037   2.587   1.001
 3427SOL     OW10842   4.063   2.371   1.006
 3427SOL    HW110843   4.011   2.288   0.989
 3427SOL    HW210844   4.140   2.376   0.942
 3428SOL     OW10845   4.862   2.242   1.678
 3428SOL    HW110846   4.817   2.305   1.742
 3428SOL    HW210847   4.955   2.273   1.661
 3429SOL     OW10848   4.884   2.069   1.477
 3429SOL    HW110849   4.884   2.133   1.554
 3429SOL    HW210850   4.912   2.117   1.394
 3430SOL     OW10851   3.812   3.663   0.927
 3430SOL    HW110852   3.770   3.577   0.900
 3430SOL    HW210853   3.906   3.666   0.893
 3431SOL     OW10854   4.228   3.430   0.910
 3431SOL    HW110855   4.294   3.504   0.919
 3431SOL    HW210856   4.272   3.351   0.868
 3432SOL     OW10857   3.764   2.406   1.114
 3432SOL    HW110858   3.849   2.373   1.073
 3432SOL    HW210859   3.777   2.421   1.212
 3433SOL     OW10860   3.913   2.382   1.722
 3433SOL    HW110861   3.972   2.342   1.652
 3433SOL    HW210862   3.855   2.453   1.681
 3434SOL     OW10863   4.539   2.434   0.325
 3434SOL    HW110864   4.546   2.345   0.279
 3434SOL    HW210865   4.445   2.468   0.317
 3435SOL     OW10866   3.976   3.426   1.744
 3435SOL    HW110867   3.946   3.483   1.820
 3435SOL    HW210868   3.969   3.329   1.770
 3436SOL     OW10869   4.395   2.326   1.269
 3436SOL    HW110870   4.361   2.237   1.239
 3436SOL    HW210871   4.421   2.380   1.189
 3437SOL     OW10872   4.654   3.540   1.465
 3437SOL    HW110873   4.630   3.522   1.370
 3437SOL    HW210874   4.684   3.634   1.475
 3438SOL     OW10875   4.197   2.362   0.191
 3438SOL    HW110876   4.258   2.442   0.195
 3438SOL    HW210877   4.102   2.393   0.198
 3439SOL     OW10878   3.883   2.999   1.466
 3439SOL    HW110879   3.905   2.938   1.542
 3439SOL    HW210880   3.893   2.950   1.380
 3440SOL     OW10881   5.071   2.921   1.234
 3440SOL    HW110882   5.095   2.858   1.160
 3440SOL    HW210883   4.981   2.961   1.216
 3441SOL     OW10884   4.976   3.593   1.128
 3441SOL    HW110885   5.060   3.598   1.074
 3441SOL    HW210886   4.953   3.497   1.146
 3442SOL     OW10887   3.807   3.120   1.022
 3442SOL    HW110888   3.802   3.119   1.122
 3442SOL    HW210889   3.724   3.079   0.984
 3443SOL     OW10890   4.627   1.948   0.133
 3443SOL    HW110891   4.678   1.949   0.047
 3443SOL    HW210892   4.683   1.906   0.204
 3444SOL     OW10893   3.854   3.656   1.851
 3444SOL    HW110894   3.813   3.582   1.904
 3444SOL    HW210895   3.918   3.707   1.909
 3445SOL     OW10896   5.004   2.789   0.672
 3445SOL    HW110897   5.064   2.708   0.674
 3445SOL    HW210898   5.044   2.858   0.612
 3446SOL     OW10899   4.554   3.135   1.422
 3446SOL    HW110900   4.549   3.168   1.517
 3446SOL    HW210901   4.468   3.154   1.376
 3447SOL     OW10902   4.396   3.478   0.154
 3447SOL    HW110903   4.405   3.488   0.055
 3447SOL    HW210904   4.356   3.389   0.175
 3448SOL     OW10905   3.987   2.188   0.720
 3448SOL    HW110906   3.908   2.239   0.686
 3448SOL    HW210907   3.978   2.173   0.818
 3449SOL     OW10908   4.918   3.474   0.031
 3449SOL    HW110909   4.924   3.381   0.068
 3449SOL    HW210910   4.859   3.474  -0.049
 3450SOL     OW10911   4.640   2.772   0.291
 3450SOL    HW110912   4.703   2.810   0.223
 3450SOL    HW210913   4.680   2.689   0.330
 3451SOL     OW10914   4.096   3.150   1.490
 3451SOL    HW110915   4.083   3.243   1.456
 3451SOL    HW210916   4.012   3.098   1.477
 3452SOL     OW10917   4.763   2.960   0.696
 3452SOL    HW110918   4.693   2.913   0.750
 3452SOL    HW210919   4.822   2.892   0.653
 3453SOL     OW10920   4.738   2.098   0.971
 3453SOL    HW110921   4.730   2.062   0.878
 3453SOL    HW210922   4.736   2.022   1.036
 3454SOL     OW10923   4.314   3.349   0.491
 3454SOL    HW110924   4.356   3.291   0.421
 3454SOL    HW210925   4.270   3.428   0.447
 3455SOL     OW10926   3.979   3.210   0.290
 3455SOL    HW110927   3.883   3.211   0.263
 3455SOL    HW210928   3.991   3.263   0.374
 3456SOL     OW10929   3.829   2.875   1.726
 3456SOL    HW110930   3.752   2.842   1.780
 3456SOL    HW210931   3.914   2.845   1.768
 3457SOL     OW10932   4.396   2.065   1.489
 3457SOL    HW110933   4.486   2.049   1.449
 3457SOL    HW210934   4.404   2.070   1.588
 3458SOL     OW10935   5.164   2.718   1.398
 3458SOL    HW110936   5.107   2.770   1.335
 3458SOL    HW210937   5.260   2.730   1.374
 3459SOL     OW10938   3.796   2.028   0.318
 3459SOL    HW110939   3.779   2.111   0.264
 3459SOL    HW210940   3.886   1.991   0.296
 3460SOL     OW10941   4.337   2.704   1.431
 3460SOL    HW110942   4.393   2.785   1.414
 3460SOL    HW210943   4.396   2.624   1.434
 3461SOL     OW10944   4.440   2.427   1.708
 3461SOL    HW110945   4.459   2.492   1.782
 3461SOL    HW210946   4.500   2.347   1.717
 3462SOL     OW10947   4.114   3.603   1.560
 3462SOL    HW110948   4.023   3.644   1.558
 3462SOL    HW210949   4.107   3.509   1.592
 3463SOL     OW10950   4.949   2.187   0.449
 3463SOL    HW110951   5.014   2.113   0.438
 3463SOL    HW210952   4.969   2.237   0.533
 3464SOL     OW10953   4.318   2.607   0.652
 3464SOL    HW110954   4.368   2.692   0.633
 3464SOL    HW210955   4.230   2.609   0.604
 3465SOL     OW10956   4.583   3.236   0.016
 3465SOL    HW110957   4.537   3.251   0.104
 3465SOL    HW210958   4.627   3.321  -0.014
 3466SOL     OW10959   4.385   3.652   0.953
 3466SOL    HW110960   4.339   3.740   0.940
 3466SOL    HW210961   4.484   3.664   0.946
 3467SOL     OW10962   4.583   2.818   0.861
 3467SOL    HW110963   4.637   2.749   0.909
 3467SOL    HW210964   4.551   2.887   0.927
 3468SOL     OW10965   4.807   2.846   0.087
 3468SOL    HW110966   4.784   2.899   0.005
 3468SOL    HW210967   4.888   2.790   0.068
 3469SOL     OW10968   3.945   3.176   1.844
 3469SOL    HW110969   3.880   3.103   1.823
 3469SOL    HW210970   3.949   3.190   1.942
 3470SOL     OW10971   3.803   3.102   0.653
 3470SOL    HW110972   3.802   3.055   0.741
 3470SOL    HW210973   3.885   3.074   0.602
 3471SOL     OW10974   4.396   3.253   1.624
 3471SOL    HW110975   4.318   3.203   1.662
 3471SOL    HW210976   4.393   3.348   1.655
 3472SOL     OW10977   4.152   2.286   0.520
 3472SOL    HW110978   4.182   2.214   0.458
 3472SOL    HW210979   4.113   2.246   0.603
 3473SOL     OW10980   4.041   2.409   1.280
 3473SOL    HW110981   4.079   2.350   1.352
 3473SOL    HW210982   4.081   2.383   1.192
 3474SOL     OW10983   4.725   1.896   1.154
 3474SOL    HW110984   4.662   1.824   1.123
 3474SOL    HW210985   4.818   1.860   1.154
 3475SOL     OW10986   4.494   3.192   0.301
 3475SOL    HW110987   4.448   3.105   0.318
 3475SOL    HW210988   4.585   3.189   0.342
 3476SOL     OW10989   4.342   3.429   1.284
 3476SOL    HW110990   4.337   3.511   1.341
 3476SOL    HW210991   4.431   3.426   1.239
 3477SOL     OW10992   3.763   2.939   0.300
 3477SOL    HW110993   3.862   2.928   0.291
 3477SOL    HW210994   3.723   2.853   0.332
 3478SOL     OW10995   4.599   3.508   0.337
 3478SOL    HW110996   4.522   3.473   0.283
 3478SOL    HW210997   4.567   3.579   0.399
 3479SOL     OW10998   3.954   2.490   1.975
 3479SOL    HW110999   3.861   2.488   2.012
 3479SOL    HW211000   3.955   2.451   1.883
 3480SOL     OW11001   3.949   2.137   2.858
 3480SOL    HW111002   3.984   2.120   2.950
 3480SOL    HW211003   3.861   2.092   2.846
 3481SOL     OW11004   3.743   2.230   2.509
 3481SOL    HW111005   3.661   2.273   2.548
 3481SOL    HW211006   3.715   2.157   2.446
 3482SOL     OW11007   4.293   3.137   3.027
 3482SOL    HW111008   4.200   3.130   2.990
 3482SOL    HW211009   4.304   3.226   3.071
 3483SOL     OW11010   4.859   2.565   2.579
 3483SOL    HW111011   4.916   2.643   2.554
 3483SOL    HW211012   4.799   2.591   2.655
 3484SOL     OW11013   4.492   3.006   2.885
 3484SOL    HW111014   4.414   3.023   2.945
 3484SOL    HW211015   4.526   3.093   2.849
 3485SOL     OW11016   4.574   2.660   3.685
 3485SOL    HW111017   4.570   2.736   3.750
 3485SOL    HW211018   4.596   2.696   3.594
 3486SOL     OW11019   4.409   2.874   2.527
 3486SOL    HW111020   4.478   2.858   2.597
 3486SOL    HW211021   4.336   2.931   2.565
 3487SOL     OW11022   4.410   3.023   3.665
 3487SOL    HW111023   4.470   3.102   3.679
 3487SOL    HW211024   4.324   3.054   3.624
 3488SOL     OW11025   4.059   3.297   2.923
 3488SOL    HW111026   3.981   3.266   2.870
 3488SOL    HW211027   4.117   3.355   2.866
 3489SOL     OW11028   4.162   2.254   3.361
 3489SOL    HW111029   4.244   2.198   3.370
 3489SOL    HW211030   4.081   2.196   3.365
 3490SOL     OW11031   3.955   3.575   2.345
 3490SOL    HW111032   3.989   3.652   2.399
 3490SOL    HW211033   3.999   3.575   2.255
 3491SOL     OW11034   4.851   3.203   3.552
 3491SOL    HW111035   4.898   3.203   3.640
 3491SOL    HW211036   4.803   3.116   3.541
 3492SOL     OW11037   3.954   3.296   2.400
 3492SOL    HW111038   3.928   3.392   2.400
 3492SOL    HW211039   3.883   3.242   2.445
 3493SOL     OW11040   3.964   2.953   2.748
 3493SOL    HW111041   3.978   2.869   2.800
 3493SOL    HW211042   3.909   3.017   2.803
 3494SOL     OW11043   4.344   3.648   3.301
 3494SOL    HW111044   4.252   3.631   3.336
 3494SOL    HW211045   4.372   3.740   3.327
 3495SOL     OW11046   4.330   2.826   1.985
 3495SOL    HW111047   4.337   2.910   1.931
 3495SOL    HW211048   4.376   2.839   2.073
 3496SOL     OW11049   3.846   2.505   2.425
 3496SOL    HW111050   3.801   2.417   2.442
 3496SOL    HW211051   3.845   2.559   2.509
 3497SOL     OW11052   3.751   3.458   1.979
 3497SOL    HW111053   3.732   3.362   2.000
 3497SOL    HW211054   3.718   3.516   2.054
 3498SOL     OW11055   3.837   2.599   3.459
 3498SOL    HW111056   3.925   2.586   3.504
 3498SOL    HW211057   3.824   2.696   3.437
 3499SOL     OW11058   4.337   3.227   2.588
 3499SOL    HW111059   4.288   3.140   2.597
 3499SOL    HW211060   4.314   3.270   2.501
 3500SOL     OW11061   5.017   3.090   3.285
 3500SOL    HW111062   5.054   3.017   3.227
 3500SOL    HW211063   5.069   3.095   3.370
 3501SOL     OW11064   4.533   1.866   2.364
 3501SOL    HW111065   4.573   1.957   2.355
 3501SOL    HW211066   4.433   1.874   2.370
 3502SOL     OW11067   3.921   2.838   3.126
 3502SOL    HW111068   4.010   2.793   3.112
 3502SOL    HW211069   3.848   2.773   3.107
 3503SOL     OW11070   4.911   3.654   3.478
 3503SOL    HW111071   4.935   3.714   3.402
 3503SOL    HW211072   4.918   3.559   3.448
 3504SOL     OW11073   4.041   2.113   3.663
 3504SOL    HW111074   4.112   2.184   3.669
 3504SOL    HW211075   3.953   2.152   3.691
 3505SOL     OW11076   4.322   2.591   2.132
 3505SOL    HW111077   4.346   2.660   2.064
 3505SOL    HW211078   4.244   2.624   2.186
 3506SOL     OW11079   5.005   2.207   2.806
 3506SOL    HW111080   4.919   2.157   2.793
 3506SOL    HW211081   5.067   2.153   2.862
 3507SOL     OW11082   4.531   2.467   3.327
 3507SOL    HW111083   4.484   2.464   3.416
 3507SOL    HW211084   4.480   2.412   3.261
 3508SOL     OW11085   4.697   2.752   3.434
 3508SOL    HW111086   4.743   2.668   3.405
 3508SOL    HW211087   4.641   2.786   3.359
 3509SOL     OW11088   4.715   2.272   3.104
 3509SOL    HW111089   4.638   2.306   3.158
 3509SOL    HW211090   4.681   2.221   3.025
 3510SOL     OW11091   4.765   2.563   2.291
 3510SOL    HW111092   4.791   2.559   2.387
 3510SOL    HW211093   4.680   2.512   2.277
 3511SOL     OW11094   3.800   2.673   2.651
 3511SOL    HW111095   3.899   2.661   2.660
 3511SOL    HW211096   3.776   2.768   2.672
 3512SOL     OW11097   3.854   3.683   3.433
 3512SOL    HW111098   3.844   3.668   3.532
 3512SOL    HW211099   3.768   3.719   3.397
 3513SOL     OW11100   4.589   2.210   2.057
 3513SOL    HW111101   4.648   2.273   2.008
 3513SOL    HW211102   4.608   2.116   2.028
 3514SOL     OW11103   4.274   2.058   2.747
 3514SOL    HW111104   4.269   2.053   2.847
 3514SOL    HW211105   4.276   2.154   2.718
 3515SOL     OW11106   4.732   3.318   2.339
 3515SOL    HW111107   4.686   3.390   2.287
 3515SOL    HW211108   4.728   3.338   2.437
 3516SOL     OW11109   4.075   3.663   2.715
 3516SOL    HW111110   4.125   3.577   2.721
 3516SOL    HW211111   4.140   3.740   2.712
 3517SOL     OW11112   4.951   3.412   3.368
 3517SOL    HW111113   4.957   3.335   3.432
 3517SOL    HW211114   4.899   3.386   3.288
 3518SOL     OW11115   4.045   2.805   2.104
 3518SOL    HW111116   4.127   2.844   2.062
 3518SOL    HW211117   4.018   2.723   2.055
 3519SOL     OW11118   4.185   3.128   3.589
 3519SOL    HW111119   4.135   3.129   3.503
 3519SOL    HW211120   4.122   3.110   3.665
 3520SOL     OW11121   4.835   3.638   2.099
 3520SOL    HW111122   4.775   3.576   2.149
 3520SOL    HW211123   4.866   3.594   2.014
 3521SOL     OW11124   3.926   2.147   3.360
 3521SOL    HW111125   3.846   2.207   3.347
 3521SOL    HW211126   3.916   2.098   3.446
 3522SOL     OW11127   4.188   3.605   2.185
 3522SOL    HW111128   4.221   3.644   2.271
 3522SOL    HW211129   4.264   3.598   2.120
 3523SOL     OW11130   3.973   3.647   3.103
 3523SOL    HW111131   4.030   3.582   3.153
 3523SOL    HW211132   3.957   3.614   3.010
 3524SOL     OW11133   4.664   3.560   2.766
 3524SOL    HW111134   4.744   3.503   2.787
 3524SOL    HW211135   4.615   3.520   2.689
 3525SOL     OW11136   4.106   2.562   2.342
 3525SOL    HW111137   4.151   2.472   2.339
 3525SOL    HW211138   4.012   2.551   2.375
 3526SOL     OW11139   4.338   1.984   1.979
 3526SOL    HW111140   4.436   1.962   1.986
 3526SOL    HW211141   4.307   1.967   1.886
 3527SOL     OW11142   4.505   2.126   3.611
 3527SOL    HW111143   4.572   2.065   3.654
 3527SOL    HW211144   4.432   2.145   3.676
 3528SOL     OW11145   4.612   3.376   3.057
 3528SOL    HW111146   4.589   3.351   2.963
 3528SOL    HW211147   4.673   3.307   3.096
 3529SOL     OW11148   4.527   3.264   2.786
 3529SOL    HW111149   4.617   3.278   2.744
 3529SOL    HW211150   4.456   3.266   2.715
 3530SOL     OW11151   4.646   2.365   2.761
 3530SOL    HW111152   4.621   2.356   2.665
 3530SOL    HW211153   4.694   2.283   2.792
 3531SOL     OW11154   4.263   1.926   2.374
 3531SOL    HW111155   4.182   1.927   2.432
 3531SOL    HW211156   4.266   2.009   2.319
 3532SOL     OW11157   4.021   1.897   2.033
 3532SOL    HW111158   4.070   1.981   2.012
 3532SOL    HW211159   4.083   1.832   2.078
 3533SOL     OW11160   4.659   2.098   2.342
 3533SOL    HW111161   4.611   2.139   2.264
 3533SOL    HW211162   4.758   2.096   2.323
 3534SOL     OW11163   4.800   2.545   3.326
 3534SOL    HW111164   4.720   2.484   3.329
 3534SOL    HW211165   4.881   2.492   3.302
 3535SOL     OW11166   4.951   3.432   2.655
 3535SOL    HW111167   4.972   3.506   2.590
 3535SOL    HW211168   5.019   3.432   2.728
 3536SOL     OW11169   4.183   3.014   2.603
 3536SOL    HW111170   4.112   2.987   2.668
 3536SOL    HW211171   4.157   2.986   2.510
 3537SOL     OW11172   4.756   2.411   1.878
 3537SOL    HW111173   4.715   2.493   1.839
 3537SOL    HW211174   4.820   2.437   1.951
 3538SOL     OW11175   3.802   2.418   3.248
 3538SOL    HW111176   3.894   2.417   3.207
 3538SOL    HW211177   3.796   2.492   3.315
 3539SOL     OW11178   4.285   2.084   3.009
 3539SOL    HW111179   4.323   2.000   3.046
 3539SOL    HW211180   4.197   2.103   3.053
 3540SOL     OW11181   4.590   2.316   2.504
 3540SOL    HW111182   4.558   2.388   2.442
 3540SOL    HW211183   4.614   2.235   2.451
 3541SOL     OW11184   4.741   1.901   2.615
 3541SOL    HW111185   4.669   1.906   2.546
 3541SOL    HW211186   4.717   1.832   2.684
 3542SOL     OW11187   4.212   3.247   2.036
 3542SOL    HW111188   4.125   3.232   2.083
 3542SOL    HW211189   4.195   3.273   1.941
 3543SOL     OW11190   5.388   3.142   2.519
 3543SOL    HW111191   5.487   3.150   2.533
 3543SOL    HW211192   5.343   3.226   2.550
 3544SOL     OW11193   4.251   2.118   2.190
 3544SOL    HW111194   4.278   2.059   2.115
 3544SOL    HW211195   4.251   2.213   2.159
 3545SOL     OW11196   4.788   3.209   3.202
 3545SOL    HW111197   4.708   3.186   3.257
 3545SOL    HW211198   4.871   3.183   3.251
 3546SOL     OW11199   4.835   3.057   2.962
 3546SOL    HW111200   4.795   3.101   3.043
 3546SOL    HW211201   4.794   3.094   2.879
 3547SOL     OW11202   4.639   1.951   3.264
 3547SOL    HW111203   4.664   1.931   3.169
 3547SOL    HW211204   4.711   2.007   3.306
 3548SOL     OW11205   4.704   2.978   3.581
 3548SOL    HW111206   4.605   2.984   3.591
 3548SOL    HW211207   4.727   2.898   3.525
 3549SOL     OW11208   4.429   2.912   2.230
 3549SOL    HW111209   4.415   2.919   2.329
 3549SOL    HW211210   4.513   2.861   2.212
 3550SOL     OW11211   4.134   2.675   3.113
 3550SOL    HW111212   4.220   2.687   3.163
 3550SOL    HW211213   4.092   2.588   3.140
 3551SOL     OW11214   4.998   2.248   3.124
 3551SOL    HW111215   5.019   2.322   3.188
 3551SOL    HW211216   4.909   2.265   3.081
 3552SOL     OW11217   3.788   3.426   3.193
 3552SOL    HW111218   3.742   3.508   3.159
 3552SOL    HW211219   3.886   3.445   3.202
 3553SOL     OW11220   4.091   2.962   2.363
 3553SOL    HW111221   4.084   3.045   2.307
 3553SOL    HW211222   4.095   2.882   2.303
 3554SOL     OW11223   4.290   2.399   2.727
 3554SOL    HW111224   4.302   2.465   2.653
 3554SOL    HW211225   4.336   2.433   2.810
 3555SOL     OW11226   4.976   3.210   2.250
 3555SOL    HW111227   5.026   3.287   2.290
 3555SOL    HW211228   4.881   3.212   2.282
 3556SOL     OW11229   4.078   3.372   3.191
 3556SOL    HW111230   4.057   3.328   3.104
 3556SOL    HW211231   4.175   3.398   3.194
 3557SOL     OW11232   4.126   2.613   3.460
 3557SOL    HW111233   4.194   2.668   3.413
 3557SOL    HW211234   4.166   2.525   3.487
 3558SOL     OW11235   4.737   1.967   3.632
 3558SOL    HW111236   4.743   2.052   3.580
 3558SOL    HW211237   4.769   1.891   3.575
 3559SOL     OW11238   4.228   1.912   3.602
 3559SOL    HW111239   4.186   1.855   3.532
 3559SOL    HW211240   4.162   1.981   3.634
 3560SOL     OW11241   4.297   2.732   2.891
 3560SOL    HW111242   4.341   2.821   2.882
 3560SOL    HW211243   4.234   2.732   2.968
 3561SOL     OW11244   5.084   2.724   2.907
 3561SOL    HW111245   5.009   2.724   2.841
 3561SOL    HW211246   5.121   2.632   2.916
 3562SOL     OW11247   4.933   2.387   2.137
 3562SOL    HW111248   4.946   2.303   2.191
 3562SOL    HW211249   4.904   2.461   2.197
 3563SOL     OW11250   4.031   2.075   3.093
 3563SOL    HW111251   4.008   2.112   3.183
 3563SOL    HW211252   4.001   1.980   3.087
 3564SOL     OW11253   3.761   3.172   3.144
 3564SOL    HW111254   3.814   3.123   3.212
 3564SOL    HW211255   3.783   3.270   3.149
 3565SOL     OW11256   4.456   2.496   2.926
 3565SOL    HW111257   4.515   2.470   2.850
 3565SOL    HW211258   4.428   2.592   2.915
 3566SOL     OW11259   4.031   1.925   2.480
 3566SOL    HW111260   4.020   2.019   2.513
 3566SOL    HW211261   4.026   1.862   2.557
 3567SOL     OW11262   4.747   2.628   2.828
 3567SOL    HW111263   4.762   2.649   2.924
 3567SOL    HW211264   4.717   2.533   2.819
 3568SOL     OW11265   4.704   3.435   3.562
 3568SOL    HW111266   4.684   3.479   3.474
 3568SOL    HW211267   4.743   3.344   3.546
 3569SOL     OW11268   4.074   2.760   3.666
 3569SOL    HW111269   4.150   2.804   3.714
 3569SOL    HW211270   4.109   2.713   3.584
 3570SOL     OW11271   5.027   2.700   1.904
 3570SOL    HW111272   5.061   2.607   1.919
 3570SOL    HW211273   5.045   2.727   1.809
 3571SOL     OW11274   4.792   3.195   2.711
 3571SOL    HW111275   4.799   3.111   2.656
 3571SOL    HW211276   4.854   3.264   2.675
 3572SOL     OW11277   4.043   2.672   2.811
 3572SOL    HW111278   4.136   2.708   2.816
 3572SOL    HW211279   4.037   2.587   2.863
 3573SOL     OW11280   4.063   2.371   2.868
 3573SOL    HW111281   4.011   2.288   2.851
 3573SOL    HW211282   4.140   2.376   2.804
 3574SOL     OW11283   4.862   2.242   3.540
 3574SOL    HW111284   4.817   2.305   3.604
 3574SOL    HW211285   4.955   2.273   3.523
 3575SOL     OW11286   4.884   2.069   3.339
 3575SOL    HW111287   4.884   2.133   3.416
 3575SOL    HW211288   4.912   2.117   3.256
 3576SOL     OW11289   3.732   3.188   2.062
 3576SOL    HW111290   3.639   3.209   2.031
 3576SOL    HW211291   3.742   3.089   2.075
 3577SOL     OW11292   3.812   3.663   2.789
 3577SOL    HW111293   3.770   3.577   2.762
 3577SOL    HW211294   3.906   3.666   2.755
 3578SOL     OW11295   4.228   3.430   2.772
 3578SOL    HW111296   4.294   3.504   2.781
 3578SOL    HW211297   4.272   3.351   2.730
 3579SOL     OW11298   4.726   2.658   3.100
 3579SOL    HW111299   4.767   2.626   3.186
 3579SOL    HW211300   4.630   2.631   3.097
 3580SOL     OW11301   3.764   2.406   2.976
 3580SOL    HW111302   3.849   2.373   2.935
 3580SOL    HW211303   3.777   2.421   3.074
 3581SOL     OW11304   3.913   2.382   3.584
 3581SOL    HW111305   3.972   2.342   3.514
 3581SOL    HW211306   3.855   2.453   3.543
 3582SOL     OW11307   4.539   2.434   2.187
 3582SOL    HW111308   4.546   2.345   2.141
 3582SOL    HW211309   4.445   2.468   2.179
 3583SOL     OW11310   3.976   3.426   3.606
 3583SOL    HW111311   3.946   3.483   3.682
 3583SOL    HW211312   3.969   3.329   3.632
 3584SOL     OW11313   4.395   2.326   3.131
 3584SOL    HW111314   4.361   2.237   3.101
 3584SOL    HW211315   4.421   2.380   3.051
 3585SOL     OW11316   4.654   3.540   3.327
 3585SOL    HW111317   4.630   3.522   3.232
 3585SOL    HW211318   4.684   3.634   3.337
 3586SOL     OW11319   4.197   2.362   2.053
 3586SOL    HW111320   4.258   2.442   2.057
 3586SOL    HW211321   4.102   2.393   2.060
 3587SOL     OW11322   3.883   2.999   3.328
 3587SOL    HW111323   3.905   2.938   3.404
 3587SOL    HW211324   3.893   2.950   3.242
 3588SOL     OW11325   5.071   2.921   3.096
 3588SOL    HW111326   5.095   2.858   3.022
 3588SOL    HW211327   4.981   2.961   3.078
 3589SOL     OW11328   4.976   3.593   2.990
 3589SOL    HW111329   5.060   3.598   2.936
 3589SOL    HW211330   4.953   3.497   3.008
 3590SOL     OW11331   3.807   3.120   2.884
 3590SOL    HW111332   3.802   3.119   2.984
 3590SOL    HW211333   3.724   3.079   2.846
 3591SOL     OW11334   4.412   3.524   3.578
 3591SOL    HW111335   4.356   3.605   3.587
 3591SOL    HW211336   4.464   3.528   3.492
 3592SOL     OW11337   5.112   3.435   2.339
 3592SOL    HW111338   5.179   3.447   2.265
 3592SOL    HW211339   5.072   3.524   2.362
 3593SOL     OW11340   3.854   3.656   3.713
 3593SOL    HW111341   3.813   3.582   3.766
 3593SOL    HW211342   3.918   3.707   3.771
 3594SOL     OW11343   5.004   2.789   2.534
 3594SOL    HW111344   5.064   2.708   2.536
 3594SOL    HW211345   5.044   2.858   2.474
 3595SOL     OW11346   4.554   3.135   3.284
 3595SOL    HW111347   4.549   3.168   3.379
 3595SOL    HW211348   4.468   3.154   3.238
 3596SOL     OW11349   3.987   2.188   2.582
 3596SOL    HW111350   3.908   2.239   2.548
 3596SOL    HW211351   3.978   2.173   2.680
 3597SOL     OW11352   4.918   3.474   1.893
 3597SOL    HW111353   4.924   3.381   1.930
 3597SOL    HW211354   4.859   3.474   1.813
 3598SOL     OW11355   4.546   2.864   3.234
 3598SOL    HW111356   4.586   2.863   3.142
 3598SOL    HW211357   4.556   2.956   3.274
 3599SOL     OW11358   4.640   2.772   2.153
 3599SOL    HW111359   4.703   2.810   2.085
 3599SOL    HW211360   4.680   2.689   2.192
 3600SOL     OW11361   4.096   3.150   3.352
 3600SOL    HW111362   4.083   3.243   3.318
 3600SOL    HW211363   4.012   3.098   3.339
 3601SOL     OW11364   4.763   2.960   2.558
 3601SOL    HW111365   4.693   2.913   2.612
 3601SOL    HW211366   4.822   2.892   2.515
 3602SOL     OW11367   4.738   2.098   2.833
 3602SOL    HW111368   4.730   2.062   2.740
 3602SOL    HW211369   4.736   2.022   2.898
 3603SOL     OW11370   4.314   3.349   2.353
 3603SOL    HW111371   4.356   3.291   2.283
 3603SOL    HW211372   4.270   3.428   2.309
 3604SOL     OW11373   3.979   3.210   2.152
 3604SOL    HW111374   3.883   3.211   2.125
 3604SOL    HW211375   3.991   3.263   2.236
 3605SOL     OW11376   3.829   2.875   3.588
 3605SOL    HW111377   3.752   2.842   3.642
 3605SOL    HW211378   3.914   2.845   3.630
 3606SOL     OW11379   4.396   2.065   3.351
 3606SOL    HW111380   4.486   2.049   3.311
 3606SOL    HW211381   4.404   2.070   3.450
 3607SOL     OW11382   3.799   2.207   1.895
 3607SOL    HW111383   3.707   2.179   1.866
 3607SOL    HW211384   3.830   2.284   1.839
 3608SOL     OW11385   5.164   2.718   3.260
 3608SOL    HW111386   5.107   2.770   3.197
 3608SOL    HW211387   5.260   2.730   3.236
 3609SOL     OW11388   3.796   2.028   2.180
 3609SOL    HW111389   3.779   2.111   2.126
 3609SOL    HW211390   3.886   1.991   2.158
 3610SOL     OW11391   4.337   2.704   3.293
 3610SOL    HW111392   4.393   2.785   3.276
 3610SOL    HW211393   4.396   2.624   3.296
 3611SOL     OW11394   4.440   2.427   3.570
 3611SOL    HW111395   4.459   2.492   3.644
 3611SOL    HW211396   4.500   2.347   3.579
 3612SOL     OW11397   4.114   3.603   3.422
 3612SOL    HW111398   4.023   3.644   3.420
 3612SOL    HW211399   4.107   3.509   3.454
 3613SOL     OW11400   4.318   2.607   2.514
 3613SOL    HW111401   4.368   2.692   2.495
 3613SOL    HW211402   4.230   2.609   2.466
 3614SOL     OW11403   4.583   3.236   1.878
 3614SOL    HW111404   4.537   3.251   1.966
 3614SOL    HW211405   4.627   3.321   1.848
 3615SOL     OW11406   4.583   2.818   2.723
 3615SOL    HW111407   4.637   2.749   2.771
 3615SOL    HW211408   4.551   2.887   2.789
 3616SOL     OW11409   4.807   2.846   1.949
 3616SOL    HW111410   4.784   2.899   1.867
 3616SOL    HW211411   4.888   2.790   1.930
 3617SOL     OW11412   3.945   3.176   3.706
 3617SOL    HW111413   3.880   3.103   3.685
 3617SOL    HW211414   3.949   3.190   3.804
 3618SOL     OW11415   3.803   3.102   2.515
 3618SOL    HW111416   3.802   3.055   2.603
 3618SOL    HW211417   3.885   3.074   2.464
 3619SOL     OW11418   4.396   3.253   3.486
 3619SOL    HW111419   4.318   3.203   3.524
 3619SOL    HW211420   4.393   3.348   3.517
 3620SOL     OW11421   4.152   2.286   2.382
 3620SOL    HW111422   4.182   2.214   2.320
 3620SOL    HW211423   4.113   2.246   2.465
 3621SOL     OW11424   4.041   2.409   3.142
 3621SOL    HW111425   4.079   2.350   3.214
 3621SOL    HW211426   4.081   2.383   3.054
 3622SOL     OW11427   4.536   3.448   2.549
 3622SOL    HW111428   4.568   3.458   2.455
 3622SOL    HW211429   4.457   3.386   2.551
 3623SOL     OW11430   4.725   1.896   3.016
 3623SOL    HW111431   4.662   1.824   2.985
 3623SOL    HW211432   4.818   1.860   3.016
 3624SOL     OW11433   4.494   3.192   2.163
 3624SOL    HW111434   4.448   3.105   2.180
 3624SOL    HW211435   4.585   3.189   2.204
 3625SOL     OW11436   4.342   3.429   3.146
 3625SOL    HW111437   4.337   3.511   3.203
 3625SOL    HW211438   4.431   3.426   3.101
 3626SOL     OW11439   3.763   2.939   2.162
 3626SOL    HW111440   3.862   2.928   2.153
 3626SOL    HW211441   3.723   2.853   2.194
 3627SOL     OW11442   4.599   3.508   2.199
 3627SOL    HW111443   4.522   3.473   2.145
 3627SOL    HW211444   4.567   3.579   2.261
 3628SOL     OW11445   3.954   2.490   3.837
 3628SOL    HW111446   3.861   2.488   3.874
 3628SOL    HW211447   3.955   2.451   3.745
 3629SOL     OW11448   3.949   2.137   4.720
 3629SOL    HW111449   3.984   2.120   4.812
 3629SOL    HW211450   3.861   2.092   4.708
 3630SOL     OW11451   3.743   2.230   4.371
 3630SOL    HW111452   3.661   2.273   4.410
 3630SOL    HW211453   3.715   2.157   4.308
 3631SOL     OW11454   4.293   3.137   4.889
 3631SOL    HW111455   4.200   3.130   4.852
 3631SOL    HW211456   4.304   3.226   4.933
 3632SOL     OW11457   4.859   2.565   4.441
 3632SOL    HW111458   4.916   2.643   4.416
 3632SOL    HW211459   4.799   2.591   4.517
 3633SOL     OW11460   4.492   3.006   4.747
 3633SOL    HW111461   4.414   3.023   4.807
 3633SOL    HW211462   4.526   3.093   4.711
 3634SOL     OW11463   4.409   2.874   4.389
 3634SOL    HW111464   4.478   2.858   4.459
 3634SOL    HW211465   4.336   2.931   4.427
 3635SOL     OW11466   4.059   3.297   4.785
 3635SOL    HW111467   3.981   3.266   4.732
 3635SOL    HW211468   4.117   3.355   4.728
 3636SOL     OW11469   3.955   3.575   4.207
 3636SOL    HW111470   3.989   3.652   4.261
 3636SOL    HW211471   3.999   3.575   4.117
 3637SOL     OW11472   3.954   3.296   4.262
 3637SOL    HW111473   3.928   3.392   4.262
 3637SOL    HW211474   3.883   3.242   4.307
 3638SOL     OW11475   3.964   2.953   4.610
 3638SOL    HW111476   3.978   2.869   4.662
 3638SOL    HW211477   3.909   3.017   4.665
 3639SOL     OW11478   4.344   3.648   5.163
 3639SOL    HW111479   4.252   3.631   5.198
 3639SOL    HW211480   4.372   3.740   5.189
 3640SOL     OW11481   4.330   2.826   3.847
 3640SOL    HW111482   4.337   2.910   3.793
 3640SOL    HW211483   4.376   2.839   3.935
 3641SOL     OW11484   3.846   2.505   4.287
 3641SOL    HW111485   3.801   2.417   4.304
 3641SOL    HW211486   3.845   2.559   4.371
 3642SOL     OW11487   3.751   3.458   3.841
 3642SOL    HW111488   3.732   3.362   3.862
 3642SOL    HW211489   3.718   3.516   3.916
 3643SOL     OW11490   4.337   3.227   4.450
 3643SOL    HW111491   4.288   3.140   4.459
 3643SOL    HW211492   4.314   3.270   4.363
 3644SOL     OW11493   4.533   1.866   4.226
 3644SOL    HW111494   4.573   1.957   4.217
 3644SOL    HW211495   4.433   1.874   4.232
 3645SOL     OW11496   3.921   2.838   4.988
 3645SOL    HW111497   4.010   2.793   4.974
 3645SOL    HW211498   3.848   2.773   4.969
 3646SOL     OW11499   4.322   2.591   3.994
 3646SOL    HW111500   4.346   2.660   3.926
 3646SOL    HW211501   4.244   2.624   4.048
 3647SOL     OW11502   5.005   2.207   4.668
 3647SOL    HW111503   4.919   2.157   4.655
 3647SOL    HW211504   5.067   2.153   4.724
 3648SOL     OW11505   4.715   2.272   4.966
 3648SOL    HW111506   4.638   2.306   5.020
 3648SOL    HW211507   4.681   2.221   4.887
 3649SOL     OW11508   4.765   2.563   4.153
 3649SOL    HW111509   4.791   2.559   4.249
 3649SOL    HW211510   4.680   2.512   4.139
 3650SOL     OW11511   3.800   2.673   4.513
 3650SOL    HW111512   3.899   2.661   4.522
 3650SOL    HW211513   3.776   2.768   4.534
 3651SOL     OW11514   4.589   2.210   3.919
 3651SOL    HW111515   4.648   2.273   3.870
 3651SOL    HW211516   4.608   2.116   3.890
 3652SOL     OW11517   4.274   2.058   4.609
 3652SOL    HW111518   4.269   2.053   4.709
 3652SOL    HW211519   4.276   2.154   4.580
 3653SOL     OW11520   4.732   3.318   4.201
 3653SOL    HW111521   4.686   3.390   4.149
 3653SOL    HW211522   4.728   3.338   4.299
 3654SOL     OW11523   4.075   3.663   4.577
 3654SOL    HW111524   4.125   3.577   4.583
 3654SOL    HW211525   4.140   3.740   4.574
 3655SOL     OW11526   4.045   2.805   3.966
 3655SOL    HW111527   4.127   2.844   3.924
 3655SOL    HW211528   4.018   2.723   3.917
 3656SOL     OW11529   4.835   3.638   3.961
 3656SOL    HW111530   4.775   3.576   4.011
 3656SOL    HW211531   4.866   3.594   3.876
 3657SOL     OW11532   4.188   3.605   4.047
 3657SOL    HW111533   4.221   3.644   4.133
 3657SOL    HW211534   4.264   3.598   3.982
 3658SOL     OW11535   3.973   3.647   4.965
 3658SOL    HW111536   4.030   3.582   5.015
 3658SOL    HW211537   3.957   3.614   4.872
 3659SOL     OW11538   4.664   3.560   4.628
 3659SOL    HW111539   4.744   3.503   4.649
 3659SOL    HW211540   4.615   3.520   4.551
 3660SOL     OW11541   4.106   2.562   4.204
 3660SOL    HW111542   4.151   2.472   4.201
 3660SOL    HW211543   4.012   2.551   4.237
 3661SOL     OW11544   4.338   1.984   3.841
 3661SOL    HW111545   4.436   1.962   3.848
 3661SOL    HW211546   4.307   1.967   3.748
 3662SOL     OW11547   4.527   3.264   4.648
 3662SOL    HW111548   4.617   3.278   4.606
 3662SOL    HW211549   4.456   3.266   4.577
 3663SOL     OW11550   4.646   2.365   4.623
 3663SOL    HW111551   4.621   2.356   4.527
 3663SOL    HW211552   4.694   2.283   4.654
 3664SOL     OW11553   4.263   1.926   4.236
 3664SOL    HW111554   4.182   1.927   4.294
 3664SOL    HW211555   4.266   2.009   4.181
 3665SOL     OW11556   4.021   1.897   3.895
 3665SOL    HW111557   4.070   1.981   3.874
 3665SOL    HW211558   4.083   1.832   3.940
 3666SOL     OW11559   4.659   2.098   4.204
 3666SOL    HW111560   4.611   2.139   4.126
 3666SOL    HW211561   4.758   2.096   4.185
 3667SOL     OW11562   4.951   3.432   4.517
 3667SOL    HW111563   4.972   3.506   4.452
 3667SOL    HW211564   5.019   3.432   4.590
 3668SOL     OW11565   4.183   3.014   4.465
 3668SOL    HW111566   4.112   2.987   4.530
 3668SOL    HW211567   4.157   2.986   4.372
 3669SOL     OW11568   4.995   3.659   4.315
 3669SOL    HW111569   5.039   3.723   4.251
 3669SOL    HW211570   4.945   3.711   4.385
 3670SOL     OW11571   4.756   2.411   3.740
 3670SOL    HW111572   4.715   2.493   3.701
 3670SOL    HW211573   4.820   2.437   3.813
 3671SOL     OW11574   4.285   2.084   4.871
 3671SOL    HW111575   4.323   2.000   4.908
 3671SOL    HW211576   4.197   2.103   4.915
 3672SOL     OW11577   4.590   2.316   4.366
 3672SOL    HW111578   4.558   2.388   4.304
 3672SOL    HW211579   4.614   2.235   4.313
 3673SOL     OW11580   4.741   1.901   4.477
 3673SOL    HW111581   4.669   1.906   4.408
 3673SOL    HW211582   4.717   1.832   4.546
 3674SOL     OW11583   4.212   3.247   3.898
 3674SOL    HW111584   4.125   3.232   3.945
 3674SOL    HW211585   4.195   3.273   3.803
 3675SOL     OW11586   5.388   3.142   4.381
 3675SOL    HW111587   5.487   3.150   4.395
 3675SOL    HW211588   5.343   3.226   4.412
 3676SOL     OW11589   4.251   2.118   4.052
 3676SOL    HW111590   4.278   2.059   3.977
 3676SOL    HW211591   4.251   2.213   4.021
 3677SOL     OW11592   5.316   3.491   5.349
 3677SOL    HW111593   5.343   3.525   5.259
 3677SOL    HW211594   5.395   3.453   5.395
 3678SOL     OW11595   4.835   3.057   4.824
 3678SOL    HW111596   4.795   3.101   4.905
 3678SOL    HW211597   4.794   3.094   4.741
 3679SOL     OW11598   4.429   2.912   4.092
 3679SOL    HW111599   4.415   2.919   4.191
 3679SOL    HW211600   4.513   2.861   4.074
 3680SOL     OW11601   4.134   2.675   4.975
 3680SOL    HW111602   4.220   2.687   5.025
 3680SOL    HW211603   4.092   2.588   5.002
 3681SOL     OW11604   4.091   2.962   4.225
 3681SOL    HW111605   4.084   3.045   4.169
 3681SOL    HW211606   4.095   2.882   4.165
 3682SOL     OW11607   4.290   2.399   4.589
 3682SOL    HW111608   4.302   2.465   4.515
 3682SOL    HW211609   4.336   2.433   4.672
 3683SOL     OW11610   4.976   3.210   4.112
 3683SOL    HW111611   5.026   3.287   4.152
 3683SOL    HW211612   4.881   3.212   4.144
 3684SOL     OW11613   4.078   3.372   5.053
 3684SOL    HW111614   4.057   3.328   4.966
 3684SOL    HW211615   4.175   3.398   5.056
 3685SOL     OW11616   4.297   2.732   4.753
 3685SOL    HW111617   4.341   2.821   4.744
 3685SOL    HW211618   4.234   2.732   4.830
 3686SOL     OW11619   5.084   2.724   4.769
 3686SOL    HW111620   5.009   2.724   4.703
 3686SOL    HW211621   5.121   2.632   4.778
 3687SOL     OW11622   4.933   2.387   3.999
 3687SOL    HW111623   4.946   2.303   4.053
 3687SOL    HW211624   4.904   2.461   4.059
 3688SOL     OW11625   4.031   2.075   4.955
 3688SOL    HW111626   4.008   2.112   5.045
 3688SOL    HW211627   4.001   1.980   4.949
 3689SOL     OW11628   3.761   3.172   5.006
 3689SOL    HW111629   3.814   3.123   5.074
 3689SOL    HW211630   3.783   3.270   5.011
 3690SOL     OW11631   4.456   2.496   4.788
 3690SOL    HW111632   4.515   2.470   4.712
 3690SOL    HW211633   4.428   2.592   4.777
 3691SOL     OW11634   4.031   1.925   4.342
 3691SOL    HW111635   4.020   2.019   4.375
 3691SOL    HW211636   4.026   1.862   4.419
 3692SOL     OW11637   5.346   2.229   4.098
 3692SOL    HW111638   5.348   2.153   4.162
 3692SOL    HW211639   5.298   2.306   4.138
 3693SOL     OW11640   4.747   2.628   4.690
 3693SOL    HW111641   4.762   2.649   4.786
 3693SOL    HW211642   4.717   2.533   4.681
 3694SOL     OW11643   5.027   2.700   3.766
 3694SOL    HW111644   5.061   2.607   3.781
 3694SOL    HW211645   5.045   2.727   3.671
 3695SOL     OW11646   4.792   3.195   4.573
 3695SOL    HW111647   4.799   3.111   4.518
 3695SOL    HW211648   4.854   3.264   4.537
 3696SOL     OW11649   4.043   2.672   4.673
 3696SOL    HW111650   4.136   2.708   4.678
 3696SOL    HW211651   4.037   2.587   4.725
 3697SOL     OW11652   4.063   2.371   4.730
 3697SOL    HW111653   4.011   2.288   4.713
 3697SOL    HW211654   4.140   2.376   4.666
 3698SOL     OW11655   4.884   2.069   5.201
 3698SOL    HW111656   4.884   2.133   5.278
 3698SOL    HW211657   4.912   2.117   5.118
 3699SOL     OW11658   3.732   3.188   3.924
 3699SOL    HW111659   3.639   3.209   3.893
 3699SOL    HW211660   3.742   3.089   3.937
 3700SOL     OW11661   3.812   3.663   4.651
 3700SOL    HW111662   3.770   3.577   4.624
 3700SOL    HW211663   3.906   3.666   4.617
 3701SOL     OW11664   4.228   3.430   4.634
 3701SOL    HW111665   4.294   3.504   4.643
 3701SOL    HW211666   4.272   3.351   4.592
 3702SOL     OW11667   4.726   2.658   4.962
 3702SOL    HW111668   4.767   2.626   5.048
 3702SOL    HW211669   4.630   2.631   4.959
 3703SOL     OW11670   3.764   2.406   4.838
 3703SOL    HW111671   3.849   2.373   4.797
 3703SOL    HW211672   3.777   2.421   4.936
 3704SOL     OW11673   4.539   2.434   4.049
 3704SOL    HW111674   4.546   2.345   4.003
 3704SOL    HW211675   4.445   2.468   4.041
 3705SOL     OW11676   4.395   2.326   4.993
 3705SOL    HW111677   4.361   2.237   4.963
 3705SOL    HW211678   4.421   2.380   4.913
 3706SOL     OW11679   4.654   3.540   5.189
 3706SOL    HW111680   4.630   3.522   5.094
 3706SOL    HW211681   4.684   3.634   5.199
 3707SOL     OW11682   4.197   2.362   3.915
 3707SOL    HW111683   4.258   2.442   3.919
 3707SOL    HW211684   4.102   2.393   3.922
 3708SOL     OW11685   5.071   2.921   4.958
 3708SOL    HW111686   5.095   2.858   4.884
 3708SOL    HW211687   4.981   2.961   4.940
 3709SOL     OW11688   4.976   3.593   4.852
 3709SOL    HW111689   5.060   3.598   4.798
 3709SOL    HW211690   4.953   3.497   4.870
 3710SOL     OW11691   3.807   3.120   4.746
 3710SOL    HW111692   3.802   3.119   4.846
 3710SOL    HW211693   3.724   3.079   4.708
 3711SOL     OW11694   5.112   3.435   4.201
 3711SOL    HW111695   5.179   3.447   4.127
 3711SOL    HW211696   5.072   3.524   4.224
 3712SOL     OW11697   5.004   2.789   4.396
 3712SOL    HW111698   5.064   2.708   4.398
 3712SOL    HW211699   5.044   2.858   4.336
 3713SOL     OW11700   4.396   3.478   3.878
 3713SOL    HW111701   4.405   3.488   3.779
 3713SOL    HW211702   4.356   3.389   3.899
 3714SOL     OW11703   3.987   2.188   4.444
 3714SOL    HW111704   3.908   2.239   4.410
 3714SOL    HW211705   3.978   2.173   4.542
 3715SOL     OW11706   4.918   3.474   3.755
 3715SOL    HW111707   4.924   3.381   3.792
 3715SOL    HW211708   4.859   3.474   3.675
 3716SOL     OW11709   4.546   2.864   5.096
 3716SOL    HW111710   4.586   2.863   5.004
 3716SOL    HW211711   4.556   2.956   5.136
 3717SOL     OW11712   4.640   2.772   4.015
 3717SOL    HW111713   4.703   2.810   3.947
 3717SOL    HW211714   4.680   2.689   4.054
 3718SOL     OW11715   4.763   2.960   4.420
 3718SOL    HW111716   4.693   2.913   4.474
 3718SOL    HW211717   4.822   2.892   4.377
 3719SOL     OW11718   4.738   2.098   4.695
 3719SOL    HW111719   4.730   2.062   4.602
 3719SOL    HW211720   4.736   2.022   4.760
 3720SOL     OW11721   4.314   3.349   4.215
 3720SOL    HW111722   4.356   3.291   4.145
 3720SOL    HW211723   4.270   3.428   4.171
 3721SOL     OW11724   3.979   3.210   4.014
 3721SOL    HW111725   3.883   3.211   3.987
 3721SOL    HW211726   3.991   3.263   4.098
 3722SOL     OW11727   3.799   2.207   3.757
 3722SOL    HW111728   3.707   2.179   3.728
 3722SOL    HW211729   3.830   2.284   3.701
 3723SOL     OW11730   3.796   2.028   4.042
 3723SOL    HW111731   3.779   2.111   3.988
 3723SOL    HW211732   3.886   1.991   4.020
 3724SOL     OW11733   4.949   2.187   4.173
 3724SOL    HW111734   5.014   2.113   4.162
 3724SOL    HW211735   4.969   2.237   4.257
 3725SOL     OW11736   4.318   2.607   4.376
 3725SOL    HW111737   4.368   2.692   4.357
 3725SOL    HW211738   4.230   2.609   4.328
 3726SOL     OW11739   4.583   3.236   3.740
 3726SOL    HW111740   4.537   3.251   3.828
 3726SOL    HW211741   4.627   3.321   3.710
 3727SOL     OW11742   4.385   3.652   4.677
 3727SOL    HW111743   4.339   3.740   4.664
 3727SOL    HW211744   4.484   3.664   4.670
 3728SOL     OW11745   4.583   2.818   4.585
 3728SOL    HW111746   4.637   2.749   4.633
 3728SOL    HW211747   4.551   2.887   4.651
 3729SOL     OW11748   4.807   2.846   3.811
 3729SOL    HW111749   4.784   2.899   3.729
 3729SOL    HW211750   4.888   2.790   3.792
 3730SOL     OW11751   3.803   3.102   4.377
 3730SOL    HW111752   3.802   3.055   4.465
 3730SOL    HW211753   3.885   3.074   4.326
 3731SOL     OW11754   4.152   2.286   4.244
 3731SOL    HW111755   4.182   2.214   4.182
 3731SOL    HW211756   4.113   2.246   4.327
 3732SOL     OW11757   4.536   3.448   4.411
 3732SOL    HW111758   4.568   3.458   4.317
 3732SOL    HW211759   4.457   3.386   4.413
 3733SOL     OW11760   4.725   1.896   4.878
 3733SOL    HW111761   4.662   1.824   4.847
 3733SOL    HW211762   4.818   1.860   4.878
 3734SOL     OW11763   4.494   3.192   4.025
 3734SOL    HW111764   4.448   3.105   4.042
 3734SOL    HW211765   4.585   3.189   4.066
 3735SOL     OW11766   5.076   1.914   3.892
 3735SOL    HW111767   5.111   1.873   3.808
 3735SOL    HW211768   4.986   1.876   3.912
 3736SOL     OW11769   3.763   2.939   4.024
 3736SOL    HW111770   3.862   2.928   4.015
 3736SOL    HW211771   3.723   2.853   4.056
 3737SOL     OW11772   4.599   3.508   4.061
 3737SOL    HW111773   4.522   3.473   4.007
 3737SOL    HW211774   4.567   3.579   4.123
 3738SOL     OW11775   3.954   4.352   0.113
 3738SOL    HW111776   3.861   4.350   0.150
 3738SOL    HW211777   3.955   4.313   0.021
 3739SOL     OW11778   3.949   3.999   0.996
 3739SOL    HW111779   3.984   3.982   1.088
 3739SOL    HW211780   3.861   3.954   0.984
 3740SOL     OW11781   3.743   4.092   0.647
 3740SOL    HW111782   3.661   4.135   0.686
 3740SOL    HW211783   3.715   4.019   0.584
 3741SOL     OW11784   4.293   4.999   1.165
 3741SOL    HW111785   4.200   4.992   1.128
 3741SOL    HW211786   4.304   5.088   1.209
 3742SOL     OW11787   4.859   4.427   0.717
 3742SOL    HW111788   4.916   4.505   0.692
 3742SOL    HW211789   4.799   4.453   0.793
 3743SOL     OW11790   4.492   4.868   1.023
 3743SOL    HW111791   4.414   4.885   1.083
 3743SOL    HW211792   4.526   4.955   0.987
 3744SOL     OW11793   4.574   4.522   1.823
 3744SOL    HW111794   4.570   4.598   1.888
 3744SOL    HW211795   4.596   4.558   1.732
 3745SOL     OW11796   4.409   4.736   0.665
 3745SOL    HW111797   4.478   4.720   0.735
 3745SOL    HW211798   4.336   4.793   0.703
 3746SOL     OW11799   4.410   4.885   1.803
 3746SOL    HW111800   4.470   4.964   1.817
 3746SOL    HW211801   4.324   4.916   1.762
 3747SOL     OW11802   4.059   5.159   1.061
 3747SOL    HW111803   3.981   5.128   1.008
 3747SOL    HW211804   4.117   5.217   1.004
 3748SOL     OW11805   4.162   4.116   1.499
 3748SOL    HW111806   4.244   4.060   1.508
 3748SOL    HW211807   4.081   4.058   1.503
 3749SOL     OW11808   3.964   4.815   0.886
 3749SOL    HW111809   3.978   4.731   0.938
 3749SOL    HW211810   3.909   4.879   0.941
 3750SOL     OW11811   4.330   4.688   0.123
 3750SOL    HW111812   4.337   4.772   0.069
 3750SOL    HW211813   4.376   4.701   0.211
 3751SOL     OW11814   3.846   4.367   0.563
 3751SOL    HW111815   3.801   4.279   0.580
 3751SOL    HW211816   3.845   4.421   0.647
 3752SOL     OW11817   3.837   4.461   1.597
 3752SOL    HW111818   3.925   4.448   1.642
 3752SOL    HW211819   3.824   4.558   1.575
 3753SOL     OW11820   5.017   4.952   1.423
 3753SOL    HW111821   5.054   4.879   1.365
 3753SOL    HW211822   5.069   4.957   1.508
 3754SOL     OW11823   4.533   3.728   0.502
 3754SOL    HW111824   4.573   3.819   0.493
 3754SOL    HW211825   4.433   3.736   0.508
 3755SOL     OW11826   3.921   4.700   1.264
 3755SOL    HW111827   4.010   4.655   1.250
 3755SOL    HW211828   3.848   4.635   1.245
 3756SOL     OW11829   4.041   3.975   1.801
 3756SOL    HW111830   4.112   4.046   1.807
 3756SOL    HW211831   3.953   4.014   1.829
 3757SOL     OW11832   4.322   4.453   0.270
 3757SOL    HW111833   4.346   4.522   0.202
 3757SOL    HW211834   4.244   4.486   0.324
 3758SOL     OW11835   5.005   4.069   0.944
 3758SOL    HW111836   4.919   4.019   0.931
 3758SOL    HW211837   5.067   4.015   1.000
 3759SOL     OW11838   4.531   4.329   1.465
 3759SOL    HW111839   4.484   4.326   1.554
 3759SOL    HW211840   4.480   4.274   1.399
 3760SOL     OW11841   4.697   4.614   1.572
 3760SOL    HW111842   4.743   4.530   1.543
 3760SOL    HW211843   4.641   4.648   1.497
 3761SOL     OW11844   4.715   4.134   1.242
 3761SOL    HW111845   4.638   4.168   1.296
 3761SOL    HW211846   4.681   4.083   1.163
 3762SOL     OW11847   4.765   4.425   0.429
 3762SOL    HW111848   4.791   4.421   0.525
 3762SOL    HW211849   4.680   4.374   0.415
 3763SOL     OW11850   3.800   4.535   0.789
 3763SOL    HW111851   3.899   4.523   0.798
 3763SOL    HW211852   3.776   4.630   0.810
 3764SOL     OW11853   4.589   4.072   0.195
 3764SOL    HW111854   4.648   4.135   0.146
 3764SOL    HW211855   4.608   3.978   0.166
 3765SOL     OW11856   4.274   3.920   0.885
 3765SOL    HW111857   4.269   3.915   0.985
 3765SOL    HW211858   4.276   4.016   0.856
 3766SOL     OW11859   4.045   4.667   0.242
 3766SOL    HW111860   4.127   4.706   0.200
 3766SOL    HW211861   4.018   4.585   0.193
 3767SOL     OW11862   3.926   4.009   1.498
 3767SOL    HW111863   3.846   4.069   1.485
 3767SOL    HW211864   3.916   3.960   1.584
 3768SOL     OW11865   4.106   4.424   0.480
 3768SOL    HW111866   4.151   4.334   0.477
 3768SOL    HW211867   4.012   4.413   0.513
 3769SOL     OW11868   4.527   5.126   0.924
 3769SOL    HW111869   4.617   5.140   0.882
 3769SOL    HW211870   4.456   5.128   0.853
 3770SOL     OW11871   4.646   4.227   0.899
 3770SOL    HW111872   4.621   4.218   0.803
 3770SOL    HW211873   4.694   4.145   0.930
 3771SOL     OW11874   4.263   3.788   0.512
 3771SOL    HW111875   4.182   3.789   0.570
 3771SOL    HW211876   4.266   3.871   0.457
 3772SOL     OW11877   4.021   3.759   0.171
 3772SOL    HW111878   4.070   3.843   0.150
 3772SOL    HW211879   4.083   3.694   0.216
 3773SOL     OW11880   4.659   3.960   0.480
 3773SOL    HW111881   4.611   4.001   0.402
 3773SOL    HW211882   4.758   3.958   0.461
 3774SOL     OW11883   4.800   4.407   1.464
 3774SOL    HW111884   4.720   4.346   1.467
 3774SOL    HW211885   4.881   4.354   1.440
 3775SOL     OW11886   4.951   5.294   0.793
 3775SOL    HW111887   4.972   5.368   0.728
 3775SOL    HW211888   5.019   5.294   0.866
 3776SOL     OW11889   4.183   4.876   0.741
 3776SOL    HW111890   4.112   4.849   0.806
 3776SOL    HW211891   4.157   4.848   0.648
 3777SOL     OW11892   4.756   4.273   0.016
 3777SOL    HW111893   4.715   4.355  -0.023
 3777SOL    HW211894   4.820   4.299   0.089
 3778SOL     OW11895   3.802   4.280   1.386
 3778SOL    HW111896   3.894   4.279   1.345
 3778SOL    HW211897   3.796   4.354   1.453
 3779SOL     OW11898   4.285   3.946   1.147
 3779SOL    HW111899   4.323   3.862   1.184
 3779SOL    HW211900   4.197   3.965   1.191
 3780SOL     OW11901   4.590   4.178   0.642
 3780SOL    HW111902   4.558   4.250   0.580
 3780SOL    HW211903   4.614   4.097   0.589
 3781SOL     OW11904   4.251   3.980   0.328
 3781SOL    HW111905   4.278   3.921   0.253
 3781SOL    HW211906   4.251   4.075   0.297
 3782SOL     OW11907   4.639   3.813   1.402
 3782SOL    HW111908   4.664   3.793   1.307
 3782SOL    HW211909   4.711   3.869   1.444
 3783SOL     OW11910   4.704   4.840   1.719
 3783SOL    HW111911   4.605   4.846   1.729
 3783SOL    HW211912   4.727   4.760   1.663
 3784SOL     OW11913   4.429   4.774   0.368
 3784SOL    HW111914   4.415   4.781   0.467
 3784SOL    HW211915   4.513   4.723   0.350
 3785SOL     OW11916   4.134   4.537   1.251
 3785SOL    HW111917   4.220   4.549   1.301
 3785SOL    HW211918   4.092   4.450   1.278
 3786SOL     OW11919   4.998   4.110   1.262
 3786SOL    HW111920   5.019   4.184   1.326
 3786SOL    HW211921   4.909   4.127   1.219
 3787SOL     OW11922   4.091   4.824   0.501
 3787SOL    HW111923   4.084   4.907   0.445
 3787SOL    HW211924   4.095   4.744   0.441
 3788SOL     OW11925   4.290   4.261   0.865
 3788SOL    HW111926   4.302   4.327   0.791
 3788SOL    HW211927   4.336   4.295   0.948
 3789SOL     OW11928   4.976   5.072   0.388
 3789SOL    HW111929   5.026   5.149   0.428
 3789SOL    HW211930   4.881   5.074   0.420
 3790SOL     OW11931   4.126   4.475   1.598
 3790SOL    HW111932   4.194   4.530   1.551
 3790SOL    HW211933   4.166   4.387   1.625
 3791SOL     OW11934   4.228   3.774   1.740
 3791SOL    HW111935   4.186   3.717   1.670
 3791SOL    HW211936   4.162   3.843   1.772
 3792SOL     OW11937   4.297   4.594   1.029
 3792SOL    HW111938   4.341   4.683   1.020
 3792SOL    HW211939   4.234   4.594   1.106
 3793SOL     OW11940   5.084   4.586   1.045
 3793SOL    HW111941   5.009   4.586   0.979
 3793SOL    HW211942   5.121   4.494   1.054
 3794SOL     OW11943   4.933   4.249   0.275
 3794SOL    HW111944   4.946   4.165   0.329
 3794SOL    HW211945   4.904   4.323   0.335
 3795SOL     OW11946   4.031   3.937   1.231
 3795SOL    HW111947   4.008   3.974   1.321
 3795SOL    HW211948   4.001   3.842   1.225
 3796SOL     OW11949   4.456   4.358   1.064
 3796SOL    HW111950   4.515   4.332   0.988
 3796SOL    HW211951   4.428   4.454   1.053
 3797SOL     OW11952   4.031   3.787   0.618
 3797SOL    HW111953   4.020   3.881   0.651
 3797SOL    HW211954   4.026   3.724   0.695
 3798SOL     OW11955   5.346   4.091   0.374
 3798SOL    HW111956   5.348   4.015   0.438
 3798SOL    HW211957   5.298   4.168   0.414
 3799SOL     OW11958   4.747   4.490   0.966
 3799SOL    HW111959   4.762   4.511   1.062
 3799SOL    HW211960   4.717   4.395   0.957
 3800SOL     OW11961   4.074   4.622   1.804
 3800SOL    HW111962   4.150   4.666   1.852
 3800SOL    HW211963   4.109   4.575   1.722
 3801SOL     OW11964   5.027   4.562   0.042
 3801SOL    HW111965   5.061   4.469   0.057
 3801SOL    HW211966   5.045   4.589  -0.053
 3802SOL     OW11967   4.043   4.534   0.949
 3802SOL    HW111968   4.136   4.570   0.954
 3802SOL    HW211969   4.037   4.449   1.001
 3803SOL     OW11970   4.063   4.233   1.006
 3803SOL    HW111971   4.011   4.150   0.989
 3803SOL    HW211972   4.140   4.238   0.942
 3804SOL     OW11973   4.862   4.104   1.678
 3804SOL    HW111974   4.817   4.167   1.742
 3804SOL    HW211975   4.955   4.135   1.661
 3805SOL     OW11976   4.884   3.931   1.477
 3805SOL    HW111977   4.884   3.995   1.554
 3805SOL    HW211978   4.912   3.979   1.394
 3806SOL     OW11979   4.726   4.520   1.238
 3806SOL    HW111980   4.767   4.488   1.324
 3806SOL    HW211981   4.630   4.493   1.235
 3807SOL     OW11982   3.764   4.268   1.114
 3807SOL    HW111983   3.849   4.235   1.073
 3807SOL    HW211984   3.777   4.283   1.212
 3808SOL     OW11985   3.913   4.244   1.722
 3808SOL    HW111986   3.972   4.204   1.652
 3808SOL    HW211987   3.855   4.315   1.681
 3809SOL     OW11988   4.539   4.296   0.325
 3809SOL    HW111989   4.546   4.207   0.279
 3809SOL    HW211990   4.445   4.330   0.317
 3810SOL     OW11991   4.395   4.188   1.269
 3810SOL    HW111992   4.361   4.099   1.239
 3810SOL    HW211993   4.421   4.242   1.189
 3811SOL     OW11994   4.197   4.224   0.191
 3811SOL    HW111995   4.258   4.304   0.195
 3811SOL    HW211996   4.102   4.255   0.198
 3812SOL     OW11997   3.883   4.861   1.466
 3812SOL    HW111998   3.905   4.800   1.542
 3812SOL    HW211999   3.893   4.812   1.380
 3813SOL     OW12000   5.071   4.783   1.234
 3813SOL    HW112001   5.095   4.720   1.160
 3813SOL    HW212002   4.981   4.823   1.216
 3814SOL     OW12003   3.807   4.982   1.022
 3814SOL    HW112004   3.802   4.981   1.122
 3814SOL    HW212005   3.724   4.941   0.984
 3815SOL     OW12006   4.627   3.810   0.133
 3815SOL    HW112007   4.678   3.811   0.047
 3815SOL    HW212008   4.683   3.768   0.204
 3816SOL     OW12009   5.004   4.651   0.672
 3816SOL    HW112010   5.064   4.570   0.674
 3816SOL    HW212011   5.044   4.720   0.612
 3817SOL     OW12012   4.554   4.997   1.422
 3817SOL    HW112013   4.549   5.030   1.517
 3817SOL    HW212014   4.468   5.016   1.376
 3818SOL     OW12015   3.987   4.050   0.720
 3818SOL    HW112016   3.908   4.101   0.686
 3818SOL    HW212017   3.978   4.035   0.818
 3819SOL     OW12018   4.546   4.726   1.372
 3819SOL    HW112019   4.586   4.725   1.280
 3819SOL    HW212020   4.556   4.818   1.412
 3820SOL     OW12021   4.640   4.634   0.291
 3820SOL    HW112022   4.703   4.672   0.223
 3820SOL    HW212023   4.680   4.551   0.330
 3821SOL     OW12024   4.096   5.012   1.490
 3821SOL    HW112025   4.083   5.105   1.456
 3821SOL    HW212026   4.012   4.960   1.477
 3822SOL     OW12027   4.763   4.822   0.696
 3822SOL    HW112028   4.693   4.775   0.750
 3822SOL    HW212029   4.822   4.754   0.653
 3823SOL     OW12030   4.738   3.960   0.971
 3823SOL    HW112031   4.730   3.924   0.878
 3823SOL    HW212032   4.736   3.884   1.036
 3824SOL     OW12033   4.396   3.927   1.489
 3824SOL    HW112034   4.486   3.911   1.449
 3824SOL    HW212035   4.404   3.932   1.588
 3825SOL     OW12036   5.164   4.580   1.398
 3825SOL    HW112037   5.107   4.632   1.335
 3825SOL    HW212038   5.260   4.592   1.374
 3826SOL     OW12039   3.796   3.890   0.318
 3826SOL    HW112040   3.779   3.973   0.264
 3826SOL    HW212041   3.886   3.853   0.296
 3827SOL     OW12042   4.337   4.566   1.431
 3827SOL    HW112043   4.393   4.647   1.414
 3827SOL    HW212044   4.396   4.486   1.434
 3828SOL     OW12045   4.440   4.289   1.708
 3828SOL    HW112046   4.459   4.354   1.782
 3828SOL    HW212047   4.500   4.209   1.717
 3829SOL     OW12048   5.174   4.944   1.633
 3829SOL    HW112049   5.165   4.934   1.732
 3829SOL    HW212050   5.270   4.937   1.607
 3830SOL     OW12051   4.949   4.049   0.449
 3830SOL    HW112052   5.014   3.975   0.438
 3830SOL    HW212053   4.969   4.099   0.533
 3831SOL     OW12054   4.318   4.469   0.652
 3831SOL    HW112055   4.368   4.554   0.633
 3831SOL    HW212056   4.230   4.471   0.604
 3832SOL     OW12057   4.583   4.680   0.861
 3832SOL    HW112058   4.637   4.611   0.909
 3832SOL    HW212059   4.551   4.749   0.927
 3833SOL     OW12060   4.807   4.708   0.087
 3833SOL    HW112061   4.784   4.761   0.005
 3833SOL    HW212062   4.888   4.652   0.068
 3834SOL     OW12063   3.803   4.964   0.653
 3834SOL    HW112064   3.802   4.917   0.741
 3834SOL    HW212065   3.885   4.936   0.602
 3835SOL     OW12066   4.152   4.148   0.520
 3835SOL    HW112067   4.182   4.076   0.458
 3835SOL    HW212068   4.113   4.108   0.603
 3836SOL     OW12069   4.041   4.271   1.280
 3836SOL    HW112070   4.079   4.212   1.352
 3836SOL    HW212071   4.081   4.245   1.192
 3837SOL     OW12072   4.725   3.758   1.154
 3837SOL    HW112073   4.662   3.686   1.123
 3837SOL    HW212074   4.818   3.722   1.154
 3838SOL     OW12075   4.494   5.054   0.301
 3838SOL    HW112076   4.448   4.967   0.318
 3838SOL    HW212077   4.585   5.051   0.342
 3839SOL     OW12078   3.763   4.801   0.300
 3839SOL    HW112079   3.862   4.790   0.291
 3839SOL    HW212080   3.723   4.715   0.332
 3840SOL     OW12081   3.954   4.352   1.975
 3840SOL    HW112082   3.861   4.350   2.012
 3840SOL    HW212083   3.955   4.313   1.883
 3841SOL     OW12084   3.949   3.999   2.858
 3841SOL    HW112085   3.984   3.982   2.950
 3841SOL    HW212086   3.861   3.954   2.846
 3842SOL     OW12087   3.743   4.092   2.509
 3842SOL    HW112088   3.661   4.135   2.548
 3842SOL    HW212089   3.715   4.019   2.446
 3843SOL     OW12090   4.293   4.999   3.027
 3843SOL    HW112091   4.200   4.992   2.990
 3843SOL    HW212092   4.304   5.088   3.071
 3844SOL     OW12093   4.859   4.427   2.579
 3844SOL    HW112094   4.916   4.505   2.554
 3844SOL    HW212095   4.799   4.453   2.655
 3845SOL     OW12096   4.492   4.868   2.885
 3845SOL    HW112097   4.414   4.885   2.945
 3845SOL    HW212098   4.526   4.955   2.849
 3846SOL     OW12099   4.574   4.522   3.685
 3846SOL    HW112100   4.570   4.598   3.750
 3846SOL    HW212101   4.596   4.558   3.594
 3847SOL     OW12102   4.409   4.736   2.527
 3847SOL    HW112103   4.478   4.720   2.597
 3847SOL    HW212104   4.336   4.793   2.565
 3848SOL     OW12105   4.410   4.885   3.665
 3848SOL    HW112106   4.470   4.964   3.679
 3848SOL    HW212107   4.324   4.916   3.624
 3849SOL     OW12108   4.162   4.116   3.361
 3849SOL    HW112109   4.244   4.060   3.370
 3849SOL    HW212110   4.081   4.058   3.365
 3850SOL     OW12111   4.330   4.688   1.985
 3850SOL    HW112112   4.337   4.772   1.931
 3850SOL    HW212113   4.376   4.701   2.073
 3851SOL     OW12114   3.837   4.461   3.459
 3851SOL    HW112115   3.925   4.448   3.504
 3851SOL    HW212116   3.824   4.558   3.437
 3852SOL     OW12117   5.017   4.952   3.285
 3852SOL    HW112118   5.054   4.879   3.227
 3852SOL    HW212119   5.069   4.957   3.370
 3853SOL     OW12120   3.921   4.700   3.126
 3853SOL    HW112121   4.010   4.655   3.112
 3853SOL    HW212122   3.848   4.635   3.107
 3854SOL     OW12123   4.041   3.975   3.663
 3854SOL    HW112124   4.112   4.046   3.669
 3854SOL    HW212125   3.953   4.014   3.691
 3855SOL     OW12126   4.322   4.453   2.132
 3855SOL    HW112127   4.346   4.522   2.064
 3855SOL    HW212128   4.244   4.486   2.186
 3856SOL     OW12129   5.005   4.069   2.806
 3856SOL    HW112130   4.919   4.019   2.793
 3856SOL    HW212131   5.067   4.015   2.862
 3857SOL     OW12132   4.531   4.329   3.327
 3857SOL    HW112133   4.484   4.326   3.416
 3857SOL    HW212134   4.480   4.274   3.261
 3858SOL     OW12135   4.697   4.614   3.434
 3858SOL    HW112136   4.743   4.530   3.405
 3858SOL    HW212137   4.641   4.648   3.359
 3859SOL     OW12138   4.715   4.134   3.104
 3859SOL    HW112139   4.638   4.168   3.158
 3859SOL    HW212140   4.681   4.083   3.025
 3860SOL     OW12141   4.765   4.425   2.291
 3860SOL    HW112142   4.791   4.421   2.387
 3860SOL    HW212143   4.680   4.374   2.277
 3861SOL     OW12144   3.800   4.535   2.651
 3861SOL    HW112145   3.899   4.523   2.660
 3861SOL    HW212146   3.776   4.630   2.672
 3862SOL     OW12147   4.274   3.920   2.747
 3862SOL    HW112148   4.269   3.915   2.847
 3862SOL    HW212149   4.276   4.016   2.718
 3863SOL     OW12150   3.926   4.009   3.360
 3863SOL    HW112151   3.846   4.069   3.347
 3863SOL    HW212152   3.916   3.960   3.446
 3864SOL     OW12153   4.106   4.424   2.342
 3864SOL    HW112154   4.151   4.334   2.339
 3864SOL    HW212155   4.012   4.413   2.375
 3865SOL     OW12156   4.505   3.988   3.611
 3865SOL    HW112157   4.572   3.927   3.654
 3865SOL    HW212158   4.432   4.007   3.676
 3866SOL     OW12159   4.527   5.126   2.786
 3866SOL    HW112160   4.617   5.140   2.744
 3866SOL    HW212161   4.456   5.128   2.715
 3867SOL     OW12162   4.646   4.227   2.761
 3867SOL    HW112163   4.621   4.218   2.665
 3867SOL    HW212164   4.694   4.145   2.792
 3868SOL     OW12165   4.263   3.788   2.374
 3868SOL    HW112166   4.182   3.789   2.432
 3868SOL    HW212167   4.266   3.871   2.319
 3869SOL     OW12168   5.158   4.912   1.903
 3869SOL    HW112169   5.190   4.836   1.960
 3869SOL    HW212170   5.066   4.939   1.933
 3870SOL     OW12171   4.021   3.759   2.033
 3870SOL    HW112172   4.070   3.843   2.012
 3870SOL    HW212173   4.083   3.694   2.078
 3871SOL     OW12174   4.800   4.407   3.326
 3871SOL    HW112175   4.720   4.346   3.329
 3871SOL    HW212176   4.881   4.354   3.302
 3872SOL     OW12177   4.951   5.294   2.655
 3872SOL    HW112178   4.972   5.368   2.590
 3872SOL    HW212179   5.019   5.294   2.728
 3873SOL     OW12180   4.183   4.876   2.603
 3873SOL    HW112181   4.112   4.849   2.668
 3873SOL    HW212182   4.157   4.848   2.510
 3874SOL     OW12183   4.756   4.273   1.878
 3874SOL    HW112184   4.715   4.355   1.839
 3874SOL    HW212185   4.820   4.299   1.951
 3875SOL     OW12186   3.802   4.280   3.248
 3875SOL    HW112187   3.894   4.279   3.207
 3875SOL    HW212188   3.796   4.354   3.315
 3876SOL     OW12189   4.285   3.946   3.009
 3876SOL    HW112190   4.323   3.862   3.046
 3876SOL    HW212191   4.197   3.965   3.053
 3877SOL     OW12192   4.251   3.980   2.190
 3877SOL    HW112193   4.278   3.921   2.115
 3877SOL    HW212194   4.251   4.075   2.159
 3878SOL     OW12195   4.639   3.813   3.264
 3878SOL    HW112196   4.664   3.793   3.169
 3878SOL    HW212197   4.711   3.869   3.306
 3879SOL     OW12198   4.704   4.840   3.581
 3879SOL    HW112199   4.605   4.846   3.591
 3879SOL    HW212200   4.727   4.760   3.525
 3880SOL     OW12201   4.429   4.774   2.230
 3880SOL    HW112202   4.415   4.781   2.329
 3880SOL    HW212203   4.513   4.723   2.212
 3881SOL     OW12204   4.134   4.537   3.113
 3881SOL    HW112205   4.220   4.549   3.163
 3881SOL    HW212206   4.092   4.450   3.140
 3882SOL     OW12207   4.998   4.110   3.124
 3882SOL    HW112208   5.019   4.184   3.188
 3882SOL    HW212209   4.909   4.127   3.081
 3883SOL     OW12210   4.091   4.824   2.363
 3883SOL    HW112211   4.084   4.907   2.307
 3883SOL    HW212212   4.095   4.744   2.303
 3884SOL     OW12213   4.290   4.261   2.727
 3884SOL    HW112214   4.302   4.327   2.653
 3884SOL    HW212215   4.336   4.295   2.810
 3885SOL     OW12216   4.976   5.072   2.250
 3885SOL    HW112217   5.026   5.149   2.290
 3885SOL    HW212218   4.881   5.074   2.282
 3886SOL     OW12219   4.126   4.475   3.460
 3886SOL    HW112220   4.194   4.530   3.413
 3886SOL    HW212221   4.166   4.387   3.487
 3887SOL     OW12222   4.737   3.829   3.632
 3887SOL    HW112223   4.743   3.914   3.580
 3887SOL    HW212224   4.769   3.753   3.575
 3888SOL     OW12225   4.228   3.774   3.602
 3888SOL    HW112226   4.186   3.717   3.532
 3888SOL    HW212227   4.162   3.843   3.634
 3889SOL     OW12228   4.297   4.594   2.891
 3889SOL    HW112229   4.341   4.683   2.882
 3889SOL    HW212230   4.234   4.594   2.968
 3890SOL     OW12231   5.084   4.586   2.907
 3890SOL    HW112232   5.009   4.586   2.841
 3890SOL    HW212233   5.121   4.494   2.916
 3891SOL     OW12234   4.933   4.249   2.137
 3891SOL    HW112235   4.946   4.165   2.191
 3891SOL    HW212236   4.904   4.323   2.197
 3892SOL     OW12237   4.031   3.937   3.093
 3892SOL    HW112238   4.008   3.974   3.183
 3892SOL    HW212239   4.001   3.842   3.087
 3893SOL     OW12240   4.456   4.358   2.926
 3893SOL    HW112241   4.515   4.332   2.850
 3893SOL    HW212242   4.428   4.454   2.915
 3894SOL     OW12243   4.031   3.787   2.480
 3894SOL    HW112244   4.020   3.881   2.513
 3894SOL    HW212245   4.026   3.724   2.557
 3895SOL     OW12246   5.346   4.091   2.236
 3895SOL    HW112247   5.348   4.015   2.300
 3895SOL    HW212248   5.298   4.168   2.276
 3896SOL     OW12249   4.747   4.490   2.828
 3896SOL    HW112250   4.762   4.511   2.924
 3896SOL    HW212251   4.717   4.395   2.819
 3897SOL     OW12252   4.074   4.622   3.666
 3897SOL    HW112253   4.150   4.666   3.714
 3897SOL    HW212254   4.109   4.575   3.584
 3898SOL     OW12255   5.027   4.562   1.904
 3898SOL    HW112256   5.061   4.469   1.919
 3898SOL    HW212257   5.045   4.589   1.809
 3899SOL     OW12258   4.043   4.534   2.811
 3899SOL    HW112259   4.136   4.570   2.816
 3899SOL    HW212260   4.037   4.449   2.863
 3900SOL     OW12261   4.063   4.233   2.868
 3900SOL    HW112262   4.011   4.150   2.851
 3900SOL    HW212263   4.140   4.238   2.804
 3901SOL     OW12264   4.862   4.104   3.540
 3901SOL    HW112265   4.817   4.167   3.604
 3901SOL    HW212266   4.955   4.135   3.523
 3902SOL     OW12267   4.884   3.931   3.339
 3902SOL    HW112268   4.884   3.995   3.416
 3902SOL    HW212269   4.912   3.979   3.256
 3903SOL     OW12270   3.732   5.050   2.062
 3903SOL    HW112271   3.639   5.071   2.031
 3903SOL    HW212272   3.742   4.951   2.075
 3904SOL     OW12273   4.726   4.520   3.100
 3904SOL    HW112274   4.767   4.488   3.186
 3904SOL    HW212275   4.630   4.493   3.097
 3905SOL     OW12276   3.764   4.268   2.976
 3905SOL    HW112277   3.849   4.235   2.935
 3905SOL    HW212278   3.777   4.283   3.074
 3906SOL     OW12279   3.913   4.244   3.584
 3906SOL    HW112280   3.972   4.204   3.514
 3906SOL    HW212281   3.855   4.315   3.543
 3907SOL     OW12282   4.539   4.296   2.187
 3907SOL    HW112283   4.546   4.207   2.141
 3907SOL    HW212284   4.445   4.330   2.179
 3908SOL     OW12285   4.395   4.188   3.131
 3908SOL    HW112286   4.361   4.099   3.101
 3908SOL    HW212287   4.421   4.242   3.051
 3909SOL     OW12288   4.197   4.224   2.053
 3909SOL    HW112289   4.258   4.304   2.057
 3909SOL    HW212290   4.102   4.255   2.060
 3910SOL     OW12291   3.883   4.861   3.328
 3910SOL    HW112292   3.905   4.800   3.404
 3910SOL    HW212293   3.893   4.812   3.242
 3911SOL     OW12294   5.071   4.783   3.096
 3911SOL    HW112295   5.095   4.720   3.022
 3911SOL    HW212296   4.981   4.823   3.078
 3912SOL     OW12297   5.004   4.651   2.534
 3912SOL    HW112298   5.064   4.570   2.536
 3912SOL    HW212299   5.044   4.720   2.474
 3913SOL     OW12300   4.554   4.997   3.284
 3913SOL    HW112301   4.549   5.030   3.379
 3913SOL    HW212302   4.468   5.016   3.238
 3914SOL     OW12303   3.987   4.050   2.582
 3914SOL    HW112304   3.908   4.101   2.548
 3914SOL    HW212305   3.978   4.035   2.680
 3915SOL     OW12306   4.546   4.726   3.234
 3915SOL    HW112307   4.586   4.725   3.142
 3915SOL    HW212308   4.556   4.818   3.274
 3916SOL     OW12309   4.640   4.634   2.153
 3916SOL    HW112310   4.703   4.672   2.085
 3916SOL    HW212311   4.680   4.551   2.192
 3917SOL     OW12312   4.096   5.012   3.352
 3917SOL    HW112313   4.083   5.105   3.318
 3917SOL    HW212314   4.012   4.960   3.339
 3918SOL     OW12315   4.763   4.822   2.558
 3918SOL    HW112316   4.693   4.775   2.612
 3918SOL    HW212317   4.822   4.754   2.515
 3919SOL     OW12318   4.738   3.960   2.833
 3919SOL    HW112319   4.730   3.924   2.740
 3919SOL    HW212320   4.736   3.884   2.898
 3920SOL     OW12321   3.829   4.737   3.588
 3920SOL    HW112322   3.752   4.704   3.642
 3920SOL    HW212323   3.914   4.707   3.630
 3921SOL     OW12324   4.396   3.927   3.351
 3921SOL    HW112325   4.486   3.911   3.311
 3921SOL    HW212326   4.404   3.932   3.450
 3922SOL     OW12327   3.799   4.069   1.895
 3922SOL    HW112328   3.707   4.041   1.866
 3922SOL    HW212329   3.830   4.146   1.839
 3923SOL     OW12330   5.164   4.580   3.260
 3923SOL    HW112331   5.107   4.632   3.197
 3923SOL    HW212332   5.260   4.592   3.236
 3924SOL     OW12333   3.796   3.890   2.180
 3924SOL    HW112334   3.779   3.973   2.126
 3924SOL    HW212335   3.886   3.853   2.158
 3925SOL     OW12336   4.337   4.566   3.293
 3925SOL    HW112337   4.393   4.647   3.276
 3925SOL    HW212338   4.396   4.486   3.296
 3926SOL     OW12339   4.440   4.289   3.570
 3926SOL    HW112340   4.459   4.354   3.644
 3926SOL    HW212341   4.500   4.209   3.579
 3927SOL     OW12342   5.174   4.944   3.495
 3927SOL    HW112343   5.165   4.934   3.594
 3927SOL    HW212344   5.270   4.937   3.469
 3928SOL     OW12345   4.318   4.469   2.514
 3928SOL    HW112346   4.368   4.554   2.495
 3928SOL    HW212347   4.230   4.471   2.466
 3929SOL     OW12348   4.583   4.680   2.723
 3929SOL    HW112349   4.637   4.611   2.771
 3929SOL    HW212350   4.551   4.749   2.789
 3930SOL     OW12351   4.807   4.708   1.949
 3930SOL    HW112352   4.784   4.761   1.867
 3930SOL    HW212353   4.888   4.652   1.930
 3931SOL     OW12354   4.152   4.148   2.382
 3931SOL    HW112355   4.182   4.076   2.320
 3931SOL    HW212356   4.113   4.108   2.465
 3932SOL     OW12357   4.041   4.271   3.142
 3932SOL    HW112358   4.079   4.212   3.214
 3932SOL    HW212359   4.081   4.245   3.054
 3933SOL     OW12360   4.725   3.758   3.016
 3933SOL    HW112361   4.662   3.686   2.985
 3933SOL    HW212362   4.818   3.722   3.016
 3934SOL     OW12363   4.494   5.054   2.163
 3934SOL    HW112364   4.448   4.967   2.180
 3934SOL    HW212365   4.585   5.051   2.204
 3935SOL     OW12366   5.076   3.776   2.030
 3935SOL    HW112367   5.111   3.735   1.946
 3935SOL    HW212368   4.986   3.738   2.050
 3936SOL     OW12369   3.954   4.352   3.837
 3936SOL    HW112370   3.861   4.350   3.874
 3936SOL    HW212371   3.955   4.313   3.745
 3937SOL     OW12372   3.949   3.999   4.720
 3937SOL    HW112373   3.984   3.982   4.812
 3937SOL    HW212374   3.861   3.954   4.708
 3938SOL     OW12375   3.743   4.092   4.371
 3938SOL    HW112376   3.661   4.135   4.410
 3938SOL    HW212377   3.715   4.019   4.308
 3939SOL     OW12378   4.293   4.999   4.889
 3939SOL    HW112379   4.200   4.992   4.852
 3939SOL    HW212380   4.304   5.088   4.933
 3940SOL     OW12381   4.859   4.427   4.441
 3940SOL    HW112382   4.916   4.505   4.416
 3940SOL    HW212383   4.799   4.453   4.517
 3941SOL     OW12384   4.492   4.868   4.747
 3941SOL    HW112385   4.414   4.885   4.807
 3941SOL    HW212386   4.526   4.955   4.711
 3942SOL     OW12387   4.409   4.736   4.389
 3942SOL    HW112388   4.478   4.720   4.459
 3942SOL    HW212389   4.336   4.793   4.427
 3943SOL     OW12390   4.059   5.159   4.785
 3943SOL    HW112391   3.981   5.128   4.732
 3943SOL    HW212392   4.117   5.217   4.728
 3944SOL     OW12393   3.964   4.815   4.610
 3944SOL    HW112394   3.978   4.731   4.662
 3944SOL    HW212395   3.909   4.879   4.665
 3945SOL     OW12396   4.330   4.688   3.847
 3945SOL    HW112397   4.337   4.772   3.793
 3945SOL    HW212398   4.376   4.701   3.935
 3946SOL     OW12399   3.846   4.367   4.287
 3946SOL    HW112400   3.801   4.279   4.304
 3946SOL    HW212401   3.845   4.421   4.371
 3947SOL     OW12402   4.533   3.728   4.226
 3947SOL    HW112403   4.573   3.819   4.217
 3947SOL    HW212404   4.433   3.736   4.232
 3948SOL     OW12405   3.921   4.700   4.988
 3948SOL    HW112406   4.010   4.655   4.974
 3948SOL    HW212407   3.848   4.635   4.969
 3949SOL     OW12408   4.322   4.453   3.994
 3949SOL    HW112409   4.346   4.522   3.926
 3949SOL    HW212410   4.244   4.486   4.048
 3950SOL     OW12411   5.005   4.069   4.668
 3950SOL    HW112412   4.919   4.019   4.655
 3950SOL    HW212413   5.067   4.015   4.724
 3951SOL     OW12414   4.715   4.134   4.966
 3951SOL    HW112415   4.638   4.168   5.020
 3951SOL    HW212416   4.681   4.083   4.887
 3952SOL     OW12417   4.765   4.425   4.153
 3952SOL    HW112418   4.791   4.421   4.249
 3952SOL    HW212419   4.680   4.374   4.139
 3953SOL     OW12420   3.800   4.535   4.513
 3953SOL    HW112421   3.899   4.523   4.522
 3953SOL    HW212422   3.776   4.630   4.534
 3954SOL     OW12423   4.589   4.072   3.919
 3954SOL    HW112424   4.648   4.135   3.870
 3954SOL    HW212425   4.608   3.978   3.890
 3955SOL     OW12426   4.274   3.920   4.609
 3955SOL    HW112427   4.269   3.915   4.709
 3955SOL    HW212428   4.276   4.016   4.580
 3956SOL     OW12429   4.045   4.667   3.966
 3956SOL    HW112430   4.127   4.706   3.924
 3956SOL    HW212431   4.018   4.585   3.917
 3957SOL     OW12432   4.106   4.424   4.204
 3957SOL    HW112433   4.151   4.334   4.201
 3957SOL    HW212434   4.012   4.413   4.237
 3958SOL     OW12435   4.338   3.846   3.841
 3958SOL    HW112436   4.436   3.824   3.848
 3958SOL    HW212437   4.307   3.829   3.748
 3959SOL     OW12438   4.527   5.126   4.648
 3959SOL    HW112439   4.617   5.140   4.606
 3959SOL    HW212440   4.456   5.128   4.577
 3960SOL     OW12441   4.646   4.227   4.623
 3960SOL    HW112442   4.621   4.218   4.527
 3960SOL    HW212443   4.694   4.145   4.654
 3961SOL     OW12444   4.263   3.788   4.236
 3961SOL    HW112445   4.182   3.789   4.294
 3961SOL    HW212446   4.266   3.871   4.181
 3962SOL     OW12447   5.158   4.912   3.765
 3962SOL    HW112448   5.190   4.836   3.822
 3962SOL    HW212449   5.066   4.939   3.795
 3963SOL     OW12450   4.021   3.759   3.895
 3963SOL    HW112451   4.070   3.843   3.874
 3963SOL    HW212452   4.083   3.694   3.940
 3964SOL     OW12453   4.659   3.960   4.204
 3964SOL    HW112454   4.611   4.001   4.126
 3964SOL    HW212455   4.758   3.958   4.185
 3965SOL     OW12456   4.951   5.294   4.517
 3965SOL    HW112457   4.972   5.368   4.452
 3965SOL    HW212458   5.019   5.294   4.590
 3966SOL     OW12459   4.183   4.876   4.465
 3966SOL    HW112460   4.112   4.849   4.530
 3966SOL    HW212461   4.157   4.848   4.372
 3967SOL     OW12462   4.756   4.273   3.740
 3967SOL    HW112463   4.715   4.355   3.701
 3967SOL    HW212464   4.820   4.299   3.813
 3968SOL     OW12465   4.285   3.946   4.871
 3968SOL    HW112466   4.323   3.862   4.908
 3968SOL    HW212467   4.197   3.965   4.915
 3969SOL     OW12468   4.590   4.178   4.366
 3969SOL    HW112469   4.558   4.250   4.304
 3969SOL    HW212470   4.614   4.097   4.313
 3970SOL     OW12471   4.741   3.763   4.477
 3970SOL    HW112472   4.669   3.768   4.408
 3970SOL    HW212473   4.717   3.694   4.546
 3971SOL     OW12474   4.251   3.980   4.052
 3971SOL    HW112475   4.278   3.921   3.977
 3971SOL    HW212476   4.251   4.075   4.021
 3972SOL     OW12477   4.429   4.774   4.092
 3972SOL    HW112478   4.415   4.781   4.191
 3972SOL    HW212479   4.513   4.723   4.074
 3973SOL     OW12480   4.134   4.537   4.975
 3973SOL    HW112481   4.220   4.549   5.025
 3973SOL    HW212482   4.092   4.450   5.002
 3974SOL     OW12483   4.091   4.824   4.225
 3974SOL    HW112484   4.084   4.907   4.169
 3974SOL    HW212485   4.095   4.744   4.165
 3975SOL     OW12486   4.290   4.261   4.589
 3975SOL    HW112487   4.302   4.327   4.515
 3975SOL    HW212488   4.336   4.295   4.672
 3976SOL     OW12489   4.976   5.072   4.112
 3976SOL    HW112490   5.026   5.149   4.152
 3976SOL    HW212491   4.881   5.074   4.144
 3977SOL     OW12492   4.297   4.594   4.753
 3977SOL    HW112493   4.341   4.683   4.744
 3977SOL    HW212494   4.234   4.594   4.830
 3978SOL     OW12495   5.084   4.586   4.769
 3978SOL    HW112496   5.009   4.586   4.703
 3978SOL    HW212497   5.121   4.494   4.778
 3979SOL     OW12498   4.933   4.249   3.999
 3979SOL    HW112499   4.946   4.165   4.053
 3979SOL    HW212500   4.904   4.323   4.059
 3980SOL     OW12501   4.031   3.937   4.955
 3980SOL    HW112502   4.008   3.974   5.045
 3980SOL    HW212503   4.001   3.842   4.949
 3981SOL     OW12504   4.456   4.358   4.788
 3981SOL    HW112505   4.515   4.332   4.712
 3981SOL    HW212506   4.428   4.454   4.777
 3982SOL     OW12507   4.031   3.787   4.342
 3982SOL    HW112508   4.020   3.881   4.375
 3982SOL    HW212509   4.026   3.724   4.419
 3983SOL     OW12510   5.346   4.091   4.098
 3983SOL    HW112511   5.348   4.015   4.162
 3983SOL    HW212512   5.298   4.168   4.138
 3984SOL     OW12513   4.747   4.490   4.690
 3984SOL    HW112514   4.762   4.511   4.786
 3984SOL    HW212515   4.717   4.395   4.681
 3985SOL     OW12516   5.027   4.562   3.766
 3985SOL    HW112517   5.061   4.469   3.781
 3985SOL    HW212518   5.045   4.589   3.671
 3986SOL     OW12519   4.043   4.534   4.673
 3986SOL    HW112520   4.136   4.570   4.678
 3986SOL    HW212521   4.037   4.449   4.725
 3987SOL     OW12522   4.063   4.233   4.730
 3987SOL    HW112523   4.011   4.150   4.713
 3987SOL    HW212524   4.140   4.238   4.666
 3988SOL     OW12525   4.884   3.931   5.201
 3988SOL    HW112526   4.884   3.995   5.278
 3988SOL    HW212527   4.912   3.979   5.118
 3989SOL     OW12528   3.732   5.050   3.924
 3989SOL    HW112529   3.639   5.071   3.893
 3989SOL    HW212530   3.742   4.951   3.937
 3990SOL     OW12531   4.726   4.520   4.962
 3990SOL    HW112532   4.767   4.488   5.048
 3990SOL    HW212533   4.630   4.493   4.959
 3991SOL     OW12534   3.764   4.268   4.838
 3991SOL    HW112535   3.849   4.235   4.797
 3991SOL    HW212536   3.777   4.283   4.936
 3992SOL     OW12537   4.539   4.296   4.049
 3992SOL    HW112538   4.546   4.207   4.003
 3992SOL    HW212539   4.445   4.330   4.041
 3993SOL     OW12540   4.395   4.188   4.993
 3993SOL    HW112541   4.361   4.099   4.963
 3993SOL    HW212542   4.421   4.242   4.913
 3994SOL     OW12543   4.197   4.224   3.915
 3994SOL    HW112544   4.258   4.304   3.919
 3994SOL    HW212545   4.102   4.255   3.922
 3995SOL     OW12546   5.071   4.783   4.958
 3995SOL    HW112547   5.095   4.720   4.884
 3995SOL    HW212548   4.981   4.823   4.940
 3996SOL     OW12549   3.807   4.982   4.746
 3996SOL    HW112550   3.802   4.981   4.846
 3996SOL    HW212551   3.724   4.941   4.708
 3997SOL     OW12552   5.004   4.651   4.396
 3997SOL    HW112553   5.064   4.570   4.398
 3997SOL    HW212554   5.044   4.720   4.336
 3998SOL     OW12555   4.554   4.997   5.146
 3998SOL    HW112556   4.549   5.030   5.241
 3998SOL    HW212557   4.468   5.016   5.100
 3999SOL     OW12558   3.987   4.050   4.444
 3999SOL    HW112559   3.908   4.101   4.410
 3999SOL    HW212560   3.978   4.035   4.542
 4000SOL     OW12561   4.918   5.336   3.755
 4000SOL    HW112562   4.924   5.243   3.792
 4000SOL    HW212563   4.859   5.336   3.675
 4001SOL     OW12564   4.546   4.726   5.096
 4001SOL    HW112565   4.586   4.725   5.004
 4001SOL    HW212566   4.556   4.818   5.136
 4002SOL     OW12567   4.640   4.634   4.015
 4002SOL    HW112568   4.703   4.672   3.947
 4002SOL    HW212569   4.680   4.551   4.054
 4003SOL     OW12570   4.763   4.822   4.420
 4003SOL    HW112571   4.693   4.775   4.474
 4003SOL    HW212572   4.822   4.754   4.377
 4004SOL     OW12573   4.738   3.960   4.695
 4004SOL    HW112574   4.730   3.924   4.602
 4004SOL    HW212575   4.736   3.884   4.760
 4005SOL     OW12576   3.799   4.069   3.757
 4005SOL    HW112577   3.707   4.041   3.728
 4005SOL    HW212578   3.830   4.146   3.701
 4006SOL     OW12579   3.796   3.890   4.042
 4006SOL    HW112580   3.779   3.973   3.988
 4006SOL    HW212581   3.886   3.853   4.020
 4007SOL     OW12582   4.949   4.049   4.173
 4007SOL    HW112583   5.014   3.975   4.162
 4007SOL    HW212584   4.969   4.099   4.257
 4008SOL     OW12585   4.318   4.469   4.376
 4008SOL    HW112586   4.368   4.554   4.357
 4008SOL    HW212587   4.230   4.471   4.328
 4009SOL     OW12588   4.583   4.680   4.585
 4009SOL    HW112589   4.637   4.611   4.633
 4009SOL    HW212590   4.551   4.749   4.651
 4010SOL     OW12591   4.807   4.708   3.811
 4010SOL    HW112592   4.784   4.761   3.729
 4010SOL    HW212593   4.888   4.652   3.792
 4011SOL     OW12594   3.803   4.964   4.377
 4011SOL    HW112595   3.802   4.917   4.465
 4011SOL    HW212596   3.885   4.936   4.326
 4012SOL     OW12597   4.152   4.148   4.244
 4012SOL    HW112598   4.182   4.076   4.182
 4012SOL    HW212599   4.113   4.108   4.327
 4013SOL     OW12600   4.725   3.758   4.878
 4013SOL    HW112601   4.662   3.686   4.847
 4013SOL    HW212602   4.818   3.722   4.878
 4014SOL     OW12603   4.494   5.054   4.025
 4014SOL    HW112604   4.448   4.967   4.042
 4014SOL    HW212605   4.585   5.051   4.066
 4015SOL     OW12606   5.076   3.776   3.892
 4015SOL    HW112607   5.111   3.735   3.808
 4015SOL    HW212608   4.986   3.738   3.912
 4016SOL     OW12609   3.763   4.801   4.024
 4016SOL    HW112610   3.862   4.790   4.015
 4016SOL    HW212611   3.723   4.715   4.056
   5.08970   5.08970   5.08970
