256-Lipid DPPC Bilayer in water
37249
    1DPPC    C1    1   5.861   5.488   5.548
    1DPPC    C2    2   5.873   5.646   5.383
    1DPPC    C3    3   5.735   5.466   5.331
    1DPPC    N4    4   5.779   5.551   5.443
    1DPPC    C5    5   5.672   5.624   5.512
    1DPPC    C6    6   5.583   5.722   5.437
    1DPPC    O7    7   5.638   5.849   5.402
    1DPPC    P8    8   5.515   5.952   5.395
    1DPPC    O9    9   5.600   6.072   5.385
    1DPPC   O10   10   5.442   5.913   5.518
    1DPPC   O11   11   5.432   5.925   5.259
    1DPPC   C12   12   5.458   6.036   5.173
    1DPPC   C13   13   5.414   6.014   5.028
    1DPPC   O14   14   5.279   6.054   5.000
    1DPPC   C15   15   5.261   6.186   4.976
    1DPPC   O16   16   5.348   6.261   5.021
    1DPPC   C17   17   5.125   6.234   4.926
    1DPPC   C18   18   5.129   6.352   4.829
    1DPPC   C19   19   5.014   6.361   4.729
    1DPPC   C20   20   5.016   6.484   4.637
    1DPPC   C21   21   5.131   6.468   4.537
    1DPPC   C22   22   5.126   6.570   4.423
    1DPPC   C23   23   5.236   6.517   4.330
    1DPPC   C24   24   5.228   6.599   4.202
    1DPPC   C25   25   5.310   6.520   4.099
    1DPPC   C26   26   5.294   6.596   3.967
    1DPPC   C27   27   5.353   6.527   3.844
    1DPPC   C28   28   5.320   6.604   3.715
    1DPPC   C29   29   5.378   6.535   3.592
    1DPPC   C30   30   5.328   6.585   3.457
    1DPPC   C31   31   5.355   6.736   3.448
    1DPPC   C32   32   5.461   5.874   4.986
    1DPPC   O33   33   5.555   5.883   4.880
    1DPPC   C34   34   5.644   5.780   4.867
    1DPPC   O35   35   5.644   5.697   4.958
    1DPPC   C36   36   5.735   5.778   4.744
    1DPPC   C37   37   5.717   5.645   4.671
    1DPPC   C38   38   5.804   5.634   4.546
    1DPPC   C39   39   5.948   5.632   4.599
    1DPPC   C40   40   6.054   5.627   4.489
    1DPPC   C41   41   6.047   5.502   4.402
    1DPPC   C42   42   6.100   5.540   4.263
    1DPPC   C43   43   6.085   5.416   4.175
    1DPPC   C44   44   6.140   5.445   4.035
    1DPPC   C45   45   6.117   5.336   3.930
    1DPPC   C46   46   6.158   5.400   3.797
    1DPPC   C47   47   6.070   5.516   3.749
    1DPPC   C48   48   6.134   5.583   3.627
    1DPPC   C49   49   6.043   5.683   3.555
    1DPPC   C50   50   6.018   5.793   3.659
    2DPPC    C1   51   3.525   0.767   1.695
    2DPPC    C2   52   3.681   0.875   1.566
    2DPPC    C3   53   3.476   0.981   1.622
    2DPPC    N4   54   3.586   0.900   1.676
    2DPPC    C5   55   3.635   0.951   1.804
    2DPPC    C6   56   3.699   1.090   1.804
    2DPPC    O7   57   3.720   1.138   1.937
    2DPPC    P8   58   3.814   1.268   1.944
    2DPPC    O9   59   3.750   1.358   1.846
    2DPPC   O10   60   3.957   1.233   1.959
    2DPPC   O11   61   3.763   1.308   2.092
    2DPPC   C12   62   3.833   1.236   2.195
    2DPPC   C13   63   3.815   1.274   2.342
    2DPPC   O14   64   3.920   1.210   2.417
    2DPPC   C15   65   4.044   1.258   2.391
    2DPPC   O16   66   4.059   1.376   2.360
    2DPPC   C17   67   4.158   1.176   2.451
    2DPPC   C18   68   4.125   1.110   2.585
    2DPPC   C19   69   4.226   1.000   2.617
    2DPPC   C20   70   4.204   0.939   2.756
    2DPPC   C21   71   4.326   0.849   2.774
    2DPPC   C22   72   4.302   0.772   2.904
    2DPPC   C23   73   4.257   0.860   3.021
    2DPPC   C24   74   4.233   0.759   3.134
    2DPPC   C25   75   4.205   0.839   3.261
    2DPPC   C26   76   4.102   0.765   3.346
    2DPPC   C27   77   4.047   0.868   3.446
    2DPPC   C28   78   3.966   0.787   3.547
    2DPPC   C29   79   3.959   0.879   3.669
    2DPPC   C30   80   3.879   0.810   3.779
    2DPPC   C31   81   3.735   0.796   3.729
    2DPPC   C32   82   3.671   1.237   2.376
    2DPPC   O33   83   3.646   1.277   2.511
    2DPPC   C34   84   3.519   1.256   2.555
    2DPPC   O35   85   3.425   1.237   2.478
    2DPPC   C36   86   3.490   1.295   2.700
    2DPPC   C37   87   3.358   1.244   2.759
    2DPPC   C38   88   3.348   1.287   2.905
    2DPPC   C39   89   3.476   1.246   2.978
    2DPPC   C40   90   3.469   1.331   3.105
    2DPPC   C41   91   3.467   1.480   3.070
    2DPPC   C42   92   3.503   1.579   3.181
    2DPPC   C43   93   3.460   1.721   3.144
    2DPPC   C44   94   3.308   1.725   3.125
    2DPPC   C45   95   3.259   1.869   3.109
    2DPPC   C46   96   3.123   1.870   3.039
    2DPPC   C47   97   3.088   2.012   2.995
    2DPPC   C48   98   2.962   1.984   2.914
    2DPPC   C49   99   2.837   1.927   2.981
    2DPPC   C50  100   2.735   1.887   2.874
    3DPPC    C1  101   6.493   4.410   5.144
    3DPPC    C2  102   6.517   4.420   5.384
    3DPPC    C3  103   6.587   4.237   5.266
    3DPPC    N4  104   6.582   4.384   5.258
    3DPPC    C5  105   6.703   4.463   5.231
    3DPPC    C6  106   6.704   4.608   5.279
    3DPPC    O7  107   6.616   4.698   5.212
    3DPPC    P8  108   6.629   4.847   5.273
    3DPPC    O9  109   6.678   4.829   5.411
    3DPPC   O10  110   6.512   4.929   5.232
    3DPPC   O11  111   6.763   4.890   5.194
    3DPPC   C12  112   6.719   4.914   5.060
    3DPPC   C13  113   6.831   4.963   4.967
    3DPPC   O14  114   6.777   5.006   4.841
    3DPPC   C15  115   6.842   5.088   4.754
    3DPPC   O16  116   6.926   5.163   4.804
    3DPPC   C17  117   6.778   5.110   4.617
    3DPPC   C18  118   6.864   5.095   4.492
    3DPPC   C19  119   6.799   5.074   4.355
    3DPPC   C20  120   6.879   5.147   4.247
    3DPPC   C21  121   6.850   5.073   4.116
    3DPPC   C22  122   6.917   5.138   3.995
    3DPPC   C23  123   6.882   5.055   3.872
    3DPPC   C24  124   6.929   4.910   3.889
    3DPPC   C25  125   6.876   4.825   3.774
    3DPPC   C26  126   6.942   4.688   3.758
    3DPPC   C27  127   6.885   4.598   3.648
    3DPPC   C28  128   6.930   4.452   3.658
    3DPPC   C29  129   6.890   4.395   3.794
    3DPPC   C30  130   6.939   4.252   3.815
    3DPPC   C31  131   6.862   4.169   3.712
    3DPPC   C32  132   6.926   4.843   4.970
    3DPPC   O33  133   6.869   4.740   4.888
    3DPPC   C34  134   6.941   4.627   4.869
    3DPPC   O35  135   7.055   4.624   4.916
    3DPPC   C36  136   6.904   4.520   4.766
    3DPPC   C37  137   6.803   4.427   4.832
    3DPPC   C38  138   6.764   4.308   4.743
    3DPPC   C39  139   6.718   4.368   4.610
    3DPPC   C40  140   6.703   4.257   4.505
    3DPPC   C41  141   6.699   4.309   4.361
    3DPPC   C42  142   6.828   4.386   4.333
    3DPPC   C43  143   6.850   4.434   4.189
    3DPPC   C44  144   6.905   4.575   4.167
    3DPPC   C45  145   7.056   4.581   4.192
    3DPPC   C46  146   7.110   4.723   4.205
    3DPPC   C47  147   7.251   4.730   4.263
    3DPPC   C48  148   7.254   4.685   4.409
    3DPPC   C49  149   7.215   4.800   4.503
    3DPPC   C50  150   7.218   4.758   4.650
    4DPPC    C1  151   8.584   4.002   1.681
    4DPPC    C2  152   8.492   4.130   1.537
    4DPPC    C3  153   8.399   3.904   1.541
    4DPPC    N4  154   8.451   4.016   1.621
    4DPPC    C5  155   8.355   4.060   1.724
    4DPPC    C6  156   8.217   4.095   1.668
    4DPPC    O7  157   8.196   4.200   1.573
    4DPPC    P8  158   8.044   4.195   1.519
    4DPPC    O9  159   7.994   4.056   1.530
    4DPPC   O10  160   8.037   4.276   1.396
    4DPPC   O11  161   7.958   4.271   1.631
    4DPPC   C12  162   8.021   4.399   1.648
    4DPPC   C13  163   7.935   4.513   1.593
    4DPPC   O14  164   7.992   4.642   1.623
    4DPPC   C15  165   7.923   4.752   1.584
    4DPPC   O16  166   7.838   4.739   1.495
    4DPPC   C17  167   7.979   4.885   1.632
    4DPPC   C18  168   7.896   4.940   1.748
    4DPPC   C19  169   7.871   4.842   1.863
    4DPPC   C20  170   7.998   4.818   1.945
    4DPPC   C21  171   7.953   4.743   2.071
    4DPPC   C22  172   7.874   4.853   2.143
    4DPPC   C23  173   7.817   4.794   2.272
    4DPPC   C24  174   7.751   4.905   2.354
    4DPPC   C25  175   7.673   4.848   2.472
    4DPPC   C26  176   7.550   4.776   2.415
    4DPPC   C27  177   7.464   4.710   2.523
    4DPPC   C28  178   7.394   4.812   2.613
    4DPPC   C29  179   7.327   4.724   2.719
    4DPPC   C30  180   7.228   4.821   2.783
    4DPPC   C31  181   7.109   4.735   2.825
    4DPPC   C32  182   7.796   4.481   1.650
    4DPPC   O33  183   7.782   4.503   1.790
    4DPPC   C34  184   7.671   4.446   1.843
    4DPPC   O35  185   7.619   4.346   1.793
    4DPPC   C36  186   7.630   4.493   1.982
    4DPPC   C37  187   7.577   4.372   2.060
    4DPPC   C38  188   7.593   4.375   2.212
    4DPPC   C39  189   7.548   4.235   2.254
    4DPPC   C40  190   7.558   4.211   2.405
    4DPPC   C41  191   7.478   4.297   2.504
    4DPPC   C42  192   7.498   4.250   2.648
    4DPPC   C43  193   7.400   4.332   2.732
    4DPPC   C44  194   7.406   4.286   2.877
    4DPPC   C45  195   7.374   4.137   2.892
    4DPPC   C46  196   7.357   4.099   3.039
    4DPPC   C47  197   7.467   4.141   3.137
    4DPPC   C48  198   7.467   4.080   3.277
    4DPPC   C49  199   7.326   4.087   3.336
    4DPPC   C50  200   7.331   4.110   3.487
    5DPPC    C1  201   8.717   4.684   5.541
    5DPPC    C2  202   8.894   4.839   5.555
    5DPPC    C3  203   8.875   4.670   5.713
    5DPPC    N4  204   8.861   4.697   5.569
    5DPPC    C5  205   8.946   4.612   5.484
    5DPPC    C6  206   8.893   4.472   5.454
    5DPPC    O7  207   8.877   4.384   5.565
    5DPPC    P8  208   8.803   4.249   5.519
    5DPPC    O9  209   8.765   4.145   5.617
    5DPPC   O10  210   8.830   4.215   5.377
    5DPPC   O11  211   8.667   4.335   5.515
    5DPPC   C12  212   8.582   4.245   5.442
    5DPPC   C13  213   8.451   4.302   5.390
    5DPPC   O14  214   8.371   4.195   5.337
    5DPPC   C15  215   8.242   4.212   5.297
    5DPPC   O16  216   8.191   4.323   5.282
    5DPPC   C17  217   8.170   4.087   5.246
    5DPPC   C18  218   8.204   4.066   5.098
    5DPPC   C19  219   8.131   3.942   5.045
    5DPPC   C20  220   8.168   3.917   4.899
    5DPPC   C21  221   8.315   3.874   4.903
    5DPPC   C22  222   8.365   3.861   4.759
    5DPPC   C23  223   8.356   3.999   4.694
    5DPPC   C24  224   8.351   3.987   4.541
    5DPPC   C25  225   8.495   3.957   4.497
    5DPPC   C26  226   8.481   3.964   4.345
    5DPPC   C27  227   8.608   3.919   4.273
    5DPPC   C28  228   8.576   3.917   4.123
    5DPPC   C29  229   8.690   3.848   4.048
    5DPPC   C30  230   8.651   3.825   3.902
    5DPPC   C31  231   8.736   3.719   3.830
    5DPPC   C32  232   8.501   4.416   5.300
    5DPPC   O33  233   8.565   4.368   5.182
    5DPPC   C34  234   8.648   4.454   5.118
    5DPPC   O35  235   8.696   4.544   5.187
    5DPPC   C36  236   8.709   4.413   4.984
    5DPPC   C37  237   8.858   4.432   4.958
    5DPPC   C38  238   8.897   4.399   4.813
    5DPPC   C39  239   9.049   4.394   4.796
    5DPPC   C40  240   9.101   4.330   4.668
    5DPPC   C41  241   9.072   4.180   4.661
    5DPPC   C42  242   9.175   4.115   4.570
    5DPPC   C43  243   9.179   4.178   4.430
    5DPPC   C44  244   9.073   4.118   4.337
    5DPPC   C45  245   9.073   4.212   4.216
    5DPPC   C46  246   8.950   4.177   4.133
    5DPPC   C47  247   8.966   4.240   3.994
    5DPPC   C48  248   8.961   4.125   3.892
    5DPPC   C49  249   8.944   4.186   3.753
    5DPPC   C50  250   8.940   4.087   3.636
    6DPPC    C1  251   6.251   0.553   5.466
    6DPPC    C2  252   6.255   0.736   5.326
    6DPPC    C3  253   6.446   0.603   5.332
    6DPPC    N4  254   6.299   0.597   5.334
    6DPPC    C5  255   6.257   0.518   5.218
    6DPPC    C6  256   6.223   0.371   5.243
    6DPPC    O7  257   6.342   0.302   5.281
    6DPPC    P8  258   6.303   0.147   5.304
    6DPPC    O9  259   6.229   0.091   5.189
    6DPPC   O10  260   6.236   0.160   5.436
    6DPPC   O11  261   6.445   0.074   5.322
    6DPPC   C12  262   6.474   0.005   5.200
    6DPPC   C13  263   6.614  -0.057   5.202
    6DPPC   O14  264   6.707   0.007   5.114
    6DPPC   C15  265   6.839   0.011   5.145
    6DPPC   O16  266   6.885  -0.027   5.253
    6DPPC   C17  267   6.916   0.109   5.055
    6DPPC   C18  268   7.068   0.092   5.058
    6DPPC   C19  269   7.132   0.178   4.950
    6DPPC   C20  270   7.283   0.187   4.973
    6DPPC   C21  271   7.361   0.262   4.865
    6DPPC   C22  272   7.470   0.349   4.928
    6DPPC   C23  273   7.519   0.450   4.824
    6DPPC   C24  274   7.567   0.387   4.693
    6DPPC   C25  275   7.602   0.507   4.605
    6DPPC   C26  276   7.648   0.470   4.463
    6DPPC   C27  277   7.704   0.589   4.384
    6DPPC   C28  278   7.839   0.631   4.441
    6DPPC   C29  279   7.910   0.748   4.373
    6DPPC   C30  280   8.038   0.770   4.454
    6DPPC   C31  281   8.008   0.836   4.589
    6DPPC   C32  282   6.588  -0.208   5.191
    6DPPC   O33  283   6.513  -0.229   5.071
    6DPPC   C34  284   6.497  -0.359   5.033
    6DPPC   O35  285   6.538  -0.446   5.109
    6DPPC   C36  286   6.413  -0.393   4.910
    6DPPC   C37  287   6.453  -0.340   4.772
    6DPPC   C38  288   6.353  -0.402   4.674
    6DPPC   C39  289   6.379  -0.372   4.527
    6DPPC   C40  290   6.263  -0.405   4.433
    6DPPC   C41  291   6.307  -0.457   4.296
    6DPPC   C42  292   6.395  -0.582   4.290
    6DPPC   C43  293   6.524  -0.559   4.212
    6DPPC   C44  294   6.553  -0.671   4.112
    6DPPC   C45  295   6.654  -0.636   4.003
    6DPPC   C46  296   6.684  -0.771   3.938
    6DPPC   C47  297   6.816  -0.766   3.860
    6DPPC   C48  298   6.815  -0.671   3.740
    6DPPC   C49  299   6.961  -0.651   3.698
    6DPPC   C50  300   6.956  -0.547   3.586
    7DPPC    C1  301   2.983   1.500   5.494
    7DPPC    C2  302   2.791   1.458   5.624
    7DPPC    C3  303   2.805   1.442   5.372
    7DPPC    N4  304   2.865   1.414   5.504
    7DPPC    C5  305   2.910   1.275   5.513
    7DPPC    C6  306   2.806   1.169   5.552
    7DPPC    O7  307   2.726   1.149   5.435
    7DPPC    P8  308   2.603   1.055   5.478
    7DPPC    O9  309   2.513   1.160   5.532
    7DPPC   O10  310   2.668   0.954   5.564
    7DPPC   O11  311   2.581   1.007   5.326
    7DPPC   C12  312   2.531   1.108   5.239
    7DPPC   C13  313   2.541   1.056   5.095
    7DPPC   O14  314   2.432   0.977   5.048
    7DPPC   C15  315   2.310   1.031   5.020
    7DPPC   O16  316   2.268   1.134   5.071
    7DPPC   C17  317   2.210   0.935   4.954
    7DPPC   C18  318   2.258   0.930   4.809
    7DPPC   C19  319   2.199   0.815   4.727
    7DPPC   C20  320   2.050   0.848   4.720
    7DPPC   C21  321   1.976   0.760   4.619
    7DPPC   C22  322   2.044   0.761   4.482
    7DPPC   C23  323   2.054   0.894   4.407
    7DPPC   C24  324   2.124   0.886   4.271
    7DPPC   C25  325   2.141   1.025   4.208
    7DPPC   C26  326   2.003   1.076   4.165
    7DPPC   C27  327   2.013   1.196   4.070
    7DPPC   C28  328   2.092   1.166   3.943
    7DPPC   C29  329   2.018   1.060   3.860
    7DPPC   C30  330   2.099   1.054   3.731
    7DPPC   C31  331   2.068   1.173   3.641
    7DPPC   C32  332   2.678   0.987   5.088
    7DPPC   O33  333   2.774   1.092   5.103
    7DPPC   C34  334   2.902   1.047   5.098
    7DPPC   O35  335   2.940   0.930   5.109
    7DPPC   C36  336   3.011   1.155   5.096
    7DPPC   C37  337   2.995   1.247   4.975
    7DPPC   C38  338   3.096   1.361   4.978
    7DPPC   C39  339   3.079   1.446   4.851
    7DPPC   C40  340   2.937   1.501   4.857
    7DPPC   C41  341   2.903   1.556   4.718
    7DPPC   C42  342   2.916   1.448   4.611
    7DPPC   C43  343   2.885   1.473   4.463
    7DPPC   C44  344   2.893   1.349   4.373
    7DPPC   C45  345   2.854   1.392   4.231
    7DPPC   C46  346   2.877   1.280   4.130
    7DPPC   C47  347   2.834   1.327   3.991
    7DPPC   C48  348   2.858   1.230   3.874
    7DPPC   C49  349   2.822   1.284   3.736
    7DPPC   C50  350   2.826   1.175   3.628
    8DPPC    C1  351   8.534   5.777   4.606
    8DPPC    C2  352   8.723   5.714   4.742
    8DPPC    C3  353   8.575   5.894   4.799
    8DPPC    N4  354   8.583   5.758   4.743
    8DPPC    C5  355   8.492   5.672   4.820
    8DPPC    C6  356   8.501   5.626   4.965
    8DPPC    O7  357   8.620   5.553   4.999
    8DPPC    P8  358   8.605   5.498   5.149
    8DPPC    O9  359   8.546   5.606   5.233
    8DPPC   O10  360   8.726   5.423   5.191
    8DPPC   O11  361   8.483   5.396   5.130
    8DPPC   C12  362   8.520   5.309   5.023
    8DPPC   C13  363   8.428   5.194   4.982
    8DPPC   O14  364   8.489   5.095   4.898
    8DPPC   C15  365   8.533   4.978   4.950
    8DPPC   O16  366   8.555   4.959   5.070
    8DPPC   C17  367   8.564   4.877   4.840
    8DPPC   C18  368   8.444   4.826   4.759
    8DPPC   C19  369   8.367   4.933   4.681
    8DPPC   C20  370   8.292   4.865   4.566
    8DPPC   C21  371   8.146   4.842   4.604
    8DPPC   C22  372   8.074   4.815   4.472
    8DPPC   C23  373   8.113   4.922   4.370
    8DPPC   C24  374   8.041   4.906   4.237
    8DPPC   C25  375   8.077   5.029   4.153
    8DPPC   C26  376   8.025   5.024   4.010
    8DPPC   C27  377   8.074   5.146   3.932
    8DPPC   C28  378   8.225   5.139   3.911
    8DPPC   C29  379   8.263   5.025   3.816
    8DPPC   C30  380   8.402   5.029   3.752
    8DPPC   C31  381   8.455   4.891   3.716
    8DPPC   C32  382   8.302   5.253   4.918
    8DPPC   O33  383   8.307   5.367   4.831
    8DPPC   C34  384   8.185   5.407   4.788
    8DPPC   O35  385   8.077   5.377   4.838
    8DPPC   C36  386   8.193   5.496   4.664
    8DPPC   C37  387   8.263   5.437   4.541
    8DPPC   C38  388   8.295   5.531   4.425
    8DPPC   C39  389   8.193   5.494   4.317
    8DPPC   C40  390   8.244   5.558   4.188
    8DPPC   C41  391   8.147   5.526   4.073
    8DPPC   C42  392   8.214   5.585   3.948
    8DPPC   C43  393   8.130   5.567   3.822
    8DPPC   C44  394   8.198   5.632   3.701
    8DPPC   C45  395   8.117   5.583   3.582
    8DPPC   C46  396   8.067   5.439   3.595
    8DPPC   C47  397   8.023   5.376   3.462
    8DPPC   C48  398   7.950   5.246   3.495
    8DPPC   C49  399   7.923   5.165   3.368
    8DPPC   C50  400   7.895   5.018   3.398
    9DPPC    C1  401   3.202   2.903   6.033
    9DPPC    C2  402   3.066   2.742   6.161
    9DPPC    C3  403   2.995   2.965   6.124
    9DPPC    N4  404   3.067   2.852   6.064
    9DPPC    C5  405   3.002   2.799   5.943
    9DPPC    C6  406   2.943   2.903   5.849
    9DPPC    O7  407   3.033   2.960   5.754
    9DPPC    P8  408   2.947   3.007   5.626
    9DPPC    O9  409   3.018   3.127   5.580
    9DPPC   O10  410   2.808   3.014   5.677
    9DPPC   O11  411   2.949   2.877   5.531
    9DPPC   C12  412   3.072   2.902   5.462
    9DPPC   C13  413   3.134   2.767   5.422
    9DPPC   O14  414   3.260   2.785   5.358
    9DPPC   C15  415   3.345   2.679   5.353
    9DPPC   O16  416   3.356   2.608   5.453
    9DPPC   C17  417   3.458   2.693   5.251
    9DPPC   C18  418   3.422   2.653   5.108
    9DPPC   C19  419   3.545   2.644   5.018
    9DPPC   C20  420   3.508   2.641   4.870
    9DPPC   C21  421   3.630   2.615   4.781
    9DPPC   C22  422   3.604   2.586   4.633
    9DPPC   C23  423   3.737   2.577   4.558
    9DPPC   C24  424   3.729   2.500   4.426
    9DPPC   C25  425   3.867   2.487   4.362
    9DPPC   C26  426   3.847   2.369   4.267
    9DPPC   C27  427   3.964   2.360   4.169
    9DPPC   C28  428   3.950   2.244   4.070
    9DPPC   C29  429   4.079   2.247   3.987
    9DPPC   C30  430   4.206   2.209   4.063
    9DPPC   C31  431   4.310   2.190   3.952
    9DPPC   C32  432   3.025   2.706   5.334
    9DPPC   O33  433   2.999   2.782   5.215
    9DPPC   C34  434   2.903   2.738   5.130
    9DPPC   O35  435   2.817   2.651   5.149
    9DPPC   C36  436   2.914   2.816   4.999
    9DPPC   C37  437   2.897   2.720   4.881
    9DPPC   C38  438   2.904   2.800   4.751
    9DPPC   C39  439   2.799   2.911   4.759
    9DPPC   C40  440   2.802   2.994   4.631
    9DPPC   C41  441   2.682   3.088   4.632
    9DPPC   C42  442   2.669   3.177   4.508
    9DPPC   C43  443   2.558   3.281   4.524
    9DPPC   C44  444   2.539   3.374   4.404
    9DPPC   C45  445   2.440   3.327   4.297
    9DPPC   C46  446   2.297   3.306   4.348
    9DPPC   C47  447   2.216   3.246   4.233
    9DPPC   C48  448   2.273   3.110   4.193
    9DPPC   C49  449   2.161   3.005   4.192
    9DPPC   C50  450   2.210   2.867   4.150
   10DPPC    C1  451   8.413   6.181   5.408
   10DPPC    C2  452   8.522   6.374   5.351
   10DPPC    C3  453   8.520   6.203   5.194
   10DPPC    N4  454   8.435   6.271   5.293
   10DPPC    C5  455   8.315   6.339   5.242
   10DPPC    C6  456   8.206   6.255   5.174
   10DPPC    O7  457   8.095   6.334   5.130
   10DPPC    P8  458   8.001   6.223   5.061
   10DPPC    O9  459   7.909   6.313   4.987
   10DPPC   O10  460   7.961   6.110   5.148
   10DPPC   O11  461   8.109   6.165   4.957
   10DPPC   C12  462   8.104   6.249   4.841
   10DPPC   C13  463   8.232   6.232   4.759
   10DPPC   O14  464   8.261   6.351   4.684
   10DPPC   C15  465   8.383   6.370   4.627
   10DPPC   O16  466   8.479   6.311   4.675
   10DPPC   C17  467   8.388   6.459   4.503
   10DPPC   C18  468   8.398   6.369   4.380
   10DPPC   C19  469   8.524   6.284   4.366
   10DPPC   C20  470   8.494   6.191   4.248
   10DPPC   C21  471   8.442   6.057   4.301
   10DPPC   C22  472   8.440   5.968   4.176
   10DPPC   C23  473   8.581   5.964   4.116
   10DPPC   C24  474   8.574   5.910   3.973
   10DPPC   C25  475   8.709   5.924   3.905
   10DPPC   C26  476   8.711   5.843   3.775
   10DPPC   C27  477   8.848   5.844   3.706
   10DPPC   C28  478   8.953   5.787   3.801
   10DPPC   C29  479   9.094   5.812   3.748
   10DPPC   C30  480   9.146   5.955   3.766
   10DPPC   C31  481   9.292   5.965   3.721
   10DPPC   C32  482   8.233   6.095   4.691
   10DPPC   O33  483   8.114   6.074   4.613
   10DPPC   C34  484   8.114   5.963   4.535
   10DPPC   O35  485   8.216   5.897   4.517
   10DPPC   C36  486   8.009   5.970   4.424
   10DPPC   C37  487   8.001   5.860   4.318
   10DPPC   C38  488   7.885   5.893   4.224
   10DPPC   C39  489   7.887   5.793   4.108
   10DPPC   C40  490   7.807   5.864   3.997
   10DPPC   C41  491   7.812   5.778   3.871
   10DPPC   C42  492   7.714   5.858   3.786
   10DPPC   C43  493   7.703   5.796   3.646
   10DPPC   C44  494   7.759   5.885   3.536
   10DPPC   C45  495   7.739   5.813   3.403
   10DPPC   C46  496   7.786   5.667   3.408
   10DPPC   C47  497   7.767   5.605   3.270
   10DPPC   C48  498   7.863   5.654   3.162
   10DPPC   C49  499   7.822   5.599   3.025
   10DPPC   C50  500   7.933   5.610   2.920
   11DPPC    C1  501   6.458   7.581   5.495
   11DPPC    C2  502   6.540   7.658   5.701
   11DPPC    C3  503   6.578   7.425   5.639
   11DPPC    N4  504   6.568   7.564   5.592
   11DPPC    C5  505   6.684   7.590   5.506
   11DPPC    C6  506   6.768   7.717   5.524
   11DPPC    O7  507   6.697   7.820   5.455
   11DPPC    P8  508   6.754   7.960   5.511
   11DPPC    O9  509   6.804   7.936   5.648
   11DPPC   O10  510   6.649   8.064   5.497
   11DPPC   O11  511   6.868   7.971   5.399
   11DPPC   C12  512   6.809   8.023   5.279
   11DPPC   C13  513   6.912   8.027   5.166
   11DPPC   O14  514   6.889   8.126   5.066
   11DPPC   C15  515   7.001   8.165   4.999
   11DPPC   O16  516   7.109   8.166   5.059
   11DPPC   C17  517   6.971   8.264   4.887
   11DPPC   C18  518   6.844   8.229   4.809
   11DPPC   C19  519   6.827   8.318   4.685
   11DPPC   C20  520   6.832   8.461   4.738
   11DPPC   C21  521   6.866   8.552   4.620
   11DPPC   C22  522   6.830   8.700   4.640
   11DPPC   C23  523   6.848   8.774   4.508
   11DPPC   C24  524   6.808   8.922   4.518
   11DPPC   C25  525   6.794   8.993   4.383
   11DPPC   C26  526   6.698   9.112   4.381
   11DPPC   C27  527   6.561   9.045   4.367
   11DPPC   C28  528   6.525   8.961   4.244
   11DPPC   C29  529   6.381   8.909   4.249
   11DPPC   C30  530   6.357   8.821   4.126
   11DPPC   C31  531   6.211   8.776   4.120
   11DPPC   C32  532   6.938   7.878   5.143
   11DPPC   O33  533   6.815   7.822   5.097
   11DPPC   C34  534   6.827   7.694   5.054
   11DPPC   O35  535   6.919   7.622   5.092
   11DPPC   C36  536   6.716   7.649   4.958
   11DPPC   C37  537   6.721   7.740   4.834
   11DPPC   C38  538   6.603   7.722   4.740
   11DPPC   C39  539   6.626   7.822   4.626
   11DPPC   C40  540   6.771   7.855   4.587
   11DPPC   C41  541   6.763   7.958   4.475
   11DPPC   C42  542   6.904   8.004   4.436
   11DPPC   C43  543   6.946   7.907   4.325
   11DPPC   C44  544   7.090   7.953   4.298
   11DPPC   C45  545   7.088   8.098   4.250
   11DPPC   C46  546   7.013   8.102   4.117
   11DPPC   C47  547   7.025   8.248   4.071
   11DPPC   C48  548   7.170   8.275   4.030
   11DPPC   C49  549   7.173   8.426   4.009
   11DPPC   C50  550   7.314   8.486   4.002
   12DPPC    C1  551   9.341   1.756   5.000
   12DPPC    C2  552   9.556   1.831   5.003
   12DPPC    C3  553   9.450   1.786   5.209
   12DPPC    N4  554   9.468   1.736   5.072
   12DPPC    C5  555   9.517   1.598   5.052
   12DPPC    C6  556   9.453   1.474   5.113
   12DPPC    O7  557   9.476   1.367   5.020
   12DPPC    P8  558   9.423   1.234   5.094
   12DPPC    O9  559   9.429   1.241   5.242
   12DPPC   O10  560   9.476   1.118   5.020
   12DPPC   O11  561   9.266   1.262   5.067
   12DPPC   C12  562   9.229   1.193   4.947
   12DPPC   C13  563   9.080   1.209   4.916
   12DPPC   O14  564   9.030   1.129   4.808
   12DPPC   C15  565   9.001   0.998   4.831
   12DPPC   O16  566   8.996   0.955   4.946
   12DPPC   C17  567   8.937   0.929   4.710
   12DPPC   C18  568   8.894   1.006   4.586
   12DPPC   C19  569   8.787   1.113   4.609
   12DPPC   C20  570   8.766   1.180   4.473
   12DPPC   C21  571   8.665   1.295   4.476
   12DPPC   C22  572   8.643   1.373   4.346
   12DPPC   C23  573   8.580   1.284   4.238
   12DPPC   C24  574   8.525   1.370   4.124
   12DPPC   C25  575   8.415   1.465   4.174
   12DPPC   C26  576   8.385   1.557   4.055
   12DPPC   C27  577   8.297   1.510   3.940
   12DPPC   C28  578   8.153   1.468   3.969
   12DPPC   C29  579   8.074   1.404   3.855
   12DPPC   C30  580   7.933   1.369   3.903
   12DPPC   C31  581   7.944   1.267   4.017
   12DPPC   C32  582   9.051   1.356   4.888
   12DPPC   O33  583   9.127   1.391   4.772
   12DPPC   C34  584   9.109   1.517   4.723
   12DPPC   O35  585   9.057   1.608   4.787
   12DPPC   C36  586   9.200   1.556   4.606
   12DPPC   C37  587   9.147   1.505   4.471
   12DPPC   C38  588   9.029   1.585   4.415
   12DPPC   C39  589   9.024   1.554   4.266
   12DPPC   C40  590   8.908   1.603   4.178
   12DPPC   C41  591   8.919   1.585   4.026
   12DPPC   C42  592   8.823   1.673   3.946
   12DPPC   C43  593   8.815   1.618   3.804
   12DPPC   C44  594   8.704   1.693   3.729
   12DPPC   C45  595   8.740   1.836   3.690
   12DPPC   C46  596   8.627   1.917   3.627
   12DPPC   C47  597   8.500   1.930   3.712
   12DPPC   C48  598   8.420   2.055   3.676
   12DPPC   C49  599   8.286   2.039   3.748
   12DPPC   C50  600   8.213   1.912   3.702
   13DPPC    C1  601   1.648   1.571   5.047
   13DPPC    C2  602   1.780   1.431   5.202
   13DPPC    C3  603   1.617   1.550   5.293
   13DPPC    N4  604   1.647   1.484   5.165
   13DPPC    C5  605   1.568   1.361   5.152
   13DPPC    C6  606   1.418   1.377   5.176
   13DPPC    O7  607   1.323   1.287   5.119
   13DPPC    P8  608   1.175   1.344   5.148
   13DPPC    O9  609   1.166   1.367   5.294
   13DPPC   O10  610   1.085   1.246   5.083
   13DPPC   O11  611   1.178   1.491   5.083
   13DPPC   C12  612   1.084   1.498   4.976
   13DPPC   C13  613   1.083   1.637   4.913
   13DPPC   O14  614   0.996   1.657   4.801
   13DPPC   C15  615   0.862   1.656   4.823
   13DPPC   O16  616   0.818   1.642   4.937
   13DPPC   C17  617   0.771   1.656   4.699
   13DPPC   C18  618   0.753   1.516   4.642
   13DPPC   C19  619   0.660   1.534   4.522
   13DPPC   C20  620   0.610   1.401   4.466
   13DPPC   C21  621   0.500   1.422   4.362
   13DPPC   C22  622   0.357   1.435   4.415
   13DPPC   C23  623   0.253   1.440   4.303
   13DPPC   C24  624   0.114   1.409   4.360
   13DPPC   C25  625   0.020   1.435   4.242
   13DPPC   C26  626   0.038   1.575   4.183
   13DPPC   C27  627  -0.054   1.573   4.060
   13DPPC   C28  628  -0.041   1.697   3.973
   13DPPC   C29  629  -0.175   1.720   3.902
   13DPPC   C30  630  -0.147   1.819   3.789
   13DPPC   C31  631  -0.102   1.956   3.839
   13DPPC   C32  632   1.231   1.655   4.877
   13DPPC   O33  633   1.289   1.547   4.804
   13DPPC   C34  634   1.401   1.582   4.735
   13DPPC   O35  635   1.476   1.669   4.777
   13DPPC   C36  636   1.439   1.487   4.620
   13DPPC   C37  637   1.365   1.527   4.492
   13DPPC   C38  638   1.234   1.449   4.479
   13DPPC   C39  639   1.159   1.481   4.350
   13DPPC   C40  640   1.027   1.403   4.342
   13DPPC   C41  641   0.948   1.441   4.217
   13DPPC   C42  642   0.828   1.346   4.212
   13DPPC   C43  643   0.794   1.334   4.064
   13DPPC   C44  644   0.671   1.244   4.052
   13DPPC   C45  645   0.698   1.105   4.110
   13DPPC   C46  646   0.775   1.015   4.013
   13DPPC   C47  647   0.793   0.880   4.084
   13DPPC   C48  648   0.848   0.775   3.988
   13DPPC   C49  649   0.854   0.630   4.038
   13DPPC   C50  650   0.930   0.617   4.170
   14DPPC    C1  651   8.520   3.350   5.552
   14DPPC    C2  652   8.483   3.518   5.721
   14DPPC    C3  653   8.696   3.445   5.664
   14DPPC    N4  654   8.565   3.479   5.606
   14DPPC    C5  655   8.566   3.594   5.514
   14DPPC    C6  656   8.637   3.581   5.380
   14DPPC    O7  657   8.775   3.545   5.394
   14DPPC    P8  658   8.819   3.452   5.270
   14DPPC    O9  659   8.715   3.346   5.270
   14DPPC   O10  660   8.963   3.419   5.271
   14DPPC   O11  661   8.804   3.574   5.166
   14DPPC   C12  662   8.732   3.526   5.051
   14DPPC   C13  663   8.606   3.610   5.030
   14DPPC   O14  664   8.522   3.550   4.930
   14DPPC   C15  665   8.423   3.469   4.975
   14DPPC   O16  666   8.400   3.461   5.096
   14DPPC   C17  667   8.348   3.392   4.867
   14DPPC   C18  668   8.439   3.286   4.805
   14DPPC   C19  669   8.388   3.219   4.677
   14DPPC   C20  670   8.384   3.315   4.558
   14DPPC   C21  671   8.332   3.261   4.425
   14DPPC   C22  672   8.308   3.372   4.323
   14DPPC   C23  673   8.436   3.452   4.297
   14DPPC   C24  674   8.411   3.561   4.192
   14DPPC   C25  675   8.357   3.494   4.066
   14DPPC   C26  676   8.364   3.599   3.955
   14DPPC   C27  677   8.334   3.546   3.815
   14DPPC   C28  678   8.320   3.651   3.703
   14DPPC   C29  679   8.219   3.758   3.743
   14DPPC   C30  680   8.190   3.829   3.611
   14DPPC   C31  681   8.325   3.879   3.559
   14DPPC   C32  682   8.660   3.742   4.976
   14DPPC   O33  683   8.772   3.737   4.887
   14DPPC   C34  684   8.810   3.861   4.846
   14DPPC   O35  685   8.761   3.960   4.900
   14DPPC   C36  686   8.931   3.860   4.753
   14DPPC   C37  687   8.937   3.744   4.653
   14DPPC   C38  688   8.841   3.780   4.540
   14DPPC   C39  689   8.881   3.699   4.417
   14DPPC   C40  690   8.859   3.548   4.430
   14DPPC   C41  691   8.928   3.478   4.312
   14DPPC   C42  692   8.876   3.335   4.291
   14DPPC   C43  693   8.925   3.272   4.161
   14DPPC   C44  694   8.835   3.163   4.102
   14DPPC   C45  695   8.905   3.034   4.060
   14DPPC   C46  696   8.809   2.957   3.969
   14DPPC   C47  697   8.880   2.825   3.939
   14DPPC   C48  698   8.924   2.818   3.793
   14DPPC   C49  699   9.004   2.690   3.763
   14DPPC   C50  700   9.031   2.659   3.616
   15DPPC    C1  701   5.316   8.107   4.984
   15DPPC    C2  702   5.489   8.220   4.858
   15DPPC    C3  703   5.260   8.300   4.902
   15DPPC    N4  704   5.380   8.236   4.956
   15DPPC    C5  705   5.408   8.296   5.087
   15DPPC    C6  706   5.487   8.211   5.185
   15DPPC    O7  707   5.626   8.201   5.155
   15DPPC    P8  708   5.691   8.067   5.215
   15DPPC    O9  709   5.600   7.961   5.167
   15DPPC   O10  710   5.692   8.110   5.357
   15DPPC   O11  711   5.831   8.080   5.136
   15DPPC   C12  712   5.785   8.066   5.002
   15DPPC   C13  713   5.895   8.122   4.911
   15DPPC   O14  714   5.858   8.139   4.773
   15DPPC   C15  715   5.942   8.203   4.687
   15DPPC   O16  716   6.027   8.275   4.738
   15DPPC   C17  717   5.881   8.231   4.549
   15DPPC   C18  718   5.883   8.380   4.515
   15DPPC   C19  719   5.810   8.461   4.623
   15DPPC   C20  720   5.814   8.610   4.587
   15DPPC   C21  721   5.960   8.654   4.571
   15DPPC   C22  722   5.976   8.801   4.531
   15DPPC   C23  723   5.909   8.822   4.395
   15DPPC   C24  724   5.942   8.966   4.356
   15DPPC   C25  725   5.873   8.998   4.223
   15DPPC   C26  726   5.721   8.999   4.237
   15DPPC   C27  727   5.672   9.041   4.098
   15DPPC   C28  728   5.523   9.074   4.103
   15DPPC   C29  729   5.489   9.153   3.976
   15DPPC   C30  730   5.343   9.192   3.956
   15DPPC   C31  731   5.300   9.277   4.075
   15DPPC   C32  732   6.019   8.036   4.934
   15DPPC   O33  733   6.026   7.916   4.857
   15DPPC   C34  734   6.130   7.831   4.880
   15DPPC   O35  735   6.207   7.855   4.973
   15DPPC   C36  736   6.131   7.706   4.793
   15DPPC   C37  737   6.095   7.577   4.868
   15DPPC   C38  738   6.079   7.455   4.778
   15DPPC   C39  739   5.995   7.492   4.655
   15DPPC   C40  740   5.945   7.374   4.572
   15DPPC   C41  741   6.053   7.271   4.540
   15DPPC   C42  742   5.974   7.160   4.471
   15DPPC   C43  743   6.055   7.078   4.371
   15DPPC   C44  744   5.959   6.981   4.302
   15DPPC   C45  745   6.043   6.885   4.217
   15DPPC   C46  746   6.084   6.962   4.092
   15DPPC   C47  747   5.973   7.023   4.006
   15DPPC   C48  748   6.028   7.093   3.882
   15DPPC   C49  749   5.919   7.158   3.797
   15DPPC   C50  750   5.860   7.274   3.876
   16DPPC    C1  751   9.271   0.832   5.053
   16DPPC    C2  752   9.217   0.835   5.293
   16DPPC    C3  753   9.096   0.692   5.130
   16DPPC    N4  754   9.222   0.756   5.169
   16DPPC    C5  755   9.313   0.642   5.185
   16DPPC    C6  756   9.294   0.550   5.307
   16DPPC    O7  757   9.355   0.421   5.305
   16DPPC    P8  758   9.254   0.314   5.370
   16DPPC    O9  759   9.196   0.396   5.479
   16DPPC   O10  760   9.315   0.183   5.400
   16DPPC   O11  761   9.164   0.291   5.239
   16DPPC   C12  762   9.245   0.223   5.143
   16DPPC   C13  763   9.211   0.263   4.999
   16DPPC   O14  764   9.273   0.384   4.954
   16DPPC   C15  765   9.397   0.372   4.898
   16DPPC   O16  766   9.472   0.285   4.940
   16DPPC   C17  767   9.458   0.483   4.812
   16DPPC   C18  768   9.379   0.613   4.797
   16DPPC   C19  769   9.415   0.685   4.666
   16DPPC   C20  770   9.332   0.625   4.553
   16DPPC   C21  771   9.185   0.642   4.593
   16DPPC   C22  772   9.083   0.584   4.495
   16DPPC   C23  773   9.055   0.670   4.371
   16DPPC   C24  774   8.950   0.594   4.290
   16DPPC   C25  775   8.873   0.652   4.171
   16DPPC   C26  776   8.811   0.541   4.086
   16DPPC   C27  777   8.751   0.608   3.961
   16DPPC   C28  778   8.622   0.530   3.936
   16DPPC   C29  779   8.540   0.559   3.810
   16DPPC   C30  780   8.626   0.507   3.694
   16DPPC   C31  781   8.571   0.533   3.553
   16DPPC   C32  782   9.058   0.270   4.996
   16DPPC   O33  783   8.999   0.140   4.999
   16DPPC   C34  784   8.866   0.133   4.972
   16DPPC   O35  785   8.793   0.208   5.037
   16DPPC   C36  786   8.819  -0.009   4.938
   16DPPC   C37  787   8.768   0.007   4.795
   16DPPC   C38  788   8.793  -0.125   4.722
   16DPPC   C39  789   8.773  -0.118   4.570
   16DPPC   C40  790   8.838  -0.236   4.497
   16DPPC   C41  791   8.819  -0.231   4.345
   16DPPC   C42  792   8.675  -0.264   4.304
   16DPPC   C43  793   8.678  -0.294   4.154
   16DPPC   C44  794   8.549  -0.375   4.139
   16DPPC   C45  795   8.509  -0.401   3.993
   16DPPC   C46  796   8.368  -0.456   4.015
   16DPPC   C47  797   8.290  -0.501   3.891
   16DPPC   C48  798   8.160  -0.549   3.957
   16DPPC   C49  799   8.065  -0.623   3.863
   16DPPC   C50  800   7.946  -0.685   3.936
   17DPPC    C1  801   1.621   0.537   5.338
   17DPPC    C2  802   1.680   0.540   5.115
   17DPPC    C3  803   1.544   0.373   5.188
   17DPPC    N4  804   1.565   0.517   5.203
   17DPPC    C5  805   1.446   0.596   5.169
   17DPPC    C6  806   1.474   0.746   5.158
   17DPPC    O7  807   1.356   0.826   5.155
   17DPPC    P8  808   1.375   0.986   5.151
   17DPPC    O9  809   1.520   1.001   5.173
   17DPPC   O10  810   1.271   1.037   5.243
   17DPPC   O11  811   1.338   0.999   4.995
   17DPPC   C12  812   1.459   1.056   4.944
   17DPPC   C13  813   1.434   1.095   4.798
   17DPPC   O14  814   1.541   1.165   4.733
   17DPPC   C15  815   1.628   1.084   4.667
   17DPPC   O16  816   1.592   0.970   4.639
   17DPPC   C17  817   1.757   1.146   4.611
   17DPPC   C18  818   1.779   1.280   4.682
   17DPPC   C19  819   1.865   1.373   4.596
   17DPPC   C20  820   1.983   1.295   4.538
   17DPPC   C21  821   2.063   1.396   4.456
   17DPPC   C22  822   2.196   1.331   4.418
   17DPPC   C23  823   2.283   1.439   4.354
   17DPPC   C24  824   2.417   1.382   4.307
   17DPPC   C25  825   2.388   1.284   4.193
   17DPPC   C26  826   2.502   1.204   4.130
   17DPPC   C27  827   2.445   1.128   4.010
   17DPPC   C28  828   2.545   1.019   3.971
   17DPPC   C29  829   2.490   0.933   3.857
   17DPPC   C30  830   2.487   1.004   3.721
   17DPPC   C31  831   2.455   0.903   3.611
   17DPPC   C32  832   1.306   1.179   4.796
   17DPPC   O33  833   1.221   1.176   4.680
   17DPPC   C34  834   1.152   1.067   4.638
   17DPPC   O35  835   1.177   0.956   4.685
   17DPPC   C36  836   1.092   1.073   4.498
   17DPPC   C37  837   1.182   1.005   4.395
   17DPPC   C38  838   1.094   0.937   4.291
   17DPPC   C39  839   1.171   0.892   4.166
   17DPPC   C40  840   1.204   1.019   4.088
   17DPPC   C41  841   1.262   0.982   3.951
   17DPPC   C42  842   1.339   1.100   3.891
   17DPPC   C43  843   1.404   1.089   3.753
   17DPPC   C44  844   1.473   1.218   3.708
   17DPPC   C45  845   1.524   1.204   3.564
   17DPPC   C46  846   1.571   1.340   3.510
   17DPPC   C47  847   1.697   1.385   3.583
   17DPPC   C48  848   1.749   1.524   3.545
   17DPPC   C49  849   1.869   1.581   3.621
   17DPPC   C50  850   1.882   1.731   3.592
   18DPPC    C1  851   1.943   7.142   5.465
   18DPPC    C2  852   2.013   6.941   5.540
   18DPPC    C3  853   1.800   6.954   5.424
   18DPPC    N4  854   1.940   7.000   5.427
   18DPPC    C5  855   2.006   6.995   5.296
   18DPPC    C6  856   2.035   6.852   5.250
   18DPPC    O7  857   2.105   6.849   5.126
   18DPPC    P8  858   2.104   6.700   5.064
   18DPPC    O9  859   1.966   6.657   5.095
   18DPPC   O10  860   2.218   6.619   5.112
   18DPPC   O11  861   2.115   6.724   4.905
   18DPPC   C12  862   2.158   6.606   4.838
   18DPPC   C13  863   2.181   6.617   4.687
   18DPPC   O14  864   2.184   6.493   4.615
   18DPPC   C15  865   2.067   6.431   4.585
   18DPPC   O16  866   1.964   6.433   4.652
   18DPPC   C17  867   2.076   6.309   4.494
   18DPPC   C18  868   1.954   6.306   4.401
   18DPPC   C19  869   1.997   6.245   4.267
   18DPPC   C20  870   1.874   6.227   4.178
   18DPPC   C21  871   1.903   6.141   4.054
   18DPPC   C22  872   1.772   6.130   3.977
   18DPPC   C23  873   1.793   6.037   3.857
   18DPPC   C24  874   1.664   6.037   3.775
   18DPPC   C25  875   1.532   6.007   3.848
   18DPPC   C26  876   1.514   5.864   3.899
   18DPPC   C27  877   1.391   5.873   3.990
   18DPPC   C28  878   1.265   5.910   3.912
   18DPPC   C29  879   1.217   5.806   3.811
   18DPPC   C30  880   1.087   5.846   3.742
   18DPPC   C31  881   1.056   5.726   3.651
   18DPPC   C32  882   2.298   6.714   4.671
   18DPPC   O33  883   2.330   6.744   4.534
   18DPPC   C34  884   2.460   6.778   4.513
   18DPPC   O35  885   2.537   6.782   4.608
   18DPPC   C36  886   2.484   6.808   4.364
   18DPPC   C37  887   2.537   6.684   4.291
   18DPPC   C38  888   2.559   6.725   4.145
   18DPPC   C39  889   2.639   6.627   4.058
   18DPPC   C40  890   2.783   6.604   4.102
   18DPPC   C41  891   2.849   6.510   4.001
   18DPPC   C42  892   2.934   6.400   4.064
   18DPPC   C43  893   3.001   6.320   3.952
   18DPPC   C44  894   3.048   6.183   4.000
   18DPPC   C45  895   3.162   6.204   4.099
   18DPPC   C46  896   3.208   6.090   4.190
   18DPPC   C47  897   3.315   6.138   4.288
   18DPPC   C48  898   3.254   6.226   4.398
   18DPPC   C49  899   3.370   6.265   4.490
   18DPPC   C50  900   3.330   6.345   4.614
   19DPPC    C1  901   2.670   5.687   5.600
   19DPPC    C2  902   2.457   5.739   5.542
   19DPPC    C3  903   2.628   5.747   5.371
   19DPPC    N4  904   2.576   5.674   5.488
   19DPPC    C5  905   2.537   5.537   5.451
   19DPPC    C6  906   2.642   5.433   5.413
   19DPPC    O7  907   2.715   5.455   5.292
   19DPPC    P8  908   2.845   5.360   5.290
   19DPPC    O9  909   2.884   5.356   5.433
   19DPPC   O10  910   2.926   5.421   5.182
   19DPPC   O11  911   2.778   5.233   5.218
   19DPPC   C12  912   2.816   5.216   5.081
   19DPPC   C13  913   2.734   5.100   5.024
   19DPPC   O14  914   2.809   5.019   4.933
   19DPPC   C15  915   2.774   4.887   4.934
   19DPPC   O16  916   2.698   4.833   5.014
   19DPPC   C17  917   2.848   4.802   4.830
   19DPPC   C18  918   2.981   4.740   4.874
   19DPPC   C19  919   3.042   4.672   4.752
   19DPPC   C20  920   2.961   4.546   4.723
   19DPPC   C21  921   3.025   4.469   4.607
   19DPPC   C22  922   2.943   4.344   4.573
   19DPPC   C23  923   3.010   4.287   4.448
   19DPPC   C24  924   3.153   4.235   4.462
   19DPPC   C25  925   3.212   4.195   4.327
   19DPPC   C26  926   3.181   4.304   4.224
   19DPPC   C27  927   3.244   4.260   4.091
   19DPPC   C28  928   3.192   4.349   3.979
   19DPPC   C29  929   3.260   4.315   3.846
   19DPPC   C30  930   3.182   4.364   3.725
   19DPPC   C31  931   3.177   4.516   3.738
   19DPPC   C32  932   2.594   5.152   4.989
   19DPPC   O33  933   2.600   5.251   4.887
   19DPPC   C34  934   2.490   5.281   4.812
   19DPPC   O35  935   2.384   5.223   4.835
   19DPPC   C36  936   2.500   5.385   4.700
   19DPPC   C37  937   2.392   5.352   4.597
   19DPPC   C38  938   2.426   5.398   4.455
   19DPPC   C39  939   2.319   5.394   4.346
   19DPPC   C40  940   2.357   5.478   4.224
   19DPPC   C41  941   2.259   5.501   4.109
   19DPPC   C42  942   2.314   5.603   4.009
   19DPPC   C43  943   2.460   5.563   3.985
   19DPPC   C44  944   2.523   5.653   3.879
   19DPPC   C45  945   2.667   5.602   3.865
   19DPPC   C46  946   2.727   5.662   3.738
   19DPPC   C47  947   2.878   5.636   3.727
   19DPPC   C48  948   2.947   5.690   3.852
   19DPPC   C49  949   3.100   5.695   3.836
   19DPPC   C50  950   3.175   5.739   3.962
   20DPPC    C1  951   6.820   5.430   5.023
   20DPPC    C2  952   6.637   5.388   4.882
   20DPPC    C3  953   6.622   5.299   5.091
   20DPPC    N4  954   6.674   5.417   5.021
   20DPPC    C5  955   6.595   5.532   5.070
   20DPPC    C6  956   6.666   5.652   5.131
   20DPPC    O7  957   6.742   5.736   5.043
   20DPPC    P8  958   6.826   5.845   5.124
   20DPPC    O9  959   6.904   5.748   5.204
   20DPPC   O10  960   6.733   5.944   5.183
   20DPPC   O11  961   6.924   5.924   5.023
   20DPPC   C12  962   7.021   5.827   4.984
   20DPPC   C13  963   7.149   5.875   4.914
   20DPPC   O14  964   7.137   5.961   4.800
   20DPPC   C15  965   7.138   6.097   4.788
   20DPPC   O16  966   7.178   6.161   4.884
   20DPPC   C17  967   7.114   6.162   4.651
   20DPPC   C18  968   7.189   6.291   4.615
   20DPPC   C19  969   7.134   6.332   4.478
   20DPPC   C20  970   6.983   6.355   4.491
   20DPPC   C21  971   6.932   6.399   4.354
   20DPPC   C22  972   7.007   6.522   4.302
   20DPPC   C23  973   6.997   6.540   4.150
   20DPPC   C24  974   7.083   6.650   4.088
   20DPPC   C25  975   7.090   6.624   3.937
   20DPPC   C26  976   7.171   6.719   3.848
   20DPPC   C27  977   7.318   6.707   3.890
   20DPPC   C28  978   7.407   6.799   3.808
   20DPPC   C29  979   7.556   6.764   3.809
   20DPPC   C30  980   7.645   6.849   3.718
   20DPPC   C31  981   7.785   6.787   3.718
   20DPPC   C32  982   7.235   5.751   4.892
   20DPPC   O33  983   7.160   5.640   4.844
   20DPPC   C34  984   7.218   5.517   4.844
   20DPPC   O35  985   7.318   5.486   4.909
   20DPPC   C36  986   7.162   5.429   4.732
   20DPPC   C37  987   7.277   5.359   4.660
   20DPPC   C38  988   7.222   5.299   4.530
   20DPPC   C39  989   7.323   5.222   4.444
   20DPPC   C40  990   7.279   5.203   4.299
   20DPPC   C41  991   7.383   5.141   4.205
   20DPPC   C42  992   7.303   5.131   4.075
   20DPPC   C43  993   7.394   5.075   3.965
   20DPPC   C44  994   7.312   5.018   3.849
   20DPPC   C45  995   7.401   4.945   3.749
   20DPPC   C46  996   7.314   4.897   3.633
   20DPPC   C47  997   7.244   5.009   3.556
   20DPPC   C48  998   7.148   4.948   3.454
   20DPPC   C49  999   7.055   5.044   3.380
   20DPPC   C50 1000   7.136   5.132   3.284
   21DPPC    C1 1001   3.275   2.187   6.166
   21DPPC    C2 1002   3.440   2.136   5.999
   21DPPC    C3 1003   3.485   2.081   6.219
   21DPPC    N4 1004   3.375   2.089   6.122
   21DPPC    C5 1005   3.325   1.951   6.112
   21DPPC    C6 1006   3.188   1.925   6.047
   21DPPC    O7 1007   3.184   1.938   5.905
   21DPPC    P8 1008   3.037   1.974   5.848
   21DPPC    O9 1009   2.968   2.065   5.941
   21DPPC   O10 1010   2.996   1.839   5.804
   21DPPC   O11 1011   3.084   2.047   5.712
   21DPPC   C12 1012   3.093   1.943   5.615
   21DPPC   C13 1013   3.091   2.001   5.473
   21DPPC   O14 1014   3.079   1.907   5.365
   21DPPC   C15 1015   2.953   1.871   5.332
   21DPPC   O16 1016   2.863   1.863   5.417
   21DPPC   C17 1017   2.948   1.805   5.194
   21DPPC   C18 1018   3.044   1.882   5.102
   21DPPC   C19 1019   3.013   1.849   4.956
   21DPPC   C20 1020   3.085   1.950   4.867
   21DPPC   C21 1021   3.023   1.930   4.729
   21DPPC   C22 1022   3.081   2.029   4.627
   21DPPC   C23 1023   3.027   2.003   4.486
   21DPPC   C24 1024   3.111   2.065   4.375
   21DPPC   C25 1025   3.024   2.070   4.249
   21DPPC   C26 1026   3.099   2.111   4.122
   21DPPC   C27 1027   3.018   2.099   3.993
   21DPPC   C28 1028   3.107   2.133   3.874
   21DPPC   C29 1029   3.039   2.118   3.738
   21DPPC   C30 1030   3.150   2.081   3.640
   21DPPC   C31 1031   3.116   2.089   3.491
   21DPPC   C32 1032   3.219   2.084   5.468
   21DPPC   O33 1033   3.248   2.167   5.355
   21DPPC   C34 1034   3.180   2.283   5.333
   21DPPC   O35 1035   3.084   2.318   5.402
   21DPPC   C36 1036   3.220   2.359   5.206
   21DPPC   C37 1037   3.138   2.324   5.082
   21DPPC   C38 1038   3.185   2.411   4.966
   21DPPC   C39 1039   3.102   2.374   4.842
   21DPPC   C40 1040   3.133   2.457   4.718
   21DPPC   C41 1041   3.047   2.416   4.598
   21DPPC   C42 1042   3.100   2.474   4.467
   21DPPC   C43 1043   3.252   2.471   4.448
   21DPPC   C44 1044   3.306   2.556   4.333
   21DPPC   C45 1045   3.259   2.503   4.197
   21DPPC   C46 1046   3.289   2.595   4.078
   21DPPC   C47 1047   3.246   2.535   3.945
   21DPPC   C48 1048   3.300   2.622   3.831
   21DPPC   C49 1049   3.229   2.571   3.706
   21DPPC   C50 1050   3.237   2.669   3.589
   22DPPC    C1 1051   1.696   1.982   5.549
   22DPPC    C2 1052   1.880   2.076   5.429
   22DPPC    C3 1053   1.915   1.971   5.648
   22DPPC    N4 1054   1.839   1.969   5.521
   22DPPC    C5 1055   1.855   1.843   5.448
   22DPPC    C6 1056   1.982   1.811   5.368
   22DPPC    O7 1057   1.970   1.692   5.290
   22DPPC    P8 1058   2.117   1.656   5.234
   22DPPC    O9 1059   2.106   1.532   5.154
   22DPPC   O10 1060   2.211   1.668   5.347
   22DPPC   O11 1061   2.121   1.787   5.140
   22DPPC   C12 1062   2.067   1.765   5.009
   22DPPC   C13 1063   2.049   1.900   4.941
   22DPPC   O14 1064   1.989   1.890   4.810
   22DPPC   C15 1065   1.855   1.873   4.803
   22DPPC   O16 1066   1.787   1.859   4.905
   22DPPC   C17 1067   1.795   1.877   4.662
   22DPPC   C18 1068   1.856   1.772   4.570
   22DPPC   C19 1069   1.791   1.776   4.432
   22DPPC   C20 1070   1.833   1.663   4.338
   22DPPC   C21 1071   1.730   1.645   4.226
   22DPPC   C22 1072   1.751   1.516   4.145
   22DPPC   C23 1073   1.622   1.485   4.069
   22DPPC   C24 1074   1.577   1.594   3.971
   22DPPC   C25 1075   1.460   1.522   3.903
   22DPPC   C26 1076   1.410   1.622   3.799
   22DPPC   C27 1077   1.276   1.576   3.741
   22DPPC   C28 1078   1.174   1.546   3.850
   22DPPC   C29 1079   1.047   1.487   3.788
   22DPPC   C30 1080   1.072   1.356   3.713
   22DPPC   C31 1081   0.951   1.293   3.644
   22DPPC   C32 1082   2.181   1.978   4.947
   22DPPC   O33 1083   2.297   1.904   4.911
   22DPPC   C34 1084   2.408   1.981   4.901
   22DPPC   O35 1085   2.391   2.103   4.906
   22DPPC   C36 1086   2.529   1.927   4.825
   22DPPC   C37 1087   2.499   1.812   4.729
   22DPPC   C38 1088   2.602   1.825   4.617
   22DPPC   C39 1089   2.578   1.729   4.500
   22DPPC   C40 1090   2.660   1.772   4.379
   22DPPC   C41 1091   2.632   1.692   4.251
   22DPPC   C42 1092   2.717   1.732   4.131
   22DPPC   C43 1093   2.680   1.660   4.001
   22DPPC   C44 1094   2.779   1.716   3.899
   22DPPC   C45 1095   2.755   1.664   3.757
   22DPPC   C46 1096   2.814   1.748   3.643
   22DPPC   C47 1097   2.776   1.688   3.507
   22DPPC   C48 1098   2.849   1.559   3.468
   22DPPC   C49 1099   2.824   1.504   3.327
   22DPPC   C50 1100   2.860   1.607   3.219
   23DPPC    C1 1101   1.454   7.284   5.031
   23DPPC    C2 1102   1.549   7.086   5.093
   23DPPC    C3 1103   1.400   7.070   4.920
   23DPPC    N4 1104   1.504   7.158   4.973
   23DPPC    C5 1105   1.616   7.170   4.879
   23DPPC    C6 1106   1.612   7.245   4.745
   23DPPC    O7 1107   1.535   7.198   4.634
   23DPPC    P8 1108   1.471   7.320   4.550
   23DPPC    O9 1109   1.516   7.448   4.611
   23DPPC   O10 1110   1.331   7.286   4.521
   23DPPC   O11 1111   1.561   7.294   4.420
   23DPPC   C12 1112   1.515   7.175   4.355
   23DPPC   C13 1113   1.543   7.165   4.205
   23DPPC   O14 1114   1.683   7.168   4.177
   23DPPC   C15 1115   1.728   7.058   4.110
   23DPPC   O16 1116   1.663   6.954   4.114
   23DPPC   C17 1117   1.873   7.082   4.065
   23DPPC   C18 1118   1.889   7.176   3.946
   23DPPC   C19 1119   2.027   7.238   3.929
   23DPPC   C20 1120   2.033   7.354   3.830
   23DPPC   C21 1121   2.015   7.487   3.904
   23DPPC   C22 1122   2.002   7.585   3.788
   23DPPC   C23 1123   1.976   7.729   3.833
   23DPPC   C24 1124   1.953   7.827   3.718
   23DPPC   C25 1125   1.926   7.962   3.784
   23DPPC   C26 1126   1.933   8.077   3.682
   23DPPC   C27 1127   1.888   8.217   3.724
   23DPPC   C28 1128   1.737   8.213   3.745
   23DPPC   C29 1129   1.684   8.197   3.603
   23DPPC   C30 1130   1.533   8.173   3.614
   23DPPC   C31 1131   1.472   8.165   3.473
   23DPPC   C32 1132   1.471   7.290   4.153
   23DPPC   O33 1133   1.501   7.315   4.016
   23DPPC   C34 1134   1.441   7.418   3.951
   23DPPC   O35 1135   1.362   7.487   4.014
   23DPPC   C36 1136   1.493   7.444   3.809
   23DPPC   C37 1137   1.607   7.546   3.806
   23DPPC   C38 1138   1.661   7.567   3.664
   23DPPC   C39 1139   1.718   7.434   3.615
   23DPPC   C40 1140   1.748   7.451   3.466
   23DPPC   C41 1141   1.801   7.325   3.397
   23DPPC   C42 1142   1.685   7.228   3.372
   23DPPC   C43 1143   1.722   7.080   3.381
   23DPPC   C44 1144   1.610   6.996   3.320
   23DPPC   C45 1145   1.583   7.053   3.180
   23DPPC   C46 1146   1.481   6.960   3.115
   23DPPC   C47 1147   1.451   6.998   2.969
   23DPPC   C48 1148   1.362   6.908   2.884
   23DPPC   C49 1149   1.229   6.868   2.948
   23DPPC   C50 1150   1.113   6.915   2.861
   24DPPC    C1 1151   3.259   5.336   5.153
   24DPPC    C2 1152   3.419   5.373   5.322
   24DPPC    C3 1153   3.262   5.539   5.275
   24DPPC    N4 1154   3.277   5.394   5.287
   24DPPC    C5 1155   3.194   5.333   5.392
   24DPPC    C6 1156   3.209   5.183   5.417
   24DPPC    O7 1157   3.111   5.106   5.346
   24DPPC    P8 1158   3.147   4.952   5.375
   24DPPC    O9 1159   3.041   4.874   5.307
   24DPPC   O10 1160   3.181   4.948   5.519
   24DPPC   O11 1161   3.286   4.937   5.296
   24DPPC   C12 1162   3.248   4.916   5.159
   24DPPC   C13 1163   3.367   4.910   5.063
   24DPPC   O14 1164   3.308   4.923   4.933
   24DPPC   C15 1165   3.280   5.044   4.878
   24DPPC   O16 1166   3.338   5.146   4.915
   24DPPC   C17 1167   3.212   5.037   4.741
   24DPPC   C18 1168   3.305   5.080   4.628
   24DPPC   C19 1169   3.402   4.972   4.580
   24DPPC   C20 1170   3.544   5.031   4.588
   24DPPC   C21 1171   3.631   4.934   4.507
   24DPPC   C22 1172   3.773   4.982   4.477
   24DPPC   C23 1173   3.836   4.896   4.368
   24DPPC   C24 1174   3.974   4.943   4.324
   24DPPC   C25 1175   4.031   4.882   4.195
   24DPPC   C26 1176   4.158   4.960   4.162
   24DPPC   C27 1177   4.221   4.914   4.030
   24DPPC   C28 1178   4.328   5.016   3.992
   24DPPC   C29 1179   4.424   4.957   3.888
   24DPPC   C30 1180   4.537   5.054   3.855
   24DPPC   C31 1181   4.638   5.099   3.961
   24DPPC   C32 1182   3.420   4.769   5.084
   24DPPC   O33 1183   3.332   4.657   5.076
   24DPPC   C34 1184   3.385   4.532   5.085
   24DPPC   O35 1185   3.500   4.518   5.126
   24DPPC   C36 1186   3.309   4.412   5.029
   24DPPC   C37 1187   3.365   4.364   4.895
   24DPPC   C38 1188   3.359   4.473   4.788
   24DPPC   C39 1189   3.408   4.423   4.652
   24DPPC   C40 1190   3.446   4.535   4.554
   24DPPC   C41 1191   3.468   4.478   4.414
   24DPPC   C42 1192   3.532   4.585   4.326
   24DPPC   C43 1193   3.585   4.530   4.193
   24DPPC   C44 1194   3.670   4.638   4.127
   24DPPC   C45 1195   3.744   4.606   3.996
   24DPPC   C46 1196   3.840   4.715   3.949
   24DPPC   C47 1197   3.935   4.660   3.842
   24DPPC   C48 1198   3.996   4.764   3.748
   24DPPC   C49 1199   4.069   4.703   3.628
   24DPPC   C50 1200   4.157   4.591   3.683
   25DPPC    C1 1201   3.988   5.365   5.275
   25DPPC    C2 1202   3.941   5.527   5.108
   25DPPC    C3 1203   3.798   5.335   5.163
   25DPPC    N4 1204   3.881   5.445   5.214
   25DPPC    C5 1205   3.826   5.522   5.327
   25DPPC    C6 1206   3.760   5.657   5.296
   25DPPC    O7 1207   3.647   5.636   5.210
   25DPPC    P8 1208   3.551   5.761   5.181
   25DPPC    O9 1209   3.652   5.848   5.116
   25DPPC   O10 1210   3.472   5.810   5.297
   25DPPC   O11 1211   3.462   5.678   5.076
   25DPPC   C12 1212   3.556   5.644   4.974
   25DPPC   C13 1213   3.517   5.584   4.839
   25DPPC   O14 1214   3.622   5.520   4.765
   25DPPC   C15 1215   3.679   5.401   4.798
   25DPPC   O16 1216   3.655   5.352   4.908
   25DPPC   C17 1217   3.769   5.337   4.692
   25DPPC   C18 1218   3.846   5.449   4.623
   25DPPC   C19 1219   3.881   5.390   4.486
   25DPPC   C20 1220   3.994   5.287   4.496
   25DPPC   C21 1221   4.139   5.336   4.505
   25DPPC   C22 1222   4.234   5.228   4.454
   25DPPC   C23 1223   4.368   5.250   4.525
   25DPPC   C24 1224   4.485   5.179   4.458
   25DPPC   C25 1225   4.608   5.155   4.546
   25DPPC   C26 1226   4.726   5.130   4.452
   25DPPC   C27 1227   4.823   5.248   4.446
   25DPPC   C28 1228   4.940   5.202   4.359
   25DPPC   C29 1229   5.023   5.328   4.332
   25DPPC   C30 1230   5.121   5.279   4.225
   25DPPC   C31 1231   5.050   5.210   4.109
   25DPPC   C32 1232   3.456   5.706   4.769
   25DPPC   O33 1233   3.548   5.814   4.752
   25DPPC   C34 1234   3.491   5.928   4.703
   25DPPC   O35 1235   3.377   5.964   4.733
   25DPPC   C36 1236   3.594   6.030   4.656
   25DPPC   C37 1237   3.609   6.015   4.505
   25DPPC   C38 1238   3.707   5.901   4.472
   25DPPC   C39 1239   3.767   5.904   4.331
   25DPPC   C40 1240   3.673   5.843   4.227
   25DPPC   C41 1241   3.730   5.839   4.085
   25DPPC   C42 1242   3.860   5.760   4.077
   25DPPC   C43 1243   3.854   5.612   4.115
   25DPPC   C44 1244   3.973   5.521   4.084
   25DPPC   C45 1245   3.992   5.494   3.935
   25DPPC   C46 1246   4.111   5.408   3.892
   25DPPC   C47 1247   4.096   5.348   3.752
   25DPPC   C48 1248   4.213   5.260   3.707
   25DPPC   C49 1249   4.182   5.176   3.583
   25DPPC   C50 1250   4.313   5.109   3.540
   26DPPC    C1 1251   3.677   2.632   5.812
   26DPPC    C2 1252   3.672   2.483   5.638
   26DPPC    C3 1253   3.671   2.700   5.577
   26DPPC    N4 1254   3.732   2.611   5.676
   26DPPC    C5 1255   3.877   2.602   5.659
   26DPPC    C6 1256   3.953   2.731   5.693
   26DPPC    O7 1257   3.966   2.826   5.586
   26DPPC    P8 1258   4.024   2.961   5.651
   26DPPC    O9 1259   3.994   2.957   5.796
   26DPPC   O10 1260   4.025   3.087   5.573
   26DPPC   O11 1261   4.175   2.904   5.652
   26DPPC   C12 1262   4.262   2.955   5.551
   26DPPC   C13 1263   4.399   2.888   5.553
   26DPPC   O14 1264   4.475   2.923   5.436
   26DPPC   C15 1265   4.542   3.039   5.414
   26DPPC   O16 1266   4.526   3.125   5.500
   26DPPC   C17 1267   4.588   3.069   5.271
   26DPPC   C18 1268   4.738   3.099   5.275
   26DPPC   C19 1269   4.791   3.122   5.133
   26DPPC   C20 1270   4.939   3.159   5.121
   26DPPC   C21 1271   4.966   3.148   4.970
   26DPPC   C22 1272   4.964   3.001   4.928
   26DPPC   C23 1273   4.977   3.000   4.776
   26DPPC   C24 1274   4.947   2.870   4.700
   26DPPC   C25 1275   4.979   2.870   4.550
   26DPPC   C26 1276   4.942   2.738   4.482
   26DPPC   C27 1277   4.956   2.748   4.330
   26DPPC   C28 1278   4.917   2.629   4.242
   26DPPC   C29 1279   4.904   2.675   4.097
   26DPPC   C30 1280   4.879   2.554   4.007
   26DPPC   C31 1281   4.900   2.580   3.858
   26DPPC   C32 1282   4.366   2.739   5.553
   26DPPC   O33 1283   4.279   2.695   5.449
   26DPPC   C34 1284   4.223   2.571   5.461
   26DPPC   O35 1285   4.226   2.528   5.576
   26DPPC   C36 1286   4.147   2.526   5.336
   26DPPC   C37 1287   4.228   2.439   5.239
   26DPPC   C38 1288   4.143   2.414   5.115
   26DPPC   C39 1289   4.097   2.546   5.054
   26DPPC   C40 1290   4.078   2.515   4.905
   26DPPC   C41 1291   4.050   2.643   4.826
   26DPPC   C42 1292   4.053   2.610   4.677
   26DPPC   C43 1293   4.055   2.742   4.601
   26DPPC   C44 1294   4.195   2.802   4.605
   26DPPC   C45 1295   4.193   2.925   4.515
   26DPPC   C46 1296   4.140   2.887   4.376
   26DPPC   C47 1297   4.096   3.001   4.284
   26DPPC   C48 1298   4.044   2.964   4.145
   26DPPC   C49 1299   4.014   3.081   4.050
   26DPPC   C50 1300   3.925   3.190   4.111
   27DPPC    C1 1301   3.775   0.169   5.361
   27DPPC    C2 1302   3.663   0.355   5.290
   27DPPC    C3 1303   3.845   0.285   5.155
   27DPPC    N4 1304   3.734   0.236   5.237
   27DPPC    C5 1305   3.637   0.146   5.174
   27DPPC    C6 1306   3.681   0.007   5.128
   27DPPC    O7 1307   3.793   0.000   5.039
   27DPPC    P8 1308   3.842  -0.153   5.049
   27DPPC    O9 1309   3.732  -0.233   5.108
   27DPPC   O10 1310   3.979  -0.149   5.105
   27DPPC   O11 1311   3.849  -0.196   4.894
   27DPPC   C12 1312   3.958  -0.123   4.837
   27DPPC   C13 1313   3.953  -0.105   4.685
   27DPPC   O14 1314   3.883   0.015   4.650
   27DPPC   C15 1315   3.959   0.107   4.585
   27DPPC   O16 1316   4.073   0.131   4.626
   27DPPC   C17 1317   3.874   0.223   4.532
   27DPPC   C18 1318   3.935   0.291   4.409
   27DPPC   C19 1319   3.850   0.412   4.368
   27DPPC   C20 1320   3.917   0.471   4.244
   27DPPC   C21 1321   3.896   0.378   4.124
   27DPPC   C22 1322   4.005   0.400   4.018
   27DPPC   C23 1323   4.005   0.342   3.877
   27DPPC   C24 1324   4.106   0.412   3.786
   27DPPC   C25 1325   4.107   0.333   3.655
   27DPPC   C26 1326   4.188   0.208   3.688
   27DPPC   C27 1327   4.174   0.104   3.577
   27DPPC   C28 1328   4.245  -0.030   3.595
   27DPPC   C29 1329   4.225  -0.144   3.494
   27DPPC   C30 1330   4.074  -0.145   3.470
   27DPPC   C31 1331   4.017  -0.284   3.499
   27DPPC   C32 1332   3.883  -0.230   4.632
   27DPPC   O33 1333   3.954  -0.353   4.640
   27DPPC   C34 1334   3.884  -0.467   4.615
   27DPPC   O35 1335   3.762  -0.483   4.607
   27DPPC   C36 1336   3.976  -0.589   4.606
   27DPPC   C37 1337   4.024  -0.637   4.469
   27DPPC   C38 1338   4.107  -0.527   4.403
   27DPPC   C39 1339   4.146  -0.574   4.263
   27DPPC   C40 1340   4.255  -0.473   4.224
   27DPPC   C41 1341   4.312  -0.512   4.087
   27DPPC   C42 1342   4.397  -0.396   4.034
   27DPPC   C43 1343   4.469  -0.436   3.905
   27DPPC   C44 1344   4.566  -0.328   3.856
   27DPPC   C45 1345   4.625  -0.383   3.725
   27DPPC   C46 1346   4.523  -0.370   3.612
   27DPPC   C47 1347   4.590  -0.425   3.486
   27DPPC   C48 1348   4.505  -0.424   3.359
   27DPPC   C49 1349   4.613  -0.472   3.263
   27DPPC   C50 1350   4.632  -0.624   3.251
   28DPPC    C1 1351   8.748   2.453   5.441
   28DPPC    C2 1352   8.806   2.455   5.670
   28DPPC    C3 1353   8.754   2.659   5.559
   28DPPC    N4 1354   8.718   2.517   5.570
   28DPPC    C5 1355   8.588   2.463   5.613
   28DPPC    C6 1356   8.463   2.527   5.552
   28DPPC    O7 1357   8.416   2.620   5.650
   28DPPC    P8 1358   8.289   2.708   5.605
   28DPPC    O9 1359   8.300   2.824   5.696
   28DPPC   O10 1360   8.183   2.605   5.611
   28DPPC   O11 1361   8.361   2.736   5.464
   28DPPC   C12 1362   8.265   2.761   5.361
   28DPPC   C13 1363   8.339   2.825   5.243
   28DPPC   O14 1364   8.254   2.884   5.143
   28DPPC   C15 1365   8.292   3.000   5.083
   28DPPC   O16 1366   8.408   3.039   5.098
   28DPPC   C17 1367   8.203   3.048   4.968
   28DPPC   C18 1368   8.063   3.087   5.016
   28DPPC   C19 1369   7.955   3.090   4.908
   28DPPC   C20 1370   7.987   3.188   4.796
   28DPPC   C21 1371   7.899   3.163   4.673
   28DPPC   C22 1372   7.933   3.270   4.570
   28DPPC   C23 1373   7.848   3.231   4.449
   28DPPC   C24 1374   7.842   3.351   4.355
   28DPPC   C25 1375   7.789   3.314   4.216
   28DPPC   C26 1376   7.839   3.423   4.121
   28DPPC   C27 1377   7.772   3.413   3.984
   28DPPC   C28 1378   7.791   3.543   3.905
   28DPPC   C29 1379   7.679   3.556   3.802
   28DPPC   C30 1380   7.702   3.677   3.711
   28DPPC   C31 1381   7.594   3.672   3.602
   28DPPC   C32 1382   8.438   2.720   5.192
   28DPPC   O33 1383   8.374   2.599   5.153
   28DPPC   C34 1384   8.447   2.492   5.109
   28DPPC   O35 1385   8.562   2.477   5.150
   28DPPC   C36 1386   8.368   2.375   5.049
   28DPPC   C37 1387   8.342   2.396   4.900
   28DPPC   C38 1388   8.235   2.501   4.869
   28DPPC   C39 1389   8.218   2.511   4.718
   28DPPC   C40 1390   8.128   2.629   4.680
   28DPPC   C41 1391   8.098   2.635   4.530
   28DPPC   C42 1392   8.028   2.769   4.506
   28DPPC   C43 1393   7.980   2.788   4.362
   28DPPC   C44 1394   8.051   2.907   4.298
   28DPPC   C45 1395   8.021   2.929   4.149
   28DPPC   C46 1396   8.074   3.063   4.096
   28DPPC   C47 1397   8.038   3.052   3.947
   28DPPC   C48 1398   8.069   3.188   3.885
   28DPPC   C49 1399   8.013   3.182   3.743
   28DPPC   C50 1400   8.051   3.299   3.652
   29DPPC    C1 1401   0.549   4.779   5.144
   29DPPC    C2 1402   0.486   4.690   4.944
   29DPPC    C3 1403   0.321   4.783   5.043
   29DPPC    N4 1404   0.465   4.809   5.028
   29DPPC    C5 1405   0.504   4.928   4.951
   29DPPC    C6 1406   0.482   5.061   5.023
   29DPPC    O7 1407   0.549   5.166   4.953
   29DPPC    P8 1408   0.497   5.310   5.004
   29DPPC    O9 1409   0.606   5.355   5.094
   29DPPC   O10 1410   0.367   5.279   5.067
   29DPPC   O11 1411   0.514   5.381   4.861
   29DPPC   C12 1412   0.425   5.329   4.762
   29DPPC   C13 1413   0.448   5.393   4.626
   29DPPC   O14 1414   0.345   5.355   4.533
   29DPPC   C15 1415   0.237   5.435   4.512
   29DPPC   O16 1416   0.215   5.535   4.580
   29DPPC   C17 1417   0.151   5.408   4.388
   29DPPC   C18 1418   0.228   5.447   4.262
   29DPPC   C19 1419   0.157   5.386   4.141
   29DPPC   C20 1420   0.255   5.371   4.024
   29DPPC   C21 1421   0.187   5.348   3.889
   29DPPC   C22 1422   0.071   5.443   3.858
   29DPPC   C23 1423  -0.017   5.417   3.736
   29DPPC   C24 1424  -0.098   5.537   3.687
   29DPPC   C25 1425  -0.159   5.535   3.547
   29DPPC   C26 1426  -0.281   5.444   3.531
   29DPPC   C27 1427  -0.362   5.455   3.402
   29DPPC   C28 1428  -0.486   5.365   3.391
   29DPPC   C29 1429  -0.554   5.385   3.256
   29DPPC   C30 1430  -0.613   5.526   3.266
   29DPPC   C31 1431  -0.694   5.571   3.144
   29DPPC   C32 1432   0.592   5.358   4.588
   29DPPC   O33 1433   0.630   5.220   4.584
   29DPPC   C34 1434   0.757   5.199   4.542
   29DPPC   O35 1435   0.821   5.294   4.495
   29DPPC   C36 1436   0.810   5.057   4.562
   29DPPC   C37 1437   0.894   5.020   4.440
   29DPPC   C38 1438   0.979   4.894   4.451
   29DPPC   C39 1439   1.068   4.876   4.328
   29DPPC   C40 1440   0.995   4.866   4.194
   29DPPC   C41 1441   1.091   4.831   4.080
   29DPPC   C42 1442   1.022   4.855   3.945
   29DPPC   C43 1443   1.112   4.842   3.822
   29DPPC   C44 1444   1.039   4.879   3.693
   29DPPC   C45 1445   1.120   4.855   3.565
   29DPPC   C46 1446   1.049   4.928   3.451
   29DPPC   C47 1447   1.119   4.902   3.318
   29DPPC   C48 1448   1.072   4.992   3.204
   29DPPC   C49 1449   1.166   4.981   3.084
   29DPPC   C50 1450   1.120   5.062   2.963
   30DPPC    C1 1451   6.835   1.892   6.025
   30DPPC    C2 1452   7.019   1.870   5.865
   30DPPC    C3 1453   6.823   1.945   5.782
   30DPPC    N4 1454   6.901   1.947   5.906
   30DPPC    C5 1455   6.955   2.082   5.930
   30DPPC    C6 1456   6.858   2.183   5.991
   30DPPC    O7 1457   6.914   2.315   5.999
   30DPPC    P8 1458   6.816   2.414   5.918
   30DPPC    O9 1459   6.863   2.552   5.941
   30DPPC   O10 1460   6.673   2.385   5.941
   30DPPC   O11 1461   6.845   2.379   5.764
   30DPPC   C12 1462   6.800   2.494   5.692
   30DPPC   C13 1463   6.876   2.499   5.560
   30DPPC   O14 1464   6.831   2.595   5.463
   30DPPC   C15 1465   6.909   2.706   5.452
   30DPPC   O16 1466   6.987   2.743   5.540
   30DPPC   C17 1467   6.882   2.793   5.328
   30DPPC   C18 1468   6.824   2.933   5.351
   30DPPC   C19 1469   6.805   3.019   5.227
   30DPPC   C20 1470   6.939   3.076   5.179
   30DPPC   C21 1471   6.927   3.146   5.043
   30DPPC   C22 1472   7.057   3.220   5.010
   30DPPC   C23 1473   7.030   3.311   4.890
   30DPPC   C24 1474   6.906   3.400   4.905
   30DPPC   C25 1475   6.912   3.486   4.779
   30DPPC   C26 1476   6.980   3.618   4.816
   30DPPC   C27 1477   7.013   3.692   4.686
   30DPPC   C28 1478   6.891   3.724   4.600
   30DPPC   C29 1479   6.812   3.828   4.679
   30DPPC   C30 1480   6.661   3.805   4.665
   30DPPC   C31 1481   6.625   3.821   4.518
   30DPPC   C32 1482   6.870   2.361   5.493
   30DPPC   O33 1483   6.948   2.336   5.376
   30DPPC   C34 1484   6.972   2.208   5.336
   30DPPC   O35 1485   6.881   2.137   5.378
   30DPPC   C36 1486   7.095   2.176   5.251
   30DPPC   C37 1487   7.064   2.150   5.104
   30DPPC   C38 1488   7.040   2.274   5.016
   30DPPC   C39 1489   7.041   2.235   4.868
   30DPPC   C40 1490   7.019   2.362   4.786
   30DPPC   C41 1491   6.985   2.317   4.644
   30DPPC   C42 1492   6.876   2.413   4.595
   30DPPC   C43 1493   6.846   2.421   4.445
   30DPPC   C44 1494   6.728   2.515   4.422
   30DPPC   C45 1495   6.714   2.544   4.272
   30DPPC   C46 1496   6.587   2.622   4.241
   30DPPC   C47 1497   6.572   2.740   4.337
   30DPPC   C48 1498   6.458   2.834   4.298
   30DPPC   C49 1499   6.466   2.957   4.390
   30DPPC   C50 1500   6.357   3.050   4.338
   31DPPC    C1 1501   6.008   7.057   5.153
   31DPPC    C2 1502   6.142   7.053   4.955
   31DPPC    C3 1503   6.227   7.079   5.183
   31DPPC    N4 1504   6.134   7.007   5.095
   31DPPC    C5 1505   6.146   6.864   5.127
   31DPPC    C6 1506   6.082   6.759   5.037
   31DPPC    O7 1507   5.940   6.771   5.043
   31DPPC    P8 1508   5.858   6.693   5.157
   31DPPC    O9 1509   5.847   6.792   5.267
   31DPPC   O10 1510   5.941   6.574   5.187
   31DPPC   O11 1511   5.717   6.664   5.086
   31DPPC   C12 1512   5.746   6.597   4.963
   31DPPC   C13 1513   5.653   6.480   4.930
   31DPPC   O14 1514   5.692   6.397   4.819
   31DPPC   C15 1515   5.683   6.264   4.843
   31DPPC   O16 1516   5.712   6.230   4.958
   31DPPC   C17 1517   5.699   6.175   4.719
   31DPPC   C18 1518   5.563   6.147   4.656
   31DPPC   C19 1519   5.593   6.106   4.511
   31DPPC   C20 1520   5.473   6.099   4.417
   31DPPC   C21 1521   5.516   6.046   4.280
   31DPPC   C22 1522   5.386   6.014   4.206
   31DPPC   C23 1523   5.295   6.137   4.204
   31DPPC   C24 1524   5.184   6.112   4.103
   31DPPC   C25 1525   5.104   6.242   4.089
   31DPPC   C26 1526   5.031   6.233   3.955
   31DPPC   C27 1527   4.986   6.377   3.928
   31DPPC   C28 1528   4.881   6.412   4.034
   31DPPC   C29 1529   4.809   6.541   3.992
   31DPPC   C30 1530   4.693   6.564   4.088
   31DPPC   C31 1531   4.754   6.603   4.223
   31DPPC   C32 1532   5.513   6.541   4.929
   31DPPC   O33 1533   5.495   6.643   4.831
   31DPPC   C34 1534   5.385   6.723   4.835
   31DPPC   O35 1535   5.290   6.692   4.907
   31DPPC   C36 1536   5.393   6.842   4.740
   31DPPC   C37 1537   5.356   6.806   4.596
   31DPPC   C38 1538   5.372   6.932   4.511
   31DPPC   C39 1539   5.335   6.884   4.370
   31DPPC   C40 1540   5.356   6.987   4.259
   31DPPC   C41 1541   5.481   7.069   4.289
   31DPPC   C42 1542   5.503   7.173   4.179
   31DPPC   C43 1543   5.643   7.236   4.175
   31DPPC   C44 1544   5.673   7.335   4.287
   31DPPC   C45 1545   5.575   7.451   4.264
   31DPPC   C46 1546   5.596   7.551   4.378
   31DPPC   C47 1547   5.544   7.497   4.511
   31DPPC   C48 1548   5.399   7.450   4.500
   31DPPC   C49 1549   5.330   7.466   4.635
   31DPPC   C50 1550   5.198   7.388   4.640
   32DPPC    C1 1551   1.144   7.575   4.698
   32DPPC    C2 1552   1.027   7.780   4.680
   32DPPC    C3 1553   1.012   7.601   4.513
   32DPPC    N4 1554   1.017   7.635   4.656
   32DPPC    C5 1555   0.913   7.565   4.733
   32DPPC    C6 1556   0.781   7.636   4.761
   32DPPC    O7 1557   0.707   7.661   4.641
   32DPPC    P8 1558   0.595   7.775   4.662
   32DPPC    O9 1559   0.665   7.905   4.670
   32DPPC   O10 1560   0.493   7.735   4.761
   32DPPC   O11 1561   0.534   7.753   4.514
   32DPPC   C12 1562   0.630   7.792   4.417
   32DPPC   C13 1563   0.596   7.734   4.279
   32DPPC   O14 1564   0.693   7.752   4.174
   32DPPC   C15 1565   0.670   7.669   4.070
   32DPPC   O16 1566   0.615   7.562   4.095
   32DPPC   C17 1567   0.736   7.698   3.935
   32DPPC   C18 1568   0.849   7.600   3.906
   32DPPC   C19 1569   0.930   7.630   3.780
   32DPPC   C20 1570   1.080   7.637   3.808
   32DPPC   C21 1571   1.168   7.651   3.684
   32DPPC   C22 1572   1.146   7.533   3.589
   32DPPC   C23 1573   1.240   7.532   3.469
   32DPPC   C24 1574   1.212   7.425   3.363
   32DPPC   C25 1575   1.217   7.292   3.439
   32DPPC   C26 1576   1.192   7.183   3.335
   32DPPC   C27 1577   1.051   7.202   3.278
   32DPPC   C28 1578   1.013   7.087   3.184
   32DPPC   C29 1579   1.003   6.956   3.263
   32DPPC   C30 1580   0.871   6.951   3.340
   32DPPC   C31 1581   0.862   6.805   3.387
   32DPPC   C32 1582   0.455   7.782   4.244
   32DPPC   O33 1583   0.447   7.920   4.208
   32DPPC   C34 1584   0.320   7.962   4.183
   32DPPC   O35 1585   0.226   7.883   4.172
   32DPPC   C36 1586   0.300   8.113   4.166
   32DPPC   C37 1587   0.196   8.157   4.063
   32DPPC   C38 1588   0.209   8.306   4.033
   32DPPC   C39 1589   0.086   8.339   3.948
   32DPPC   C40 1590   0.093   8.483   3.895
   32DPPC   C41 1591   0.037   8.497   3.753
   32DPPC   C42 1592   0.032   8.641   3.704
   32DPPC   C43 1593   0.013   8.652   3.552
   32DPPC   C44 1594  -0.122   8.603   3.501
   32DPPC   C45 1595  -0.112   8.620   3.350
   32DPPC   C46 1596  -0.242   8.593   3.273
   32DPPC   C47 1597  -0.220   8.608   3.122
   32DPPC   C48 1598  -0.345   8.568   3.042
   32DPPC   C49 1599  -0.327   8.549   2.892
   32DPPC   C50 1600  -0.217   8.443   2.880
   33DPPC    C1 1601   2.357   2.323   5.213
   33DPPC    C2 1602   2.238   2.511   5.170
   33DPPC    C3 1603   2.354   2.418   4.987
   33DPPC    N4 1604   2.276   2.384   5.107
   33DPPC    C5 1605   2.166   2.302   5.053
   33DPPC    C6 1606   2.053   2.254   5.144
   33DPPC    O7 1607   1.938   2.194   5.084
   33DPPC    P8 1608   1.814   2.293   5.056
   33DPPC    O9 1609   1.838   2.398   5.157
   33DPPC   O10 1610   1.696   2.204   5.053
   33DPPC   O11 1611   1.856   2.348   4.911
   33DPPC   C12 1612   1.812   2.260   4.807
   33DPPC   C13 1613   1.824   2.325   4.669
   33DPPC   O14 1614   1.749   2.254   4.568
   33DPPC   C15 1615   1.626   2.309   4.548
   33DPPC   O16 1616   1.603   2.415   4.605
   33DPPC   C17 1617   1.549   2.263   4.424
   33DPPC   C18 1618   1.471   2.374   4.352
   33DPPC   C19 1619   1.413   2.345   4.214
   33DPPC   C20 1620   1.332   2.464   4.163
   33DPPC   C21 1621   1.248   2.430   4.039
   33DPPC   C22 1622   1.147   2.317   4.059
   33DPPC   C23 1623   1.074   2.307   3.925
   33DPPC   C24 1624   1.169   2.262   3.814
   33DPPC   C25 1625   1.084   2.262   3.687
   33DPPC   C26 1626   1.157   2.176   3.584
   33DPPC   C27 1627   1.301   2.225   3.604
   33DPPC   C28 1628   1.393   2.153   3.505
   33DPPC   C29 1629   1.544   2.162   3.525
   33DPPC   C30 1630   1.616   2.078   3.418
   33DPPC   C31 1631   1.701   2.155   3.316
   33DPPC   C32 1632   1.975   2.334   4.647
   33DPPC   O33 1633   2.054   2.215   4.659
   33DPPC   C34 1634   2.189   2.229   4.650
   33DPPC   O35 1635   2.237   2.341   4.668
   33DPPC   C36 1636   2.286   2.122   4.600
   33DPPC   C37 1637   2.214   1.997   4.548
   33DPPC   C38 1638   2.195   2.005   4.396
   33DPPC   C39 1639   2.145   1.871   4.341
   33DPPC   C40 1640   2.140   1.874   4.189
   33DPPC   C41 1641   2.124   1.734   4.129
   33DPPC   C42 1642   2.117   1.751   3.977
   33DPPC   C43 1643   2.244   1.826   3.935
   33DPPC   C44 1644   2.260   1.825   3.782
   33DPPC   C45 1645   2.179   1.947   3.738
   33DPPC   C46 1646   2.213   1.984   3.593
   33DPPC   C47 1647   2.138   2.105   3.536
   33DPPC   C48 1648   2.189   2.143   3.397
   33DPPC   C49 1649   2.091   2.251   3.350
   33DPPC   C50 1650   2.107   2.275   3.199
   34DPPC    C1 1651   2.988   4.358   5.395
   34DPPC    C2 1652   2.910   4.491   5.233
   34DPPC    C3 1653   2.922   4.600   5.445
   34DPPC    N4 1654   2.987   4.500   5.358
   34DPPC    C5 1655   3.120   4.553   5.326
   34DPPC    C6 1656   3.222   4.538   5.439
   34DPPC    O7 1657   3.328   4.630   5.414
   34DPPC    P8 1658   3.431   4.621   5.537
   34DPPC    O9 1659   3.354   4.618   5.664
   34DPPC   O10 1660   3.563   4.687   5.528
   34DPPC   O11 1661   3.455   4.463   5.517
   34DPPC   C12 1662   3.557   4.437   5.419
   34DPPC   C13 1663   3.621   4.299   5.422
   34DPPC   O14 1664   3.716   4.261   5.321
   34DPPC   C15 1665   3.840   4.315   5.327
   34DPPC   O16 1666   3.868   4.410   5.400
   34DPPC   C17 1667   3.951   4.263   5.235
   34DPPC   C18 1668   3.988   4.338   5.106
   34DPPC   C19 1669   3.870   4.355   5.011
   34DPPC   C20 1670   3.896   4.443   4.889
   34DPPC   C21 1671   3.767   4.484   4.818
   34DPPC   C22 1672   3.795   4.550   4.684
   34DPPC   C23 1673   3.847   4.453   4.578
   34DPPC   C24 1674   3.890   4.536   4.457
   34DPPC   C25 1675   3.938   4.446   4.342
   34DPPC   C26 1676   4.074   4.489   4.288
   34DPPC   C27 1677   4.144   4.376   4.212
   34DPPC   C28 1678   4.277   4.431   4.160
   34DPPC   C29 1679   4.350   4.340   4.061
   34DPPC   C30 1680   4.498   4.372   4.034
   34DPPC   C31 1681   4.509   4.511   3.970
   34DPPC   C32 1682   3.503   4.204   5.448
   34DPPC   O33 1683   3.398   4.203   5.350
   34DPPC   C34 1684   3.307   4.103   5.354
   34DPPC   O35 1685   3.273   4.074   5.469
   34DPPC   C36 1686   3.228   4.085   5.224
   34DPPC   C37 1687   3.229   3.938   5.181
   34DPPC   C38 1688   3.169   3.942   5.040
   34DPPC   C39 1689   3.274   3.992   4.941
   34DPPC   C40 1690   3.218   3.982   4.799
   34DPPC   C41 1691   3.302   3.894   4.707
   34DPPC   C42 1692   3.213   3.855   4.589
   34DPPC   C43 1693   3.310   3.804   4.482
   34DPPC   C44 1694   3.252   3.788   4.341
   34DPPC   C45 1695   3.363   3.722   4.260
   34DPPC   C46 1696   3.318   3.715   4.113
   34DPPC   C47 1697   3.335   3.852   4.048
   34DPPC   C48 1698   3.302   3.845   3.899
   34DPPC   C49 1699   3.349   3.977   3.837
   34DPPC   C50 1700   3.339   3.970   3.684
   35DPPC    C1 1701   1.508   2.674   1.348
   35DPPC    C2 1702   1.409   2.877   1.434
   35DPPC    C3 1703   1.472   2.695   1.580
   35DPPC    N4 1704   1.507   2.770   1.459
   35DPPC    C5 1705   1.642   2.827   1.471
   35DPPC    C6 1706   1.700   2.904   1.352
   35DPPC    O7 1707   1.817   2.978   1.387
   35DPPC    P8 1708   1.817   3.112   1.299
   35DPPC    O9 1709   1.737   3.096   1.176
   35DPPC   O10 1710   1.932   3.205   1.309
   35DPPC   O11 1711   1.695   3.174   1.384
   35DPPC   C12 1712   1.750   3.237   1.501
   35DPPC   C13 1713   1.625   3.299   1.563
   35DPPC   O14 1714   1.656   3.415   1.642
   35DPPC   C15 1715   1.723   3.520   1.588
   35DPPC   O16 1716   1.705   3.539   1.468
   35DPPC   C17 1717   1.776   3.624   1.688
   35DPPC   C18 1718   1.664   3.664   1.784
   35DPPC   C19 1719   1.727   3.692   1.921
   35DPPC   C20 1720   1.628   3.741   2.027
   35DPPC   C21 1721   1.707   3.754   2.157
   35DPPC   C22 1722   1.612   3.779   2.275
   35DPPC   C23 1723   1.695   3.807   2.401
   35DPPC   C24 1724   1.598   3.872   2.500
   35DPPC   C25 1725   1.675   3.970   2.589
   35DPPC   C26 1726   1.577   4.059   2.666
   35DPPC   C27 1727   1.517   3.972   2.777
   35DPPC   C28 1728   1.423   4.053   2.867
   35DPPC   C29 1729   1.385   3.965   2.986
   35DPPC   C30 1730   1.314   4.052   3.090
   35DPPC   C31 1731   1.402   4.173   3.121
   35DPPC   C32 1732   1.542   3.198   1.643
   35DPPC   O33 1733   1.622   3.098   1.707
   35DPPC   C34 1734   1.550   3.001   1.768
   35DPPC   O35 1735   1.438   2.971   1.725
   35DPPC   C36 1736   1.623   2.908   1.865
   35DPPC   C37 1737   1.727   2.979   1.952
   35DPPC   C38 1738   1.656   3.084   2.037
   35DPPC   C39 1739   1.759   3.137   2.137
   35DPPC   C40 1740   1.692   3.246   2.222
   35DPPC   C41 1741   1.729   3.252   2.370
   35DPPC   C42 1742   1.638   3.363   2.424
   35DPPC   C43 1743   1.632   3.360   2.576
   35DPPC   C44 1744   1.538   3.460   2.643
   35DPPC   C45 1745   1.539   3.452   2.796
   35DPPC   C46 1746   1.453   3.575   2.828
   35DPPC   C47 1747   1.308   3.532   2.805
   35DPPC   C48 1748   1.214   3.652   2.790
   35DPPC   C49 1749   1.072   3.595   2.785
   35DPPC   C50 1750   1.017   3.546   2.919
   36DPPC    C1 1751   6.184   6.357   1.703
   36DPPC    C2 1752   6.345   6.358   1.863
   36DPPC    C3 1753   6.361   6.520   1.679
   36DPPC    N4 1754   6.273   6.450   1.774
   36DPPC    C5 1755   6.196   6.542   1.860
   36DPPC    C6 1756   6.114   6.658   1.802
   36DPPC    O7 1757   6.187   6.765   1.742
   36DPPC    P8 1758   6.075   6.878   1.717
   36DPPC    O9 1759   5.949   6.806   1.687
   36DPPC   O10 1760   6.132   6.975   1.621
   36DPPC   O11 1761   6.065   6.936   1.867
   36DPPC   C12 1762   6.196   6.957   1.921
   36DPPC   C13 1763   6.211   7.030   2.055
   36DPPC   O14 1764   6.341   7.003   2.109
   36DPPC   C15 1765   6.434   7.100   2.087
   36DPPC   O16 1766   6.431   7.180   1.993
   36DPPC   C17 1767   6.568   7.096   2.160
   36DPPC   C18 1768   6.528   7.090   2.308
   36DPPC   C19 1769   6.653   7.082   2.395
   36DPPC   C20 1770   6.626   7.095   2.545
   36DPPC   C21 1771   6.742   7.092   2.645
   36DPPC   C22 1772   6.690   7.108   2.788
   36DPPC   C23 1773   6.809   7.096   2.882
   36DPPC   C24 1774   6.782   7.153   3.021
   36DPPC   C25 1775   6.906   7.217   3.084
   36DPPC   C26 1776   6.867   7.280   3.218
   36DPPC   C27 1777   6.793   7.177   3.305
   36DPPC   C28 1778   6.725   7.228   3.432
   36DPPC   C29 1779   6.817   7.292   3.536
   36DPPC   C30 1780   6.745   7.337   3.663
   36DPPC   C31 1781   6.857   7.389   3.753
   36DPPC   C32 1782   6.092   6.975   2.133
   36DPPC   O33 1783   6.048   7.056   2.242
   36DPPC   C34 1784   5.969   7.005   2.340
   36DPPC   O35 1785   5.903   6.905   2.312
   36DPPC   C36 1786   5.948   7.083   2.470
   36DPPC   C37 1787   6.069   7.063   2.562
   36DPPC   C38 1788   6.052   7.111   2.706
   36DPPC   C39 1789   5.938   7.033   2.770
   36DPPC   C40 1790   5.989   7.012   2.913
   36DPPC   C41 1791   5.873   6.961   2.998
   36DPPC   C42 1792   5.893   6.959   3.150
   36DPPC   C43 1793   5.805   6.853   3.218
   36DPPC   C44 1794   5.840   6.845   3.367
   36DPPC   C45 1795   5.729   6.783   3.452
   36DPPC   C46 1796   5.787   6.746   3.588
   36DPPC   C47 1797   5.687   6.799   3.692
   36DPPC   C48 1798   5.699   6.717   3.821
   36DPPC   C49 1799   5.616   6.788   3.928
   36DPPC   C50 1800   5.656   6.718   4.057
   37DPPC    C1 1801   8.502   3.015   1.579
   37DPPC    C2 1802   8.581   3.003   1.360
   37DPPC    C3 1803   8.390   3.133   1.389
   37DPPC    N4 1804   8.515   3.093   1.455
   37DPPC    C5 1805   8.609   3.204   1.473
   37DPPC    C6 1806   8.558   3.313   1.567
   37DPPC    O7 1807   8.652   3.421   1.573
   37DPPC    P8 1808   8.579   3.547   1.641
   37DPPC    O9 1809   8.474   3.486   1.725
   37DPPC   O10 1810   8.546   3.613   1.512
   37DPPC   O11 1811   8.707   3.614   1.712
   37DPPC   C12 1812   8.729   3.537   1.830
   37DPPC   C13 1813   8.793   3.612   1.947
   37DPPC   O14 1814   8.850   3.530   2.050
   37DPPC   C15 1815   8.958   3.450   2.027
   37DPPC   O16 1816   9.014   3.454   1.917
   37DPPC   C17 1817   9.009   3.361   2.140
   37DPPC   C18 1818   9.110   3.253   2.101
   37DPPC   C19 1819   9.143   3.176   2.230
   37DPPC   C20 1820   9.221   3.053   2.185
   37DPPC   C21 1821   9.245   2.947   2.293
   37DPPC   C22 1822   9.350   2.850   2.240
   37DPPC   C23 1823   9.378   2.757   2.358
   37DPPC   C24 1824   9.445   2.817   2.482
   37DPPC   C25 1825   9.589   2.860   2.457
   37DPPC   C26 1826   9.661   2.894   2.587
   37DPPC   C27 1827   9.706   2.777   2.674
   37DPPC   C28 1828   9.737   2.827   2.815
   37DPPC   C29 1829   9.754   2.710   2.912
   37DPPC   C30 1830   9.817   2.729   3.051
   37DPPC   C31 1831   9.725   2.814   3.138
   37DPPC   C32 1832   8.686   3.714   1.987
   37DPPC   O33 1833   8.564   3.648   2.021
   37DPPC   C34 1834   8.457   3.702   1.958
   37DPPC   O35 1835   8.464   3.773   1.857
   37DPPC   C36 1836   8.316   3.660   2.000
   37DPPC   C37 1837   8.307   3.657   2.152
   37DPPC   C38 1838   8.358   3.784   2.222
   37DPPC   C39 1839   8.300   3.813   2.360
   37DPPC   C40 1840   8.344   3.703   2.456
   37DPPC   C41 1841   8.256   3.706   2.581
   37DPPC   C42 1842   8.345   3.635   2.685
   37DPPC   C43 1843   8.298   3.652   2.830
   37DPPC   C44 1844   8.416   3.598   2.911
   37DPPC   C45 1845   8.396   3.636   3.058
   37DPPC   C46 1846   8.513   3.579   3.138
   37DPPC   C47 1847   8.514   3.617   3.286
   37DPPC   C48 1848   8.624   3.544   3.363
   37DPPC   C49 1849   8.732   3.648   3.392
   37DPPC   C50 1850   8.856   3.572   3.440
   38DPPC    C1 1851   3.461   4.251   1.401
   38DPPC    C2 1852   3.457   4.485   1.341
   38DPPC    C3 1853   3.277   4.352   1.275
   38DPPC    N4 1854   3.376   4.369   1.382
   38DPPC    C5 1855   3.298   4.412   1.499
   38DPPC    C6 1856   3.205   4.316   1.574
   38DPPC    O7 1857   3.277   4.212   1.641
   38DPPC    P8 1858   3.174   4.098   1.688
   38DPPC    O9 1859   3.243   3.997   1.771
   38DPPC   O10 1860   3.107   4.061   1.561
   38DPPC   O11 1861   3.076   4.192   1.775
   38DPPC   C12 1862   3.115   4.200   1.913
   38DPPC   C13 1863   3.213   4.314   1.937
   38DPPC   O14 1864   3.290   4.287   2.055
   38DPPC   C15 1865   3.381   4.370   2.111
   38DPPC   O16 1866   3.440   4.457   2.046
   38DPPC   C17 1867   3.425   4.320   2.249
   38DPPC   C18 1868   3.422   4.436   2.349
   38DPPC   C19 1869   3.484   4.392   2.481
   38DPPC   C20 1870   3.479   4.513   2.575
   38DPPC   C21 1871   3.542   4.470   2.707
   38DPPC   C22 1872   3.464   4.366   2.788
   38DPPC   C23 1873   3.523   4.312   2.918
   38DPPC   C24 1874   3.568   4.430   3.005
   38DPPC   C25 1875   3.451   4.522   3.040
   38DPPC   C26 1876   3.514   4.628   3.132
   38DPPC   C27 1877   3.409   4.735   3.161
   38DPPC   C28 1878   3.464   4.848   3.249
   38DPPC   C29 1879   3.366   4.965   3.252
   38DPPC   C30 1880   3.415   5.066   3.356
   38DPPC   C31 1881   3.300   5.162   3.387
   38DPPC   C32 1882   3.139   4.448   1.927
   38DPPC   O33 1883   3.028   4.457   2.016
   38DPPC   C34 1884   2.968   4.579   2.025
   38DPPC   O35 1885   3.015   4.688   1.992
   38DPPC   C36 1886   2.844   4.570   2.115
   38DPPC   C37 1887   2.859   4.543   2.265
   38DPPC   C38 1888   2.763   4.433   2.309
   38DPPC   C39 1889   2.815   4.370   2.438
   38DPPC   C40 1890   2.708   4.272   2.489
   38DPPC   C41 1891   2.757   4.179   2.600
   38DPPC   C42 1892   2.820   4.248   2.721
   38DPPC   C43 1893   2.836   4.156   2.842
   38DPPC   C44 1894   2.900   4.246   2.948
   38DPPC   C45 1895   3.053   4.254   2.939
   38DPPC   C46 1896   3.104   4.348   3.048
   38DPPC   C47 1897   3.070   4.295   3.188
   38DPPC   C48 1898   3.136   4.385   3.293
   38DPPC   C49 1899   3.070   4.523   3.283
   38DPPC   C50 1900   3.102   4.616   3.400
   39DPPC    C1 1901   4.261   7.986   1.914
   39DPPC    C2 1902   4.342   8.004   1.682
   39DPPC    C3 1903   4.298   7.792   1.798
   39DPPC    N4 1904   4.256   7.931   1.777
   39DPPC    C5 1905   4.123   7.933   1.717
   39DPPC    C6 1906   4.031   8.054   1.734
   39DPPC    O7 1907   3.902   8.034   1.675
   39DPPC    P8 1908   3.783   8.112   1.750
   39DPPC    O9 1909   3.670   8.127   1.656
   39DPPC   O10 1910   3.830   8.241   1.807
   39DPPC   O11 1911   3.743   7.999   1.858
   39DPPC   C12 1912   3.601   7.994   1.871
   39DPPC   C13 1913   3.546   7.938   2.003
   39DPPC   O14 1914   3.404   7.947   2.019
   39DPPC   C15 1915   3.341   7.828   2.032
   39DPPC   O16 1916   3.384   7.736   1.962
   39DPPC   C17 1917   3.198   7.840   2.084
   39DPPC   C18 1918   3.153   7.705   2.141
   39DPPC   C19 1919   3.002   7.705   2.168
   39DPPC   C20 1920   2.941   7.575   2.221
   39DPPC   C21 1921   2.808   7.602   2.292
   39DPPC   C22 1922   2.767   7.472   2.361
   39DPPC   C23 1923   2.624   7.492   2.413
   39DPPC   C24 1924   2.531   7.532   2.298
   39DPPC   C25 1925   2.395   7.572   2.355
   39DPPC   C26 1926   2.332   7.461   2.439
   39DPPC   C27 1927   2.186   7.444   2.396
   39DPPC   C28 1928   2.105   7.323   2.444
   39DPPC   C29 1929   1.959   7.338   2.399
   39DPPC   C30 1930   1.939   7.349   2.248
   39DPPC   C31 1931   1.792   7.337   2.207
   39DPPC   C32 1932   3.641   8.004   2.104
   39DPPC   O33 1933   3.632   8.146   2.116
   39DPPC   C34 1934   3.693   8.192   2.228
   39DPPC   O35 1935   3.781   8.129   2.286
   39DPPC   C36 1936   3.661   8.330   2.286
   39DPPC   C37 1937   3.534   8.336   2.371
   39DPPC   C38 1938   3.560   8.260   2.502
   39DPPC   C39 1939   3.433   8.253   2.587
   39DPPC   C40 1940   3.438   8.210   2.734
   39DPPC   C41 1941   3.311   8.240   2.814
   39DPPC   C42 1942   3.292   8.164   2.946
   39DPPC   C43 1943   3.156   8.204   3.004
   39DPPC   C44 1944   3.161   8.172   3.153
   39DPPC   C45 1945   3.038   8.236   3.218
   39DPPC   C46 1946   2.992   8.162   3.344
   39DPPC   C47 1947   2.867   8.229   3.402
   39DPPC   C48 1948   2.809   8.147   3.518
   39DPPC   C49 1949   2.884   8.172   3.649
   39DPPC   C50 1950   2.841   8.080   3.764
   40DPPC    C1 1951   3.192   7.147   2.099
   40DPPC    C2 1952   3.311   7.053   1.931
   40DPPC    C3 1953   3.283   6.933   2.142
   40DPPC    N4 1954   3.218   7.016   2.040
   40DPPC    C5 1955   3.095   6.955   1.989
   40DPPC    C6 1956   3.086   6.857   1.871
   40DPPC    O7 1957   3.170   6.743   1.891
   40DPPC    P8 1958   3.144   6.625   1.785
   40DPPC    O9 1959   3.258   6.532   1.799
   40DPPC   O10 1960   3.085   6.654   1.653
   40DPPC   O11 1961   3.026   6.574   1.883
   40DPPC   C12 1962   3.091   6.485   1.975
   40DPPC   C13 1963   3.006   6.453   2.098
   40DPPC   O14 1964   2.900   6.365   2.058
   40DPPC   C15 1965   2.925   6.232   2.040
   40DPPC   O16 1966   3.034   6.175   2.030
   40DPPC   C17 1967   2.793   6.156   2.035
   40DPPC   C18 1968   2.729   6.155   2.174
   40DPPC   C19 1969   2.594   6.084   2.171
   40DPPC   C20 1970   2.547   6.065   2.315
   40DPPC   C21 1971   2.536   6.190   2.403
   40DPPC   C22 1972   2.489   6.149   2.543
   40DPPC   C23 1973   2.488   6.263   2.645
   40DPPC   C24 1974   2.429   6.214   2.777
   40DPPC   C25 1975   2.421   6.334   2.872
   40DPPC   C26 1976   2.314   6.428   2.816
   40DPPC   C27 1977   2.271   6.507   2.940
   40DPPC   C28 1978   2.198   6.421   3.042
   40DPPC   C29 1979   2.250   6.415   3.186
   40DPPC   C30 1980   2.193   6.316   3.287
   40DPPC   C31 1981   2.217   6.355   3.433
   40DPPC   C32 1982   2.958   6.584   2.160
   40DPPC   O33 1983   3.031   6.613   2.280
   40DPPC   C34 1984   3.017   6.743   2.318
   40DPPC   O35 1985   2.985   6.837   2.246
   40DPPC   C36 1986   3.062   6.774   2.461
   40DPPC   C37 1987   3.022   6.914   2.509
   40DPPC   C38 1988   3.056   6.926   2.658
   40DPPC   C39 1989   2.925   6.952   2.733
   40DPPC   C40 1990   2.948   6.967   2.884
   40DPPC   C41 1991   2.802   6.997   2.919
   40DPPC   C42 1992   2.789   7.054   3.061
   40DPPC   C43 1993   2.861   6.958   3.156
   40DPPC   C44 1994   2.855   7.021   3.295
   40DPPC   C45 1995   2.711   7.062   3.329
   40DPPC   C46 1996   2.695   7.112   3.473
   40DPPC   C47 1997   2.559   7.179   3.490
   40DPPC   C48 1998   2.551   7.252   3.625
   40DPPC   C49 1999   2.415   7.316   3.653
   40DPPC   C50 2000   2.375   7.432   3.562
   41DPPC    C1 2001   3.148   5.712   1.772
   41DPPC    C2 2002   3.039   5.905   1.801
   41DPPC    C3 2003   3.267   5.905   1.725
   41DPPC    N4 2004   3.135   5.844   1.708
   41DPPC    C5 2005   3.104   5.832   1.564
   41DPPC    C6 2006   3.002   5.737   1.502
   41DPPC    O7 2007   2.864   5.760   1.533
   41DPPC    P8 2008   2.769   5.687   1.425
   41DPPC    O9 2009   2.851   5.665   1.304
   41DPPC   O10 2010   2.646   5.768   1.422
   41DPPC   O11 2011   2.743   5.544   1.495
   41DPPC   C12 2012   2.650   5.543   1.604
   41DPPC   C13 2013   2.580   5.410   1.631
   41DPPC   O14 2014   2.454   5.409   1.700
   41DPPC   C15 2015   2.335   5.462   1.660
   41DPPC   O16 2016   2.341   5.532   1.559
   41DPPC   C17 2017   2.230   5.472   1.771
   41DPPC   C18 2018   2.223   5.332   1.832
   41DPPC   C19 2019   2.113   5.323   1.937
   41DPPC   C20 2020   2.100   5.194   2.018
   41DPPC   C21 2021   1.965   5.208   2.088
   41DPPC   C22 2022   1.919   5.074   2.146
   41DPPC   C23 2023   1.794   5.106   2.229
   41DPPC   C24 2024   1.724   4.985   2.291
   41DPPC   C25 2025   1.612   5.021   2.389
   41DPPC   C26 2026   1.561   4.888   2.446
   41DPPC   C27 2027   1.470   4.930   2.561
   41DPPC   C28 2028   1.565   5.003   2.656
   41DPPC   C29 2029   1.493   5.038   2.786
   41DPPC   C30 2030   1.592   5.063   2.899
   41DPPC   C31 2031   1.522   5.066   3.035
   41DPPC   C32 2032   2.687   5.327   1.703
   41DPPC   O33 2033   2.765   5.408   1.792
   41DPPC   C34 2034   2.870   5.342   1.846
   41DPPC   O35 2035   2.913   5.230   1.819
   41DPPC   C36 2036   2.941   5.415   1.960
   41DPPC   C37 2037   2.923   5.319   2.078
   41DPPC   C38 2038   2.991   5.372   2.205
   41DPPC   C39 2039   2.970   5.287   2.331
   41DPPC   C40 2040   3.073   5.318   2.440
   41DPPC   C41 2041   3.025   5.222   2.550
   41DPPC   C42 2042   3.113   5.226   2.675
   41DPPC   C43 2043   3.237   5.138   2.663
   41DPPC   C44 2044   3.320   5.162   2.790
   41DPPC   C45 2045   3.432   5.058   2.788
   41DPPC   C46 2046   3.519   5.068   2.662
   41DPPC   C47 2047   3.620   4.953   2.667
   41DPPC   C48 2048   3.742   4.996   2.586
   41DPPC   C49 2049   3.823   5.110   2.649
   41DPPC   C50 2050   3.944   5.132   2.557
   42DPPC    C1 2051   1.991   4.451   1.795
   42DPPC    C2 2052   2.132   4.480   1.593
   42DPPC    C3 2053   2.133   4.283   1.713
   42DPPC    N4 2054   2.044   4.392   1.671
   42DPPC    C5 2055   1.939   4.336   1.584
   42DPPC    C6 2056   1.824   4.430   1.548
   42DPPC    O7 2057   1.852   4.531   1.450
   42DPPC    P8 2058   1.717   4.616   1.432
   42DPPC    O9 2059   1.600   4.527   1.416
   42DPPC   O10 2060   1.751   4.715   1.328
   42DPPC   O11 2061   1.730   4.682   1.579
   42DPPC   C12 2062   1.801   4.806   1.571
   42DPPC   C13 2063   1.840   4.857   1.709
   42DPPC   O14 2064   1.951   4.797   1.778
   42DPPC   C15 2065   2.078   4.828   1.743
   42DPPC   O16 2066   2.107   4.876   1.633
   42DPPC   C17 2067   2.182   4.791   1.849
   42DPPC   C18 2068   2.143   4.821   1.994
   42DPPC   C19 2069   2.056   4.707   2.046
   42DPPC   C20 2070   2.056   4.692   2.199
   42DPPC   C21 2071   1.984   4.560   2.227
   42DPPC   C22 2072   1.986   4.557   2.379
   42DPPC   C23 2073   1.935   4.429   2.444
   42DPPC   C24 2074   1.915   4.464   2.592
   42DPPC   C25 2075   1.871   4.340   2.669
   42DPPC   C26 2076   1.868   4.371   2.819
   42DPPC   C27 2077   1.826   4.258   2.914
   42DPPC   C28 2078   1.817   4.304   3.059
   42DPPC   C29 2079   1.954   4.354   3.106
   42DPPC   C30 2080   1.953   4.399   3.252
   42DPPC   C31 2081   1.897   4.541   3.252
   42DPPC   C32 2082   1.713   4.874   1.793
   42DPPC   O33 2083   1.646   4.998   1.768
   42DPPC   C34 2084   1.546   5.010   1.859
   42DPPC   O35 2085   1.497   4.911   1.913
   42DPPC   C36 2086   1.486   5.148   1.886
   42DPPC   C37 2087   1.426   5.162   2.026
   42DPPC   C38 2088   1.401   5.307   2.068
   42DPPC   C39 2089   1.274   5.360   2.000
   42DPPC   C40 2090   1.226   5.478   2.084
   42DPPC   C41 2091   1.090   5.443   2.146
   42DPPC   C42 2092   1.076   5.534   2.268
   42DPPC   C43 2093   0.964   5.494   2.365
   42DPPC   C44 2094   0.974   5.581   2.491
   42DPPC   C45 2095   0.891   5.513   2.601
   42DPPC   C46 2096   0.881   5.588   2.734
   42DPPC   C47 2097   0.771   5.529   2.822
   42DPPC   C48 2098   0.774   5.610   2.952
   42DPPC   C49 2099   0.658   5.594   3.050
   42DPPC   C50 2100   0.681   5.674   3.178
   43DPPC    C1 2101   1.728   6.462   1.594
   43DPPC    C2 2102   1.505   6.539   1.585
   43DPPC    C3 2103   1.688   6.663   1.687
   43DPPC    N4 2104   1.645   6.581   1.573
   43DPPC    C5 2105   1.699   6.639   1.449
   43DPPC    C6 2106   1.612   6.747   1.384
   43DPPC    O7 2107   1.582   6.851   1.477
   43DPPC    P8 2108   1.449   6.927   1.429
   43DPPC    O9 2109   1.388   6.869   1.307
   43DPPC   O10 2110   1.473   7.073   1.434
   43DPPC   O11 2111   1.368   6.876   1.558
   43DPPC   C12 2112   1.264   6.963   1.604
   43DPPC   C13 2113   1.193   6.905   1.726
   43DPPC   O14 2114   1.137   7.004   1.816
   43DPPC   C15 2115   1.003   7.001   1.835
   43DPPC   O16 2116   0.931   6.964   1.743
   43DPPC   C17 2117   0.960   7.087   1.954
   43DPPC   C18 2118   1.011   7.231   1.944
   43DPPC   C19 2119   0.955   7.310   2.062
   43DPPC   C20 2120   1.035   7.439   2.074
   43DPPC   C21 2121   0.963   7.529   2.174
   43DPPC   C22 2122   0.944   7.452   2.305
   43DPPC   C23 2123   0.863   7.530   2.408
   43DPPC   C24 2124   0.880   7.454   2.539
   43DPPC   C25 2125   1.026   7.448   2.584
   43DPPC   C26 2126   1.014   7.396   2.728
   43DPPC   C27 2127   1.142   7.337   2.787
   43DPPC   C28 2128   1.248   7.434   2.841
   43DPPC   C29 2129   1.359   7.364   2.920
   43DPPC   C30 2130   1.467   7.463   2.964
   43DPPC   C31 2131   1.569   7.400   3.059
   43DPPC   C32 2132   1.296   6.817   1.796
   43DPPC   O33 2133   1.267   6.724   1.901
   43DPPC   C34 2134   1.361   6.656   1.971
   43DPPC   O35 2135   1.464   6.613   1.918
   43DPPC   C36 2136   1.313   6.576   2.092
   43DPPC   C37 2137   1.315   6.657   2.222
   43DPPC   C38 2138   1.232   6.570   2.317
   43DPPC   C39 2139   1.181   6.657   2.432
   43DPPC   C40 2140   1.098   6.771   2.372
   43DPPC   C41 2141   1.027   6.858   2.475
   43DPPC   C42 2142   0.910   6.932   2.410
   43DPPC   C43 2143   0.814   6.995   2.511
   43DPPC   C44 2144   0.768   6.910   2.629
   43DPPC   C45 2145   0.683   7.008   2.710
   43DPPC   C46 2146   0.751   7.081   2.826
   43DPPC   C47 2147   0.648   7.152   2.914
   43DPPC   C48 2148   0.733   7.236   3.010
   43DPPC   C49 2149   0.650   7.354   3.058
   43DPPC   C50 2150   0.620   7.449   2.941
   44DPPC    C1 2151   4.936   1.652   1.405
   44DPPC    C2 2152   4.723   1.735   1.372
   44DPPC    C3 2153   4.810   1.737   1.586
   44DPPC    N4 2154   4.847   1.761   1.446
   44DPPC    C5 2155   4.916   1.890   1.430
   44DPPC    C6 2156   4.836   2.020   1.449
   44DPPC    O7 2157   4.785   2.046   1.580
   44DPPC    P8 2158   4.765   2.206   1.584
   44DPPC    O9 2159   4.656   2.226   1.683
   44DPPC   O10 2160   4.738   2.258   1.448
   44DPPC   O11 2161   4.912   2.244   1.638
   44DPPC   C12 2162   4.924   2.214   1.777
   44DPPC   C13 2163   5.072   2.185   1.800
   44DPPC   O14 2164   5.101   2.104   1.915
   44DPPC   C15 2165   5.222   2.042   1.918
   44DPPC   O16 2166   5.276   2.035   1.808
   44DPPC   C17 2167   5.262   1.958   2.040
   44DPPC   C18 2168   5.414   1.964   2.057
   44DPPC   C19 2169   5.441   1.927   2.203
   44DPPC   C20 2170   5.593   1.928   2.226
   44DPPC   C21 2171   5.635   1.910   2.372
   44DPPC   C22 2172   5.786   1.907   2.400
   44DPPC   C23 2173   5.816   1.888   2.549
   44DPPC   C24 2174   5.757   1.763   2.614
   44DPPC   C25 2175   5.772   1.763   2.766
   44DPPC   C26 2176   5.897   1.693   2.819
   44DPPC   C27 2177   5.881   1.660   2.967
   44DPPC   C28 2178   5.981   1.549   3.003
   44DPPC   C29 2179   5.982   1.508   3.150
   44DPPC   C30 2180   6.099   1.411   3.167
   44DPPC   C31 2181   6.112   1.362   3.311
   44DPPC   C32 2182   5.132   2.326   1.803
   44DPPC   O33 2183   5.067   2.417   1.892
   44DPPC   C34 2184   5.117   2.543   1.899
   44DPPC   O35 2185   5.208   2.584   1.827
   44DPPC   C36 2186   5.047   2.631   2.003
   44DPPC   C37 2187   5.126   2.756   2.041
   44DPPC   C38 2188   5.226   2.708   2.146
   44DPPC   C39 2189   5.154   2.690   2.280
   44DPPC   C40 2190   5.264   2.643   2.375
   44DPPC   C41 2191   5.198   2.609   2.509
   44DPPC   C42 2192   5.312   2.579   2.607
   44DPPC   C43 2193   5.254   2.507   2.729
   44DPPC   C44 2194   5.367   2.481   2.828
   44DPPC   C45 2195   5.314   2.425   2.960
   44DPPC   C46 2196   5.423   2.437   3.067
   44DPPC   C47 2197   5.378   2.351   3.186
   44DPPC   C48 2198   5.489   2.381   3.287
   44DPPC   C49 2199   5.618   2.346   3.213
   44DPPC   C50 2200   5.734   2.332   3.312
   45DPPC    C1 2201   0.267   4.279   1.289
   45DPPC    C2 2202   0.307   4.340   1.064
   45DPPC    C3 2203   0.486   4.314   1.218
   45DPPC    N4 2204   0.357   4.257   1.175
   45DPPC    C5 2205   0.374   4.114   1.144
   45DPPC    C6 2206   0.398   4.021   1.263
   45DPPC    O7 2207   0.535   3.985   1.286
   45DPPC    P8 2208   0.543   3.883   1.410
   45DPPC    O9 2209   0.689   3.860   1.408
   45DPPC   O10 2210   0.441   3.783   1.369
   45DPPC   O11 2211   0.492   3.956   1.543
   45DPPC   C12 2212   0.604   3.976   1.629
   45DPPC   C13 2213   0.581   4.076   1.743
   45DPPC   O14 2214   0.676   4.071   1.850
   45DPPC   C15 2215   0.773   4.167   1.847
   45DPPC   O16 2216   0.837   4.185   1.744
   45DPPC   C17 2217   0.825   4.189   1.989
   45DPPC   C18 2218   0.726   4.282   2.060
   45DPPC   C19 2219   0.755   4.303   2.209
   45DPPC   C20 2220   0.649   4.400   2.261
   45DPPC   C21 2221   0.685   4.495   2.375
   45DPPC   C22 2222   0.570   4.596   2.385
   45DPPC   C23 2223   0.435   4.532   2.415
   45DPPC   C24 2224   0.322   4.635   2.409
   45DPPC   C25 2225   0.216   4.560   2.490
   45DPPC   C26 2226   0.098   4.657   2.497
   45DPPC   C27 2227   0.001   4.604   2.603
   45DPPC   C28 2228   0.077   4.559   2.728
   45DPPC   C29 2229  -0.009   4.515   2.847
   45DPPC   C30 2230   0.073   4.480   2.971
   45DPPC   C31 2231  -0.001   4.388   3.068
   45DPPC   C32 2232   0.437   4.055   1.789
   45DPPC   O33 2233   0.399   4.164   1.874
   45DPPC   C34 2234   0.271   4.159   1.920
   45DPPC   O35 2235   0.190   4.082   1.869
   45DPPC   C36 2236   0.241   4.258   2.033
   45DPPC   C37 2237   0.144   4.195   2.133
   45DPPC   C38 2238   0.159   4.273   2.263
   45DPPC   C39 2239   0.065   4.214   2.369
   45DPPC   C40 2240   0.100   4.073   2.417
   45DPPC   C41 2241  -0.002   4.027   2.521
   45DPPC   C42 2242  -0.027   4.101   2.653
   45DPPC   C43 2243  -0.126   4.011   2.727
   45DPPC   C44 2244  -0.063   3.871   2.726
   45DPPC   C45 2245  -0.172   3.773   2.772
   45DPPC   C46 2246  -0.220   3.812   2.912
   45DPPC   C47 2247  -0.317   3.714   2.979
   45DPPC   C48 2248  -0.458   3.715   2.919
   45DPPC   C49 2249  -0.531   3.584   2.947
   45DPPC   C50 2250  -0.662   3.567   2.869
   46DPPC    C1 2251   9.385   1.702   1.185
   46DPPC    C2 2252   9.390   1.758   1.401
   46DPPC    C3 2253   9.597   1.748   1.263
   46DPPC    N4 2254   9.458   1.792   1.275
   46DPPC    C5 2255   9.444   1.932   1.233
   46DPPC    C6 2256   9.426   2.054   1.324
   46DPPC    O7 2257   9.309   2.062   1.406
   46DPPC    P8 2258   9.302   2.207   1.476
   46DPPC    O9 2259   9.166   2.235   1.529
   46DPPC   O10 2260   9.383   2.303   1.399
   46DPPC   O11 2261   9.397   2.179   1.603
   46DPPC   C12 2262   9.331   2.108   1.708
   46DPPC   C13 2263   9.436   2.090   1.817
   46DPPC   O14 2264   9.422   1.970   1.895
   46DPPC   C15 2265   9.475   1.857   1.841
   46DPPC   O16 2266   9.511   1.848   1.724
   46DPPC   C17 2267   9.475   1.737   1.936
   46DPPC   C18 2268   9.408   1.754   2.073
   46DPPC   C19 2269   9.357   1.623   2.133
   46DPPC   C20 2270   9.305   1.651   2.274
   46DPPC   C21 2271   9.260   1.520   2.340
   46DPPC   C22 2272   9.179   1.536   2.469
   46DPPC   C23 2273   9.139   1.396   2.515
   46DPPC   C24 2274   9.041   1.373   2.630
   46DPPC   C25 2275   9.088   1.431   2.764
   46DPPC   C26 2276   8.998   1.374   2.874
   46DPPC   C27 2277   8.977   1.483   2.978
   46DPPC   C28 2278   9.115   1.503   3.040
   46DPPC   C29 2279   9.099   1.581   3.171
   46DPPC   C30 2280   8.996   1.517   3.264
   46DPPC   C31 2281   8.991   1.589   3.400
   46DPPC   C32 2282   9.443   2.223   1.890
   46DPPC   O33 2283   9.325   2.261   1.961
   46DPPC   C34 2284   9.325   2.385   2.016
   46DPPC   O35 2285   9.424   2.454   1.989
   46DPPC   C36 2286   9.196   2.437   2.080
   46DPPC   C37 2287   9.183   2.381   2.221
   46DPPC   C38 2288   9.107   2.498   2.285
   46DPPC   C39 2289   9.084   2.466   2.432
   46DPPC   C40 2290   8.947   2.402   2.459
   46DPPC   C41 2291   8.926   2.352   2.602
   46DPPC   C42 2292   8.800   2.266   2.614
   46DPPC   C43 2293   8.767   2.221   2.756
   46DPPC   C44 2294   8.640   2.137   2.777
   46DPPC   C45 2295   8.609   2.121   2.926
   46DPPC   C46 2296   8.467   2.129   2.983
   46DPPC   C47 2297   8.454   2.113   3.135
   46DPPC   C48 2298   8.542   2.225   3.192
   46DPPC   C49 2299   8.529   2.218   3.344
   46DPPC   C50 2300   8.643   2.298   3.407
   47DPPC    C1 2301   7.710   2.002   1.218
   47DPPC    C2 2302   7.725   1.833   1.054
   47DPPC    C3 2303   7.776   1.786   1.282
   47DPPC    N4 2304   7.685   1.860   1.193
   47DPPC    C5 2305   7.543   1.822   1.193
   47DPPC    C6 2306   7.484   1.761   1.321
   47DPPC    O7 2307   7.475   1.837   1.442
   47DPPC    P8 2308   7.457   1.753   1.578
   47DPPC    O9 2309   7.409   1.623   1.526
   47DPPC   O10 2310   7.376   1.833   1.672
   47DPPC   O11 2311   7.614   1.750   1.609
   47DPPC   C12 2312   7.654   1.694   1.735
   47DPPC   C13 2313   7.785   1.748   1.793
   47DPPC   O14 2314   7.852   1.659   1.883
   47DPPC   C15 2315   7.913   1.549   1.831
   47DPPC   O16 2316   7.937   1.534   1.712
   47DPPC   C17 2317   7.939   1.436   1.931
   47DPPC   C18 2318   7.845   1.318   1.906
   47DPPC   C19 2319   7.842   1.237   2.036
   47DPPC   C20 2320   7.792   1.318   2.156
   47DPPC   C21 2321   7.654   1.377   2.126
   47DPPC   C22 2322   7.607   1.448   2.252
   47DPPC   C23 2323   7.679   1.580   2.278
   47DPPC   C24 2324   7.589   1.655   2.376
   47DPPC   C25 2325   7.451   1.692   2.320
   47DPPC   C26 2326   7.376   1.766   2.431
   47DPPC   C27 2327   7.380   1.703   2.571
   47DPPC   C28 2328   7.315   1.801   2.669
   47DPPC   C29 2329   7.298   1.727   2.802
   47DPPC   C30 2330   7.207   1.798   2.902
   47DPPC   C31 2331   7.191   1.731   3.039
   47DPPC   C32 2332   7.746   1.885   1.851
   47DPPC   O33 2333   7.617   1.890   1.913
   47DPPC   C34 2334   7.561   2.006   1.955
   47DPPC   O35 2335   7.613   2.118   1.947
   47DPPC   C36 2336   7.435   1.977   2.037
   47DPPC   C37 2337   7.418   2.044   2.173
   47DPPC   C38 2338   7.270   2.055   2.207
   47DPPC   C39 2339   7.242   2.129   2.338
   47DPPC   C40 2340   7.103   2.095   2.391
   47DPPC   C41 2341   7.072   1.948   2.419
   47DPPC   C42 2342   6.940   1.931   2.494
   47DPPC   C43 2343   6.951   1.790   2.554
   47DPPC   C44 2344   6.827   1.786   2.643
   47DPPC   C45 2345   6.819   1.675   2.748
   47DPPC   C46 2346   6.756   1.732   2.874
   47DPPC   C47 2347   6.792   1.641   2.992
   47DPPC   C48 2348   6.749   1.688   3.131
   47DPPC   C49 2349   6.831   1.812   3.165
   47DPPC   C50 2350   6.819   1.834   3.316
   48DPPC    C1 2351   8.631   0.477   0.788
   48DPPC    C2 2352   8.455   0.509   0.638
   48DPPC    C3 2353   8.540   0.287   0.667
   48DPPC    N4 2354   8.509   0.413   0.735
   48DPPC    C5 2355   8.425   0.398   0.854
   48DPPC    C6 2356   8.351   0.271   0.896
   48DPPC    O7 2357   8.317   0.290   1.034
   48DPPC    P8 2358   8.237   0.156   1.074
   48DPPC    O9 2359   8.299   0.039   1.007
   48DPPC   O10 2360   8.095   0.187   1.045
   48DPPC   O11 2361   8.267   0.167   1.232
   48DPPC   C12 2362   8.405   0.165   1.271
   48DPPC   C13 2363   8.407   0.209   1.418
   48DPPC   O14 2364   8.530   0.212   1.492
   48DPPC   C15 2365   8.616   0.317   1.481
   48DPPC   O16 2366   8.593   0.394   1.389
   48DPPC   C17 2367   8.751   0.325   1.553
   48DPPC   C18 2368   8.742   0.246   1.684
   48DPPC   C19 2369   8.881   0.253   1.747
   48DPPC   C20 2370   8.895   0.194   1.887
   48DPPC   C21 2371   8.808   0.267   1.990
   48DPPC   C22 2372   8.833   0.193   2.122
   48DPPC   C23 2373   8.733   0.078   2.106
   48DPPC   C24 2374   8.724  -0.016   2.225
   48DPPC   C25 2375   8.707   0.064   2.354
   48DPPC   C26 2376   8.691  -0.027   2.476
   48DPPC   C27 2377   8.545  -0.072   2.486
   48DPPC   C28 2378   8.497  -0.140   2.614
   48DPPC   C29 2379   8.370  -0.224   2.596
   48DPPC   C30 2380   8.309  -0.280   2.725
   48DPPC   C31 2381   8.208  -0.386   2.679
   48DPPC   C32 2382   8.297   0.128   1.485
   48DPPC   O33 2383   8.273   0.134   1.626
   48DPPC   C34 2384   8.206   0.242   1.671
   48DPPC   O35 2385   8.190   0.335   1.592
   48DPPC   C36 2386   8.161   0.248   1.817
   48DPPC   C37 2387   8.270   0.272   1.922
   48DPPC   C38 2388   8.202   0.285   2.058
   48DPPC   C39 2389   8.315   0.306   2.158
   48DPPC   C40 2390   8.265   0.299   2.303
   48DPPC   C41 2391   8.200   0.429   2.348
   48DPPC   C42 2392   8.166   0.414   2.496
   48DPPC   C43 2393   8.143   0.552   2.558
   48DPPC   C44 2394   8.091   0.555   2.702
   48DPPC   C45 2395   8.086   0.702   2.744
   48DPPC   C46 2396   8.063   0.729   2.893
   48DPPC   C47 2397   8.171   0.657   2.974
   48DPPC   C48 2398   8.177   0.686   3.125
   48DPPC   C49 2399   8.215   0.831   3.152
   48DPPC   C50 2400   8.223   0.848   3.304
   49DPPC    C1 2401   4.320   7.309   2.183
   49DPPC    C2 2402   4.253   7.320   2.421
   49DPPC    C3 2403   4.280   7.509   2.289
   49DPPC    N4 2404   4.233   7.370   2.284
   49DPPC    C5 2405   4.095   7.374   2.232
   49DPPC    C6 2406   4.025   7.241   2.202
   49DPPC    O7 2407   3.896   7.264   2.146
   49DPPC    P8 2408   3.849   7.170   2.024
   49DPPC    O9 2409   3.968   7.176   1.936
   49DPPC   O10 2410   3.724   7.240   1.986
   49DPPC   O11 2411   3.850   7.043   2.122
   49DPPC   C12 2412   3.724   6.975   2.119
   49DPPC   C13 2413   3.720   6.847   2.204
   49DPPC   O14 2414   3.604   6.764   2.193
   49DPPC   C15 2415   3.587   6.689   2.081
   49DPPC   O16 2416   3.665   6.690   1.986
   49DPPC   C17 2417   3.474   6.586   2.092
   49DPPC   C18 2418   3.533   6.464   2.163
   49DPPC   C19 2419   3.427   6.357   2.191
   49DPPC   C20 2420   3.325   6.399   2.297
   49DPPC   C21 2421   3.215   6.293   2.307
   49DPPC   C22 2422   3.120   6.320   2.424
   49DPPC   C23 2423   2.994   6.233   2.415
   49DPPC   C24 2424   3.014   6.081   2.417
   49DPPC   C25 2425   2.885   6.012   2.463
   49DPPC   C26 2426   2.897   5.861   2.443
   49DPPC   C27 2427   2.799   5.773   2.521
   49DPPC   C28 2428   2.829   5.624   2.501
   49DPPC   C29 2429   2.731   5.541   2.585
   49DPPC   C30 2430   2.744   5.540   2.737
   49DPPC   C31 2431   2.754   5.396   2.787
   49DPPC   C32 2432   3.763   6.899   2.341
   49DPPC   O33 2433   3.663   6.985   2.397
   49DPPC   C34 2434   3.690   7.034   2.521
   49DPPC   O35 2435   3.790   7.006   2.587
   49DPPC   C36 2436   3.564   7.093   2.585
   49DPPC   C37 2437   3.561   7.243   2.557
   49DPPC   C38 2438   3.449   7.307   2.640
   49DPPC   C39 2439   3.405   7.440   2.579
   49DPPC   C40 2440   3.297   7.506   2.666
   49DPPC   C41 2441   3.166   7.428   2.659
   49DPPC   C42 2442   3.052   7.479   2.748
   49DPPC   C43 2443   2.931   7.387   2.728
   49DPPC   C44 2444   2.803   7.460   2.769
   49DPPC   C45 2445   2.807   7.500   2.917
   49DPPC   C46 2446   2.671   7.557   2.958
   49DPPC   C47 2447   2.560   7.455   2.933
   49DPPC   C48 2448   2.424   7.511   2.977
   49DPPC   C49 2449   2.298   7.438   2.931
   49DPPC   C50 2450   2.301   7.420   2.780
   50DPPC    C1 2451   5.598   1.896   1.375
   50DPPC    C2 2452   5.647   1.710   1.214
   50DPPC    C3 2453   5.808   1.850   1.297
   50DPPC    N4 2454   5.683   1.783   1.337
   50DPPC    C5 2455   5.715   1.677   1.432
   50DPPC    C6 2456   5.608   1.619   1.525
   50DPPC    O7 2457   5.661   1.513   1.604
   50DPPC    P8 2458   5.538   1.412   1.627
   50DPPC    O9 2459   5.624   1.302   1.674
   50DPPC   O10 2460   5.470   1.401   1.495
   50DPPC   O11 2461   5.467   1.501   1.741
   50DPPC   C12 2462   5.524   1.465   1.867
   50DPPC   C13 2463   5.448   1.524   1.986
   50DPPC   O14 2464   5.497   1.482   2.114
   50DPPC   C15 2465   5.594   1.550   2.181
   50DPPC   O16 2466   5.669   1.628   2.122
   50DPPC   C17 2467   5.652   1.478   2.303
   50DPPC   C18 2468   5.559   1.500   2.422
   50DPPC   C19 2469   5.613   1.414   2.536
   50DPPC   C20 2470   5.529   1.422   2.663
   50DPPC   C21 2471   5.608   1.373   2.784
   50DPPC   C22 2472   5.549   1.402   2.922
   50DPPC   C23 2473   5.635   1.342   3.033
   50DPPC   C24 2474   5.569   1.380   3.166
   50DPPC   C25 2475   5.430   1.315   3.174
   50DPPC   C26 2476   5.346   1.382   3.282
   50DPPC   C27 2477   5.288   1.517   3.241
   50DPPC   C28 2478   5.198   1.594   3.338
   50DPPC   C29 2479   5.198   1.741   3.298
   50DPPC   C30 2480   5.125   1.818   3.408
   50DPPC   C31 2481   5.145   1.968   3.391
   50DPPC   C32 2482   5.298   1.511   1.960
   50DPPC   O33 2483   5.213   1.591   2.044
   50DPPC   C34 2484   5.186   1.549   2.170
   50DPPC   O35 2485   5.157   1.429   2.180
   50DPPC   C36 2486   5.104   1.657   2.241
   50DPPC   C37 2487   5.168   1.707   2.370
   50DPPC   C38 2488   5.101   1.829   2.433
   50DPPC   C39 2489   4.958   1.794   2.475
   50DPPC   C40 2490   4.908   1.933   2.516
   50DPPC   C41 2491   4.759   1.942   2.552
   50DPPC   C42 2492   4.727   1.836   2.658
   50DPPC   C43 2493   4.634   1.872   2.774
   50DPPC   C44 2494   4.617   1.749   2.862
   50DPPC   C45 2495   4.544   1.769   2.995
   50DPPC   C46 2496   4.525   1.632   3.061
   50DPPC   C47 2497   4.423   1.634   3.175
   50DPPC   C48 2498   4.490   1.708   3.291
   50DPPC   C49 2499   4.391   1.732   3.405
   50DPPC   C50 2500   4.445   1.803   3.529
   51DPPC    C1 2501   4.109   5.604   1.830
   51DPPC    C2 2502   4.308   5.720   1.824
   51DPPC    C3 2503   4.144   5.774   1.665
   51DPPC    N4 2504   4.163   5.738   1.807
   51DPPC    C5 2505   4.118   5.835   1.908
   51DPPC    C6 2506   3.972   5.878   1.893
   51DPPC    O7 2507   3.876   5.782   1.938
   51DPPC    P8 2508   3.730   5.830   1.889
   51DPPC    O9 2509   3.643   5.714   1.860
   51DPPC   O10 2510   3.732   5.929   1.779
   51DPPC   O11 2511   3.678   5.907   2.021
   51DPPC   C12 2512   3.688   5.818   2.132
   51DPPC   C13 2513   3.799   5.858   2.230
   51DPPC   O14 2514   3.833   5.751   2.319
   51DPPC   C15 2515   3.954   5.689   2.324
   51DPPC   O16 2516   4.043   5.697   2.240
   51DPPC   C17 2517   3.954   5.574   2.425
   51DPPC   C18 2518   3.995   5.629   2.562
   51DPPC   C19 2519   4.033   5.505   2.643
   51DPPC   C20 2520   4.067   5.569   2.778
   51DPPC   C21 2521   4.046   5.482   2.902
   51DPPC   C22 2522   4.125   5.352   2.882
   51DPPC   C23 2523   4.122   5.263   3.006
   51DPPC   C24 2524   4.183   5.124   2.982
   51DPPC   C25 2525   4.248   5.069   3.109
   51DPPC   C26 2526   4.306   4.928   3.101
   51DPPC   C27 2527   4.404   4.912   3.218
   51DPPC   C28 2528   4.483   4.783   3.194
   51DPPC   C29 2529   4.390   4.662   3.200
   51DPPC   C30 2530   4.471   4.534   3.181
   51DPPC   C31 2531   4.530   4.523   3.040
   51DPPC   C32 2532   3.772   5.997   2.288
   51DPPC   O33 2533   3.644   6.002   2.354
   51DPPC   C34 2534   3.607   6.115   2.419
   51DPPC   O35 2535   3.683   6.210   2.436
   51DPPC   C36 2536   3.468   6.120   2.484
   51DPPC   C37 2537   3.501   6.096   2.632
   51DPPC   C38 2538   3.379   6.073   2.721
   51DPPC   C39 2539   3.275   6.185   2.725
   51DPPC   C40 2540   3.165   6.173   2.831
   51DPPC   C41 2541   3.233   6.143   2.965
   51DPPC   C42 2542   3.135   6.157   3.081
   51DPPC   C43 2543   3.190   6.080   3.201
   51DPPC   C44 2544   3.148   6.139   3.336
   51DPPC   C45 2545   3.202   6.048   3.446
   51DPPC   C46 2546   3.139   6.098   3.576
   51DPPC   C47 2547   2.995   6.051   3.556
   51DPPC   C48 2548   2.909   6.109   3.669
   51DPPC   C49 2549   2.768   6.050   3.667
   51DPPC   C50 2550   2.705   6.109   3.793
   52DPPC    C1 2551   0.844   6.028   1.362
   52DPPC    C2 2552   0.898   6.102   1.572
   52DPPC    C3 2553   1.074   6.060   1.424
   52DPPC    N4 2554   0.939   6.117   1.432
   52DPPC    C5 2555   0.902   6.254   1.392
   52DPPC    C6 2556   0.990   6.366   1.446
   52DPPC    O7 2557   0.960   6.404   1.581
   52DPPC    P8 2558   1.068   6.492   1.661
   52DPPC    O9 2559   0.995   6.525   1.786
   52DPPC   O10 2560   1.118   6.597   1.569
   52DPPC   O11 2561   1.173   6.371   1.664
   52DPPC   C12 2562   1.148   6.293   1.782
   52DPPC   C13 2563   1.221   6.161   1.756
   52DPPC   O14 2564   1.164   6.062   1.842
   52DPPC   C15 2565   1.159   5.928   1.816
   52DPPC   O16 2566   1.210   5.881   1.714
   52DPPC   C17 2567   1.085   5.854   1.927
   52DPPC   C18 2568   0.940   5.816   1.894
   52DPPC   C19 2569   0.886   5.728   2.006
   52DPPC   C20 2570   0.737   5.708   1.982
   52DPPC   C21 2571   0.689   5.571   2.032
   52DPPC   C22 2572   0.681   5.565   2.185
   52DPPC   C23 2573   0.642   5.424   2.228
   52DPPC   C24 2574   0.613   5.408   2.377
   52DPPC   C25 2575   0.498   5.493   2.432
   52DPPC   C26 2576   0.468   5.475   2.580
   52DPPC   C27 2577   0.343   5.559   2.608
   52DPPC   C28 2578   0.297   5.546   2.753
   52DPPC   C29 2579   0.188   5.651   2.778
   52DPPC   C30 2580   0.161   5.643   2.928
   52DPPC   C31 2581   0.046   5.739   2.960
   52DPPC   C32 2582   1.371   6.185   1.771
   52DPPC   O33 2583   1.415   6.229   1.900
   52DPPC   C34 2584   1.545   6.246   1.934
   52DPPC   O35 2585   1.633   6.241   1.848
   52DPPC   C36 2586   1.566   6.309   2.072
   52DPPC   C37 2587   1.683   6.251   2.152
   52DPPC   C38 2588   1.676   6.099   2.136
   52DPPC   C39 2589   1.808   6.034   2.177
   52DPPC   C40 2590   1.827   6.062   2.326
   52DPPC   C41 2591   1.948   5.990   2.385
   52DPPC   C42 2592   2.018   6.079   2.488
   52DPPC   C43 2593   1.940   6.103   2.617
   52DPPC   C44 2594   1.899   5.968   2.676
   52DPPC   C45 2595   1.806   5.986   2.796
   52DPPC   C46 2596   1.769   5.847   2.847
   52DPPC   C47 2597   1.771   5.846   3.000
   52DPPC   C48 2598   1.903   5.905   3.049
   52DPPC   C49 2599   1.922   5.944   3.196
   52DPPC   C50 2600   2.070   5.982   3.200
   53DPPC    C1 2601   4.734   3.245   1.256
   53DPPC    C2 2602   4.517   3.155   1.327
   53DPPC    C3 2603   4.601   3.114   1.112
   53DPPC    N4 2604   4.641   3.131   1.252
   53DPPC    C5 2605   4.707   3.008   1.300
   53DPPC    C6 2606   4.756   3.006   1.445
   53DPPC    O7 2607   4.831   2.886   1.466
   53DPPC    P8 2608   4.788   2.842   1.615
   53DPPC    O9 2609   4.855   2.712   1.640
   53DPPC   O10 2610   4.643   2.865   1.631
   53DPPC   O11 2611   4.861   2.976   1.667
   53DPPC   C12 2612   4.959   2.960   1.770
   53DPPC   C13 2613   5.041   3.084   1.804
   53DPPC   O14 2614   5.158   3.058   1.882
   53DPPC   C15 2615   5.259   3.149   1.885
   53DPPC   O16 2616   5.255   3.251   1.816
   53DPPC   C17 2617   5.353   3.146   2.006
   53DPPC   C18 2618   5.272   3.122   2.133
   53DPPC   C19 2619   5.173   3.235   2.161
   53DPPC   C20 2620   5.081   3.207   2.280
   53DPPC   C21 2621   5.015   3.069   2.268
   53DPPC   C22 2622   4.963   3.020   2.403
   53DPPC   C23 2623   4.883   3.129   2.476
   53DPPC   C24 2624   4.869   3.096   2.625
   53DPPC   C25 2625   4.778   3.195   2.697
   53DPPC   C26 2626   4.783   3.157   2.846
   53DPPC   C27 2627   4.678   3.238   2.922
   53DPPC   C28 2628   4.686   3.199   3.070
   53DPPC   C29 2629   4.676   3.054   3.120
   53DPPC   C30 2630   4.672   3.052   3.273
   53DPPC   C31 2631   4.635   2.914   3.329
   53DPPC   C32 2632   4.946   3.197   1.845
   53DPPC   O33 2633   4.843   3.176   1.942
   53DPPC   C34 2634   4.761   3.283   1.961
   53DPPC   O35 2635   4.793   3.394   1.919
   53DPPC   C36 2636   4.632   3.248   2.035
   53DPPC   C37 2637   4.653   3.224   2.185
   53DPPC   C38 2638   4.513   3.199   2.241
   53DPPC   C39 2639   4.523   3.208   2.393
   53DPPC   C40 2640   4.400   3.160   2.470
   53DPPC   C41 2641   4.422   3.162   2.621
   53DPPC   C42 2642   4.288   3.137   2.689
   53DPPC   C43 2643   4.313   3.160   2.838
   53DPPC   C44 2644   4.190   3.106   2.911
   53DPPC   C45 2645   4.239   3.128   3.055
   53DPPC   C46 2646   4.133   3.095   3.160
   53DPPC   C47 2647   4.210   3.129   3.287
   53DPPC   C48 2648   4.149   3.075   3.417
   53DPPC   C49 2649   4.252   3.089   3.529
   53DPPC   C50 2650   4.200   3.017   3.654
   54DPPC    C1 2651   6.279   0.238   1.734
   54DPPC    C2 2652   6.214   0.168   1.516
   54DPPC    C3 2653   6.384   0.342   1.538
   54DPPC    N4 2654   6.327   0.219   1.596
   54DPPC    C5 2655   6.420   0.106   1.597
   54DPPC    C6 2656   6.559   0.124   1.658
   54DPPC    O7 2657   6.566   0.139   1.800
   54DPPC    P8 2658   6.696   0.220   1.850
   54DPPC    O9 2659   6.665   0.352   1.790
   54DPPC   O10 2660   6.805   0.129   1.810
   54DPPC   O11 2661   6.660   0.209   2.006
   54DPPC   C12 2662   6.537   0.280   2.025
   54DPPC   C13 2663   6.515   0.317   2.172
   54DPPC   O14 2664   6.591   0.436   2.202
   54DPPC   C15 2665   6.548   0.559   2.162
   54DPPC   O16 2666   6.443   0.573   2.100
   54DPPC   C17 2667   6.648   0.668   2.201
   54DPPC   C18 2668   6.709   0.648   2.339
   54DPPC   C19 2669   6.610   0.643   2.456
   54DPPC   C20 2670   6.660   0.616   2.598
   54DPPC   C21 2671   6.552   0.599   2.705
   54DPPC   C22 2672   6.606   0.574   2.845
   54DPPC   C23 2673   6.491   0.572   2.946
   54DPPC   C24 2674   6.525   0.550   3.093
   54DPPC   C25 2675   6.396   0.524   3.170
   54DPPC   C26 2676   6.300   0.643   3.158
   54DPPC   C27 2677   6.353   0.763   3.237
   54DPPC   C28 2678   6.234   0.851   3.276
   54DPPC   C29 2679   6.269   0.954   3.384
   54DPPC   C30 2680   6.168   0.959   3.499
   54DPPC   C31 2681   6.223   1.036   3.619
   54DPPC   C32 2682   6.549   0.187   2.245
   54DPPC   O33 2683   6.533   0.186   2.387
   54DPPC   C34 2684   6.557   0.064   2.442
   54DPPC   O35 2685   6.632  -0.007   2.376
   54DPPC   C36 2686   6.516   0.022   2.584
   54DPPC   C37 2687   6.533   0.130   2.691
   54DPPC   C38 2688   6.578   0.059   2.819
   54DPPC   C39 2689   6.583   0.169   2.926
   54DPPC   C40 2690   6.644   0.115   3.055
   54DPPC   C41 2691   6.655   0.223   3.162
   54DPPC   C42 2692   6.697   0.157   3.294
   54DPPC   C43 2693   6.706   0.258   3.409
   54DPPC   C44 2694   6.728   0.186   3.542
   54DPPC   C45 2695   6.740   0.281   3.662
   54DPPC   C46 2696   6.770   0.203   3.790
   54DPPC   C47 2697   6.753   0.291   3.914
   54DPPC   C48 2698   6.799   0.233   4.047
   54DPPC   C49 2699   6.948   0.199   4.055
   54DPPC   C50 2700   7.010   0.206   4.195
   55DPPC    C1 2701   0.306   7.117   1.681
   55DPPC    C2 2702   0.418   7.313   1.756
   55DPPC    C3 2703   0.451   7.221   1.531
   55DPPC    N4 2704   0.356   7.248   1.640
   55DPPC    C5 2705   0.242   7.334   1.602
   55DPPC    C6 2706   0.162   7.325   1.472
   55DPPC    O7 2707   0.065   7.429   1.460
   55DPPC    P8 2708  -0.012   7.422   1.319
   55DPPC    O9 2709   0.071   7.332   1.236
   55DPPC   O10 2710  -0.063   7.555   1.278
   55DPPC   O11 2711  -0.134   7.341   1.386
   55DPPC   C12 2712  -0.193   7.424   1.487
   55DPPC   C13 2713  -0.276   7.332   1.577
   55DPPC   O14 2714  -0.359   7.394   1.676
   55DPPC   C15 2715  -0.491   7.362   1.667
   55DPPC   O16 2716  -0.544   7.312   1.568
   55DPPC   C17 2717  -0.584   7.398   1.783
   55DPPC   C18 2718  -0.598   7.296   1.896
   55DPPC   C19 2719  -0.628   7.153   1.851
   55DPPC   C20 2720  -0.609   7.066   1.976
   55DPPC   C21 2721  -0.615   6.917   1.942
   55DPPC   C22 2722  -0.590   6.835   2.069
   55DPPC   C23 2723  -0.703   6.868   2.167
   55DPPC   C24 2724  -0.657   6.827   2.307
   55DPPC   C25 2725  -0.540   6.902   2.372
   55DPPC   C26 2726  -0.512   6.852   2.514
   55DPPC   C27 2727  -0.386   6.909   2.579
   55DPPC   C28 2728  -0.397   6.863   2.725
   55DPPC   C29 2729  -0.272   6.874   2.812
   55DPPC   C30 2730  -0.294   6.822   2.955
   55DPPC   C31 2731  -0.394   6.922   3.013
   55DPPC   C32 2732  -0.166   7.244   1.638
   55DPPC   O33 2733  -0.195   7.150   1.742
   55DPPC   C34 2734  -0.087   7.085   1.793
   55DPPC   O35 2735   0.023   7.084   1.739
   55DPPC   C36 2736  -0.116   6.978   1.899
   55DPPC   C37 2737  -0.169   7.040   2.028
   55DPPC   C38 2738  -0.082   7.148   2.093
   55DPPC   C39 2739  -0.143   7.171   2.232
   55DPPC   C40 2740  -0.290   7.214   2.225
   55DPPC   C41 2741  -0.331   7.226   2.372
   55DPPC   C42 2742  -0.226   7.297   2.457
   55DPPC   C43 2743  -0.262   7.315   2.605
   55DPPC   C44 2744  -0.150   7.392   2.674
   55DPPC   C45 2745  -0.156   7.379   2.826
   55DPPC   C46 2746  -0.139   7.232   2.866
   55DPPC   C47 2747  -0.124   7.217   3.017
   55DPPC   C48 2748  -0.253   7.275   3.076
   55DPPC   C49 2749  -0.256   7.233   3.223
   55DPPC   C50 2750  -0.155   7.308   3.310
   56DPPC    C1 2751   4.260   1.850   2.273
   56DPPC    C2 2752   4.311   1.796   2.496
   56DPPC    C3 2753   4.341   1.635   2.318
   56DPPC    N4 2754   4.355   1.776   2.357
   56DPPC    C5 2755   4.491   1.829   2.338
   56DPPC    C6 2756   4.568   1.796   2.210
   56DPPC    O7 2757   4.682   1.882   2.204
   56DPPC    P8 2758   4.736   1.893   2.053
   56DPPC    O9 2759   4.614   1.903   1.970
   56DPPC   O10 2760   4.842   1.793   2.029
   56DPPC   O11 2761   4.808   2.037   2.059
   56DPPC   C12 2762   4.878   2.053   2.182
   56DPPC   C13 2763   4.968   2.176   2.189
   56DPPC   O14 2764   5.063   2.167   2.296
   56DPPC   C15 2765   5.157   2.263   2.318
   56DPPC   O16 2766   5.172   2.355   2.238
   56DPPC   C17 2767   5.221   2.256   2.457
   56DPPC   C18 2768   5.371   2.232   2.435
   56DPPC   C19 2769   5.440   2.223   2.571
   56DPPC   C20 2770   5.418   2.099   2.657
   56DPPC   C21 2771   5.494   2.119   2.788
   56DPPC   C22 2772   5.484   2.006   2.890
   56DPPC   C23 2773   5.567   2.029   3.017
   56DPPC   C24 2774   5.593   1.902   3.097
   56DPPC   C25 2775   5.692   1.944   3.206
   56DPPC   C26 2776   5.709   1.814   3.285
   56DPPC   C27 2777   5.788   1.832   3.415
   56DPPC   C28 2778   5.704   1.917   3.510
   56DPPC   C29 2779   5.768   1.950   3.644
   56DPPC   C30 2780   5.658   1.978   3.747
   56DPPC   C31 2781   5.567   2.074   3.670
   56DPPC   C32 2782   4.878   2.300   2.177
   56DPPC   O33 2783   4.763   2.286   2.260
   56DPPC   C34 2784   4.662   2.375   2.239
   56DPPC   O35 2785   4.680   2.471   2.164
   56DPPC   C36 2786   4.519   2.337   2.279
   56DPPC   C37 2787   4.527   2.264   2.414
   56DPPC   C38 2788   4.394   2.210   2.465
   56DPPC   C39 2789   4.406   2.212   2.617
   56DPPC   C40 2790   4.447   2.354   2.658
   56DPPC   C41 2791   4.428   2.352   2.810
   56DPPC   C42 2792   4.535   2.264   2.874
   56DPPC   C43 2793   4.506   2.264   3.024
   56DPPC   C44 2794   4.587   2.166   3.109
   56DPPC   C45 2795   4.540   2.161   3.254
   56DPPC   C46 2796   4.544   2.303   3.312
   56DPPC   C47 2797   4.520   2.314   3.463
   56DPPC   C48 2798   4.503   2.458   3.511
   56DPPC   C49 2799   4.496   2.436   3.662
   56DPPC   C50 2800   4.618   2.367   3.723
   57DPPC    C1 2801   5.767   7.001   1.962
   57DPPC    C2 2802   5.576   6.883   2.017
   57DPPC    C3 2803   5.661   6.865   1.787
   57DPPC    N4 2804   5.694   6.877   1.930
   57DPPC    C5 2805   5.787   6.769   1.968
   57DPPC    C6 2806   5.738   6.624   1.956
   57DPPC    O7 2807   5.845   6.529   1.945
   57DPPC    P8 2808   5.786   6.388   1.896
   57DPPC    O9 2809   5.902   6.318   1.837
   57DPPC   O10 2810   5.665   6.416   1.817
   57DPPC   O11 2811   5.743   6.329   2.040
   57DPPC   C12 2812   5.867   6.301   2.106
   57DPPC   C13 2813   5.874   6.350   2.250
   57DPPC   O14 2814   6.001   6.304   2.301
   57DPPC   C15 2815   6.080   6.402   2.352
   57DPPC   O16 2816   6.023   6.511   2.347
   57DPPC   C17 2817   6.221   6.366   2.399
   57DPPC   C18 2818   6.226   6.319   2.544
   57DPPC   C19 2819   6.185   6.436   2.633
   57DPPC   C20 2820   6.164   6.398   2.780
   57DPPC   C21 2821   6.081   6.502   2.855
   57DPPC   C22 2822   6.067   6.455   3.000
   57DPPC   C23 2823   5.991   6.545   3.097
   57DPPC   C24 2824   6.020   6.508   3.243
   57DPPC   C25 2825   5.954   6.371   3.257
   57DPPC   C26 2826   5.971   6.304   3.394
   57DPPC   C27 2827   5.896   6.371   3.509
   57DPPC   C28 2828   5.908   6.291   3.638
   57DPPC   C29 2829   5.796   6.311   3.741
   57DPPC   C30 2830   5.816   6.260   3.884
   57DPPC   C31 2831   5.679   6.245   3.950
   57DPPC   C32 2832   5.756   6.293   2.329
   57DPPC   O33 2833   5.767   6.158   2.376
   57DPPC   C34 2834   5.649   6.096   2.401
   57DPPC   O35 2835   5.548   6.144   2.349
   57DPPC   C36 2836   5.655   5.959   2.468
   57DPPC   C37 2837   5.531   5.964   2.558
   57DPPC   C38 2838   5.545   5.868   2.676
   57DPPC   C39 2839   5.419   5.867   2.762
   57DPPC   C40 2840   5.439   5.789   2.891
   57DPPC   C41 2841   5.306   5.798   2.967
   57DPPC   C42 2842   5.317   5.742   3.109
   57DPPC   C43 2843   5.184   5.727   3.184
   57DPPC   C44 2844   5.203   5.644   3.311
   57DPPC   C45 2845   5.066   5.621   3.374
   57DPPC   C46 2846   5.090   5.539   3.501
   57DPPC   C47 2847   5.124   5.393   3.469
   57DPPC   C48 2848   5.227   5.344   3.571
   57DPPC   C49 2849   5.176   5.323   3.713
   57DPPC   C50 2850   5.290   5.322   3.816
   58DPPC    C1 2851   8.521   6.857   1.297
   58DPPC    C2 2852   8.544   7.070   1.191
   58DPPC    C3 2853   8.339   7.021   1.298
   58DPPC    N4 2854   8.484   7.000   1.305
   58DPPC    C5 2855   8.532   7.053   1.434
   58DPPC    C6 2856   8.470   7.181   1.489
   58DPPC    O7 2857   8.513   7.302   1.424
   58DPPC    P8 2858   8.390   7.405   1.425
   58DPPC    O9 2859   8.272   7.327   1.381
   58DPPC   O10 2860   8.427   7.530   1.356
   58DPPC   O11 2861   8.388   7.420   1.586
   58DPPC   C12 2862   8.474   7.527   1.626
   58DPPC   C13 2863   8.491   7.557   1.775
   58DPPC   O14 2864   8.593   7.657   1.782
   58DPPC   C15 2865   8.548   7.785   1.776
   58DPPC   O16 2866   8.432   7.820   1.754
   58DPPC   C17 2867   8.659   7.889   1.790
   58DPPC   C18 2868   8.623   7.975   1.911
   58DPPC   C19 2869   8.723   8.080   1.960
   58DPPC   C20 2870   8.688   8.139   2.096
   58DPPC   C21 2871   8.690   8.033   2.207
   58DPPC   C22 2872   8.667   8.092   2.346
   58DPPC   C23 2873   8.632   7.976   2.439
   58DPPC   C24 2874   8.648   8.008   2.588
   58DPPC   C25 2875   8.572   7.908   2.674
   58DPPC   C26 2876   8.559   7.955   2.819
   58DPPC   C27 2877   8.493   7.850   2.909
   58DPPC   C28 2878   8.515   7.868   3.059
   58DPPC   C29 2879   8.661   7.835   3.091
   58DPPC   C30 2880   8.683   7.828   3.242
   58DPPC   C31 2881   8.833   7.837   3.269
   58DPPC   C32 2882   8.526   7.422   1.837
   58DPPC   O33 2883   8.496   7.413   1.977
   58DPPC   C34 2884   8.495   7.285   2.020
   58DPPC   O35 2885   8.505   7.195   1.937
   58DPPC   C36 2886   8.498   7.267   2.172
   58DPPC   C37 2887   8.644   7.243   2.214
   58DPPC   C38 2888   8.641   7.235   2.367
   58DPPC   C39 2889   8.779   7.197   2.423
   58DPPC   C40 2890   8.803   7.254   2.563
   58DPPC   C41 2891   8.700   7.205   2.664
   58DPPC   C42 2892   8.774   7.217   2.797
   58DPPC   C43 2893   8.716   7.103   2.880
   58DPPC   C44 2894   8.760   6.966   2.828
   58DPPC   C45 2895   8.695   6.858   2.914
   58DPPC   C46 2896   8.708   6.867   3.066
   58DPPC   C47 2897   8.638   6.756   3.145
   58DPPC   C48 2898   8.694   6.734   3.286
   58DPPC   C49 2899   8.640   6.607   3.352
   58DPPC   C50 2900   8.699   6.586   3.492
   59DPPC    C1 2901   0.972   5.270   1.805
   59DPPC    C2 2902   0.798   5.102   1.818
   59DPPC    C3 2903   0.773   5.302   1.692
   59DPPC    N4 2904   0.869   5.197   1.730
   59DPPC    C5 2905   0.933   5.131   1.616
   59DPPC    C6 2906   0.856   5.022   1.542
   59DPPC    O7 2907   0.716   5.040   1.519
   59DPPC    P8 2908   0.656   4.902   1.462
   59DPPC    O9 2909   0.764   4.803   1.440
   59DPPC   O10 2910   0.547   4.927   1.364
   59DPPC   O11 2911   0.579   4.849   1.593
   59DPPC   C12 2912   0.460   4.927   1.604
   59DPPC   C13 2913   0.398   4.945   1.743
   59DPPC   O14 2914   0.462   5.021   1.846
   59DPPC   C15 2915   0.382   5.122   1.888
   59DPPC   O16 2916   0.341   5.213   1.817
   59DPPC   C17 2917   0.423   5.161   2.031
   59DPPC   C18 2918   0.316   5.185   2.137
   59DPPC   C19 2919   0.243   5.053   2.163
   59DPPC   C20 2920   0.172   5.036   2.298
   59DPPC   C21 2921   0.286   5.053   2.398
   59DPPC   C22 2922   0.243   5.044   2.545
   59DPPC   C23 2923   0.363   5.101   2.620
   59DPPC   C24 2924   0.496   5.026   2.611
   59DPPC   C25 2925   0.607   5.122   2.655
   59DPPC   C26 2926   0.743   5.052   2.652
   59DPPC   C27 2927   0.735   4.923   2.735
   59DPPC   C28 2928   0.865   4.846   2.761
   59DPPC   C29 2929   0.917   4.804   2.624
   59DPPC   C30 2930   1.051   4.731   2.627
   59DPPC   C31 2931   1.078   4.659   2.494
   59DPPC   C32 2932   0.391   4.798   1.785
   59DPPC   O33 2933   0.283   4.772   1.875
   59DPPC   C34 2934   0.252   4.640   1.888
   59DPPC   O35 2935   0.296   4.563   1.802
   59DPPC   C36 2936   0.145   4.597   1.988
   59DPPC   C37 2937   0.085   4.722   2.052
   59DPPC   C38 2938  -0.053   4.688   2.109
   59DPPC   C39 2939  -0.127   4.817   2.144
   59DPPC   C40 2940  -0.253   4.803   2.230
   59DPPC   C41 2941  -0.310   4.942   2.255
   59DPPC   C42 2942  -0.431   4.939   2.348
   59DPPC   C43 2943  -0.384   4.881   2.481
   59DPPC   C44 2944  -0.498   4.863   2.581
   59DPPC   C45 2945  -0.443   4.773   2.692
   59DPPC   C46 2946  -0.334   4.843   2.773
   59DPPC   C47 2947  -0.252   4.742   2.855
   59DPPC   C48 2948  -0.353   4.709   2.965
   59DPPC   C49 2949  -0.401   4.829   3.048
   59DPPC   C50 2950  -0.490   4.768   3.156
   60DPPC    C1 2951   6.926   4.769   1.212
   60DPPC    C2 2952   6.716   4.676   1.299
   60DPPC    C3 2953   6.844   4.814   1.427
   60DPPC    N4 2954   6.803   4.794   1.287
   60DPPC    C5 2955   6.748   4.913   1.220
   60DPPC    C6 2956   6.625   4.977   1.285
   60DPPC    O7 2957   6.606   5.113   1.244
   60DPPC    P8 2958   6.550   5.205   1.364
   60DPPC    O9 2959   6.464   5.110   1.437
   60DPPC   O10 2960   6.510   5.326   1.289
   60DPPC   O11 2961   6.690   5.233   1.439
   60DPPC   C12 2962   6.704   5.169   1.566
   60DPPC   C13 2963   6.825   5.204   1.654
   60DPPC   O14 2964   6.837   5.113   1.764
   60DPPC   C15 2965   6.929   5.013   1.751
   60DPPC   O16 2966   6.993   5.001   1.647
   60DPPC   C17 2967   6.939   4.927   1.876
   60DPPC   C18 2968   6.852   4.803   1.855
   60DPPC   C19 2969   6.859   4.705   1.972
   60DPPC   C20 2970   6.753   4.597   1.951
   60DPPC   C21 2971   6.733   4.498   2.066
   60DPPC   C22 2972   6.672   4.573   2.184
   60DPPC   C23 2973   6.667   4.471   2.298
   60DPPC   C24 2974   6.626   4.536   2.430
   60DPPC   C25 2975   6.578   4.432   2.532
   60DPPC   C26 2976   6.565   4.487   2.675
   60DPPC   C27 2977   6.495   4.388   2.769
   60DPPC   C28 2978   6.564   4.252   2.752
   60DPPC   C29 2979   6.517   4.158   2.863
   60DPPC   C30 2980   6.546   4.009   2.845
   60DPPC   C31 2981   6.542   3.934   2.979
   60DPPC   C32 2982   6.815   5.352   1.695
   60DPPC   O33 2983   6.683   5.385   1.740
   60DPPC   C34 2984   6.670   5.516   1.773
   60DPPC   O35 2985   6.750   5.601   1.734
   60DPPC   C36 2986   6.548   5.555   1.857
   60DPPC   C37 2987   6.557   5.538   2.009
   60DPPC   C38 2988   6.424   5.592   2.062
   60DPPC   C39 2989   6.449   5.676   2.188
   60DPPC   C40 2990   6.313   5.725   2.236
   60DPPC   C41 2991   6.316   5.816   2.359
   60DPPC   C42 2992   6.171   5.833   2.402
   60DPPC   C43 2993   6.161   5.925   2.524
   60DPPC   C44 2994   6.016   5.932   2.573
   60DPPC   C45 2995   6.023   6.029   2.692
   60DPPC   C46 2996   6.114   5.979   2.804
   60DPPC   C47 2997   6.115   6.056   2.937
   60DPPC   C48 2998   6.197   5.977   3.039
   60DPPC   C49 2999   6.198   6.082   3.149
   60DPPC   C50 3000   6.259   6.029   3.279
   61DPPC    C1 3001   4.048   0.256   2.131
   61DPPC    C2 3002   4.081   0.149   1.939
   61DPPC    C3 3003   3.853   0.179   1.996
   61DPPC    N4 3004   3.985   0.244   1.999
   61DPPC    C5 3005   3.981   0.371   1.926
   61DPPC    C6 3006   3.890   0.483   1.976
   61DPPC    O7 3007   3.952   0.580   2.062
   61DPPC    P8 3008   3.840   0.691   2.090
   61DPPC    O9 3009   3.714   0.636   2.144
   61DPPC   O10 3010   3.855   0.802   1.994
   61DPPC   O11 3011   3.919   0.751   2.217
   61DPPC   C12 3012   3.939   0.642   2.308
   61DPPC   C13 3013   3.977   0.688   2.448
   61DPPC   O14 3014   4.015   0.579   2.534
   61DPPC   C15 3015   4.148   0.569   2.558
   61DPPC   O16 3016   4.219   0.609   2.466
   61DPPC   C17 3017   4.194   0.460   2.655
   61DPPC   C18 3018   4.110   0.332   2.666
   61DPPC   C19 3019   4.179   0.228   2.754
   61DPPC   C20 3020   4.315   0.171   2.713
   61DPPC   C21 3021   4.324   0.034   2.780
   61DPPC   C22 3022   4.450  -0.043   2.739
   61DPPC   C23 3023   4.577   0.037   2.768
   61DPPC   C24 3024   4.703  -0.036   2.720
   61DPPC   C25 3025   4.825   0.054   2.699
   61DPPC   C26 3026   4.964  -0.001   2.731
   61DPPC   C27 3027   5.070   0.033   2.626
   61DPPC   C28 3028   5.201  -0.041   2.651
   61DPPC   C29 3029   5.187  -0.191   2.678
   61DPPC   C30 3030   5.102  -0.274   2.582
   61DPPC   C31 3031   5.113  -0.419   2.631
   61DPPC   C32 3032   3.863   0.782   2.488
   61DPPC   O33 3033   3.893   0.866   2.600
   61DPPC   C34 3034   3.795   0.949   2.645
   61DPPC   O35 3035   3.695   0.964   2.574
   61DPPC   C36 3036   3.830   1.046   2.758
   61DPPC   C37 3037   3.794   0.987   2.894
   61DPPC   C38 3038   3.821   1.094   2.999
   61DPPC   C39 3039   3.793   1.043   3.141
   61DPPC   C40 3040   3.648   0.996   3.152
   61DPPC   C41 3041   3.642   0.871   3.241
   61DPPC   C42 3042   3.494   0.832   3.246
   61DPPC   C43 3043   3.491   0.718   3.348
   61DPPC   C44 3044   3.358   0.642   3.354
   61DPPC   C45 3045   3.377   0.535   3.461
   61DPPC   C46 3046   3.415   0.589   3.599
   61DPPC   C47 3047   3.316   0.685   3.666
   61DPPC   C48 3048   3.373   0.704   3.807
   61DPPC   C49 3049   3.265   0.772   3.891
   61DPPC   C50 3050   3.295   0.764   4.040
   62DPPC    C1 3051   7.848   4.382   1.019
   62DPPC    C2 3052   7.661   4.228   1.083
   62DPPC    C3 3053   7.787   4.347   1.240
   62DPPC    N4 3054   7.732   4.355   1.104
   62DPPC    C5 3055   7.650   4.475   1.080
   62DPPC    C6 3056   7.504   4.476   1.125
   62DPPC    O7 3057   7.498   4.498   1.266
   62DPPC    P8 3058   7.351   4.481   1.329
   62DPPC    O9 3059   7.362   4.375   1.432
   62DPPC   O10 3060   7.265   4.481   1.208
   62DPPC   O11 3061   7.345   4.630   1.390
   62DPPC   C12 3062   7.437   4.639   1.498
   62DPPC   C13 3063   7.397   4.755   1.591
   62DPPC   O14 3064   7.482   4.778   1.704
   62DPPC   C15 3065   7.474   4.903   1.757
   62DPPC   O16 3066   7.461   4.999   1.681
   62DPPC   C17 3067   7.528   4.914   1.900
   62DPPC   C18 3068   7.431   4.952   2.012
   62DPPC   C19 3069   7.314   4.853   2.018
   62DPPC   C20 3070   7.262   4.878   2.160
   62DPPC   C21 3071   7.116   4.838   2.184
   62DPPC   C22 3072   7.075   4.876   2.327
   62DPPC   C23 3073   6.938   4.824   2.369
   62DPPC   C24 3074   6.895   4.866   2.509
   62DPPC   C25 3075   6.751   4.838   2.550
   62DPPC   C26 3076   6.645   4.889   2.452
   62DPPC   C27 3077   6.501   4.862   2.498
   62DPPC   C28 3078   6.383   4.877   2.401
   62DPPC   C29 3079   6.250   4.854   2.472
   62DPPC   C30 3080   6.263   4.722   2.550
   62DPPC   C31 3081   6.126   4.690   2.610
   62DPPC   C32 3082   7.247   4.746   1.619
   62DPPC   O33 3083   7.225   4.620   1.684
   62DPPC   C34 3084   7.097   4.575   1.690
   62DPPC   O35 3085   7.016   4.610   1.604
   62DPPC   C36 3086   7.082   4.453   1.781
   62DPPC   C37 3087   7.177   4.456   1.901
   62DPPC   C38 3088   7.146   4.348   2.005
   62DPPC   C39 3089   7.232   4.367   2.130
   62DPPC   C40 3090   7.178   4.308   2.261
   62DPPC   C41 3091   7.038   4.362   2.290
   62DPPC   C42 3092   6.986   4.324   2.429
   62DPPC   C43 3093   7.086   4.362   2.539
   62DPPC   C44 3094   7.025   4.336   2.676
   62DPPC   C45 3095   6.989   4.187   2.673
   62DPPC   C46 3096   6.953   4.139   2.814
   62DPPC   C47 3097   6.925   3.991   2.841
   62DPPC   C48 3098   6.886   3.976   2.988
   62DPPC   C49 3099   6.970   4.050   3.092
   62DPPC   C50 3100   6.898   4.053   3.227
   63DPPC    C1 3101   7.864   8.423   0.938
   63DPPC    C2 3102   7.839   8.200   0.922
   63DPPC    C3 3103   8.033   8.274   1.031
   63DPPC    N4 3104   7.889   8.301   1.017
   63DPPC    C5 3105   7.805   8.289   1.137
   63DPPC    C6 3106   7.865   8.341   1.268
   63DPPC    O7 3107   7.875   8.481   1.296
   63DPPC    P8 3108   7.944   8.476   1.442
   63DPPC    O9 3109   7.979   8.617   1.465
   63DPPC   O10 3110   8.048   8.371   1.430
   63DPPC   O11 3111   7.821   8.419   1.529
   63DPPC   C12 3112   7.759   8.530   1.593
   63DPPC   C13 3113   7.635   8.496   1.676
   63DPPC   O14 3114   7.563   8.611   1.721
   63DPPC   C15 3115   7.451   8.639   1.649
   63DPPC   O16 3116   7.424   8.585   1.542
   63DPPC   C17 3117   7.362   8.749   1.707
   63DPPC   C18 3118   7.433   8.823   1.821
   63DPPC   C19 3119   7.329   8.895   1.906
   63DPPC   C20 3120   7.384   8.968   2.029
   63DPPC   C21 3121   7.289   9.010   2.141
   63DPPC   C22 3122   7.352   8.986   2.279
   63DPPC   C23 3123   7.255   9.050   2.378
   63DPPC   C24 3124   7.246   9.000   2.522
   63DPPC   C25 3125   7.140   9.084   2.594
   63DPPC   C26 3126   7.092   9.029   2.728
   63DPPC   C27 3127   7.199   9.034   2.837
   63DPPC   C28 3128   7.153   8.995   2.978
   63DPPC   C29 3129   7.114   8.849   3.000
   63DPPC   C30 3130   7.077   8.823   3.147
   63DPPC   C31 3131   7.192   8.737   3.200
   63DPPC   C32 3132   7.688   8.419   1.797
   63DPPC   O33 3133   7.804   8.477   1.858
   63DPPC   C34 3134   7.853   8.407   1.964
   63DPPC   O35 3135   7.784   8.323   2.022
   63DPPC   C36 3136   7.976   8.476   2.023
   63DPPC   C37 3137   7.958   8.526   2.167
   63DPPC   C38 3138   7.888   8.662   2.172
   63DPPC   C39 3139   7.864   8.701   2.318
   63DPPC   C40 3140   7.795   8.837   2.333
   63DPPC   C41 3141   7.780   8.879   2.479
   63DPPC   C42 3142   7.710   9.015   2.480
   63DPPC   C43 3143   7.672   9.063   2.620
   63DPPC   C44 3144   7.600   9.197   2.631
   63DPPC   C45 3145   7.622   9.269   2.764
   63DPPC   C46 3146   7.550   9.185   2.869
   63DPPC   C47 3147   7.558   9.254   3.006
   63DPPC   C48 3148   7.476   9.188   3.117
   63DPPC   C49 3149   7.487   9.267   3.247
   63DPPC   C50 3150   7.407   9.204   3.361
   64DPPC    C1 3151   3.473  -0.016   1.873
   64DPPC    C2 3152   3.394  -0.083   1.660
   64DPPC    C3 3153   3.270   0.087   1.781
   64DPPC    N4 3154   3.403   0.031   1.753
   64DPPC    C5 3155   3.498   0.119   1.683
   64DPPC    C6 3156   3.565   0.238   1.751
   64DPPC    O7 3157   3.473   0.333   1.804
   64DPPC    P8 3158   3.538   0.452   1.890
   64DPPC    O9 3159   3.429   0.540   1.936
   64DPPC   O10 3160   3.650   0.498   1.804
   64DPPC   O11 3161   3.594   0.367   2.014
   64DPPC   C12 3162   3.476   0.353   2.094
   64DPPC   C13 3163   3.499   0.302   2.236
   64DPPC   O14 3164   3.370   0.285   2.296
   64DPPC   C15 3165   3.288   0.182   2.261
   64DPPC   O16 3166   3.320   0.107   2.169
   64DPPC   C17 3167   3.154   0.175   2.333
   64DPPC   C18 3168   3.178   0.157   2.483
   64DPPC   C19 3169   3.216   0.291   2.546
   64DPPC   C20 3170   3.224   0.277   2.698
   64DPPC   C21 3171   3.095   0.221   2.759
   64DPPC   C22 3172   3.109   0.208   2.911
   64DPPC   C23 3173   3.237   0.138   2.958
   64DPPC   C24 3174   3.287   0.203   3.087
   64DPPC   C25 3175   3.413   0.146   3.151
   64DPPC   C26 3176   3.372   0.027   3.238
   64DPPC   C27 3177   3.499  -0.053   3.269
   64DPPC   C28 3178   3.450  -0.179   3.341
   64DPPC   C29 3179   3.567  -0.278   3.342
   64DPPC   C30 3180   3.596  -0.331   3.201
   64DPPC   C31 3181   3.678  -0.459   3.217
   64DPPC   C32 3182   3.589   0.409   2.299
   64DPPC   O33 3183   3.629   0.367   2.429
   64DPPC   C34 3184   3.722   0.267   2.429
   64DPPC   O35 3185   3.790   0.244   2.330
   64DPPC   C36 3186   3.756   0.203   2.564
   64DPPC   C37 3187   3.645   0.114   2.621
   64DPPC   C38 3188   3.655   0.129   2.773
   64DPPC   C39 3189   3.788   0.086   2.834
   64DPPC   C40 3190   3.793  -0.067   2.821
   64DPPC   C41 3191   3.935  -0.114   2.851
   64DPPC   C42 3192   3.976  -0.059   2.987
   64DPPC   C43 3193   4.095  -0.134   3.048
   64DPPC   C44 3194   4.045  -0.278   3.067
   64DPPC   C45 3195   4.156  -0.368   3.122
   64DPPC   C46 3196   4.097  -0.494   3.187
   64DPPC   C47 3197   4.212  -0.589   3.222
   64DPPC   C48 3198   4.150  -0.721   3.269
   64DPPC   C49 3199   4.264  -0.821   3.289
   64DPPC   C50 3200   4.335  -0.846   3.155
   65DPPC    C1 3201   2.436   5.044   5.590
   65DPPC    C2 3202   2.615   5.015   5.438
   65DPPC    C3 3203   2.600   4.876   5.634
   65DPPC    N4 3204   2.523   4.943   5.528
   65DPPC    C5 3205   2.441   4.836   5.470
   65DPPC    C6 3206   2.493   4.716   5.392
   65DPPC    O7 3207   2.400   4.607   5.382
   65DPPC    P8 3208   2.480   4.474   5.340
   65DPPC    O9 3209   2.364   4.383   5.334
   65DPPC   O10 3210   2.594   4.462   5.434
   65DPPC   O11 3211   2.540   4.519   5.197
   65DPPC   C12 3212   2.463   4.471   5.087
   65DPPC   C13 3213   2.523   4.518   4.955
   65DPPC   O14 3214   2.433   4.514   4.843
   65DPPC   C15 3215   2.339   4.610   4.820
   65DPPC   O16 3216   2.329   4.701   4.902
   65DPPC   C17 3217   2.285   4.622   4.678
   65DPPC   C18 3218   2.323   4.752   4.606
   65DPPC   C19 3219   2.474   4.775   4.593
   65DPPC   C20 3220   2.496   4.896   4.501
   65DPPC   C21 3221   2.643   4.907   4.459
   65DPPC   C22 3222   2.663   5.033   4.375
   65DPPC   C23 3223   2.552   5.026   4.269
   65DPPC   C24 3224   2.592   5.140   4.175
   65DPPC   C25 3225   2.729   5.107   4.115
   65DPPC   C26 3226   2.793   5.222   4.038
   65DPPC   C27 3227   2.937   5.181   4.003
   65DPPC   C28 3228   3.006   5.286   3.916
   65DPPC   C29 3229   3.149   5.236   3.893
   65DPPC   C30 3230   3.233   5.334   3.812
   65DPPC   C31 3231   3.372   5.271   3.801
   65DPPC   C32 3232   2.652   4.436   4.949
   65DPPC   O33 3233   2.649   4.294   4.962
   65DPPC   C34 3234   2.775   4.242   4.954
   65DPPC   O35 3235   2.876   4.310   4.968
   65DPPC   C36 3236   2.770   4.090   4.973
   65DPPC   C37 3237   2.707   3.993   4.873
   65DPPC   C38 3238   2.777   4.017   4.739
   65DPPC   C39 3239   2.722   3.930   4.626
   65DPPC   C40 3240   2.816   3.933   4.505
   65DPPC   C41 3241   2.777   3.865   4.373
   65DPPC   C42 3242   2.873   3.876   4.254
   65DPPC   C43 3243   2.861   4.015   4.190
   65DPPC   C44 3244   2.921   4.001   4.050
   65DPPC   C45 3245   2.877   4.122   3.968
   65DPPC   C46 3246   2.952   4.108   3.835
   65DPPC   C47 3247   2.876   4.038   3.722
   65DPPC   C48 3248   2.959   4.019   3.596
   65DPPC   C49 3249   2.880   3.933   3.498
   65DPPC   C50 3250   2.753   4.011   3.461
   66DPPC    C1 3251   8.161   1.271   1.369
   66DPPC    C2 3252   8.126   1.503   1.375
   66DPPC    C3 3253   8.215   1.401   1.564
   66DPPC    N4 3254   8.219   1.397   1.417
   66DPPC    C5 3255   8.342   1.428   1.343
   66DPPC    C6 3256   8.452   1.322   1.348
   66DPPC    O7 3257   8.566   1.375   1.280
   66DPPC    P8 3258   8.693   1.277   1.264
   66DPPC    O9 3259   8.817   1.329   1.203
   66DPPC   O10 3260   8.637   1.150   1.211
   66DPPC   O11 3261   8.713   1.258   1.422
   66DPPC   C12 3262   8.750   1.372   1.500
   66DPPC   C13 3263   8.705   1.346   1.644
   66DPPC   O14 3264   8.692   1.463   1.727
   66DPPC   C15 3265   8.576   1.533   1.709
   66DPPC   O16 3266   8.513   1.524   1.604
   66DPPC   C17 3267   8.532   1.629   1.820
   66DPPC   C18 3268   8.447   1.561   1.928
   66DPPC   C19 3269   8.396   1.641   2.047
   66DPPC   C20 3270   8.295   1.750   2.011
   66DPPC   C21 3271   8.197   1.781   2.124
   66DPPC   C22 3272   8.107   1.901   2.093
   66DPPC   C23 3273   7.987   1.897   2.189
   66DPPC   C24 3274   7.914   2.030   2.172
   66DPPC   C25 3275   7.785   2.044   2.252
   66DPPC   C26 3276   7.803   2.023   2.402
   66DPPC   C27 3277   7.686   2.042   2.498
   66DPPC   C28 3278   7.724   1.996   2.638
   66DPPC   C29 3279   7.603   2.015   2.731
   66DPPC   C30 3280   7.647   2.006   2.877
   66DPPC   C31 3281   7.536   2.029   2.980
   66DPPC   C32 3282   8.793   1.229   1.689
   66DPPC   O33 3283   8.767   1.175   1.818
   66DPPC   C34 3284   8.648   1.117   1.849
   66DPPC   O35 3285   8.547   1.142   1.784
   66DPPC   C36 3286   8.646   1.032   1.977
   66DPPC   C37 3287   8.680   1.112   2.103
   66DPPC   C38 3288   8.720   1.015   2.214
   66DPPC   C39 3289   8.746   1.079   2.350
   66DPPC   C40 3290   8.766   0.986   2.470
   66DPPC   C41 3291   8.893   0.900   2.462
   66DPPC   C42 3292   8.916   0.830   2.596
   66DPPC   C43 3293   8.933   0.917   2.721
   66DPPC   C44 3294   8.969   0.826   2.839
   66DPPC   C45 3295   8.958   0.910   2.966
   66DPPC   C46 3296   8.934   0.823   3.090
   66DPPC   C47 3297   9.055   0.730   3.101
   66DPPC   C48 3298   9.043   0.648   3.230
   66DPPC   C49 3299   9.154   0.547   3.260
   66DPPC   C50 3300   9.138   0.463   3.387
   67DPPC    C1 3301   4.921   2.950   5.910
   67DPPC    C2 3302   4.726   2.837   5.915
   67DPPC    C3 3303   4.739   3.009   5.760
   67DPPC    N4 3304   4.818   2.899   5.819
   67DPPC    C5 3305   4.874   2.800   5.726
   67DPPC    C6 3306   4.958   2.686   5.786
   67DPPC    O7 3307   5.049   2.624   5.696
   67DPPC    P8 3308   5.113   2.499   5.775
   67DPPC    O9 3309   5.060   2.476   5.912
   67DPPC   O10 3310   5.258   2.500   5.744
   67DPPC   O11 3311   5.045   2.382   5.688
   67DPPC   C12 3312   5.084   2.400   5.552
   67DPPC   C13 3313   5.030   2.292   5.458
   67DPPC   O14 3314   5.102   2.281   5.335
   67DPPC   C15 3315   5.209   2.197   5.336
   67DPPC   O16 3316   5.244   2.143   5.441
   67DPPC   C17 3317   5.293   2.181   5.209
   67DPPC   C18 3318   5.292   2.032   5.174
   67DPPC   C19 3319   5.362   2.029   5.038
   67DPPC   C20 3320   5.493   2.104   5.060
   67DPPC   C21 3321   5.577   2.104   4.933
   67DPPC   C22 3322   5.722   2.150   4.947
   67DPPC   C23 3323   5.801   2.141   4.816
   67DPPC   C24 3324   5.735   2.218   4.701
   67DPPC   C25 3325   5.822   2.221   4.576
   67DPPC   C26 3326   5.753   2.300   4.464
   67DPPC   C27 3327   5.831   2.279   4.334
   67DPPC   C28 3328   5.748   2.316   4.210
   67DPPC   C29 3329   5.814   2.286   4.076
   67DPPC   C30 3330   5.748   2.362   3.961
   67DPPC   C31 3331   5.824   2.324   3.834
   67DPPC   C32 3332   4.880   2.312   5.438
   67DPPC   O33 3333   4.832   2.427   5.368
   67DPPC   C34 3334   4.697   2.440   5.373
   67DPPC   O35 3335   4.634   2.413   5.475
   67DPPC   C36 3336   4.641   2.505   5.247
   67DPPC   C37 3337   4.643   2.658   5.258
   67DPPC   C38 3338   4.576   2.707   5.129
   67DPPC   C39 3339   4.619   2.661   4.990
   67DPPC   C40 3340   4.543   2.729   4.875
   67DPPC   C41 3341   4.604   2.693   4.740
   67DPPC   C42 3342   4.563   2.790   4.629
   67DPPC   C43 3343   4.597   2.935   4.662
   67DPPC   C44 3344   4.539   3.012   4.542
   67DPPC   C45 3345   4.594   2.958   4.410
   67DPPC   C46 3346   4.553   3.042   4.288
   67DPPC   C47 3347   4.618   2.993   4.158
   67DPPC   C48 3348   4.585   3.079   4.036
   67DPPC   C49 3349   4.644   2.999   3.920
   67DPPC   C50 3350   4.667   3.093   3.802
   68DPPC    C1 3351   0.726   3.966   1.026
   68DPPC    C2 3352   0.923   3.868   0.932
   68DPPC    C3 3353   0.965   4.026   1.078
   68DPPC    N4 3354   0.863   3.922   1.055
   68DPPC    C5 3355   0.866   3.824   1.164
   68DPPC    C6 3356   0.805   3.686   1.134
   68DPPC    O7 3357   0.823   3.589   1.237
   68DPPC    P8 3358   0.755   3.446   1.209
   68DPPC    O9 3359   0.849   3.334   1.231
   68DPPC   O10 3360   0.683   3.452   1.079
   68DPPC   O11 3361   0.666   3.473   1.340
   68DPPC   C12 3362   0.754   3.453   1.451
   68DPPC   C13 3363   0.719   3.549   1.565
   68DPPC   O14 3364   0.793   3.509   1.681
   68DPPC   C15 3365   0.903   3.578   1.722
   68DPPC   O16 3366   0.958   3.661   1.650
   68DPPC   C17 3367   0.945   3.542   1.865
   68DPPC   C18 3368   0.865   3.605   1.979
   68DPPC   C19 3369   0.847   3.752   1.943
   68DPPC   C20 3370   0.754   3.812   2.049
   68DPPC   C21 3371   0.820   3.792   2.185
   68DPPC   C22 3372   0.718   3.864   2.273
   68DPPC   C23 3373   0.748   3.858   2.423
   68DPPC   C24 3374   0.639   3.937   2.495
   68DPPC   C25 3375   0.630   4.087   2.464
   68DPPC   C26 3376   0.503   4.150   2.521
   68DPPC   C27 3377   0.500   4.121   2.672
   68DPPC   C28 3378   0.374   4.165   2.747
   68DPPC   C29 3379   0.369   4.144   2.898
   68DPPC   C30 3380   0.368   3.995   2.931
   68DPPC   C31 3381   0.350   3.965   3.080
   68DPPC   C32 3382   0.568   3.535   1.589
   68DPPC   O33 3383   0.512   3.641   1.667
   68DPPC   C34 3384   0.402   3.601   1.736
   68DPPC   O35 3385   0.334   3.510   1.691
   68DPPC   C36 3386   0.331   3.709   1.819
   68DPPC   C37 3387   0.330   3.676   1.969
   68DPPC   C38 3388   0.303   3.787   2.070
   68DPPC   C39 3389   0.155   3.826   2.071
   68DPPC   C40 3390   0.057   3.735   2.145
   68DPPC   C41 3391  -0.086   3.783   2.120
   68DPPC   C42 3392  -0.183   3.685   2.186
   68DPPC   C43 3393  -0.154   3.694   2.336
   68DPPC   C44 3394  -0.257   3.593   2.388
   68DPPC   C45 3395  -0.392   3.661   2.405
   68DPPC   C46 3396  -0.386   3.782   2.499
   68DPPC   C47 3397  -0.527   3.841   2.493
   68DPPC   C48 3398  -0.559   3.967   2.574
   68DPPC   C49 3399  -0.703   4.015   2.553
   68DPPC   C50 3400  -0.789   3.906   2.616
   69DPPC    C1 3401   5.532   2.537   6.273
   69DPPC    C2 3402   5.595   2.542   6.046
   69DPPC    C3 3403   5.538   2.333   6.151
   69DPPC    N4 3404   5.505   2.476   6.142
   69DPPC    C5 3405   5.366   2.509   6.107
   69DPPC    C6 3406   5.311   2.644   6.154
   69DPPC    O7 3407   5.360   2.764   6.092
   69DPPC    P8 3408   5.269   2.896   6.077
   69DPPC    O9 3409   5.354   3.003   6.135
   69DPPC   O10 3410   5.138   2.855   6.131
   69DPPC   O11 3411   5.276   2.877   5.918
   69DPPC   C12 3412   5.403   2.905   5.859
   69DPPC   C13 3413   5.383   2.872   5.711
   69DPPC   O14 3414   5.493   2.916   5.630
   69DPPC   C15 3415   5.521   3.041   5.583
   69DPPC   O16 3416   5.478   3.137   5.646
   69DPPC   C17 3417   5.639   3.056   5.488
   69DPPC   C18 3418   5.571   3.041   5.351
   69DPPC   C19 3419   5.678   3.045   5.241
   69DPPC   C20 3420   5.633   2.996   5.103
   69DPPC   C21 3421   5.749   3.011   5.004
   69DPPC   C22 3422   5.708   2.993   4.858
   69DPPC   C23 3423   5.830   3.041   4.780
   69DPPC   C24 3424   5.788   3.093   4.642
   69DPPC   C25 3425   5.917   3.154   4.589
   69DPPC   C26 3426   5.913   3.224   4.453
   69DPPC   C27 3427   5.868   3.128   4.343
   69DPPC   C28 3428   5.829   3.195   4.211
   69DPPC   C29 3429   5.794   3.085   4.112
   69DPPC   C30 3430   5.775   3.148   3.974
   69DPPC   C31 3431   5.740   3.045   3.866
   69DPPC   C32 3432   5.247   2.928   5.672
   69DPPC   O33 3433   5.216   2.887   5.538
   69DPPC   C34 3434   5.106   2.938   5.476
   69DPPC   O35 3435   5.028   3.014   5.532
   69DPPC   C36 3436   5.107   2.926   5.324
   69DPPC   C37 3437   5.047   2.792   5.281
   69DPPC   C38 3438   5.101   2.748   5.145
   69DPPC   C39 3439   5.044   2.613   5.100
   69DPPC   C40 3440   5.057   2.594   4.948
   69DPPC   C41 3441   5.069   2.446   4.912
   69DPPC   C42 3442   5.124   2.419   4.772
   69DPPC   C43 3443   5.177   2.277   4.749
   69DPPC   C44 3444   5.241   2.256   4.612
   69DPPC   C45 3445   5.300   2.115   4.616
   69DPPC   C46 3446   5.398   2.088   4.502
   69DPPC   C47 3447   5.327   2.116   4.369
   69DPPC   C48 3448   5.426   2.080   4.258
   69DPPC   C49 3449   5.362   2.103   4.121
   69DPPC   C50 3450   5.334   2.253   4.115
   70DPPC    C1 3451   2.744   0.025   5.180
   70DPPC    C2 3452   2.839  -0.086   4.986
   70DPPC    C3 3453   2.969   0.014   5.169
   70DPPC    N4 3454   2.851  -0.064   5.131
   70DPPC    C5 3455   2.829  -0.178   5.222
   70DPPC    C6 3456   2.937  -0.287   5.228
   70DPPC    O7 3457   2.983  -0.341   5.104
   70DPPC    P8 3458   3.038  -0.489   5.133
   70DPPC    O9 3459   2.923  -0.545   5.207
   70DPPC   O10 3460   3.162  -0.447   5.202
   70DPPC   O11 3461   3.043  -0.540   4.980
   70DPPC   C12 3462   2.914  -0.534   4.920
   70DPPC   C13 3463   2.933  -0.559   4.770
   70DPPC   O14 3464   2.954  -0.694   4.729
   70DPPC   C15 3465   2.861  -0.793   4.741
   70DPPC   O16 3466   2.748  -0.766   4.779
   70DPPC   C17 3467   2.897  -0.932   4.689
   70DPPC   C18 3468   2.922  -0.912   4.539
   70DPPC   C19 3469   2.924  -1.042   4.458
   70DPPC   C20 3470   2.980  -1.003   4.321
   70DPPC   C21 3471   3.122  -0.947   4.337
   70DPPC   C22 3472   3.169  -0.903   4.198
   70DPPC   C23 3473   3.320  -0.894   4.172
   70DPPC   C24 3474   3.355  -0.821   4.042
   70DPPC   C25 3475   3.498  -0.765   4.042
   70DPPC   C26 3476   3.511  -0.698   3.905
   70DPPC   C27 3477   3.658  -0.664   3.883
   70DPPC   C28 3478   3.691  -0.585   3.755
   70DPPC   C29 3479   3.839  -0.615   3.731
   70DPPC   C30 3480   3.924  -0.567   3.849
   70DPPC   C31 3481   4.071  -0.595   3.817
   70DPPC   C32 3482   3.045  -0.467   4.720
   70DPPC   O33 3483   3.001  -0.331   4.714
   70DPPC   C34 3484   3.096  -0.243   4.674
   70DPPC   O35 3485   3.208  -0.284   4.644
   70DPPC   C36 3486   3.051  -0.100   4.644
   70DPPC   C37 3487   3.122  -0.037   4.524
   70DPPC   C38 3488   3.049   0.091   4.482
   70DPPC   C39 3489   3.093   0.133   4.341
   70DPPC   C40 3490   3.016   0.036   4.250
   70DPPC   C41 3491   3.059   0.039   4.103
   70DPPC   C42 3492   3.009  -0.087   4.031
   70DPPC   C43 3493   2.857  -0.097   4.040
   70DPPC   C44 3494   2.799   0.017   3.957
   70DPPC   C45 3495   2.744  -0.026   3.821
   70DPPC   C46 3496   2.592  -0.045   3.810
   70DPPC   C47 3497   2.549  -0.107   3.677
   70DPPC   C48 3498   2.400  -0.138   3.659
   70DPPC   C49 3499   2.370  -0.225   3.537
   70DPPC   C50 3500   2.219  -0.242   3.520
   71DPPC    C1 3501   4.036   3.666   5.436
   71DPPC    C2 3502   4.071   3.755   5.661
   71DPPC    C3 3503   4.087   3.521   5.600
   71DPPC    N4 3504   4.116   3.659   5.559
   71DPPC    C5 3505   4.259   3.690   5.542
   71DPPC    C6 3506   4.346   3.697   5.667
   71DPPC    O7 3507   4.361   3.570   5.730
   71DPPC    P8 3508   4.461   3.571   5.856
   71DPPC    O9 3509   4.442   3.452   5.942
   71DPPC   O10 3510   4.459   3.705   5.919
   71DPPC   O11 3511   4.591   3.568   5.761
   71DPPC   C12 3512   4.621   3.435   5.717
   71DPPC   C13 3513   4.697   3.435   5.584
   71DPPC   O14 3514   4.838   3.459   5.584
   71DPPC   C15 3515   4.908   3.347   5.616
   71DPPC   O16 3516   4.871   3.280   5.712
   71DPPC   C17 3517   5.057   3.349   5.580
   71DPPC   C18 3518   5.073   3.327   5.430
   71DPPC   C19 3519   5.213   3.364   5.382
   71DPPC   C20 3520   5.235   3.316   5.238
   71DPPC   C21 3521   5.358   3.376   5.170
   71DPPC   C22 3522   5.334   3.341   5.023
   71DPPC   C23 3523   5.363   3.193   4.994
   71DPPC   C24 3524   5.356   3.171   4.843
   71DPPC   C25 3525   5.430   3.262   4.744
   71DPPC   C26 3526   5.422   3.200   4.605
   71DPPC   C27 3527   5.469   3.291   4.491
   71DPPC   C28 3528   5.429   3.226   4.358
   71DPPC   C29 3529   5.474   3.315   4.242
   71DPPC   C30 3530   5.429   3.260   4.107
   71DPPC   C31 3531   5.468   3.352   3.991
   71DPPC   C32 3532   4.615   3.522   5.488
   71DPPC   O33 3533   4.638   3.494   5.350
   71DPPC   C34 3534   4.559   3.563   5.263
   71DPPC   O35 3535   4.487   3.655   5.300
   71DPPC   C36 3536   4.560   3.527   5.115
   71DPPC   C37 3537   4.467   3.411   5.079
   71DPPC   C38 3538   4.444   3.370   4.934
   71DPPC   C39 3539   4.336   3.261   4.939
   71DPPC   C40 3540   4.279   3.235   4.800
   71DPPC   C41 3541   4.226   3.365   4.739
   71DPPC   C42 3542   4.208   3.344   4.589
   71DPPC   C43 3543   4.157   3.466   4.513
   71DPPC   C44 3544   4.153   3.428   4.365
   71DPPC   C45 3545   4.300   3.404   4.333
   71DPPC   C46 3546   4.327   3.342   4.196
   71DPPC   C47 3547   4.273   3.429   4.081
   71DPPC   C48 3548   4.336   3.391   3.947
   71DPPC   C49 3549   4.324   3.502   3.843
   71DPPC   C50 3550   4.180   3.528   3.798
   72DPPC    C1 3551   0.989   8.398   4.676
   72DPPC    C2 3552   1.147   8.542   4.767
   72DPPC    C3 3553   0.917   8.555   4.832
   72DPPC    N4 3554   1.028   8.463   4.802
   72DPPC    C5 3555   1.046   8.366   4.912
   72DPPC    C6 3556   1.136   8.244   4.896
   72DPPC    O7 3557   1.266   8.279   4.848
   72DPPC    P8 3558   1.373   8.158   4.839
   72DPPC    O9 3559   1.313   8.064   4.936
   72DPPC   O10 3560   1.508   8.217   4.853
   72DPPC   O11 3561   1.347   8.082   4.699
   72DPPC   C12 3562   1.328   8.190   4.607
   72DPPC   C13 3563   1.310   8.159   4.458
   72DPPC   O14 3564   1.326   8.278   4.380
   72DPPC   C15 3565   1.411   8.291   4.275
   72DPPC   O16 3566   1.507   8.217   4.251
   72DPPC   C17 3567   1.377   8.418   4.196
   72DPPC   C18 3568   1.400   8.393   4.047
   72DPPC   C19 3569   1.393   8.511   3.950
   72DPPC   C20 3570   1.389   8.457   3.806
   72DPPC   C21 3571   1.322   8.566   3.721
   72DPPC   C22 3572   1.357   8.555   3.573
   72DPPC   C23 3573   1.312   8.674   3.489
   72DPPC   C24 3574   1.339   8.648   3.341
   72DPPC   C25 3575   1.319   8.770   3.251
   72DPPC   C26 3576   1.325   8.738   3.102
   72DPPC   C27 3577   1.210   8.647   3.058
   72DPPC   C28 3578   1.080   8.722   3.087
   72DPPC   C29 3579   0.959   8.628   3.091
   72DPPC   C30 3580   0.841   8.719   3.125
   72DPPC   C31 3581   0.858   8.754   3.273
   72DPPC   C32 3582   1.181   8.078   4.446
   72DPPC   O33 3583   1.058   8.150   4.449
   72DPPC   C34 3584   0.956   8.072   4.405
   72DPPC   O35 3585   0.936   7.952   4.428
   72DPPC   C36 3586   0.830   8.147   4.362
   72DPPC   C37 3587   0.792   8.121   4.216
   72DPPC   C38 3588   0.672   8.201   4.167
   72DPPC   C39 3589   0.661   8.197   4.015
   72DPPC   C40 3590   0.644   8.049   3.978
   72DPPC   C41 3591   0.618   8.023   3.829
   72DPPC   C42 3592   0.476   8.066   3.793
   72DPPC   C43 3593   0.478   8.048   3.641
   72DPPC   C44 3594   0.360   8.121   3.578
   72DPPC   C45 3595   0.232   8.081   3.651
   72DPPC   C46 3596   0.117   8.150   3.578
   72DPPC   C47 3597  -0.017   8.095   3.627
   72DPPC   C48 3598  -0.115   8.163   3.530
   72DPPC   C49 3599  -0.259   8.126   3.567
   72DPPC   C50 3600  -0.273   7.975   3.551
   73DPPC    C1 3601   8.518   8.206   4.862
   73DPPC    C2 3602   8.429   8.091   4.665
   73DPPC    C3 3603   8.630   8.020   4.765
   73DPPC    N4 3604   8.498   8.077   4.794
   73DPPC    C5 3605   8.433   7.980   4.884
   73DPPC    C6 3606   8.309   8.016   4.967
   73DPPC    O7 3607   8.262   7.894   5.026
   73DPPC    P8 3608   8.111   7.884   5.080
   73DPPC    O9 3609   8.088   8.013   5.149
   73DPPC   O10 3610   8.097   7.751   5.144
   73DPPC   O11 3611   8.045   7.881   4.933
   73DPPC   C12 3612   8.073   7.752   4.879
   73DPPC   C13 3613   8.003   7.712   4.749
   73DPPC   O14 3614   8.048   7.785   4.634
   73DPPC   C15 3615   8.169   7.762   4.578
   73DPPC   O16 3616   8.259   7.715   4.648
   73DPPC   C17 3617   8.207   7.837   4.450
   73DPPC   C18 3618   8.242   7.738   4.339
   73DPPC   C19 3619   8.129   7.653   4.280
   73DPPC   C20 3620   8.198   7.554   4.186
   73DPPC   C21 3621   8.205   7.416   4.251
   73DPPC   C22 3622   8.263   7.313   4.154
   73DPPC   C23 3623   8.396   7.366   4.101
   73DPPC   C24 3624   8.445   7.278   3.986
   73DPPC   C25 3625   8.360   7.287   3.858
   73DPPC   C26 3626   8.433   7.238   3.733
   73DPPC   C27 3627   8.498   7.103   3.767
   73DPPC   C28 3628   8.567   7.066   3.635
   73DPPC   C29 3629   8.682   7.157   3.592
   73DPPC   C30 3630   8.740   7.124   3.454
   73DPPC   C31 3631   8.871   7.195   3.417
   73DPPC   C32 3632   7.853   7.721   4.774
   73DPPC   O33 3633   7.772   7.693   4.660
   73DPPC   C34 3634   7.781   7.566   4.613
   73DPPC   O35 3635   7.840   7.481   4.678
   73DPPC   C36 3636   7.719   7.534   4.477
   73DPPC   C37 3637   7.765   7.399   4.419
   73DPPC   C38 3638   7.692   7.360   4.291
   73DPPC   C39 3639   7.712   7.463   4.180
   73DPPC   C40 3640   7.657   7.413   4.046
   73DPPC   C41 3641   7.698   7.518   3.942
   73DPPC   C42 3642   7.689   7.460   3.800
   73DPPC   C43 3643   7.766   7.561   3.714
   73DPPC   C44 3644   7.825   7.501   3.586
   73DPPC   C45 3645   7.897   7.601   3.496
   73DPPC   C46 3646   7.805   7.719   3.465
   73DPPC   C47 3647   7.870   7.822   3.372
   73DPPC   C48 3648   7.983   7.896   3.443
   73DPPC   C49 3649   7.941   8.039   3.476
   73DPPC   C50 3650   8.072   8.107   3.516
   74DPPC    C1 3651   5.916   4.759   5.701
   74DPPC    C2 3652   5.711   4.868   5.610
   74DPPC    C3 3653   5.920   4.959   5.576
   74DPPC    N4 3654   5.852   4.830   5.590
   74DPPC    C5 3655   5.846   4.745   5.470
   74DPPC    C6 3656   5.968   4.733   5.378
   74DPPC    O7 3657   5.967   4.614   5.298
   74DPPC    P8 3658   6.125   4.597   5.276
   74DPPC    O9 3659   6.155   4.482   5.188
   74DPPC   O10 3660   6.199   4.614   5.404
   74DPPC   O11 3661   6.159   4.729   5.190
   74DPPC   C12 3662   6.267   4.695   5.103
   74DPPC   C13 3663   6.289   4.787   4.983
   74DPPC   O14 3664   6.420   4.787   4.925
   74DPPC   C15 3665   6.453   4.685   4.841
   74DPPC   O16 3666   6.388   4.581   4.850
   74DPPC   C17 3667   6.576   4.715   4.756
   74DPPC   C18 3668   6.538   4.719   4.608
   74DPPC   C19 3669   6.658   4.773   4.530
   74DPPC   C20 3670   6.614   4.779   4.383
   74DPPC   C21 3671   6.497   4.876   4.362
   74DPPC   C22 3672   6.420   4.841   4.234
   74DPPC   C23 3673   6.513   4.850   4.113
   74DPPC   C24 3674   6.431   4.840   3.985
   74DPPC   C25 3675   6.522   4.866   3.864
   74DPPC   C26 3676   6.444   4.832   3.737
   74DPPC   C27 3677   6.545   4.778   3.636
   74DPPC   C28 3678   6.484   4.710   3.513
   74DPPC   C29 3679   6.419   4.581   3.563
   74DPPC   C30 3680   6.506   4.486   3.646
   74DPPC   C31 3681   6.420   4.369   3.693
   74DPPC   C32 3682   6.261   4.926   5.041
   74DPPC   O33 3683   6.221   5.010   4.932
   74DPPC   C34 3684   6.232   5.144   4.950
   74DPPC   O35 3685   6.243   5.190   5.063
   74DPPC   C36 3686   6.227   5.242   4.833
   74DPPC   C37 3687   6.206   5.162   4.704
   74DPPC   C38 3688   6.245   5.253   4.587
   74DPPC   C39 3689   6.392   5.293   4.604
   74DPPC   C40 3690   6.444   5.371   4.483
   74DPPC   C41 3691   6.461   5.276   4.364
   74DPPC   C42 3692   6.536   5.349   4.253
   74DPPC   C43 3693   6.522   5.272   4.122
   74DPPC   C44 3694   6.603   5.331   4.007
   74DPPC   C45 3695   6.556   5.268   3.876
   74DPPC   C46 3696   6.657   5.297   3.764
   74DPPC   C47 3697   6.610   5.227   3.637
   74DPPC   C48 3698   6.726   5.228   3.537
   74DPPC   C49 3699   6.674   5.181   3.401
   74DPPC   C50 3700   6.555   5.253   3.337
   75DPPC    C1 3701   3.800   1.400   5.659
   75DPPC    C2 3702   3.774   1.461   5.421
   75DPPC    C3 3703   3.691   1.266   5.515
   75DPPC    N4 3704   3.711   1.409   5.543
   75DPPC    C5 3705   3.597   1.491   5.585
   75DPPC    C6 3706   3.502   1.565   5.491
   75DPPC    O7 3707   3.566   1.685   5.445
   75DPPC    P8 3708   3.430   1.769   5.427
   75DPPC    O9 3709   3.396   1.801   5.567
   75DPPC   O10 3710   3.350   1.690   5.331
   75DPPC   O11 3711   3.484   1.901   5.352
   75DPPC   C12 3712   3.438   1.910   5.218
   75DPPC   C13 3713   3.496   2.035   5.151
   75DPPC   O14 3714   3.463   2.048   5.012
   75DPPC   C15 3715   3.484   2.166   4.949
   75DPPC   O16 3716   3.517   2.269   5.007
   75DPPC   C17 3717   3.463   2.176   4.798
   75DPPC   C18 3718   3.582   2.230   4.718
   75DPPC   C19 3719   3.701   2.134   4.725
   75DPPC   C20 3720   3.833   2.206   4.701
   75DPPC   C21 3721   3.953   2.112   4.693
   75DPPC   C22 3722   4.072   2.207   4.676
   75DPPC   C23 3723   4.202   2.131   4.650
   75DPPC   C24 3724   4.313   2.231   4.617
   75DPPC   C25 3725   4.278   2.325   4.502
   75DPPC   C26 3726   4.391   2.382   4.417
   75DPPC   C27 3727   4.340   2.477   4.308
   75DPPC   C28 3728   4.443   2.528   4.207
   75DPPC   C29 3729   4.372   2.584   4.083
   75DPPC   C30 3730   4.472   2.655   3.992
   75DPPC   C31 3731   4.393   2.727   3.882
   75DPPC   C32 3732   3.646   2.023   5.182
   75DPPC   O33 3733   3.700   1.894   5.152
   75DPPC   C34 3734   3.835   1.879   5.149
   75DPPC   O35 3735   3.901   1.961   5.212
   75DPPC   C36 3736   3.874   1.740   5.098
   75DPPC   C37 3737   3.905   1.756   4.949
   75DPPC   C38 3738   3.954   1.628   4.881
   75DPPC   C39 3739   3.993   1.644   4.733
   75DPPC   C40 3740   3.885   1.676   4.630
   75DPPC   C41 3741   3.937   1.704   4.489
   75DPPC   C42 3742   3.815   1.739   4.403
   75DPPC   C43 3743   3.881   1.794   4.277
   75DPPC   C44 3744   3.785   1.820   4.160
   75DPPC   C45 3745   3.718   1.688   4.123
   75DPPC   C46 3746   3.630   1.699   3.998
   75DPPC   C47 3747   3.725   1.735   3.884
   75DPPC   C48 3748   3.645   1.766   3.758
   75DPPC   C49 3749   3.749   1.786   3.647
   75DPPC   C50 3750   3.678   1.852   3.529
   76DPPC    C1 3751   5.938  -0.051   5.206
   76DPPC    C2 3752   5.735   0.012   5.286
   76DPPC    C3 3753   5.869   0.181   5.182
   76DPPC    N4 3754   5.827   0.040   5.175
   76DPPC    C5 3755   5.772  -0.005   5.046
   76DPPC    C6 3756   5.644   0.070   5.011
   76DPPC    O7 3757   5.564   0.031   4.899
   76DPPC    P8 3758   5.456   0.150   4.881
   76DPPC    O9 3759   5.535   0.270   4.845
   76DPPC   O10 3760   5.377   0.145   5.005
   76DPPC   O11 3761   5.387   0.065   4.763
   76DPPC   C12 3762   5.433   0.109   4.635
   76DPPC   C13 3763   5.324   0.119   4.527
   76DPPC   O14 3764   5.251   0.241   4.511
   76DPPC   C15 3765   5.320   0.347   4.460
   76DPPC   O16 3766   5.443   0.344   4.469
   76DPPC   C17 3767   5.243   0.478   4.446
   76DPPC   C18 3768   5.224   0.555   4.577
   76DPPC   C19 3769   5.146   0.686   4.559
   76DPPC   C20 3770   5.018   0.663   4.478
   76DPPC   C21 3771   4.932   0.785   4.443
   76DPPC   C22 3772   4.827   0.751   4.338
   76DPPC   C23 3773   4.914   0.705   4.221
   76DPPC   C24 3774   4.837   0.695   4.089
   76DPPC   C25 3775   4.892   0.590   3.993
   76DPPC   C26 3776   4.845   0.597   3.847
   76DPPC   C27 3777   4.913   0.487   3.766
   76DPPC   C28 3778   5.065   0.509   3.763
   76DPPC   C29 3779   5.149   0.382   3.772
   76DPPC   C30 3780   5.129   0.296   3.647
   76DPPC   C31 3781   5.227   0.178   3.648
   76DPPC   C32 3782   5.262  -0.021   4.518
   76DPPC   O33 3783   5.363  -0.115   4.482
   76DPPC   C34 3784   5.326  -0.244   4.505
   76DPPC   O35 3785   5.243  -0.268   4.592
   76DPPC   C36 3786   5.418  -0.355   4.455
   76DPPC   C37 3787   5.438  -0.328   4.305
   76DPPC   C38 3788   5.582  -0.368   4.275
   76DPPC   C39 3789   5.616  -0.343   4.128
   76DPPC   C40 3790   5.710  -0.445   4.063
   76DPPC   C41 3791   5.631  -0.571   4.029
   76DPPC   C42 3792   5.709  -0.676   3.949
   76DPPC   C43 3793   5.625  -0.804   3.951
   76DPPC   C44 3794   5.501  -0.778   3.867
   76DPPC   C45 3795   5.446  -0.912   3.816
   76DPPC   C46 3796   5.330  -0.875   3.724
   76DPPC   C47 3797   5.375  -0.869   3.577
   76DPPC   C48 3798   5.424  -1.004   3.526
   76DPPC   C49 3799   5.511  -0.980   3.403
   76DPPC   C50 3800   5.528  -1.109   3.323
   77DPPC    C1 3801   9.352   5.992   4.689
   77DPPC    C2 3802   9.479   5.810   4.590
   77DPPC    C3 3803   9.445   5.818   4.823
   77DPPC    N4 3804   9.381   5.848   4.693
   77DPPC    C5 3805   9.266   5.760   4.666
   77DPPC    C6 3806   9.131   5.743   4.736
   77DPPC    O7 3807   9.151   5.674   4.859
   77DPPC    P8 3808   9.031   5.695   4.964
   77DPPC    O9 3809   8.949   5.813   4.930
   77DPPC   O10 3810   9.086   5.687   5.101
   77DPPC   O11 3811   8.949   5.558   4.937
   77DPPC   C12 3812   9.013   5.435   4.972
   77DPPC   C13 3813   8.928   5.313   4.934
   77DPPC   O14 3814   9.009   5.202   4.893
   77DPPC   C15 3815   9.026   5.093   4.973
   77DPPC   O16 3816   9.026   5.109   5.095
   77DPPC   C17 3817   9.064   4.956   4.917
   77DPPC   C18 3818   9.012   4.936   4.774
   77DPPC   C19 3819   9.100   4.832   4.706
   77DPPC   C20 3820   9.246   4.879   4.701
   77DPPC   C21 3821   9.336   4.757   4.679
   77DPPC   C22 3822   9.339   4.723   4.530
   77DPPC   C23 3823   9.401   4.841   4.455
   77DPPC   C24 3824   9.401   4.803   4.306
   77DPPC   C25 3825   9.448   4.919   4.219
   77DPPC   C26 3826   9.449   4.882   4.070
   77DPPC   C27 3827   9.518   4.994   3.992
   77DPPC   C28 3828   9.507   4.940   3.849
   77DPPC   C29 3829   9.560   5.037   3.744
   77DPPC   C30 3830   9.597   4.957   3.619
   77DPPC   C31 3831   9.474   4.928   3.532
   77DPPC   C32 3832   8.845   5.360   4.814
   77DPPC   O33 3833   8.777   5.255   4.744
   77DPPC   C34 3834   8.706   5.300   4.638
   77DPPC   O35 3835   8.729   5.411   4.591
   77DPPC   C36 3836   8.635   5.184   4.566
   77DPPC   C37 3837   8.559   5.219   4.438
   77DPPC   C38 3838   8.540   5.087   4.364
   77DPPC   C39 3839   8.557   5.126   4.217
   77DPPC   C40 3840   8.518   5.000   4.140
   77DPPC   C41 3841   8.586   4.865   4.166
   77DPPC   C42 3842   8.509   4.747   4.107
   77DPPC   C43 3843   8.574   4.612   4.138
   77DPPC   C44 3844   8.502   4.491   4.078
   77DPPC   C45 3845   8.549   4.347   4.098
   77DPPC   C46 3846   8.505   4.264   3.977
   77DPPC   C47 3847   8.557   4.326   3.847
   77DPPC   C48 3848   8.536   4.248   3.718
   77DPPC   C49 3849   8.604   4.314   3.598
   77DPPC   C50 3850   8.598   4.228   3.472
   78DPPC    C1 3851   1.095   5.252   5.180
   78DPPC    C2 3852   1.190   5.072   5.092
   78DPPC    C3 3853   1.245   5.303   5.017
   78DPPC    N4 3854   1.227   5.210   5.129
   78DPPC    C5 3855   1.318   5.234   5.242
   78DPPC    C6 3856   1.460   5.177   5.229
   78DPPC    O7 3857   1.473   5.035   5.231
   78DPPC    P8 3858   1.624   4.992   5.194
   78DPPC    O9 3859   1.656   4.865   5.263
   78DPPC   O10 3860   1.697   5.118   5.220
   78DPPC   O11 3861   1.593   4.987   5.036
   78DPPC   C12 3862   1.538   4.859   5.003
   78DPPC   C13 3863   1.454   4.846   4.876
   78DPPC   O14 3864   1.388   4.722   4.848
   78DPPC   C15 3865   1.276   4.685   4.915
   78DPPC   O16 3866   1.195   4.762   4.967
   78DPPC   C17 3867   1.225   4.551   4.862
   78DPPC   C18 3868   1.161   4.557   4.724
   78DPPC   C19 3869   1.109   4.417   4.693
   78DPPC   C20 3870   1.057   4.420   4.549
   78DPPC   C21 3871   1.180   4.453   4.463
   78DPPC   C22 3872   1.163   4.500   4.318
   78DPPC   C23 3873   1.300   4.500   4.250
   78DPPC   C24 3874   1.289   4.527   4.100
   78DPPC   C25 3875   1.208   4.421   4.025
   78DPPC   C26 3876   1.195   4.466   3.880
   78DPPC   C27 3877   1.344   4.477   3.846
   78DPPC   C28 3878   1.353   4.553   3.714
   78DPPC   C29 3879   1.484   4.528   3.638
   78DPPC   C30 3880   1.477   4.387   3.578
   78DPPC   C31 3881   1.606   4.350   3.503
   78DPPC   C32 3882   1.553   4.883   4.765
   78DPPC   O33 3883   1.496   4.900   4.635
   78DPPC   C34 3884   1.591   4.941   4.547
   78DPPC   O35 3885   1.707   4.907   4.566
   78DPPC   C36 3886   1.546   5.031   4.431
   78DPPC   C37 3887   1.437   4.961   4.350
   78DPPC   C38 3888   1.499   4.858   4.255
   78DPPC   C39 3889   1.578   4.949   4.160
   78DPPC   C40 3890   1.672   4.867   4.072
   78DPPC   C41 3891   1.605   4.784   3.962
   78DPPC   C42 3892   1.711   4.712   3.878
   78DPPC   C43 3893   1.794   4.821   3.810
   78DPPC   C44 3894   1.897   4.764   3.712
   78DPPC   C45 3895   1.937   4.869   3.609
   78DPPC   C46 3896   1.991   4.992   3.682
   78DPPC   C47 3897   2.038   5.106   3.592
   78DPPC   C48 3898   2.107   5.217   3.672
   78DPPC   C49 3899   2.253   5.180   3.702
   78DPPC   C50 3900   2.333   5.302   3.747
   79DPPC    C1 3901   0.109   3.525   6.001
   79DPPC    C2 3902   0.130   3.527   5.766
   79DPPC    C3 3903  -0.093   3.499   5.864
   79DPPC    N4 3904   0.040   3.561   5.877
   79DPPC    C5 3905   0.043   3.708   5.872
   79DPPC    C6 3906  -0.057   3.789   5.789
   79DPPC    O7 3907  -0.017   3.787   5.652
   79DPPC    P8 3908  -0.143   3.862   5.586
   79DPPC    O9 3909  -0.155   3.995   5.650
   79DPPC   O10 3910  -0.249   3.759   5.580
   79DPPC   O11 3911  -0.070   3.869   5.442
   79DPPC   C12 3912  -0.015   3.743   5.403
   79DPPC   C13 3913   0.033   3.745   5.258
   79DPPC   O14 3914   0.070   3.611   5.222
   79DPPC   C15 3915  -0.012   3.508   5.189
   79DPPC   O16 3916  -0.122   3.505   5.244
   79DPPC   C17 3917   0.042   3.393   5.105
   79DPPC   C18 3918   0.061   3.437   4.959
   79DPPC   C19 3919   0.071   3.312   4.871
   79DPPC   C20 3920   0.050   3.350   4.724
   79DPPC   C21 3921   0.063   3.226   4.636
   79DPPC   C22 3922   0.027   3.273   4.495
   79DPPC   C23 3923   0.009   3.157   4.396
   79DPPC   C24 3924  -0.041   3.207   4.261
   79DPPC   C25 3925  -0.060   3.094   4.160
   79DPPC   C26 3926  -0.060   3.160   4.022
   79DPPC   C27 3927  -0.085   3.063   3.907
   79DPPC   C28 3928  -0.078   3.149   3.781
   79DPPC   C29 3929  -0.118   3.064   3.660
   79DPPC   C30 3930  -0.029   2.942   3.641
   79DPPC   C31 3931  -0.061   2.872   3.508
   79DPPC   C32 3932   0.150   3.843   5.270
   79DPPC   O33 3933   0.193   3.900   5.146
   79DPPC   C34 3934   0.288   3.996   5.152
   79DPPC   O35 3935   0.317   4.037   5.264
   79DPPC   C36 3936   0.355   4.047   5.024
   79DPPC   C37 3937   0.266   4.053   4.899
   79DPPC   C38 3938   0.355   4.068   4.776
   79DPPC   C39 3939   0.264   4.050   4.655
   79DPPC   C40 3940   0.158   4.158   4.626
   79DPPC   C41 3941   0.064   4.114   4.514
   79DPPC   C42 3942   0.127   4.114   4.375
   79DPPC   C43 3943   0.022   4.056   4.279
   79DPPC   C44 3944   0.078   4.074   4.137
   79DPPC   C45 3945  -0.046   4.046   4.052
   79DPPC   C46 3946  -0.010   4.118   3.922
   79DPPC   C47 3947  -0.119   4.131   3.815
   79DPPC   C48 3948  -0.051   4.182   3.688
   79DPPC   C49 3949  -0.147   4.164   3.570
   79DPPC   C50 3950  -0.080   4.192   3.435
   80DPPC    C1 3951   0.612   4.317   5.597
   80DPPC    C2 3952   0.766   4.396   5.778
   80DPPC    C3 3953   0.638   4.202   5.804
   80DPPC    N4 3954   0.707   4.284   5.703
   80DPPC    C5 3955   0.812   4.205   5.637
   80DPPC    C6 3956   0.907   4.272   5.538
   80DPPC    O7 3957   1.025   4.193   5.519
   80DPPC    P8 3958   1.124   4.296   5.444
   80DPPC    O9 3959   1.259   4.246   5.477
   80DPPC   O10 3960   1.080   4.436   5.465
   80DPPC   O11 3961   1.063   4.236   5.307
   80DPPC   C12 3962   1.091   4.339   5.212
   80DPPC   C13 3963   1.031   4.298   5.077
   80DPPC   O14 3964   0.890   4.277   5.075
   80DPPC   C15 3965   0.802   4.379   5.056
   80DPPC   O16 3966   0.824   4.490   5.105
   80DPPC   C17 3967   0.666   4.329   5.010
   80DPPC   C18 3968   0.664   4.325   4.857
   80DPPC   C19 3969   0.698   4.452   4.779
   80DPPC   C20 3970   0.678   4.457   4.627
   80DPPC   C21 3971   0.723   4.588   4.562
   80DPPC   C22 3972   0.672   4.577   4.418
   80DPPC   C23 3973   0.790   4.539   4.327
   80DPPC   C24 3974   0.736   4.518   4.186
   80DPPC   C25 3975   0.858   4.465   4.110
   80DPPC   C26 3976   0.840   4.408   3.969
   80DPPC   C27 3977   0.800   4.507   3.860
   80DPPC   C28 3978   0.765   4.429   3.733
   80DPPC   C29 3979   0.749   4.511   3.605
   80DPPC   C30 3980   0.700   4.431   3.484
   80DPPC   C31 3981   0.694   4.509   3.353
   80DPPC   C32 3982   1.114   4.179   5.028
   80DPPC   O33 3983   1.229   4.216   4.950
   80DPPC   C34 3984   1.287   4.112   4.885
   80DPPC   O35 3985   1.239   4.001   4.906
   80DPPC   C36 3986   1.395   4.149   4.783
   80DPPC   C37 3987   1.381   4.055   4.663
   80DPPC   C38 3988   1.277   4.090   4.556
   80DPPC   C39 3989   1.262   3.980   4.451
   80DPPC   C40 3990   1.145   4.015   4.358
   80DPPC   C41 3991   1.116   3.899   4.263
   80DPPC   C42 3992   1.040   3.930   4.135
   80DPPC   C43 3993   1.077   4.036   4.031
   80DPPC   C44 3994   1.012   4.018   3.894
   80DPPC   C45 3995   1.069   4.084   3.768
   80DPPC   C46 3996   0.975   4.081   3.647
   80DPPC   C47 3997   1.056   4.028   3.528
   80DPPC   C48 3998   0.962   4.006   3.410
   80DPPC   C49 3999   1.035   3.936   3.296
   80DPPC   C50 4000   0.938   3.889   3.187
   81DPPC    C1 4001   5.965   4.114   5.282
   81DPPC    C2 4002   5.759   4.077   5.401
   81DPPC    C3 4003   5.934   4.188   5.505
   81DPPC    N4 4004   5.867   4.174   5.374
   81DPPC    C5 4005   5.811   4.295   5.313
   81DPPC    C6 4006   5.741   4.398   5.401
   81DPPC    O7 4007   5.642   4.347   5.492
   81DPPC    P8 4008   5.612   4.455   5.607
   81DPPC    O9 4009   5.749   4.503   5.636
   81DPPC   O10 4010   5.517   4.408   5.710
   81DPPC   O11 4011   5.543   4.575   5.524
   81DPPC   C12 4012   5.425   4.528   5.457
   81DPPC   C13 4013   5.341   4.642   5.399
   81DPPC   O14 4014   5.228   4.606   5.318
   81DPPC   C15 4015   5.109   4.593   5.381
   81DPPC   O16 4016   5.098   4.645   5.492
   81DPPC   C17 4017   4.983   4.543   5.310
   81DPPC   C18 4018   4.997   4.534   5.158
   81DPPC   C19 4019   4.870   4.488   5.088
   81DPPC   C20 4020   4.825   4.355   5.150
   81DPPC   C21 4021   4.696   4.303   5.084
   81DPPC   C22 4022   4.723   4.248   4.944
   81DPPC   C23 4023   4.586   4.238   4.877
   81DPPC   C24 4024   4.601   4.238   4.725
   81DPPC   C25 4025   4.461   4.203   4.675
   81DPPC   C26 4026   4.346   4.299   4.705
   81DPPC   C27 4027   4.218   4.228   4.660
   81DPPC   C28 4028   4.225   4.192   4.512
   81DPPC   C29 4029   4.137   4.072   4.474
   81DPPC   C30 4030   4.189   4.028   4.338
   81DPPC   C31 4031   4.108   3.924   4.260
   81DPPC   C32 4032   5.440   4.733   5.326
   81DPPC   O33 4033   5.527   4.686   5.222
   81DPPC   C34 4034   5.640   4.754   5.188
   81DPPC   O35 4035   5.665   4.865   5.234
   81DPPC   C36 4036   5.707   4.704   5.060
   81DPPC   C37 4037   5.681   4.556   5.028
   81DPPC   C38 4038   5.777   4.524   4.913
   81DPPC   C39 4039   5.775   4.375   4.878
   81DPPC   C40 4040   5.918   4.333   4.841
   81DPPC   C41 4041   5.955   4.186   4.820
   81DPPC   C42 4042   5.882   4.119   4.703
   81DPPC   C43 4043   5.923   4.174   4.566
   81DPPC   C44 4044   5.853   4.120   4.441
   81DPPC   C45 4045   5.887   4.170   4.301
   81DPPC   C46 4046   5.790   4.085   4.218
   81DPPC   C47 4047   5.774   4.137   4.075
   81DPPC   C48 4048   5.900   4.096   3.998
   81DPPC   C49 4049   5.897   4.154   3.857
   81DPPC   C50 4050   6.023   4.143   3.769
   82DPPC    C1 4051   9.218   5.560   5.380
   82DPPC    C2 4052   9.425   5.464   5.422
   82DPPC    C3 4053   9.240   5.381   5.525
   82DPPC    N4 4054   9.284   5.430   5.394
   82DPPC    C5 4055   9.259   5.350   5.273
   82DPPC    C6 4056   9.315   5.209   5.254
   82DPPC    O7 4057   9.456   5.217   5.234
   82DPPC    P8 4058   9.505   5.073   5.179
   82DPPC    O9 4059   9.436   4.971   5.261
   82DPPC   O10 4060   9.653   5.073   5.173
   82DPPC   O11 4061   9.443   5.088   5.031
   82DPPC   C12 4062   9.539   5.140   4.938
   82DPPC   C13 4063   9.497   5.109   4.794
   82DPPC   O14 4064   9.612   5.096   4.709
   82DPPC   C15 4065   9.674   4.976   4.694
   82DPPC   O16 4066   9.677   4.900   4.791
   82DPPC   C17 4067   9.804   4.983   4.614
   82DPPC   C18 4068   9.767   4.982   4.465
   82DPPC   C19 4069   9.887   4.996   4.372
   82DPPC   C20 4070   9.838   4.993   4.227
   82DPPC   C21 4071   9.964   4.997   4.141
   82DPPC   C22 4072   9.919   4.934   4.009
   82DPPC   C23 4073  10.012   4.988   3.901
   82DPPC   C24 4074  10.007   4.898   3.777
   82DPPC   C25 4075  10.100   4.954   3.669
   82DPPC   C26 4076  10.085   4.887   3.532
   82DPPC   C27 4077  10.174   4.953   3.425
   82DPPC   C28 4078  10.162   4.885   3.289
   82DPPC   C29 4079  10.209   4.971   3.172
   82DPPC   C30 4080  10.115   5.091   3.173
   82DPPC   C31 4081  10.149   5.184   3.056
   82DPPC   C32 4082   9.403   5.225   4.758
   82DPPC   O33 4083   9.309   5.192   4.656
   82DPPC   C34 4084   9.231   5.301   4.629
   82DPPC   O35 4085   9.258   5.414   4.668
   82DPPC   C36 4086   9.124   5.273   4.523
   82DPPC   C37 4087   9.183   5.278   4.382
   82DPPC   C38 4088   9.076   5.226   4.286
   82DPPC   C39 4089   9.084   5.074   4.290
   82DPPC   C40 4090   8.962   5.001   4.233
   82DPPC   C41 4091   8.918   5.049   4.095
   82DPPC   C42 4092   8.990   4.981   3.978
   82DPPC   C43 4093   8.922   5.027   3.848
   82DPPC   C44 4094   9.000   4.957   3.737
   82DPPC   C45 4095   8.952   4.986   3.595
   82DPPC   C46 4096   9.054   4.934   3.493
   82DPPC   C47 4097   9.125   4.800   3.513
   82DPPC   C48 4098   9.020   4.688   3.509
   82DPPC   C49 4099   9.078   4.547   3.502
   82DPPC   C50 4100   9.189   4.539   3.397
   83DPPC    C1 4101   7.631   5.156   5.742
   83DPPC    C2 4102   7.745   4.952   5.747
   83DPPC    C3 4103   7.519   4.952   5.762
   83DPPC    N4 4104   7.627   5.019   5.690
   83DPPC    C5 4105   7.624   5.028   5.543
   83DPPC    C6 4106   7.588   4.908   5.456
   83DPPC    O7 4107   7.692   4.810   5.450
   83DPPC    P8 4108   7.658   4.703   5.334
   83DPPC    O9 4109   7.512   4.682   5.340
   83DPPC   O10 4110   7.761   4.603   5.370
   83DPPC   O11 4111   7.700   4.785   5.202
   83DPPC   C12 4112   7.828   4.743   5.155
   83DPPC   C13 4113   7.927   4.849   5.106
   83DPPC   O14 4114   7.902   4.912   4.980
   83DPPC   C15 4115   7.961   5.033   4.959
   83DPPC   O16 4116   8.039   5.084   5.039
   83DPPC   C17 4117   7.959   5.081   4.814
   83DPPC   C18 4118   7.823   5.137   4.770
   83DPPC   C19 4119   7.798   5.164   4.622
   83DPPC   C20 4120   7.901   5.257   4.556
   83DPPC   C21 4121   7.907   5.248   4.403
   83DPPC   C22 4122   7.781   5.305   4.337
   83DPPC   C23 4123   7.810   5.313   4.187
   83DPPC   C24 4124   7.695   5.374   4.107
   83DPPC   C25 4125   7.723   5.363   3.957
   83DPPC   C26 4126   7.605   5.405   3.868
   83DPPC   C27 4127   7.630   5.386   3.718
   83DPPC   C28 4128   7.502   5.424   3.642
   83DPPC   C29 4129   7.521   5.416   3.490
   83DPPC   C30 4130   7.506   5.277   3.429
   83DPPC   C31 4131   7.538   5.269   3.280
   83DPPC   C32 4132   8.058   4.770   5.107
   83DPPC   O33 4133   8.059   4.651   5.027
   83DPPC   C34 4134   8.184   4.604   5.000
   83DPPC   O35 4135   8.287   4.660   5.035
   83DPPC   C36 4136   8.191   4.475   4.918
   83DPPC   C37 4137   8.311   4.468   4.823
   83DPPC   C38 4138   8.286   4.375   4.704
   83DPPC   C39 4139   8.419   4.349   4.633
   83DPPC   C40 4140   8.483   4.477   4.581
   83DPPC   C41 4141   8.610   4.428   4.511
   83DPPC   C42 4142   8.711   4.543   4.500
   83DPPC   C43 4143   8.825   4.514   4.403
   83DPPC   C44 4144   8.913   4.633   4.364
   83DPPC   C45 4145   9.048   4.580   4.317
   83DPPC   C46 4146   9.042   4.596   4.165
   83DPPC   C47 4147   9.170   4.548   4.095
   83DPPC   C48 4148   9.177   4.576   3.945
   83DPPC   C49 4149   9.320   4.540   3.904
   83DPPC   C50 4150   9.353   4.567   3.757
   84DPPC    C1 4151   0.894   7.101   4.508
   84DPPC    C2 4152   0.709   7.162   4.382
   84DPPC    C3 4153   0.761   6.928   4.409
   84DPPC    N4 4154   0.756   7.059   4.476
   84DPPC    C5 4155   0.670   7.071   4.594
   84DPPC    C6 4156   0.536   6.998   4.601
   84DPPC    O7 4157   0.422   7.042   4.526
   84DPPC    P8 4158   0.295   6.958   4.579
   84DPPC    O9 4159   0.276   6.980   4.724
   84DPPC   O10 4160   0.332   6.823   4.531
   84DPPC   O11 4161   0.175   7.025   4.496
   84DPPC   C12 4162   0.141   6.929   4.396
   84DPPC   C13 4163   0.021   6.982   4.317
   84DPPC   O14 4164  -0.025   6.890   4.217
   84DPPC   C15 4165  -0.080   6.769   4.246
   84DPPC   O16 4166  -0.042   6.705   4.344
   84DPPC   C17 4167  -0.161   6.710   4.130
   84DPPC   C18 4168  -0.109   6.765   3.997
   84DPPC   C19 4169  -0.216   6.742   3.890
   84DPPC   C20 4170  -0.338   6.812   3.951
   84DPPC   C21 4171  -0.463   6.769   3.874
   84DPPC   C22 4172  -0.581   6.782   3.969
   84DPPC   C23 4173  -0.700   6.707   3.908
   84DPPC   C24 4174  -0.832   6.752   3.972
   84DPPC   C25 4175  -0.956   6.676   3.926
   84DPPC   C26 4176  -1.085   6.718   3.996
   84DPPC   C27 4177  -1.206   6.631   3.962
   84DPPC   C28 4178  -1.324   6.700   4.031
   84DPPC   C29 4179  -1.460   6.631   4.016
   84DPPC   C30 4180  -1.550   6.706   4.114
   84DPPC   C31 4181  -1.701   6.685   4.100
   84DPPC   C32 4182   0.048   7.118   4.254
   84DPPC   O33 4183   0.117   7.129   4.130
   84DPPC   C34 4184   0.139   7.260   4.099
   84DPPC   O35 4185   0.086   7.353   4.159
   84DPPC   C36 4186   0.186   7.280   3.954
   84DPPC   C37 4187   0.329   7.228   3.938
   84DPPC   C38 4188   0.374   7.238   3.792
   84DPPC   C39 4189   0.280   7.156   3.703
   84DPPC   C40 4190   0.280   7.017   3.766
   84DPPC   C41 4191   0.203   6.923   3.675
   84DPPC   C42 4192   0.228   6.776   3.711
   84DPPC   C43 4193   0.379   6.749   3.702
   84DPPC   C44 4194   0.412   6.609   3.753
   84DPPC   C45 4195   0.561   6.607   3.791
   84DPPC   C46 4196   0.594   6.725   3.882
   84DPPC   C47 4197   0.733   6.698   3.940
   84DPPC   C48 4198   0.822   6.681   3.816
   84DPPC   C49 4199   0.951   6.762   3.821
   84DPPC   C50 4200   1.033   6.749   3.692
   85DPPC    C1 4201   8.340   7.349   4.634
   85DPPC    C2 4202   8.269   7.407   4.845
   85DPPC    C3 4203   8.428   7.234   4.807
   85DPPC    N4 4204   8.391   7.371   4.770
   85DPPC    C5 4205   8.492   7.476   4.755
   85DPPC    C6 4206   8.583   7.531   4.866
   85DPPC    O7 4207   8.696   7.449   4.896
   85DPPC    P8 4208   8.836   7.529   4.900
   85DPPC    O9 4209   8.929   7.432   4.960
   85DPPC   O10 4210   8.803   7.662   4.956
   85DPPC   O11 4211   8.850   7.527   4.739
   85DPPC   C12 4212   8.878   7.392   4.702
   85DPPC   C13 4213   8.876   7.363   4.552
   85DPPC   O14 4214   8.847   7.226   4.522
   85DPPC   C15 4215   8.722   7.180   4.497
   85DPPC   O16 4216   8.623   7.240   4.538
   85DPPC   C17 4217   8.715   7.051   4.414
   85DPPC   C18 4218   8.582   7.019   4.346
   85DPPC   C19 4219   8.512   6.912   4.430
   85DPPC   C20 4220   8.375   6.884   4.367
   85DPPC   C21 4221   8.282   6.999   4.405
   85DPPC   C22 4222   8.145   6.983   4.339
   85DPPC   C23 4223   8.024   7.060   4.392
   85DPPC   C24 4224   7.920   7.044   4.281
   85DPPC   C25 4225   7.965   7.084   4.140
   85DPPC   C26 4226   7.853   7.076   4.037
   85DPPC   C27 4227   7.894   7.134   3.902
   85DPPC   C28 4228   8.016   7.070   3.837
   85DPPC   C29 4229   8.029   7.102   3.688
   85DPPC   C30 4230   8.154   7.033   3.632
   85DPPC   C31 4231   8.173   7.071   3.485
   85DPPC   C32 4232   9.007   7.419   4.496
   85DPPC   O33 4233   9.014   7.458   4.359
   85DPPC   C34 4234   9.128   7.521   4.318
   85DPPC   O35 4235   9.214   7.564   4.395
   85DPPC   C36 4236   9.133   7.548   4.168
   85DPPC   C37 4237   9.275   7.574   4.118
   85DPPC   C38 4238   9.283   7.651   3.986
   85DPPC   C39 4239   9.428   7.662   3.936
   85DPPC   C40 4240   9.431   7.725   3.797
   85DPPC   C41 4241   9.541   7.664   3.711
   85DPPC   C42 4242   9.530   7.711   3.566
   85DPPC   C43 4243   9.633   7.624   3.494
   85DPPC   C44 4244   9.646   7.626   3.341
   85DPPC   C45 4245   9.760   7.535   3.295
   85DPPC   C46 4246   9.735   7.387   3.325
   85DPPC   C47 4247   9.826   7.281   3.264
   85DPPC   C48 4248   9.752   7.149   3.286
   85DPPC   C49 4249   9.790   7.036   3.190
   85DPPC   C50 4250   9.938   7.006   3.212
   86DPPC    C1 4251   7.212   7.226   5.433
   86DPPC    C2 4252   7.419   7.192   5.294
   86DPPC    C3 4253   7.388   7.355   5.459
   86DPPC    N4 4254   7.359   7.215   5.426
   86DPPC    C5 4255   7.421   7.131   5.529
   86DPPC    C6 4256   7.412   6.979   5.509
   86DPPC    O7 4257   7.279   6.928   5.493
   86DPPC    P8 4258   7.290   6.770   5.461
   86DPPC    O9 4259   7.189   6.726   5.559
   86DPPC   O10 4260   7.431   6.726   5.460
   86DPPC   O11 4261   7.222   6.791   5.317
   86DPPC   C12 4262   7.308   6.786   5.203
   86DPPC   C13 4263   7.231   6.766   5.073
   86DPPC   O14 4264   7.322   6.771   4.962
   86DPPC   C15 4265   7.286   6.699   4.852
   86DPPC   O16 4266   7.197   6.615   4.863
   86DPPC   C17 4267   7.401   6.691   4.751
   86DPPC   C18 4268   7.362   6.641   4.612
   86DPPC   C19 4269   7.459   6.692   4.505
   86DPPC   C20 4270   7.393   6.663   4.370
   86DPPC   C21 4271   7.478   6.724   4.258
   86DPPC   C22 4272   7.455   6.875   4.250
   86DPPC   C23 4273   7.350   6.938   4.159
   86DPPC   C24 4274   7.354   7.090   4.180
   86DPPC   C25 4275   7.265   7.171   4.086
   86DPPC   C26 4276   7.320   7.164   3.944
   86DPPC   C27 4277   7.232   7.259   3.863
   86DPPC   C28 4278   7.288   7.292   3.724
   86DPPC   C29 4279   7.335   7.180   3.633
   86DPPC   C30 4280   7.407   7.228   3.506
   86DPPC   C31 4281   7.302   7.291   3.414
   86DPPC   C32 4282   7.115   6.865   5.063
   86DPPC   O33 4283   7.147   7.003   5.048
   86DPPC   C34 4284   7.042   7.088   5.068
   86DPPC   O35 4285   6.928   7.046   5.088
   86DPPC   C36 4286   7.085   7.234   5.084
   86DPPC   C37 4287   7.076   7.306   4.949
   86DPPC   C38 4288   6.936   7.347   4.902
   86DPPC   C39 4289   6.941   7.393   4.757
   86DPPC   C40 4290   7.029   7.518   4.759
   86DPPC   C41 4291   7.117   7.516   4.633
   86DPPC   C42 4292   7.194   7.646   4.610
   86DPPC   C43 4293   7.291   7.667   4.727
   86DPPC   C44 4294   7.375   7.793   4.704
   86DPPC   C45 4295   7.270   7.905   4.705
   86DPPC   C46 4296   7.313   8.038   4.641
   86DPPC   C47 4297   7.211   8.152   4.646
   86DPPC   C48 4298   7.291   8.265   4.581
   86DPPC   C49 4299   7.201   8.389   4.585
   86DPPC   C50 4300   7.259   8.486   4.482
   87DPPC    C1 4301   5.237   4.550   5.846
   87DPPC    C2 4302   5.081   4.413   5.955
   87DPPC    C3 4303   5.023   4.573   5.795
   87DPPC    N4 4304   5.119   4.466   5.823
   87DPPC    C5 4305   5.133   4.372   5.711
   87DPPC    C6 4306   5.249   4.273   5.709
   87DPPC    O7 4307   5.214   4.166   5.797
   87DPPC    P8 4308   5.332   4.059   5.821
   87DPPC    O9 4309   5.265   3.927   5.834
   87DPPC   O10 4310   5.409   4.126   5.928
   87DPPC   O11 4311   5.400   4.071   5.676
   87DPPC   C12 4312   5.363   3.959   5.595
   87DPPC   C13 4313   5.295   3.995   5.463
   87DPPC   O14 4314   5.247   3.880   5.392
   87DPPC   C15 4315   5.116   3.846   5.408
   87DPPC   O16 4316   5.044   3.886   5.499
   87DPPC   C17 4317   5.065   3.729   5.324
   87DPPC   C18 4318   4.943   3.754   5.236
   87DPPC   C19 4319   4.902   3.641   5.141
   87DPPC   C20 4320   5.010   3.621   5.034
   87DPPC   C21 4321   4.963   3.511   4.938
   87DPPC   C22 4322   5.079   3.481   4.843
   87DPPC   C23 4323   5.124   3.612   4.779
   87DPPC   C24 4324   5.248   3.590   4.691
   87DPPC   C25 4325   5.220   3.537   4.550
   87DPPC   C26 4326   5.131   3.634   4.472
   87DPPC   C27 4327   5.090   3.567   4.340
   87DPPC   C28 4328   4.972   3.635   4.269
   87DPPC   C29 4329   4.942   3.551   4.144
   87DPPC   C30 4330   4.810   3.606   4.090
   87DPPC   C31 4331   4.779   3.547   3.953
   87DPPC   C32 4332   5.385   4.092   5.387
   87DPPC   O33 4333   5.302   4.173   5.304
   87DPPC   C34 4334   5.372   4.240   5.208
   87DPPC   O35 4335   5.495   4.237   5.204
   87DPPC   C36 4336   5.289   4.286   5.088
   87DPPC   C37 4337   5.272   4.175   4.983
   87DPPC   C38 4338   5.187   4.062   5.041
   87DPPC   C39 4339   5.138   3.962   4.936
   87DPPC   C40 4340   5.033   4.033   4.851
   87DPPC   C41 4341   4.977   3.945   4.739
   87DPPC   C42 4342   4.854   4.000   4.666
   87DPPC   C43 4343   4.842   3.940   4.526
   87DPPC   C44 4344   4.712   3.998   4.471
   87DPPC   C45 4345   4.703   3.957   4.324
   87DPPC   C46 4346   4.601   4.050   4.258
   87DPPC   C47 4347   4.588   4.039   4.106
   87DPPC   C48 4348   4.556   3.893   4.075
   87DPPC   C49 4349   4.527   3.891   3.925
   87DPPC   C50 4350   4.411   3.975   3.872
   88DPPC    C1 4351   7.978   6.601   5.319
   88DPPC    C2 4352   7.845   6.417   5.390
   88DPPC    C3 4353   7.869   6.618   5.524
   88DPPC    N4 4354   7.854   6.564   5.389
   88DPPC    C5 4355   7.736   6.607   5.311
   88DPPC    C6 4356   7.696   6.754   5.304
   88DPPC    O7 4357   7.796   6.839   5.247
   88DPPC    P8 4358   7.752   6.994   5.247
   88DPPC    O9 4359   7.871   7.069   5.202
   88DPPC   O10 4360   7.676   7.026   5.370
   88DPPC   O11 4361   7.648   6.984   5.124
   88DPPC   C12 4362   7.713   6.939   5.005
   88DPPC   C13 4363   7.639   6.905   4.875
   88DPPC   O14 4364   7.728   6.878   4.765
   88DPPC   C15 4365   7.780   6.755   4.741
   88DPPC   O16 4366   7.772   6.678   4.836
   88DPPC   C17 4367   7.833   6.718   4.602
   88DPPC   C18 4368   7.822   6.568   4.572
   88DPPC   C19 4369   7.928   6.541   4.464
   88DPPC   C20 4370   7.925   6.395   4.419
   88DPPC   C21 4371   8.036   6.381   4.315
   88DPPC   C22 4372   7.989   6.311   4.187
   88DPPC   C23 4373   8.114   6.262   4.115
   88DPPC   C24 4374   8.079   6.204   3.977
   88DPPC   C25 4375   8.198   6.142   3.905
   88DPPC   C26 4376   8.169   6.132   3.755
   88DPPC   C27 4377   8.291   6.082   3.677
   88DPPC   C28 4378   8.247   6.013   3.548
   88DPPC   C29 4379   8.182   6.114   3.454
   88DPPC   C30 4380   8.171   6.075   3.307
   88DPPC   C31 4381   8.151   6.188   3.205
   88DPPC   C32 4382   7.552   7.028   4.851
   88DPPC   O33 4383   7.433   7.010   4.773
   88DPPC   C34 4384   7.352   7.120   4.777
   88DPPC   O35 4385   7.394   7.220   4.834
   88DPPC   C36 4386   7.210   7.100   4.725
   88DPPC   C37 4387   7.201   7.121   4.574
   88DPPC   C38 4388   7.066   7.081   4.514
   88DPPC   C39 4389   7.043   6.930   4.523
   88DPPC   C40 4390   6.896   6.900   4.489
   88DPPC   C41 4391   6.878   6.756   4.536
   88DPPC   C42 4392   6.730   6.716   4.540
   88DPPC   C43 4393   6.668   6.714   4.400
   88DPPC   C44 4394   6.532   6.645   4.389
   88DPPC   C45 4395   6.448   6.686   4.267
   88DPPC   C46 4396   6.358   6.569   4.228
   88DPPC   C47 4397   6.294   6.592   4.091
   88DPPC   C48 4398   6.208   6.468   4.062
   88DPPC   C49 4399   6.288   6.343   4.097
   88DPPC   C50 4400   6.226   6.221   4.027
   89DPPC    C1 4401   8.947   1.096   5.532
   89DPPC    C2 4402   9.001   1.318   5.547
   89DPPC    C3 4403   9.072   1.203   5.363
   89DPPC    N4 4404   8.955   1.218   5.450
   89DPPC    C5 4405   8.844   1.256   5.362
   89DPPC    C6 4406   8.704   1.302   5.404
   89DPPC    O7 4407   8.716   1.385   5.520
   89DPPC    P8 4408   8.584   1.477   5.529
   89DPPC    O9 4409   8.614   1.593   5.616
   89DPPC   O10 4410   8.476   1.378   5.546
   89DPPC   O11 4411   8.589   1.524   5.375
   89DPPC   C12 4412   8.484   1.609   5.328
   89DPPC   C13 4413   8.529   1.682   5.202
   89DPPC   O14 4414   8.423   1.770   5.161
   89DPPC   C15 4415   8.425   1.903   5.187
   89DPPC   O16 4416   8.487   1.942   5.286
   89DPPC   C17 4417   8.338   1.994   5.099
   89DPPC   C18 4418   8.319   1.949   4.954
   89DPPC   C19 4419   8.252   2.049   4.860
   89DPPC   C20 4420   8.223   1.987   4.723
   89DPPC   C21 4421   8.157   2.086   4.627
   89DPPC   C22 4422   8.025   2.134   4.688
   89DPPC   C23 4423   7.968   2.220   4.576
   89DPPC   C24 4424   7.837   2.282   4.625
   89DPPC   C25 4425   7.761   2.367   4.523
   89DPPC   C26 4426   7.716   2.279   4.406
   89DPPC   C27 4427   7.618   2.358   4.319
   89DPPC   C28 4428   7.670   2.489   4.259
   89DPPC   C29 4429   7.566   2.541   4.159
   89DPPC   C30 4430   7.624   2.672   4.106
   89DPPC   C31 4431   7.753   2.657   4.026
   89DPPC   C32 4432   8.574   1.583   5.094
   89DPPC   O33 4433   8.643   1.656   4.992
   89DPPC   C34 4434   8.672   1.597   4.873
   89DPPC   O35 4435   8.636   1.480   4.858
   89DPPC   C36 4436   8.750   1.671   4.763
   89DPPC   C37 4437   8.652   1.740   4.668
   89DPPC   C38 4438   8.717   1.865   4.609
   89DPPC   C39 4439   8.729   1.874   4.457
   89DPPC   C40 4440   8.594   1.893   4.387
   89DPPC   C41 4441   8.622   1.933   4.241
   89DPPC   C42 4442   8.499   1.909   4.154
   89DPPC   C43 4443   8.370   1.954   4.224
   89DPPC   C44 4444   8.252   1.897   4.145
   89DPPC   C45 4445   8.132   1.968   4.207
   89DPPC   C46 4446   8.006   1.927   4.129
   89DPPC   C47 4447   7.874   1.960   4.197
   89DPPC   C48 4448   7.765   1.894   4.112
   89DPPC   C49 4449   7.629   1.947   4.160
   89DPPC   C50 4450   7.525   1.910   4.054
   90DPPC    C1 4451   6.130   3.042   6.026
   90DPPC    C2 4452   5.970   3.208   5.933
   90DPPC    C3 4453   6.097   3.256   6.100
   90DPPC    N4 4454   6.108   3.178   5.976
   90DPPC    C5 4455   6.208   3.228   5.881
   90DPPC    C6 4456   6.238   3.378   5.873
   90DPPC    O7 4457   6.143   3.454   5.798
   90DPPC    P8 4458   6.145   3.609   5.840
   90DPPC    O9 4459   6.170   3.605   5.986
   90DPPC   O10 4460   6.045   3.695   5.773
   90DPPC   O11 4461   6.286   3.636   5.767
   90DPPC   C12 4462   6.264   3.643   5.626
   90DPPC   C13 4463   6.391   3.645   5.540
   90DPPC   O14 4464   6.375   3.687   5.404
   90DPPC   C15 4465   6.311   3.803   5.371
   90DPPC   O16 4466   6.299   3.895   5.451
   90DPPC   C17 4467   6.284   3.825   5.222
   90DPPC   C18 4468   6.160   3.747   5.178
   90DPPC   C19 4469   6.104   3.797   5.044
   90DPPC   C20 4470   6.198   3.817   4.925
   90DPPC   C21 4471   6.136   3.858   4.791
   90DPPC   C22 4472   6.243   3.913   4.696
   90DPPC   C23 4473   6.205   3.941   4.551
   90DPPC   C24 4474   6.323   3.985   4.464
   90DPPC   C25 4475   6.279   4.013   4.320
   90DPPC   C26 4476   6.396   3.989   4.224
   90DPPC   C27 4477   6.355   4.025   4.081
   90DPPC   C28 4478   6.477   4.006   3.992
   90DPPC   C29 4479   6.448   3.971   3.845
   90DPPC   C30 4480   6.408   3.825   3.824
   90DPPC   C31 4481   6.540   3.748   3.827
   90DPPC   C32 4482   6.470   3.515   5.552
   90DPPC   O33 4483   6.395   3.396   5.524
   90DPPC   C34 4484   6.460   3.279   5.545
   90DPPC   O35 4485   6.559   3.280   5.618
   90DPPC   C36 4486   6.383   3.147   5.534
   90DPPC   C37 4487   6.406   3.070   5.404
   90DPPC   C38 4488   6.294   2.966   5.395
   90DPPC   C39 4489   6.282   2.902   5.257
   90DPPC   C40 4490   6.171   2.797   5.256
   90DPPC   C41 4491   6.170   2.731   5.117
   90DPPC   C42 4492   6.078   2.614   5.086
   90DPPC   C43 4493   6.070   2.586   4.936
   90DPPC   C44 4494   6.025   2.701   4.845
   90DPPC   C45 4495   6.038   2.645   4.703
   90DPPC   C46 4496   6.013   2.745   4.590
   90DPPC   C47 4497   6.078   2.691   4.463
   90DPPC   C48 4498   5.984   2.710   4.344
   90DPPC   C49 4499   6.016   2.601   4.242
   90DPPC   C50 4500   6.157   2.622   4.187
   91DPPC    C1 4501   4.569   7.048   5.451
   91DPPC    C2 4502   4.513   7.185   5.623
   91DPPC    C3 4503   4.700   7.254   5.504
   91DPPC    N4 4504   4.568   7.190   5.487
   91DPPC    C5 4505   4.467   7.271   5.416
   91DPPC    C6 4506   4.500   7.273   5.267
   91DPPC    O7 4507   4.409   7.366   5.208
   91DPPC    P8 4508   4.363   7.314   5.063
   91DPPC    O9 4509   4.294   7.432   5.006
   91DPPC   O10 4510   4.291   7.188   5.095
   91DPPC   O11 4511   4.504   7.263   5.004
   91DPPC   C12 4512   4.508   7.331   4.878
   91DPPC   C13 4513   4.626   7.281   4.795
   91DPPC   O14 4514   4.669   7.358   4.681
   91DPPC   C15 4515   4.747   7.469   4.692
   91DPPC   O16 4516   4.792   7.516   4.796
   91DPPC   C17 4517   4.812   7.504   4.558
   91DPPC   C18 4518   4.779   7.423   4.432
   91DPPC   C19 4519   4.873   7.456   4.316
   91DPPC   C20 4520   4.815   7.403   4.185
   91DPPC   C21 4521   4.887   7.472   4.069
   91DPPC   C22 4522   4.879   7.390   3.940
   91DPPC   C23 4523   4.946   7.456   3.820
   91DPPC   C24 4524   4.968   7.365   3.699
   91DPPC   C25 4525   5.017   7.450   3.582
   91DPPC   C26 4526   5.031   7.356   3.462
   91DPPC   C27 4527   5.130   7.240   3.479
   91DPPC   C28 4528   5.173   7.192   3.340
   91DPPC   C29 4529   5.280   7.082   3.342
   91DPPC   C30 4530   5.360   7.068   3.213
   91DPPC   C31 4531   5.272   7.019   3.098
   91DPPC   C32 4532   4.609   7.131   4.770
   91DPPC   O33 4533   4.471   7.094   4.760
   91DPPC   C34 4534   4.442   6.967   4.720
   91DPPC   O35 4535   4.526   6.880   4.746
   91DPPC   C36 4536   4.309   6.940   4.651
   91DPPC   C37 4537   4.328   6.838   4.538
   91DPPC   C38 4538   4.185   6.806   4.492
   91DPPC   C39 4539   4.199   6.710   4.374
   91DPPC   C40 4540   4.262   6.803   4.270
   91DPPC   C41 4541   4.304   6.723   4.147
   91DPPC   C42 4542   4.190   6.637   4.092
   91DPPC   C43 4543   4.241   6.547   3.979
   91DPPC   C44 4544   4.365   6.471   4.026
   91DPPC   C45 4545   4.386   6.353   3.930
   91DPPC   C46 4546   4.406   6.395   3.784
   91DPPC   C47 4547   4.427   6.276   3.691
   91DPPC   C48 4548   4.391   6.328   3.552
   91DPPC   C49 4549   4.395   6.205   3.460
   91DPPC   C50 4550   4.364   6.238   3.314
   92DPPC    C1 4551   1.912   5.902   5.315
   92DPPC    C2 4552   1.886   6.131   5.401
   92DPPC    C3 4553   1.854   5.957   5.539
   92DPPC    N4 4554   1.938   5.995   5.425
   92DPPC    C5 4555   2.079   5.994   5.468
   92DPPC    C6 4556   2.178   6.039   5.361
   92DPPC    O7 4557   2.238   5.930   5.291
   92DPPC    P8 4558   2.359   5.975   5.194
   92DPPC    O9 4559   2.372   5.846   5.124
   92DPPC   O10 4560   2.437   6.018   5.312
   92DPPC   O11 4561   2.268   6.078   5.109
   92DPPC   C12 4562   2.229   6.004   4.993
   92DPPC   C13 4563   2.145   6.078   4.889
   92DPPC   O14 4564   2.108   5.993   4.779
   92DPPC   C15 4565   1.976   5.962   4.772
   92DPPC   O16 4566   1.898   6.036   4.832
   92DPPC   C17 4567   1.932   5.848   4.680
   92DPPC   C18 4568   1.921   5.899   4.536
   92DPPC   C19 4569   1.942   5.768   4.461
   92DPPC   C20 4570   1.913   5.807   4.316
   92DPPC   C21 4571   1.892   5.682   4.230
   92DPPC   C22 4572   1.850   5.722   4.088
   92DPPC   C23 4573   1.846   5.599   3.997
   92DPPC   C24 4574   1.747   5.498   4.056
   92DPPC   C25 4575   1.734   5.384   3.955
   92DPPC   C26 4576   1.613   5.300   3.999
   92DPPC   C27 4577   1.588   5.214   3.876
   92DPPC   C28 4578   1.605   5.298   3.749
   92DPPC   C29 4579   1.550   5.209   3.638
   92DPPC   C30 4580   1.571   5.244   3.491
   92DPPC   C31 4581   1.527   5.391   3.482
   92DPPC   C32 4582   2.229   6.202   4.857
   92DPPC   O33 4583   2.365   6.181   4.817
   92DPPC   C34 4584   2.449   6.287   4.804
   92DPPC   O35 4585   2.455   6.390   4.870
   92DPPC   C36 4586   2.580   6.256   4.731
   92DPPC   C37 4587   2.636   6.376   4.655
   92DPPC   C38 4588   2.780   6.350   4.611
   92DPPC   C39 4589   2.794   6.238   4.508
   92DPPC   C40 4590   2.710   6.274   4.385
   92DPPC   C41 4591   2.748   6.180   4.271
   92DPPC   C42 4592   2.729   6.031   4.301
   92DPPC   C43 4593   2.730   5.953   4.169
   92DPPC   C44 4594   2.681   5.812   4.204
   92DPPC   C45 4595   2.781   5.739   4.293
   92DPPC   C46 4596   2.742   5.595   4.330
   92DPPC   C47 4597   2.834   5.529   4.433
   92DPPC   C48 4598   2.793   5.392   4.487
   92DPPC   C49 4599   2.893   5.335   4.588
   92DPPC   C50 4600   2.837   5.202   4.638
   93DPPC    C1 4601   1.392   2.689   4.945
   93DPPC    C2 4602   1.305   2.872   4.826
   93DPPC    C3 4603   1.177   2.666   4.864
   93DPPC    N4 4604   1.268   2.766   4.921
   93DPPC    C5 4605   1.217   2.799   5.055
   93DPPC    C6 4606   1.284   2.916   5.129
   93DPPC    O7 4607   1.215   3.036   5.094
   93DPPC    P8 4608   1.292   3.161   5.160
   93DPPC    O9 4609   1.377   3.108   5.269
   93DPPC   O10 4610   1.181   3.255   5.190
   93DPPC   O11 4611   1.370   3.202   5.025
   93DPPC   C12 4612   1.272   3.245   4.931
   93DPPC   C13 4613   1.308   3.363   4.840
   93DPPC   O14 4614   1.217   3.413   4.741
   93DPPC   C15 4615   1.110   3.490   4.774
   93DPPC   O16 4616   1.075   3.513   4.890
   93DPPC   C17 4617   1.027   3.532   4.653
   93DPPC   C18 4618   0.890   3.463   4.657
   93DPPC   C19 4619   0.797   3.505   4.543
   93DPPC   C20 4620   0.868   3.478   4.410
   93DPPC   C21 4621   0.807   3.512   4.274
   93DPPC   C22 4622   0.781   3.662   4.254
   93DPPC   C23 4623   0.721   3.697   4.118
   93DPPC   C24 4624   0.826   3.682   4.007
   93DPPC   C25 4625   0.772   3.732   3.873
   93DPPC   C26 4626   0.658   3.637   3.835
   93DPPC   C27 4627   0.591   3.658   3.699
   93DPPC   C28 4628   0.682   3.635   3.578
   93DPPC   C29 4629   0.598   3.666   3.453
   93DPPC   C30 4630   0.679   3.604   3.339
   93DPPC   C31 4631   0.611   3.644   3.208
   93DPPC   C32 4632   1.435   3.311   4.772
   93DPPC   O33 4633   1.410   3.208   4.676
   93DPPC   C34 4634   1.505   3.184   4.582
   93DPPC   O35 4635   1.624   3.209   4.602
   93DPPC   C36 4636   1.473   3.085   4.470
   93DPPC   C37 4637   1.331   3.099   4.415
   93DPPC   C38 4638   1.301   2.994   4.308
   93DPPC   C39 4639   1.388   3.007   4.182
   93DPPC   C40 4640   1.351   2.899   4.081
   93DPPC   C41 4641   1.434   2.914   3.953
   93DPPC   C42 4642   1.368   2.826   3.847
   93DPPC   C43 4643   1.439   2.824   3.712
   93DPPC   C44 4644   1.360   2.911   3.613
   93DPPC   C45 4645   1.445   2.939   3.489
   93DPPC   C46 4646   1.357   3.035   3.408
   93DPPC   C47 4647   1.423   3.123   3.303
   93DPPC   C48 4648   1.441   3.054   3.168
   93DPPC   C49 4649   1.472   3.138   3.044
   93DPPC   C50 4650   1.494   3.065   2.911
   94DPPC    C1 4651   3.529   6.440   5.325
   94DPPC    C2 4652   3.623   6.543   5.529
   94DPPC    C3 4653   3.392   6.530   5.503
   94DPPC    N4 4654   3.517   6.460   5.470
   94DPPC    C5 4655   3.503   6.327   5.531
   94DPPC    C6 4656   3.626   6.238   5.553
   94DPPC    O7 4657   3.697   6.205   5.433
   94DPPC    P8 4658   3.816   6.107   5.478
   94DPPC    O9 4659   3.736   6.006   5.550
   94DPPC   O10 4660   3.901   6.206   5.550
   94DPPC   O11 4661   3.852   6.079   5.324
   94DPPC   C12 4662   3.918   6.195   5.273
   94DPPC   C13 4663   3.936   6.188   5.121
   94DPPC   O14 4664   3.821   6.243   5.055
   94DPPC   C15 4665   3.820   6.377   5.031
   94DPPC   O16 4666   3.908   6.450   5.076
   94DPPC   C17 4667   3.692   6.432   4.968
   94DPPC   C18 4668   3.732   6.525   4.853
   94DPPC   C19 4669   3.597   6.558   4.789
   94DPPC   C20 4670   3.618   6.659   4.676
   94DPPC   C21 4671   3.490   6.685   4.597
   94DPPC   C22 4672   3.530   6.792   4.495
   94DPPC   C23 4673   3.647   6.749   4.407
   94DPPC   C24 4674   3.609   6.629   4.320
   94DPPC   C25 4675   3.695   6.614   4.194
   94DPPC   C26 4676   3.699   6.471   4.140
   94DPPC   C27 4677   3.748   6.481   3.996
   94DPPC   C28 4678   3.808   6.345   3.957
   94DPPC   C29 4679   3.705   6.234   3.983
   94DPPC   C30 4680   3.634   6.202   3.852
   94DPPC   C31 4681   3.545   6.079   3.872
   94DPPC   C32 4682   3.967   6.044   5.082
   94DPPC   O33 4683   4.021   6.012   4.953
   94DPPC   C34 4684   4.075   5.888   4.960
   94DPPC   O35 4685   4.065   5.829   5.068
   94DPPC   C36 4686   4.157   5.843   4.839
   94DPPC   C37 4687   4.076   5.737   4.764
   94DPPC   C38 4688   4.117   5.754   4.618
   94DPPC   C39 4689   4.247   5.680   4.586
   94DPPC   C40 4690   4.285   5.744   4.452
   94DPPC   C41 4691   4.177   5.704   4.351
   94DPPC   C42 4692   4.235   5.741   4.214
   94DPPC   C43 4693   4.361   5.664   4.174
   94DPPC   C44 4694   4.367   5.678   4.022
   94DPPC   C45 4695   4.489   5.603   3.967
   94DPPC   C46 4696   4.503   5.609   3.815
   94DPPC   C47 4697   4.600   5.501   3.767
   94DPPC   C48 4698   4.648   5.525   3.623
   94DPPC   C49 4699   4.714   5.397   3.570
   94DPPC   C50 4700   4.748   5.419   3.422
   95DPPC    C1 4701   1.166   1.774   5.484
   95DPPC    C2 4702   1.007   1.692   5.335
   95DPPC    C3 4703   0.946   1.798   5.541
   95DPPC    N4 4704   1.035   1.805   5.425
   95DPPC    C5 4705   1.033   1.930   5.347
   95DPPC    C6 4706   1.041   2.061   5.426
   95DPPC    O7 4707   1.176   2.105   5.446
   95DPPC    P8 4708   1.166   2.250   5.515
   95DPPC    O9 4709   1.309   2.279   5.534
   95DPPC   O10 4710   1.080   2.234   5.634
   95DPPC   O11 4711   1.107   2.327   5.387
   95DPPC   C12 4712   1.209   2.357   5.291
   95DPPC   C13 4713   1.145   2.401   5.160
   95DPPC   O14 4714   1.229   2.413   5.044
   95DPPC   C15 4715   1.256   2.294   4.985
   95DPPC   O16 4716   1.205   2.193   5.033
   95DPPC   C17 4717   1.374   2.283   4.888
   95DPPC   C18 4718   1.375   2.156   4.802
   95DPPC   C19 4719   1.255   2.160   4.707
   95DPPC   C20 4720   1.239   2.021   4.644
   95DPPC   C21 4721   1.123   2.021   4.545
   95DPPC   C22 4722   1.107   1.880   4.487
   95DPPC   C23 4723   0.990   1.883   4.389
   95DPPC   C24 4724   1.031   1.967   4.268
   95DPPC   C25 4725   0.919   1.965   4.163
   95DPPC   C26 4726   0.971   1.920   4.027
   95DPPC   C27 4727   0.854   1.909   3.929
   95DPPC   C28 4728   0.915   1.879   3.792
   95DPPC   C29 4729   0.814   1.842   3.683
   95DPPC   C30 4730   0.902   1.791   3.568
   95DPPC   C31 4731   0.799   1.759   3.459
   95DPPC   C32 4732   1.065   2.517   5.218
   95DPPC   O33 4733   0.991   2.590   5.120
   95DPPC   C34 4734   0.868   2.627   5.165
   95DPPC   O35 4735   0.822   2.554   5.253
   95DPPC   C36 4736   0.792   2.743   5.100
   95DPPC   C37 4737   0.822   2.759   4.951
   95DPPC   C38 4738   0.741   2.877   4.897
   95DPPC   C39 4739   0.798   2.900   4.757
   95DPPC   C40 4740   0.881   3.028   4.747
   95DPPC   C41 4741   0.948   3.035   4.610
   95DPPC   C42 4742   0.855   3.087   4.500
   95DPPC   C43 4743   0.934   3.091   4.369
   95DPPC   C44 4744   0.837   3.125   4.255
   95DPPC   C45 4745   0.921   3.156   4.131
   95DPPC   C46 4746   0.840   3.191   4.006
   95DPPC   C47 4747   0.925   3.229   3.885
   95DPPC   C48 4748   0.846   3.252   3.756
   95DPPC   C49 4749   0.769   3.125   3.717
   95DPPC   C50 4750   0.851   3.001   3.680
   96DPPC    C1 4751   2.055   7.957   4.611
   96DPPC    C2 4752   2.032   7.865   4.834
   96DPPC    C3 4753   2.201   7.783   4.683
   96DPPC    N4 4754   2.126   7.902   4.727
   96DPPC    C5 4755   2.218   8.009   4.767
   96DPPC    C6 4756   2.335   7.978   4.861
   96DPPC    O7 4757   2.389   8.099   4.914
   96DPPC    P8 4758   2.543   8.097   4.959
   96DPPC    O9 4759   2.565   7.960   5.009
   96DPPC   O10 4760   2.559   8.218   5.043
   96DPPC   O11 4761   2.599   8.112   4.809
   96DPPC   C12 4762   2.604   8.252   4.778
   96DPPC   C13 4763   2.681   8.276   4.648
   96DPPC   O14 4764   2.624   8.383   4.571
   96DPPC   C15 4765   2.668   8.510   4.593
   96DPPC   O16 4766   2.711   8.543   4.704
   96DPPC   C17 4767   2.609   8.616   4.500
   96DPPC   C18 4768   2.700   8.625   4.377
   96DPPC   C19 4769   2.619   8.699   4.270
   96DPPC   C20 4770   2.491   8.624   4.236
   96DPPC   C21 4771   2.413   8.693   4.124
   96DPPC   C22 4772   2.297   8.608   4.071
   96DPPC   C23 4773   2.267   8.632   3.922
   96DPPC   C24 4774   2.213   8.769   3.882
   96DPPC   C25 4775   2.183   8.778   3.732
   96DPPC   C26 4776   2.150   8.921   3.687
   96DPPC   C27 4777   2.189   8.932   3.540
   96DPPC   C28 4778   2.143   9.072   3.497
   96DPPC   C29 4779   2.182   9.108   3.354
   96DPPC   C30 4780   2.334   9.090   3.357
   96DPPC   C31 4781   2.385   9.082   3.213
   96DPPC   C32 4782   2.685   8.150   4.562
   96DPPC   O33 4783   2.764   8.152   4.443
   96DPPC   C34 4784   2.723   8.060   4.352
   96DPPC   O35 4785   2.645   7.969   4.377
   96DPPC   C36 4786   2.793   8.065   4.216
   96DPPC   C37 4787   2.941   8.035   4.241
   96DPPC   C38 4788   3.028   8.051   4.116
   96DPPC   C39 4789   3.174   8.018   4.149
   96DPPC   C40 4790   3.210   8.097   4.274
   96DPPC   C41 4791   3.339   8.047   4.339
   96DPPC   C42 4792   3.454   8.057   4.238
   96DPPC   C43 4793   3.582   8.039   4.320
   96DPPC   C44 4794   3.708   8.075   4.241
   96DPPC   C45 4795   3.701   8.220   4.195
   96DPPC   C46 4796   3.813   8.262   4.099
   96DPPC   C47 4797   3.800   8.410   4.061
   96DPPC   C48 4798   3.918   8.460   3.977
   96DPPC   C49 4799   4.041   8.406   4.050
   96DPPC   C50 4800   4.169   8.449   3.977
   97DPPC    C1 4801   9.580   4.339   5.687
   97DPPC    C2 4802   9.539   4.189   5.494
   97DPPC    C3 4803   9.728   4.304   5.511
   97DPPC    N4 4804   9.632   4.235   5.598
   97DPPC    C5 4805   9.666   4.125   5.690
   97DPPC    C6 4806   9.763   4.013   5.652
   97DPPC    O7 4807   9.903   4.036   5.639
   97DPPC    P8 4808   9.966   3.888   5.653
   97DPPC    O9 4809   9.863   3.793   5.606
   97DPPC   O10 4810   9.988   3.882   5.799
   97DPPC   O11 4811  10.098   3.881   5.560
   97DPPC   C12 4812  10.045   3.910   5.431
   97DPPC   C13 4813  10.122   3.837   5.321
   97DPPC   O14 4814  10.134   3.921   5.206
   97DPPC   C15 4815  10.208   3.868   5.105
   97DPPC   O16 4816  10.271   3.764   5.122
   97DPPC   C17 4817  10.251   3.962   4.992
   97DPPC   C18 4818  10.260   3.876   4.866
   97DPPC   C19 4819  10.297   3.970   4.751
   97DPPC   C20 4820  10.299   3.901   4.615
   97DPPC   C21 4821  10.287   3.996   4.495
   97DPPC   C22 4822  10.144   4.047   4.479
   97DPPC   C23 4823  10.140   4.158   4.373
   97DPPC   C24 4824   9.994   4.180   4.334
   97DPPC   C25 4825   9.965   4.269   4.213
   97DPPC   C26 4826  10.019   4.213   4.082
   97DPPC   C27 4827   9.973   4.069   4.058
   97DPPC   C28 4828   9.967   4.031   3.910
   97DPPC   C29 4829   9.868   4.126   3.843
   97DPPC   C30 4830   9.853   4.084   3.696
   97DPPC   C31 4831   9.986   4.082   3.621
   97DPPC   C32 4832  10.064   3.697   5.294
   97DPPC   O33 4833   9.966   3.705   5.190
   97DPPC   C34 4834   9.902   3.592   5.150
   97DPPC   O35 4835   9.918   3.486   5.211
   97DPPC   C36 4836   9.832   3.609   5.015
   97DPPC   C37 4837   9.931   3.623   4.900
   97DPPC   C38 4838   9.860   3.629   4.765
   97DPPC   C39 4839   9.933   3.688   4.644
   97DPPC   C40 4840   9.843   3.703   4.522
   97DPPC   C41 4841   9.925   3.718   4.393
   97DPPC   C42 4842   9.845   3.673   4.270
   97DPPC   C43 4843   9.705   3.732   4.257
   97DPPC   C44 4844   9.630   3.696   4.129
   97DPPC   C45 4845   9.707   3.724   4.000
   97DPPC   C46 4846   9.618   3.686   3.881
   97DPPC   C47 4847   9.695   3.711   3.751
   97DPPC   C48 4848   9.611   3.714   3.623
   97DPPC   C49 4849   9.695   3.719   3.495
   97DPPC   C50 4850   9.622   3.758   3.366
   98DPPC    C1 4851   7.981   4.290   5.618
   98DPPC    C2 4852   7.807   4.141   5.669
   98DPPC    C3 4853   7.829   4.376   5.763
   98DPPC    N4 4854   7.837   4.283   5.650
   98DPPC    C5 4855   7.771   4.343   5.533
   98DPPC    C6 4856   7.618   4.351   5.529
   98DPPC    O7 4857   7.548   4.226   5.530
   98DPPC    P8 4858   7.402   4.279   5.575
   98DPPC    O9 4859   7.434   4.357   5.696
   98DPPC   O10 4860   7.311   4.162   5.574
   98DPPC   O11 4861   7.363   4.366   5.445
   98DPPC   C12 4862   7.336   4.267   5.345
   98DPPC   C13 4863   7.306   4.335   5.211
   98DPPC   O14 4864   7.263   4.241   5.112
   98DPPC   C15 4865   7.133   4.242   5.071
   98DPPC   O16 4866   7.066   4.323   5.136
   98DPPC   C17 4867   7.092   4.168   4.944
   98DPPC   C18 4868   7.211   4.166   4.848
   98DPPC   C19 4869   7.236   4.294   4.768
   98DPPC   C20 4870   7.244   4.275   4.616
   98DPPC   C21 4871   7.351   4.174   4.574
   98DPPC   C22 4872   7.381   4.181   4.424
   98DPPC   C23 4873   7.439   4.315   4.379
   98DPPC   C24 4874   7.475   4.340   4.232
   98DPPC   C25 4875   7.342   4.359   4.159
   98DPPC   C26 4876   7.357   4.338   4.009
   98DPPC   C27 4877   7.458   4.435   3.947
   98DPPC   C28 4878   7.431   4.447   3.797
   98DPPC   C29 4879   7.291   4.507   3.781
   98DPPC   C30 4880   7.249   4.500   3.634
   98DPPC   C31 4881   7.350   4.556   3.534
   98DPPC   C32 4882   7.437   4.405   5.172
   98DPPC   O33 4883   7.435   4.494   5.061
   98DPPC   C34 4884   7.553   4.498   4.992
   98DPPC   O35 4885   7.654   4.442   5.035
   98DPPC   C36 4886   7.547   4.543   4.846
   98DPPC   C37 4887   7.653   4.644   4.801
   98DPPC   C38 4888   7.612   4.700   4.665
   98DPPC   C39 4889   7.709   4.679   4.549
   98DPPC   C40 4890   7.656   4.756   4.428
   98DPPC   C41 4891   7.718   4.703   4.298
   98DPPC   C42 4892   7.679   4.786   4.176
   98DPPC   C43 4893   7.749   4.732   4.051
   98DPPC   C44 4894   7.721   4.806   3.920
   98DPPC   C45 4895   7.757   4.720   3.798
   98DPPC   C46 4896   7.907   4.691   3.797
   98DPPC   C47 4897   7.939   4.618   3.666
   98DPPC   C48 4898   8.087   4.646   3.637
   98DPPC   C49 4899   8.145   4.521   3.571
   98DPPC   C50 4900   8.297   4.533   3.554
   99DPPC    C1 4901   8.390   5.371   1.160
   99DPPC    C2 4902   8.526   5.483   1.331
   99DPPC    C3 4903   8.539   5.520   1.093
   99DPPC    N4 4904   8.448   5.497   1.207
   99DPPC    C5 4905   8.353   5.609   1.213
   99DPPC    C6 4906   8.240   5.612   1.317
   99DPPC    O7 4907   8.106   5.600   1.268
   99DPPC    P8 4908   8.015   5.709   1.343
   99DPPC    O9 4909   7.880   5.724   1.284
   99DPPC   O10 4910   8.090   5.836   1.350
   99DPPC   O11 4911   8.009   5.666   1.498
   99DPPC   C12 4912   7.886   5.713   1.555
   99DPPC   C13 4913   7.885   5.717   1.708
   99DPPC   O14 4914   7.903   5.850   1.758
   99DPPC   C15 4915   7.800   5.939   1.743
   99DPPC   O16 4916   7.706   5.937   1.665
   99DPPC   C17 4917   7.802   6.062   1.835
   99DPPC   C18 4918   7.660   6.097   1.878
   99DPPC   C19 4919   7.666   6.232   1.949
   99DPPC   C20 4920   7.745   6.209   2.078
   99DPPC   C21 4921   7.723   6.337   2.159
   99DPPC   C22 4922   7.574   6.339   2.193
   99DPPC   C23 4923   7.540   6.461   2.279
   99DPPC   C24 4924   7.392   6.500   2.272
   99DPPC   C25 4925   7.372   6.625   2.358
   99DPPC   C26 4926   7.448   6.610   2.490
   99DPPC   C27 4927   7.375   6.555   2.613
   99DPPC   C28 4928   7.465   6.483   2.714
   99DPPC   C29 4929   7.377   6.461   2.837
   99DPPC   C30 4930   7.432   6.341   2.914
   99DPPC   C31 4931   7.341   6.321   3.036
   99DPPC   C32 4932   7.989   5.616   1.756
   99DPPC   O33 4933   7.937   5.493   1.807
   99DPPC   C34 4934   8.035   5.419   1.864
   99DPPC   O35 4935   8.148   5.464   1.878
   99DPPC   C36 4936   7.987   5.303   1.953
   99DPPC   C37 4937   8.047   5.314   2.093
   99DPPC   C38 4938   8.004   5.199   2.185
   99DPPC   C39 4939   8.083   5.225   2.314
   99DPPC   C40 4940   8.047   5.116   2.415
   99DPPC   C41 4941   8.134   5.118   2.541
   99DPPC   C42 4942   8.054   5.060   2.658
   99DPPC   C43 4943   7.931   5.144   2.692
   99DPPC   C44 4944   7.869   5.115   2.829
   99DPPC   C45 4945   7.808   4.976   2.850
   99DPPC   C46 4946   7.768   4.954   2.996
   99DPPC   C47 4947   7.682   4.828   3.006
   99DPPC   C48 4948   7.649   4.772   3.144
   99DPPC   C49 4949   7.538   4.666   3.138
   99DPPC   C50 4950   7.406   4.741   3.123
  100DPPC    C1 4951   4.436   4.475   2.184
  100DPPC    C2 4952   4.304   4.499   1.989
  100DPPC    C3 4953   4.223   4.388   2.185
  100DPPC    N4 4954   4.300   4.503   2.135
  100DPPC    C5 4955   4.246   4.627   2.194
  100DPPC    C6 4956   4.104   4.666   2.152
  100DPPC    O7 4957   4.082   4.806   2.170
  100DPPC    P8 4958   3.983   4.862   2.056
  100DPPC    O9 4959   4.039   4.853   1.919
  100DPPC   O10 4960   3.937   4.992   2.111
  100DPPC   O11 4961   3.853   4.768   2.071
  100DPPC   C12 4962   3.761   4.809   2.173
  100DPPC   C13 4963   3.650   4.711   2.211
  100DPPC   O14 4964   3.536   4.774   2.272
  100DPPC   C15 4965   3.465   4.873   2.213
  100DPPC   O16 4966   3.473   4.889   2.091
  100DPPC   C17 4967   3.348   4.910   2.304
  100DPPC   C18 4968   3.220   4.831   2.275
  100DPPC   C19 4969   3.187   4.724   2.379
  100DPPC   C20 4970   3.173   4.787   2.518
  100DPPC   C21 4971   3.122   4.691   2.627
  100DPPC   C22 4972   3.100   4.768   2.757
  100DPPC   C23 4973   3.036   4.664   2.850
  100DPPC   C24 4974   3.031   4.723   2.991
  100DPPC   C25 4975   2.923   4.831   2.990
  100DPPC   C26 4976   2.906   4.904   3.124
  100DPPC   C27 4977   2.861   5.045   3.084
  100DPPC   C28 4978   2.847   5.135   3.207
  100DPPC   C29 4979   2.839   5.279   3.156
  100DPPC   C30 4980   2.829   5.371   3.278
  100DPPC   C31 4981   2.928   5.332   3.388
  100DPPC   C32 4982   3.717   4.585   2.267
  100DPPC   O33 4983   3.810   4.613   2.372
  100DPPC   C34 4984   3.864   4.498   2.421
  100DPPC   O35 4985   3.839   4.389   2.369
  100DPPC   C36 4986   3.983   4.518   2.515
  100DPPC   C37 4987   3.948   4.493   2.662
  100DPPC   C38 4988   4.071   4.512   2.752
  100DPPC   C39 4989   4.037   4.532   2.900
  100DPPC   C40 4990   3.983   4.673   2.925
  100DPPC   C41 4991   3.966   4.681   3.077
  100DPPC   C42 4992   3.926   4.814   3.140
  100DPPC   C43 4993   3.816   4.895   3.070
  100DPPC   C44 4994   3.781   5.023   3.146
  100DPPC   C45 4995   3.725   5.135   3.059
  100DPPC   C46 4996   3.715   5.264   3.140
  100DPPC   C47 4997   3.646   5.371   3.055
  100DPPC   C48 4998   3.630   5.497   3.140
  100DPPC   C49 4999   3.770   5.531   3.194
  100DPPC   C50 5000   3.748   5.672   3.248
  101DPPC    C1 5001   5.732   0.392   1.856
  101DPPC    C2 5002   5.709   0.185   1.948
  101DPPC    C3 5003   5.718   0.377   2.087
  101DPPC    N4 5004   5.659   0.322   1.964
  101DPPC    C5 5005   5.513   0.340   1.954
  101DPPC    C6 5006   5.427   0.261   1.855
  101DPPC    O7 5007   5.290   0.300   1.863
  101DPPC    P8 5008   5.190   0.183   1.816
  101DPPC    O9 5009   5.266   0.087   1.732
  101DPPC   O10 5010   5.072   0.247   1.754
  101DPPC   O11 5011   5.165   0.127   1.964
  101DPPC   C12 5012   5.090   0.222   2.040
  101DPPC   C13 5013   5.059   0.182   2.184
  101DPPC   O14 5014   5.005   0.304   2.237
  101DPPC   C15 5015   4.878   0.306   2.286
  101DPPC   O16 5016   4.796   0.229   2.236
  101DPPC   C17 5017   4.841   0.404   2.397
  101DPPC   C18 5018   4.918   0.354   2.520
  101DPPC   C19 5019   4.898   0.466   2.622
  101DPPC   C20 5020   4.940   0.440   2.767
  101DPPC   C21 5021   4.919   0.556   2.865
  101DPPC   C22 5022   4.773   0.588   2.897
  101DPPC   C23 5023   4.714   0.451   2.930
  101DPPC   C24 5024   4.564   0.460   2.961
  101DPPC   C25 5025   4.501   0.335   3.021
  101DPPC   C26 5026   4.358   0.366   3.068
  101DPPC   C27 5027   4.338   0.268   3.184
  101DPPC   C28 5028   4.379   0.129   3.134
  101DPPC   C29 5029   4.417   0.044   3.256
  101DPPC   C30 5030   4.480  -0.087   3.208
  101DPPC   C31 5031   4.618  -0.077   3.144
  101DPPC   C32 5032   5.182   0.121   2.251
  101DPPC   O33 5033   5.307   0.190   2.262
  101DPPC   C34 5034   5.407   0.114   2.315
  101DPPC   O35 5035   5.409  -0.006   2.287
  101DPPC   C36 5036   5.534   0.186   2.360
  101DPPC   C37 5037   5.518   0.211   2.510
  101DPPC   C38 5038   5.639   0.267   2.586
  101DPPC   C39 5039   5.614   0.275   2.737
  101DPPC   C40 5040   5.722   0.373   2.785
  101DPPC   C41 5041   5.704   0.400   2.934
  101DPPC   C42 5042   5.814   0.479   3.005
  101DPPC   C43 5043   5.798   0.464   3.157
  101DPPC   C44 5044   5.910   0.526   3.240
  101DPPC   C45 5045   5.892   0.511   3.391
  101DPPC   C46 5046   6.011   0.570   3.468
  101DPPC   C47 5047   5.977   0.557   3.616
  101DPPC   C48 5048   6.082   0.624   3.704
  101DPPC   C49 5049   6.054   0.617   3.855
  101DPPC   C50 5050   6.174   0.628   3.949
  102DPPC    C1 5051   2.447   1.224   1.789
  102DPPC    C2 5052   2.553   1.127   1.972
  102DPPC    C3 5053   2.337   1.076   1.949
  102DPPC    N4 5054   2.455   1.099   1.866
  102DPPC    C5 5055   2.503   0.987   1.785
  102DPPC    C6 5056   2.466   0.980   1.636
  102DPPC    O7 5057   2.324   0.984   1.617
  102DPPC    P8 5058   2.281   0.875   1.507
  102DPPC    O9 5059   2.407   0.831   1.444
  102DPPC   O10 5060   2.150   0.907   1.446
  102DPPC   O11 5061   2.251   0.755   1.610
  102DPPC   C12 5062   2.135   0.798   1.683
  102DPPC   C13 5063   2.064   0.700   1.776
  102DPPC   O14 5064   1.939   0.748   1.830
  102DPPC   C15 5065   1.854   0.658   1.887
  102DPPC   O16 5066   1.870   0.538   1.865
  102DPPC   C17 5067   1.739   0.714   1.970
  102DPPC   C18 5068   1.779   0.683   2.114
  102DPPC   C19 5069   1.693   0.738   2.228
  102DPPC   C20 5070   1.748   0.695   2.364
  102DPPC   C21 5071   1.652   0.747   2.472
  102DPPC   C22 5072   1.718   0.743   2.610
  102DPPC   C23 5073   1.635   0.773   2.735
  102DPPC   C24 5074   1.595   0.920   2.735
  102DPPC   C25 5075   1.479   0.959   2.826
  102DPPC   C26 5076   1.482   1.110   2.848
  102DPPC   C27 5077   1.595   1.141   2.946
  102DPPC   C28 5078   1.640   1.283   2.911
  102DPPC   C29 5079   1.526   1.383   2.932
  102DPPC   C30 5080   1.567   1.524   2.891
  102DPPC   C31 5081   1.598   1.526   2.741
  102DPPC   C32 5082   2.168   0.667   1.883
  102DPPC   O33 5083   2.235   0.761   1.968
  102DPPC   C34 5084   2.299   0.696   2.069
  102DPPC   O35 5085   2.318   0.575   2.081
  102DPPC   C36 5086   2.356   0.777   2.185
  102DPPC   C37 5087   2.261   0.783   2.305
  102DPPC   C38 5088   2.256   0.650   2.380
  102DPPC   C39 5089   2.144   0.640   2.484
  102DPPC   C40 5090   2.176   0.754   2.581
  102DPPC   C41 5091   2.093   0.728   2.707
  102DPPC   C42 5092   2.134   0.593   2.768
  102DPPC   C43 5093   2.064   0.562   2.900
  102DPPC   C44 5094   2.134   0.443   2.965
  102DPPC   C45 5095   2.031   0.382   3.060
  102DPPC   C46 5096   2.077   0.262   3.143
  102DPPC   C47 5097   1.978   0.226   3.254
  102DPPC   C48 5098   1.993   0.075   3.277
  102DPPC   C49 5099   1.922   0.035   3.407
  102DPPC   C50 5100   1.772   0.020   3.379
  103DPPC    C1 5101   2.604   7.288   1.201
  103DPPC    C2 5102   2.555   7.084   1.312
  103DPPC    C3 5103   2.771   7.169   1.315
  103DPPC    N4 5104   2.630   7.210   1.323
  103DPPC    C5 5105   2.595   7.276   1.450
  103DPPC    C6 5106   2.670   7.405   1.481
  103DPPC    O7 5107   2.802   7.380   1.530
  103DPPC    P8 5108   2.891   7.513   1.549
  103DPPC    O9 5109   2.888   7.558   1.409
  103DPPC   O10 5110   3.019   7.477   1.613
  103DPPC   O11 5111   2.801   7.582   1.664
  103DPPC   C12 5112   2.848   7.550   1.796
  103DPPC   C13 5113   2.723   7.564   1.883
  103DPPC   O14 5114   2.628   7.459   1.862
  103DPPC   C15 5115   2.671   7.340   1.912
  103DPPC   O16 5116   2.781   7.323   1.965
  103DPPC   C17 5117   2.576   7.224   1.878
  103DPPC   C18 5118   2.585   7.128   1.997
  103DPPC   C19 5119   2.525   7.183   2.127
  103DPPC   C20 5120   2.549   7.078   2.235
  103DPPC   C21 5121   2.499   7.123   2.373
  103DPPC   C22 5122   2.511   7.017   2.483
  103DPPC   C23 5123   2.443   7.079   2.605
  103DPPC   C24 5124   2.407   6.987   2.722
  103DPPC   C25 5125   2.382   7.046   2.861
  103DPPC   C26 5126   2.339   6.954   2.976
  103DPPC   C27 5127   2.312   7.035   3.102
  103DPPC   C28 5128   2.301   6.924   3.207
  103DPPC   C29 5129   2.424   6.833   3.206
  103DPPC   C30 5130   2.419   6.716   3.304
  103DPPC   C31 5131   2.543   6.630   3.329
  103DPPC   C32 5132   2.674   7.708   1.868
  103DPPC   O33 5133   2.774   7.799   1.913
  103DPPC   C34 5134   2.745   7.931   1.901
  103DPPC   O35 5135   2.633   7.965   1.863
  103DPPC   C36 5136   2.847   8.032   1.955
  103DPPC   C37 5137   2.844   8.033   2.108
  103DPPC   C38 5138   2.920   8.146   2.176
  103DPPC   C39 5139   2.897   8.156   2.327
  103DPPC   C40 5140   3.007   8.249   2.377
  103DPPC   C41 5141   3.018   8.242   2.529
  103DPPC   C42 5142   2.886   8.297   2.584
  103DPPC   C43 5143   2.907   8.327   2.732
  103DPPC   C44 5144   2.786   8.368   2.817
  103DPPC   C45 5145   2.816   8.415   2.959
  103DPPC   C46 5146   2.679   8.462   3.008
  103DPPC   C47 5147   2.700   8.548   3.133
  103DPPC   C48 5148   2.560   8.591   3.178
  103DPPC   C49 5149   2.572   8.700   3.285
  103DPPC   C50 5150   2.631   8.640   3.413
  104DPPC    C1 5151   3.942   3.880   1.504
  104DPPC    C2 5152   4.008   3.653   1.504
  104DPPC    C3 5153   4.143   3.809   1.396
  104DPPC    N4 5154   4.058   3.791   1.515
  104DPPC    C5 5155   4.124   3.823   1.642
  104DPPC    C6 5156   4.229   3.733   1.708
  104DPPC    O7 5157   4.335   3.684   1.625
  104DPPC    P8 5158   4.370   3.536   1.679
  104DPPC    O9 5159   4.490   3.489   1.606
  104DPPC   O10 5160   4.242   3.463   1.669
  104DPPC   O11 5161   4.405   3.579   1.830
  104DPPC   C12 5162   4.543   3.601   1.860
  104DPPC   C13 5163   4.560   3.689   1.984
  104DPPC   O14 5164   4.698   3.705   2.020
  104DPPC   C15 5165   4.729   3.813   2.098
  104DPPC   O16 5166   4.676   3.923   2.087
  104DPPC   C17 5167   4.848   3.787   2.191
  104DPPC   C18 5168   4.868   3.648   2.253
  104DPPC   C19 5169   4.977   3.629   2.359
  104DPPC   C20 5170   4.948   3.519   2.461
  104DPPC   C21 5171   5.072   3.504   2.548
  104DPPC   C22 5172   5.024   3.458   2.686
  104DPPC   C23 5173   5.135   3.420   2.784
  104DPPC   C24 5174   5.077   3.378   2.919
  104DPPC   C25 5175   5.177   3.323   3.021
  104DPPC   C26 5176   5.133   3.329   3.168
  104DPPC   C27 5177   5.089   3.469   3.209
  104DPPC   C28 5178   5.034   3.462   3.352
  104DPPC   C29 5179   4.989   3.582   3.436
  104DPPC   C30 5180   4.896   3.541   3.550
  104DPPC   C31 5181   4.884   3.677   3.619
  104DPPC   C32 5182   4.492   3.602   2.090
  104DPPC   O33 5183   4.462   3.666   2.215
  104DPPC   C34 5184   4.369   3.610   2.297
  104DPPC   O35 5185   4.293   3.522   2.256
  104DPPC   C36 5186   4.353   3.688   2.428
  104DPPC   C37 5187   4.484   3.650   2.498
  104DPPC   C38 5188   4.511   3.763   2.599
  104DPPC   C39 5189   4.635   3.737   2.684
  104DPPC   C40 5190   4.623   3.601   2.754
  104DPPC   C41 5191   4.712   3.599   2.878
  104DPPC   C42 5192   4.694   3.717   2.974
  104DPPC   C43 5193   4.773   3.697   3.103
  104DPPC   C44 5194   4.802   3.828   3.177
  104DPPC   C45 5195   4.672   3.894   3.223
  104DPPC   C46 5196   4.679   3.998   3.336
  104DPPC   C47 5197   4.542   4.009   3.404
  104DPPC   C48 5198   4.535   4.095   3.530
  104DPPC   C49 5199   4.526   4.240   3.483
  104DPPC   C50 5200   4.544   4.332   3.604
  105DPPC    C1 5201   4.517   5.067   1.711
  105DPPC    C2 5202   4.526   4.918   1.531
  105DPPC    C3 5203   4.574   5.160   1.497
  105DPPC    N4 5204   4.586   5.042   1.584
  105DPPC    C5 5205   4.731   5.016   1.583
  105DPPC    C6 5206   4.788   4.936   1.700
  105DPPC    O7 5207   4.837   5.016   1.808
  105DPPC    P8 5208   4.917   4.919   1.909
  105DPPC    O9 5209   4.994   5.021   1.983
  105DPPC   O10 5210   4.989   4.824   1.821
  105DPPC   O11 5211   4.798   4.846   1.989
  105DPPC   C12 5212   4.787   4.900   2.121
  105DPPC   C13 5213   4.664   4.861   2.203
  105DPPC   O14 5214   4.616   4.960   2.295
  105DPPC   C15 5215   4.533   5.049   2.235
  105DPPC   O16 5216   4.460   5.006   2.146
  105DPPC   C17 5217   4.505   5.176   2.317
  105DPPC   C18 5218   4.355   5.194   2.339
  105DPPC   C19 5219   4.342   5.309   2.439
  105DPPC   C20 5220   4.387   5.437   2.367
  105DPPC   C21 5221   4.383   5.557   2.462
  105DPPC   C22 5222   4.440   5.676   2.384
  105DPPC   C23 5223   4.419   5.810   2.456
  105DPPC   C24 5224   4.512   5.815   2.577
  105DPPC   C25 5225   4.480   5.938   2.662
  105DPPC   C26 5226   4.346   5.910   2.730
  105DPPC   C27 5227   4.306   6.041   2.800
  105DPPC   C28 5228   4.160   6.021   2.840
  105DPPC   C29 5229   4.091   6.136   2.915
  105DPPC   C30 5230   4.124   6.271   2.851
  105DPPC   C31 5231   4.015   6.364   2.903
  105DPPC   C32 5232   4.687   4.719   2.254
  105DPPC   O33 5233   4.805   4.714   2.335
  105DPPC   C34 5234   4.834   4.595   2.394
  105DPPC   O35 5235   4.767   4.492   2.378
  105DPPC   C36 5236   4.981   4.587   2.435
  105DPPC   C37 5237   4.985   4.557   2.585
  105DPPC   C38 5238   4.940   4.682   2.663
  105DPPC   C39 5239   4.953   4.662   2.814
  105DPPC   C40 5240   4.879   4.770   2.893
  105DPPC   C41 5241   4.902   4.757   3.044
  105DPPC   C42 5242   4.862   4.890   3.107
  105DPPC   C43 5243   4.869   4.893   3.260
  105DPPC   C44 5244   4.804   5.018   3.320
  105DPPC   C45 5245   4.849   5.020   3.466
  105DPPC   C46 5246   4.799   4.900   3.547
  105DPPC   C47 5247   4.866   4.910   3.684
  105DPPC   C48 5248   4.837   4.791   3.775
  105DPPC   C49 5249   4.909   4.806   3.909
  105DPPC   C50 5250   5.061   4.818   3.900
  106DPPC    C1 5251   9.169   0.492   1.123
  106DPPC    C2 5252   9.015   0.384   1.260
  106DPPC    C3 5253   9.165   0.249   1.146
  106DPPC    N4 5254   9.155   0.378   1.216
  106DPPC    C5 5255   9.257   0.388   1.320
  106DPPC    C6 5256   9.408   0.376   1.297
  106DPPC    O7 5257   9.476   0.449   1.400
  106DPPC    P8 5258   9.635   0.426   1.387
  106DPPC    O9 5259   9.668   0.463   1.248
  106DPPC   O10 5260   9.702   0.310   1.450
  106DPPC   O11 5261   9.671   0.556   1.475
  106DPPC   C12 5262   9.659   0.536   1.616
  106DPPC   C13 5263   9.570   0.641   1.682
  106DPPC   O14 5264   9.629   0.697   1.800
  106DPPC   C15 5265   9.661   0.829   1.796
  106DPPC   O16 5266   9.633   0.891   1.694
  106DPPC   C17 5267   9.725   0.896   1.917
  106DPPC   C18 5268   9.655   0.850   2.045
  106DPPC   C19 5269   9.749   0.855   2.166
  106DPPC   C20 5270   9.691   0.806   2.299
  106DPPC   C21 5271   9.800   0.847   2.398
  106DPPC   C22 5272   9.897   0.731   2.418
  106DPPC   C23 5273  10.011   0.786   2.504
  106DPPC   C24 5274  10.104   0.871   2.417
  106DPPC   C25 5275  10.245   0.858   2.476
  106DPPC   C26 5276  10.359   0.911   2.389
  106DPPC   C27 5277  10.498   0.895   2.451
  106DPPC   C28 5278  10.485   0.945   2.595
  106DPPC   C29 5279  10.618   0.938   2.671
  106DPPC   C30 5280  10.591   0.992   2.812
  106DPPC   C31 5281  10.565   1.143   2.807
  106DPPC   C32 5282   9.432   0.575   1.693
  106DPPC   O33 5283   9.434   0.444   1.750
  106DPPC   C34 5284   9.317   0.377   1.728
  106DPPC   O35 5285   9.221   0.440   1.685
  106DPPC   C36 5286   9.310   0.231   1.775
  106DPPC   C37 5287   9.366   0.206   1.915
  106DPPC   C38 5288   9.286   0.280   2.022
  106DPPC   C39 5289   9.360   0.394   2.092
  106DPPC   C40 5290   9.267   0.451   2.200
  106DPPC   C41 5291   9.206   0.345   2.291
  106DPPC   C42 5292   9.106   0.427   2.373
  106DPPC   C43 5293   9.094   0.361   2.510
  106DPPC   C44 5294   9.015   0.444   2.612
  106DPPC   C45 5295   9.005   0.362   2.740
  106DPPC   C46 5296   8.954   0.455   2.850
  106DPPC   C47 5297   8.921   0.394   2.987
  106DPPC   C48 5298   8.806   0.293   2.987
  106DPPC   C49 5299   8.793   0.243   3.131
  106DPPC   C50 5300   8.787   0.364   3.225
  107DPPC    C1 5301   6.209   7.841   1.978
  107DPPC    C2 5302   6.168   7.937   1.774
  107DPPC    C3 5303   6.085   8.051   1.979
  107DPPC    N4 5304   6.192   7.972   1.914
  107DPPC    C5 5305   6.327   8.028   1.903
  107DPPC    C6 5306   6.370   8.117   2.021
  107DPPC    O7 5307   6.299   8.241   2.023
  107DPPC    P8 5308   6.397   8.350   1.956
  107DPPC    O9 5309   6.323   8.387   1.833
  107DPPC   O10 5310   6.533   8.290   1.958
  107DPPC   O11 5311   6.388   8.468   2.064
  107DPPC   C12 5312   6.247   8.482   2.084
  107DPPC   C13 5313   6.192   8.519   2.222
  107DPPC   O14 5314   6.230   8.653   2.258
  107DPPC   C15 5315   6.137   8.748   2.285
  107DPPC   O16 5316   6.032   8.740   2.222
  107DPPC   C17 5317   6.192   8.881   2.338
  107DPPC   C18 5318   6.269   8.866   2.469
  107DPPC   C19 5319   6.187   8.815   2.588
  107DPPC   C20 5320   6.076   8.912   2.630
  107DPPC   C21 5321   6.140   8.999   2.738
  107DPPC   C22 5322   6.059   9.125   2.774
  107DPPC   C23 5323   6.110   9.235   2.867
  107DPPC   C24 5324   6.223   9.310   2.797
  107DPPC   C25 5325   6.287   9.422   2.879
  107DPPC   C26 5326   6.187   9.534   2.909
  107DPPC   C27 5327   6.158   9.610   2.779
  107DPPC   C28 5328   6.051   9.715   2.809
  107DPPC   C29 5329   6.046   9.837   2.718
  107DPPC   C30 5330   5.996   9.792   2.580
  107DPPC   C31 5331   5.982   9.901   2.474
  107DPPC   C32 5332   6.243   8.405   2.311
  107DPPC   O33 5333   6.175   8.398   2.437
  107DPPC   C34 5334   6.041   8.374   2.444
  107DPPC   O35 5335   5.982   8.343   2.341
  107DPPC   C36 5336   5.975   8.401   2.580
  107DPPC   C37 5337   6.078   8.457   2.679
  107DPPC   C38 5338   6.017   8.502   2.812
  107DPPC   C39 5339   6.124   8.575   2.893
  107DPPC   C40 5340   6.070   8.703   2.956
  107DPPC   C41 5341   6.176   8.779   3.036
  107DPPC   C42 5342   6.215   8.691   3.155
  107DPPC   C43 5343   6.108   8.675   3.264
  107DPPC   C44 5344   6.180   8.637   3.393
  107DPPC   C45 5345   6.081   8.609   3.506
  107DPPC   C46 5346   6.166   8.576   3.630
  107DPPC   C47 5347   6.070   8.586   3.748
  107DPPC   C48 5348   5.994   8.719   3.745
  107DPPC   C49 5349   5.846   8.694   3.771
  107DPPC   C50 5350   5.756   8.815   3.749
  108DPPC    C1 5351   7.190   0.518   1.132
  108DPPC    C2 5352   7.038   0.705   1.157
  108DPPC    C3 5353   7.046   0.580   0.957
  108DPPC    N4 5354   7.055   0.569   1.103
  108DPPC    C5 5355   6.939   0.487   1.138
  108DPPC    C6 5356   6.957   0.379   1.245
  108DPPC    O7 5357   6.942   0.429   1.378
  108DPPC    P8 5358   6.959   0.299   1.471
  108DPPC    O9 5359   7.103   0.267   1.469
  108DPPC   O10 5360   6.854   0.207   1.423
  108DPPC   O11 5361   6.907   0.369   1.606
  108DPPC   C12 5362   7.009   0.451   1.663
  108DPPC   C13 5363   6.964   0.542   1.777
  108DPPC   O14 5364   7.043   0.660   1.798
  108DPPC   C15 5365   6.962   0.769   1.800
  108DPPC   O16 5366   6.849   0.762   1.751
  108DPPC   C17 5367   7.012   0.900   1.860
  108DPPC   C18 5368   6.982   0.918   2.009
  108DPPC   C19 5369   6.999   1.067   2.043
  108DPPC   C20 5370   6.933   1.104   2.175
  108DPPC   C21 5371   7.039   1.055   2.274
  108DPPC   C22 5372   6.999   1.080   2.420
  108DPPC   C23 5373   6.872   1.012   2.473
  108DPPC   C24 5374   6.898   0.927   2.598
  108DPPC   C25 5375   6.964   1.031   2.690
  108DPPC   C26 5376   7.026   0.963   2.811
  108DPPC   C27 5377   6.931   0.880   2.898
  108DPPC   C28 5378   6.985   0.838   3.035
  108DPPC   C29 5379   6.891   0.737   3.101
  108DPPC   C30 5380   6.951   0.727   3.242
  108DPPC   C31 5381   6.872   0.648   3.346
  108DPPC   C32 5382   6.977   0.438   1.888
  108DPPC   O33 5383   6.944   0.468   2.024
  108DPPC   C34 5384   6.957   0.359   2.104
  108DPPC   O35 5385   7.016   0.257   2.070
  108DPPC   C36 5386   6.954   0.384   2.255
  108DPPC   C37 5387   6.914   0.260   2.335
  108DPPC   C38 5388   6.936   0.292   2.483
  108DPPC   C39 5389   6.898   0.170   2.567
  108DPPC   C40 5390   6.986   0.047   2.541
  108DPPC   C41 5391   6.935  -0.079   2.611
  108DPPC   C42 5392   6.938  -0.054   2.762
  108DPPC   C43 5393   6.880  -0.171   2.843
  108DPPC   C44 5394   6.915  -0.169   2.992
  108DPPC   C45 5395   6.868  -0.298   3.060
  108DPPC   C46 5396   6.911  -0.299   3.207
  108DPPC   C47 5397   6.829  -0.201   3.291
  108DPPC   C48 5398   6.870  -0.203   3.439
  108DPPC   C49 5399   7.016  -0.179   3.479
  108DPPC   C50 5400   7.028  -0.100   3.610
  109DPPC    C1 5401   9.377   5.989   0.390
  109DPPC    C2 5402   9.424   5.977   0.618
  109DPPC    C3 5403   9.497   6.161   0.485
  109DPPC    N4 5404   9.384   6.071   0.512
  109DPPC    C5 5405   9.254   6.138   0.527
  109DPPC    C6 5406   9.211   6.165   0.671
  109DPPC    O7 5407   9.139   6.053   0.722
  109DPPC    P8 5408   9.030   6.090   0.834
  109DPPC    O9 5409   8.933   5.981   0.812
  109DPPC   O10 5410   8.994   6.234   0.825
  109DPPC   O11 5411   9.122   6.079   0.965
  109DPPC   C12 5412   9.105   5.948   1.019
  109DPPC   C13 5413   9.218   5.894   1.107
  109DPPC   O14 5414   9.194   5.764   1.163
  109DPPC   C15 5415   9.297   5.692   1.216
  109DPPC   O16 5416   9.414   5.720   1.188
  109DPPC   C17 5417   9.257   5.557   1.275
  109DPPC   C18 5418   9.183   5.579   1.407
  109DPPC   C19 5419   9.269   5.661   1.503
  109DPPC   C20 5420   9.210   5.630   1.641
  109DPPC   C21 5421   9.281   5.690   1.762
  109DPPC   C22 5422   9.207   5.671   1.894
  109DPPC   C23 5423   9.274   5.754   2.004
  109DPPC   C24 5424   9.212   5.729   2.142
  109DPPC   C25 5425   9.284   5.792   2.261
  109DPPC   C26 5426   9.193   5.802   2.384
  109DPPC   C27 5427   9.259   5.826   2.520
  109DPPC   C28 5428   9.142   5.801   2.614
  109DPPC   C29 5429   9.183   5.805   2.762
  109DPPC   C30 5430   9.059   5.793   2.850
  109DPPC   C31 5431   9.101   5.811   2.996
  109DPPC   C32 5432   9.248   6.006   1.207
  109DPPC   O33 5433   9.154   6.023   1.314
  109DPPC   C34 5434   9.148   6.149   1.367
  109DPPC   O35 5435   9.234   6.231   1.335
  109DPPC   C36 5436   9.066   6.153   1.496
  109DPPC   C37 5437   9.156   6.133   1.618
  109DPPC   C38 5438   9.098   6.183   1.750
  109DPPC   C39 5439   9.205   6.185   1.860
  109DPPC   C40 5440   9.145   6.227   1.995
  109DPPC   C41 5441   9.260   6.225   2.096
  109DPPC   C42 5442   9.188   6.256   2.227
  109DPPC   C43 5443   9.284   6.273   2.345
  109DPPC   C44 5444   9.380   6.154   2.356
  109DPPC   C45 5445   9.464   6.183   2.480
  109DPPC   C46 5446   9.566   6.073   2.508
  109DPPC   C47 5447   9.657   6.114   2.624
  109DPPC   C48 5448   9.768   6.010   2.640
  109DPPC   C49 5449   9.840   6.029   2.773
  109DPPC   C50 5450   9.935   5.910   2.758
  110DPPC    C1 5451   1.394   3.395   0.877
  110DPPC    C2 5452   1.607   3.313   0.987
  110DPPC    C3 5453   1.610   3.486   0.827
  110DPPC    N4 5454   1.527   3.423   0.931
  110DPPC    C5 5455   1.512   3.529   1.032
  110DPPC    C6 5456   1.421   3.499   1.151
  110DPPC    O7 5457   1.382   3.610   1.232
  110DPPC    P8 5458   1.245   3.683   1.189
  110DPPC    O9 5459   1.185   3.594   1.087
  110DPPC   O10 5460   1.262   3.828   1.166
  110DPPC   O11 5461   1.184   3.670   1.338
  110DPPC   C12 5462   1.119   3.543   1.347
  110DPPC   C13 5463   1.180   3.440   1.443
  110DPPC   O14 5464   1.105   3.318   1.454
  110DPPC   C15 5465   1.174   3.204   1.480
  110DPPC   O16 5466   1.284   3.176   1.432
  110DPPC   C17 5467   1.080   3.097   1.536
  110DPPC   C18 5468   1.092   3.118   1.687
  110DPPC   C19 5469   1.007   3.015   1.761
  110DPPC   C20 5470   1.023   3.039   1.911
  110DPPC   C21 5471   0.920   2.956   1.989
  110DPPC   C22 5472   0.918   3.001   2.135
  110DPPC   C23 5473   0.819   2.915   2.213
  110DPPC   C24 5474   0.681   2.918   2.147
  110DPPC   C25 5475   0.586   2.861   2.253
  110DPPC   C26 5476   0.613   2.947   2.376
  110DPPC   C27 5477   0.522   2.914   2.495
  110DPPC   C28 5478   0.539   3.020   2.604
  110DPPC   C29 5479   0.678   3.000   2.664
  110DPPC   C30 5480   0.722   3.093   2.778
  110DPPC   C31 5481   0.647   3.077   2.910
  110DPPC   C32 5482   1.215   3.512   1.573
  110DPPC   O33 5483   1.293   3.435   1.665
  110DPPC   C34 5484   1.307   3.498   1.785
  110DPPC   O35 5485   1.300   3.620   1.798
  110DPPC   C36 5486   1.376   3.420   1.897
  110DPPC   C37 5487   1.269   3.358   1.987
  110DPPC   C38 5488   1.334   3.274   2.098
  110DPPC   C39 5489   1.237   3.207   2.195
  110DPPC   C40 5490   1.295   3.144   2.321
  110DPPC   C41 5491   1.186   3.061   2.387
  110DPPC   C42 5492   1.254   2.980   2.498
  110DPPC   C43 5493   1.153   2.915   2.593
  110DPPC   C44 5494   1.240   2.854   2.704
  110DPPC   C45 5495   1.167   2.811   2.831
  110DPPC   C46 5496   1.120   2.934   2.908
  110DPPC   C47 5497   1.038   2.921   3.036
  110DPPC   C48 5498   1.009   3.062   3.088
  110DPPC   C49 5499   0.924   3.028   3.211
  110DPPC   C50 5500   0.845   3.156   3.239
  111DPPC    C1 5501   1.740   1.017   1.602
  111DPPC    C2 5502   1.766   1.079   1.370
  111DPPC    C3 5503   1.754   0.858   1.422
  111DPPC    N4 5504   1.699   0.987   1.464
  111DPPC    C5 5505   1.553   0.987   1.443
  111DPPC    C6 5506   1.462   0.871   1.484
  111DPPC    O7 5507   1.488   0.829   1.618
  111DPPC    P8 5508   1.390   0.704   1.644
  111DPPC    O9 5509   1.477   0.602   1.705
  111DPPC   O10 5510   1.325   0.659   1.518
  111DPPC   O11 5511   1.297   0.781   1.751
  111DPPC   C12 5512   1.383   0.795   1.864
  111DPPC   C13 5513   1.301   0.805   1.993
  111DPPC   O14 5514   1.369   0.872   2.100
  111DPPC   C15 5515   1.297   0.932   2.198
  111DPPC   O16 5516   1.175   0.922   2.190
  111DPPC   C17 5517   1.370   0.981   2.323
  111DPPC   C18 5518   1.427   1.116   2.280
  111DPPC   C19 5519   1.495   1.172   2.405
  111DPPC   C20 5520   1.541   1.316   2.382
  111DPPC   C21 5521   1.438   1.414   2.326
  111DPPC   C22 5522   1.504   1.551   2.314
  111DPPC   C23 5523   1.397   1.653   2.353
  111DPPC   C24 5524   1.322   1.633   2.485
  111DPPC   C25 5525   1.196   1.719   2.478
  111DPPC   C26 5526   1.107   1.708   2.602
  111DPPC   C27 5527   1.008   1.825   2.600
  111DPPC   C28 5528   0.960   1.838   2.745
  111DPPC   C29 5529   0.877   1.966   2.757
  111DPPC   C30 5530   0.822   1.991   2.898
  111DPPC   C31 5531   0.752   1.868   2.955
  111DPPC   C32 5532   1.232   0.669   2.001
  111DPPC   O33 5533   1.319   0.567   2.051
  111DPPC   C34 5534   1.298   0.434   2.030
  111DPPC   O35 5535   1.227   0.405   1.934
  111DPPC   C36 5536   1.365   0.325   2.114
  111DPPC   C37 5537   1.424   0.377   2.246
  111DPPC   C38 5538   1.316   0.443   2.331
  111DPPC   C39 5539   1.363   0.484   2.471
  111DPPC   C40 5540   1.250   0.560   2.542
  111DPPC   C41 5541   1.289   0.609   2.681
  111DPPC   C42 5542   1.313   0.492   2.777
  111DPPC   C43 5543   1.337   0.552   2.916
  111DPPC   C44 5544   1.219   0.617   2.988
  111DPPC   C45 5545   1.264   0.654   3.130
  111DPPC   C46 5546   1.304   0.801   3.139
  111DPPC   C47 5547   1.326   0.847   3.283
  111DPPC   C48 5548   1.348   0.998   3.275
  111DPPC   C49 5549   1.228   1.046   3.192
  111DPPC   C50 5550   1.209   1.196   3.211
  112DPPC    C1 5551   4.942   8.000   1.717
  112DPPC    C2 5552   5.115   8.013   1.872
  112DPPC    C3 5553   4.902   8.020   1.959
  112DPPC    N4 5554   4.981   7.956   1.852
  112DPPC    C5 5555   4.995   7.810   1.859
  112DPPC    C6 5556   4.878   7.711   1.852
  112DPPC    O7 5557   4.772   7.727   1.946
  112DPPC    P8 5558   4.668   7.605   1.939
  112DPPC    O9 5559   4.658   7.551   1.802
  112DPPC   O10 5560   4.547   7.642   2.017
  112DPPC   O11 5561   4.753   7.492   2.016
  112DPPC   C12 5562   4.689   7.470   2.141
  112DPPC   C13 5563   4.761   7.377   2.239
  112DPPC   O14 5564   4.680   7.306   2.334
  112DPPC   C15 5565   4.643   7.185   2.286
  112DPPC   O16 5566   4.665   7.147   2.170
  112DPPC   C17 5567   4.596   7.087   2.393
  112DPPC   C18 5568   4.676   7.096   2.523
  112DPPC   C19 5569   4.627   7.009   2.639
  112DPPC   C20 5570   4.620   6.863   2.595
  112DPPC   C21 5571   4.588   6.785   2.723
  112DPPC   C22 5572   4.448   6.804   2.783
  112DPPC   C23 5573   4.418   6.689   2.880
  112DPPC   C24 5574   4.291   6.725   2.958
  112DPPC   C25 5575   4.171   6.760   2.869
  112DPPC   C26 5576   4.044   6.771   2.954
  112DPPC   C27 5577   3.940   6.842   2.866
  112DPPC   C28 5578   3.831   6.882   2.966
  112DPPC   C29 5579   3.736   6.986   2.907
  112DPPC   C30 5580   3.627   7.034   3.003
  112DPPC   C31 5581   3.514   7.127   2.958
  112DPPC   C32 5582   4.871   7.468   2.294
  112DPPC   O33 5583   4.983   7.404   2.357
  112DPPC   C34 5584   5.096   7.462   2.405
  112DPPC   O35 5585   5.131   7.576   2.378
  112DPPC   C36 5586   5.186   7.369   2.487
  112DPPC   C37 5587   5.231   7.439   2.616
  112DPPC   C38 5588   5.321   7.352   2.704
  112DPPC   C39 5589   5.343   7.428   2.835
  112DPPC   C40 5590   5.426   7.348   2.935
  112DPPC   C41 5591   5.554   7.282   2.884
  112DPPC   C42 5592   5.665   7.387   2.873
  112DPPC   C43 5593   5.762   7.364   2.989
  112DPPC   C44 5594   5.865   7.477   2.981
  112DPPC   C45 5595   5.935   7.476   3.117
  112DPPC   C46 5596   5.996   7.615   3.141
  112DPPC   C47 5597   6.044   7.624   3.286
  112DPPC   C48 5598   5.919   7.613   3.373
  112DPPC   C49 5599   5.968   7.601   3.517
  112DPPC   C50 5600   5.858   7.643   3.614
  113DPPC    C1 5601   0.984   1.497   1.464
  113DPPC    C2 5602   1.046   1.538   1.685
  113DPPC    C3 5603   0.842   1.451   1.639
  113DPPC    N4 5604   0.983   1.438   1.599
  113DPPC    C5 5605   1.032   1.300   1.612
  113DPPC    C6 5606   1.163   1.268   1.539
  113DPPC    O7 5607   1.272   1.349   1.584
  113DPPC    P8 5608   1.413   1.301   1.524
  113DPPC    O9 5609   1.526   1.397   1.526
  113DPPC   O10 5610   1.388   1.225   1.399
  113DPPC   O11 5611   1.433   1.202   1.650
  113DPPC   C12 5612   1.474   1.294   1.751
  113DPPC   C13 5613   1.479   1.234   1.891
  113DPPC   O14 5614   1.585   1.142   1.922
  113DPPC   C15 5615   1.710   1.189   1.947
  113DPPC   O16 5616   1.730   1.304   1.908
  113DPPC   C17 5617   1.809   1.079   1.985
  113DPPC   C18 5618   1.921   1.121   2.081
  113DPPC   C19 5619   1.860   1.127   2.221
  113DPPC   C20 5620   1.972   1.165   2.318
  113DPPC   C21 5621   1.920   1.163   2.461
  113DPPC   C22 5622   2.035   1.170   2.561
  113DPPC   C23 5623   1.979   1.169   2.703
  113DPPC   C24 5624   2.092   1.165   2.807
  113DPPC   C25 5625   2.039   1.152   2.950
  113DPPC   C26 5626   2.131   1.069   3.040
  113DPPC   C27 5627   2.061   1.053   3.175
  113DPPC   C28 5628   1.919   1.000   3.155
  113DPPC   C29 5629   1.903   0.853   3.113
  113DPPC   C30 5630   1.757   0.815   3.140
  113DPPC   C31 5631   1.742   0.665   3.114
  113DPPC   C32 5632   1.345   1.168   1.928
  113DPPC   O33 5633   1.246   1.263   1.967
  113DPPC   C34 5634   1.131   1.195   1.995
  113DPPC   O35 5635   1.099   1.097   1.927
  113DPPC   C36 5636   1.027   1.287   2.058
  113DPPC   C37 5637   0.963   1.224   2.181
  113DPPC   C38 5638   0.850   1.316   2.229
  113DPPC   C39 5639   0.810   1.273   2.370
  113DPPC   C40 5640   0.719   1.380   2.430
  113DPPC   C41 5641   0.650   1.341   2.561
  113DPPC   C42 5642   0.760   1.289   2.655
  113DPPC   C43 5643   0.709   1.290   2.800
  113DPPC   C44 5644   0.581   1.210   2.822
  113DPPC   C45 5645   0.608   1.065   2.863
  113DPPC   C46 5646   0.481   0.987   2.895
  113DPPC   C47 5647   0.521   0.842   2.927
  113DPPC   C48 5648   0.395   0.757   2.944
  113DPPC   C49 5649   0.433   0.614   2.984
  113DPPC   C50 5650   0.297   0.543   2.980
  114DPPC    C1 5651   1.166   3.901   1.688
  114DPPC    C2 5652   1.261   3.966   1.473
  114DPPC    C3 5653   1.207   4.126   1.637
  114DPPC    N4 5654   1.260   3.990   1.618
  114DPPC    C5 5655   1.385   3.967   1.692
  114DPPC    C6 5656   1.517   4.032   1.649
  114DPPC    O7 5657   1.626   3.981   1.726
  114DPPC    P8 5658   1.759   4.049   1.664
  114DPPC    O9 5659   1.723   4.096   1.529
  114DPPC   O10 5660   1.873   3.954   1.672
  114DPPC   O11 5661   1.765   4.167   1.773
  114DPPC   C12 5662   1.804   4.098   1.892
  114DPPC   C13 5663   1.745   4.166   2.015
  114DPPC   O14 5664   1.794   4.106   2.136
  114DPPC   C15 5665   1.908   4.154   2.193
  114DPPC   O16 5666   1.990   4.208   2.119
  114DPPC   C17 5667   1.957   4.091   2.323
  114DPPC   C18 5668   2.042   3.966   2.298
  114DPPC   C19 5669   2.167   3.972   2.386
  114DPPC   C20 5670   2.255   3.848   2.382
  114DPPC   C21 5671   2.354   3.834   2.498
  114DPPC   C22 5672   2.277   3.852   2.629
  114DPPC   C23 5673   2.377   3.887   2.739
  114DPPC   C24 5674   2.299   3.974   2.838
  114DPPC   C25 5675   2.399   4.050   2.925
  114DPPC   C26 5676   2.349   4.127   3.047
  114DPPC   C27 5677   2.459   4.210   3.113
  114DPPC   C28 5678   2.408   4.285   3.236
  114DPPC   C29 5679   2.522   4.359   3.306
  114DPPC   C30 5680   2.599   4.454   3.214
  114DPPC   C31 5681   2.709   4.506   3.306
  114DPPC   C32 5682   1.597   4.138   1.991
  114DPPC   O33 5683   1.505   4.237   2.040
  114DPPC   C34 5684   1.377   4.192   2.045
  114DPPC   O35 5685   1.338   4.123   1.950
  114DPPC   C36 5686   1.275   4.262   2.135
  114DPPC   C37 5687   1.217   4.165   2.239
  114DPPC   C38 5688   1.126   4.238   2.338
  114DPPC   C39 5689   1.068   4.126   2.424
  114DPPC   C40 5690   1.170   4.069   2.523
  114DPPC   C41 5691   1.108   3.966   2.618
  114DPPC   C42 5692   0.995   4.018   2.707
  114DPPC   C43 5693   1.054   4.115   2.810
  114DPPC   C44 5694   0.946   4.192   2.887
  114DPPC   C45 5695   1.011   4.319   2.943
  114DPPC   C46 5696   0.921   4.406   3.030
  114DPPC   C47 5697   0.845   4.501   2.938
  114DPPC   C48 5698   0.692   4.488   2.935
  114DPPC   C49 5699   0.619   4.587   2.844
  114DPPC   C50 5700   0.471   4.548   2.843
  115DPPC    C1 5701   4.051   3.127   2.032
  115DPPC    C2 5702   3.952   3.267   1.871
  115DPPC    C3 5703   3.844   3.239   2.079
  115DPPC    N4 5704   3.976   3.252   2.015
  115DPPC    C5 5705   4.060   3.357   2.074
  115DPPC    C6 5706   4.047   3.498   2.016
  115DPPC    O7 5707   3.927   3.565   2.055
  115DPPC    P8 5708   3.918   3.712   1.991
  115DPPC    O9 5709   3.813   3.677   1.893
  115DPPC   O10 5710   4.063   3.731   1.968
  115DPPC   O11 5711   3.859   3.789   2.119
  115DPPC   C12 5712   3.979   3.810   2.193
  115DPPC   C13 5713   3.974   3.905   2.313
  115DPPC   O14 5714   4.099   3.918   2.383
  115DPPC   C15 5715   4.151   4.043   2.394
  115DPPC   O16 5716   4.103   4.134   2.326
  115DPPC   C17 5717   4.272   4.059   2.486
  115DPPC   C18 5718   4.311   4.207   2.497
  115DPPC   C19 5719   4.454   4.214   2.549
  115DPPC   C20 5720   4.492   4.356   2.589
  115DPPC   C21 5721   4.629   4.368   2.656
  115DPPC   C22 5722   4.629   4.284   2.784
  115DPPC   C23 5723   4.774   4.251   2.821
  115DPPC   C24 5724   4.794   4.238   2.972
  115DPPC   C25 5725   4.934   4.187   3.006
  115DPPC   C26 5726   4.949   4.183   3.158
  115DPPC   C27 5727   5.095   4.163   3.199
  115DPPC   C28 5728   5.118   4.156   3.350
  115DPPC   C29 5729   5.059   4.029   3.411
  115DPPC   C30 5730   5.058   4.035   3.564
  115DPPC   C31 5731   4.934   4.115   3.604
  115DPPC   C32 5732   3.848   3.853   2.382
  115DPPC   O33 5733   3.805   3.930   2.494
  115DPPC   C34 5734   3.749   4.052   2.476
  115DPPC   O35 5735   3.728   4.111   2.370
  115DPPC   C36 5736   3.724   4.123   2.610
  115DPPC   C37 5737   3.832   4.108   2.718
  115DPPC   C38 5738   3.835   3.975   2.793
  115DPPC   C39 5739   3.928   3.996   2.912
  115DPPC   C40 5740   4.063   4.043   2.856
  115DPPC   C41 5741   4.163   4.064   2.970
  115DPPC   C42 5742   4.129   4.187   3.054
  115DPPC   C43 5743   4.213   4.165   3.180
  115DPPC   C44 5744   4.184   4.279   3.278
  115DPPC   C45 5745   4.033   4.293   3.296
  115DPPC   C46 5746   4.001   4.411   3.388
  115DPPC   C47 5747   3.851   4.425   3.411
  115DPPC   C48 5748   3.789   4.546   3.482
  115DPPC   C49 5749   3.638   4.521   3.497
  115DPPC   C50 5750   3.563   4.626   3.578
  116DPPC    C1 5751   6.795   8.431   2.081
  116DPPC    C2 5752   7.017   8.408   2.142
  116DPPC    C3 5753   6.849   8.263   2.224
  116DPPC    N4 5754   6.899   8.329   2.102
  116DPPC    C5 5755   6.927   8.245   1.985
  116DPPC    C6 5756   6.820   8.139   1.959
  116DPPC    O7 5757   6.835   8.019   2.035
  116DPPC    P8 5758   6.715   7.916   2.004
  116DPPC    O9 5759   6.757   7.774   2.008
  116DPPC   O10 5760   6.643   7.970   1.887
  116DPPC   O11 5761   6.630   7.950   2.136
  116DPPC   C12 5762   6.625   7.840   2.228
  116DPPC   C13 5763   6.531   7.863   2.346
  116DPPC   O14 5764   6.395   7.872   2.301
  116DPPC   C15 5765   6.279   7.892   2.368
  116DPPC   O16 5766   6.170   7.887   2.312
  116DPPC   C17 5767   6.294   7.867   2.518
  116DPPC   C18 5768   6.255   7.981   2.613
  116DPPC   C19 5769   6.304   7.938   2.751
  116DPPC   C20 5770   6.272   8.054   2.846
  116DPPC   C21 5771   6.375   8.163   2.817
  116DPPC   C22 5772   6.343   8.283   2.907
  116DPPC   C23 5773   6.334   8.236   3.052
  116DPPC   C24 5774   6.350   8.352   3.151
  116DPPC   C25 5775   6.378   8.316   3.297
  116DPPC   C26 5776   6.269   8.232   3.364
  116DPPC   C27 5777   6.314   8.182   3.501
  116DPPC   C28 5778   6.229   8.062   3.546
  116DPPC   C29 5779   6.262   8.001   3.682
  116DPPC   C30 5780   6.163   7.894   3.727
  116DPPC   C31 5781   6.023   7.949   3.758
  116DPPC   C32 5782   6.585   7.987   2.418
  116DPPC   O33 5783   6.702   7.943   2.487
  116DPPC   C34 5784   6.751   8.044   2.564
  116DPPC   O35 5785   6.681   8.142   2.586
  116DPPC   C36 5786   6.875   8.009   2.647
  116DPPC   C37 5787   6.999   7.982   2.561
  116DPPC   C38 5788   7.118   7.956   2.654
  116DPPC   C39 5789   7.142   8.057   2.766
  116DPPC   C40 5790   7.245   8.018   2.871
  116DPPC   C41 5791   7.374   7.969   2.803
  116DPPC   C42 5792   7.463   8.086   2.759
  116DPPC   C43 5793   7.540   8.162   2.866
  116DPPC   C44 5794   7.677   8.098   2.891
  116DPPC   C45 5795   7.746   8.158   3.014
  116DPPC   C46 5796   7.772   8.307   2.990
  116DPPC   C47 5797   7.874   8.357   3.093
  116DPPC   C48 5798   7.808   8.401   3.224
  116DPPC   C49 5799   7.894   8.503   3.299
  116DPPC   C50 5800   8.028   8.444   3.344
  117DPPC    C1 5801   5.729   4.494   1.811
  117DPPC    C2 5802   5.868   4.533   1.641
  117DPPC    C3 5803   5.915   4.589   1.874
  117DPPC    N4 5804   5.872   4.485   1.780
  117DPPC    C5 5805   5.908   4.344   1.802
  117DPPC    C6 5806   6.035   4.294   1.732
  117DPPC    O7 5807   6.052   4.153   1.744
  117DPPC    P8 5808   6.180   4.115   1.654
  117DPPC    O9 5809   6.167   4.188   1.525
  117DPPC   O10 5810   6.241   3.981   1.662
  117DPPC   O11 5811   6.289   4.202   1.733
  117DPPC   C12 5812   6.342   4.137   1.849
  117DPPC   C13 5813   6.449   4.222   1.919
  117DPPC   O14 5814   6.545   4.149   1.996
  117DPPC   C15 5815   6.643   4.074   1.938
  117DPPC   O16 5816   6.653   4.072   1.816
  117DPPC   C17 5817   6.738   3.991   2.025
  117DPPC   C18 5818   6.697   3.995   2.172
  117DPPC   C19 5819   6.816   3.949   2.256
  117DPPC   C20 5820   6.818   3.983   2.406
  117DPPC   C21 5821   6.883   3.875   2.493
  117DPPC   C22 5822   6.829   3.738   2.455
  117DPPC   C23 5823   6.895   3.625   2.534
  117DPPC   C24 5824   6.876   3.651   2.684
  117DPPC   C25 5825   6.922   3.526   2.758
  117DPPC   C26 5826   6.838   3.405   2.715
  117DPPC   C27 5827   6.751   3.349   2.828
  117DPPC   C28 5828   6.672   3.226   2.783
  117DPPC   C29 5829   6.599   3.172   2.906
  117DPPC   C30 5830   6.478   3.083   2.879
  117DPPC   C31 5831   6.404   3.036   3.004
  117DPPC   C32 5832   6.377   4.338   1.989
  117DPPC   O33 5833   6.281   4.296   2.087
  117DPPC   C34 5834   6.205   4.403   2.125
  117DPPC   O35 5835   6.198   4.496   2.044
  117DPPC   C36 5836   6.106   4.370   2.236
  117DPPC   C37 5837   5.976   4.318   2.175
  117DPPC   C38 5838   5.873   4.301   2.287
  117DPPC   C39 5839   5.869   4.431   2.368
  117DPPC   C40 5840   5.744   4.514   2.342
  117DPPC   C41 5841   5.747   4.626   2.446
  117DPPC   C42 5842   5.752   4.560   2.584
  117DPPC   C43 5843   5.710   4.666   2.687
  117DPPC   C44 5844   5.742   4.618   2.829
  117DPPC   C45 5845   5.733   4.724   2.939
  117DPPC   C46 5846   5.760   4.652   3.071
  117DPPC   C47 5847   5.707   4.749   3.178
  117DPPC   C48 5848   5.755   4.706   3.316
  117DPPC   C49 5849   5.723   4.557   3.316
  117DPPC   C50 5850   5.768   4.503   3.452
  118DPPC    C1 5851   4.689   0.085   1.486
  118DPPC    C2 5852   4.916   0.035   1.513
  118DPPC    C3 5853   4.816   0.265   1.571
  118DPPC    N4 5854   4.807   0.118   1.567
  118DPPC    C5 5855   4.795   0.087   1.710
  118DPPC    C6 5856   4.771  -0.058   1.753
  118DPPC    O7 5857   4.629  -0.077   1.753
  118DPPC    P8 5858   4.599  -0.229   1.797
  118DPPC    O9 5859   4.668  -0.307   1.692
  118DPPC   O10 5860   4.454  -0.245   1.824
  118DPPC   O11 5861   4.680  -0.218   1.935
  118DPPC   C12 5862   4.580  -0.209   2.037
  118DPPC   C13 5863   4.627  -0.194   2.182
  118DPPC   O14 5864   4.643  -0.319   2.250
  118DPPC   C15 5865   4.767  -0.331   2.305
  118DPPC   O16 5866   4.840  -0.232   2.309
  118DPPC   C17 5867   4.799  -0.457   2.386
  118DPPC   C18 5868   4.810  -0.590   2.311
  118DPPC   C19 5869   4.900  -0.680   2.396
  118DPPC   C20 5870   4.833  -0.712   2.530
  118DPPC   C21 5871   4.785  -0.855   2.555
  118DPPC   C22 5872   4.697  -0.876   2.678
  118DPPC   C23 5873   4.620  -1.007   2.696
  118DPPC   C24 5874   4.539  -1.015   2.826
  118DPPC   C25 5875   4.453  -1.140   2.814
  118DPPC   C26 5876   4.347  -1.169   2.920
  118DPPC   C27 5877   4.265  -1.295   2.894
  118DPPC   C28 5878   4.178  -1.330   3.014
  118DPPC   C29 5879   4.254  -1.330   3.147
  118DPPC   C30 5880   4.160  -1.335   3.268
  118DPPC   C31 5881   4.064  -1.452   3.245
  118DPPC   C32 5882   4.530  -0.094   2.245
  118DPPC   O33 5883   4.399  -0.149   2.265
  118DPPC   C34 5884   4.311  -0.051   2.299
  118DPPC   O35 5885   4.341   0.064   2.331
  118DPPC   C36 5886   4.169  -0.101   2.326
  118DPPC   C37 5887   4.185  -0.210   2.432
  118DPPC   C38 5888   4.047  -0.262   2.473
  118DPPC   C39 5889   4.063  -0.369   2.581
  118DPPC   C40 5890   3.920  -0.405   2.621
  118DPPC   C41 5891   3.902  -0.518   2.723
  118DPPC   C42 5892   3.756  -0.515   2.767
  118DPPC   C43 5893   3.719  -0.637   2.851
  118DPPC   C44 5894   3.567  -0.638   2.862
  118DPPC   C45 5895   3.529  -0.754   2.954
  118DPPC   C46 5896   3.376  -0.764   2.954
  118DPPC   C47 5897   3.343  -0.884   3.044
  118DPPC   C48 5898   3.325  -0.835   3.187
  118DPPC   C49 5899   3.215  -0.729   3.201
  118DPPC   C50 5900   3.090  -0.790   3.137
  119DPPC    C1 5901   0.442   6.210   0.510
  119DPPC    C2 5902   0.556   6.115   0.709
  119DPPC    C3 5903   0.619   6.325   0.617
  119DPPC    N4 5904   0.506   6.234   0.640
  119DPPC    C5 5905   0.413   6.300   0.733
  119DPPC    C6 5906   0.270   6.248   0.746
  119DPPC    O7 5907   0.209   6.296   0.866
  119DPPC    P8 5908   0.083   6.199   0.893
  119DPPC    O9 5909   0.129   6.060   0.873
  119DPPC   O10 5910  -0.023   6.266   0.815
  119DPPC   O11 5911   0.063   6.212   1.052
  119DPPC   C12 5912   0.163   6.122   1.100
  119DPPC   C13 5913   0.209   6.155   1.242
  119DPPC   O14 5914   0.123   6.126   1.354
  119DPPC   C15 5915   0.149   6.003   1.405
  119DPPC   O16 5916   0.248   5.943   1.364
  119DPPC   C17 5917   0.052   5.938   1.504
  119DPPC   C18 5918   0.080   5.976   1.650
  119DPPC   C19 5919   0.030   6.111   1.701
  119DPPC   C20 5920   0.114   6.126   1.828
  119DPPC   C21 5921   0.084   6.264   1.887
  119DPPC   C22 5922   0.167   6.270   2.015
  119DPPC   C23 5923   0.125   6.383   2.109
  119DPPC   C24 5924   0.183   6.363   2.249
  119DPPC   C25 5925   0.335   6.376   2.249
  119DPPC   C26 5926   0.378   6.370   2.395
  119DPPC   C27 5927   0.527   6.364   2.429
  119DPPC   C28 5928   0.620   6.457   2.350
  119DPPC   C29 5929   0.752   6.460   2.426
  119DPPC   C30 5930   0.728   6.501   2.572
  119DPPC   C31 5931   0.854   6.480   2.656
  119DPPC   C32 5932   0.256   6.300   1.228
  119DPPC   O33 5933   0.283   6.360   1.355
  119DPPC   C34 5934   0.294   6.495   1.355
  119DPPC   O35 5935   0.284   6.546   1.244
  119DPPC   C36 5936   0.278   6.579   1.482
  119DPPC   C37 5937   0.301   6.505   1.614
  119DPPC   C38 5938   0.273   6.587   1.740
  119DPPC   C39 5939   0.361   6.712   1.749
  119DPPC   C40 5940   0.359   6.790   1.881
  119DPPC   C41 5941   0.409   6.680   1.975
  119DPPC   C42 5942   0.359   6.728   2.111
  119DPPC   C43 5943   0.439   6.854   2.146
  119DPPC   C44 5944   0.385   6.908   2.278
  119DPPC   C45 5945   0.433   7.047   2.319
  119DPPC   C46 5946   0.373   7.087   2.454
  119DPPC   C47 5947   0.243   7.165   2.437
  119DPPC   C48 5948   0.182   7.205   2.572
  119DPPC   C49 5949   0.282   7.276   2.663
  119DPPC   C50 5950   0.243   7.276   2.811
  120DPPC    C1 5951   4.137   6.472   1.986
  120DPPC    C2 5952   3.939   6.563   1.880
  120DPPC    C3 5953   3.910   6.399   2.044
  120DPPC    N4 5954   3.996   6.511   2.005
  120DPPC    C5 5955   3.995   6.614   2.110
  120DPPC    C6 5956   4.088   6.735   2.113
  120DPPC    O7 5957   4.072   6.821   2.226
  120DPPC    P8 5958   4.209   6.903   2.250
  120DPPC    O9 5959   4.191   7.006   2.355
  120DPPC   O10 5960   4.252   6.938   2.113
  120DPPC   O11 5961   4.297   6.784   2.313
  120DPPC   C12 5962   4.254   6.765   2.448
  120DPPC   C13 5963   4.173   6.637   2.464
  120DPPC   O14 5964   4.059   6.653   2.551
  120DPPC   C15 5965   3.937   6.624   2.498
  120DPPC   O16 5966   3.919   6.558   2.396
  120DPPC   C17 5967   3.812   6.635   2.586
  120DPPC   C18 5968   3.789   6.499   2.651
  120DPPC   C19 5969   3.654   6.480   2.722
  120DPPC   C20 5970   3.632   6.586   2.830
  120DPPC   C21 5971   3.487   6.586   2.880
  120DPPC   C22 5972   3.484   6.692   2.991
  120DPPC   C23 5973   3.344   6.689   3.054
  120DPPC   C24 5974   3.331   6.810   3.147
  120DPPC   C25 5975   3.206   6.787   3.232
  120DPPC   C26 5976   3.209   6.651   3.303
  120DPPC   C27 5977   3.070   6.611   3.352
  120DPPC   C28 5978   3.071   6.622   3.504
  120DPPC   C29 5979   2.949   6.564   3.577
  120DPPC   C30 5980   2.847   6.674   3.606
  120DPPC   C31 5981   2.726   6.629   3.689
  120DPPC   C32 5982   4.251   6.506   2.482
  120DPPC   O33 5983   4.368   6.515   2.564
  120DPPC   C34 5984   4.429   6.395   2.579
  120DPPC   O35 5985   4.389   6.297   2.515
  120DPPC   C36 5986   4.549   6.366   2.671
  120DPPC   C37 5987   4.510   6.355   2.818
  120DPPC   C38 5988   4.626   6.327   2.913
  120DPPC   C39 5989   4.718   6.450   2.906
  120DPPC   C40 5990   4.842   6.446   2.995
  120DPPC   C41 5991   4.903   6.586   3.011
  120DPPC   C42 5992   4.933   6.652   2.877
  120DPPC   C43 5993   4.967   6.800   2.893
  120DPPC   C44 5994   4.975   6.866   2.755
  120DPPC   C45 5995   5.012   7.014   2.759
  120DPPC   C46 5996   4.935   7.099   2.861
  120DPPC   C47 5997   5.017   7.225   2.890
  120DPPC   C48 5998   4.940   7.321   2.981
  120DPPC   C49 5999   5.037   7.432   3.020
  120DPPC   C50 6000   4.971   7.534   3.113
  121DPPC    C1 6001   7.243   3.182   2.120
  121DPPC    C2 6002   7.293   2.997   2.251
  121DPPC    C3 6003   7.135   2.972   2.065
  121DPPC    N4 6004   7.258   3.036   2.114
  121DPPC    C5 6005   7.367   2.988   2.028
  121DPPC    C6 6006   7.400   3.060   1.897
  121DPPC    O7 6007   7.528   3.011   1.856
  121DPPC    P8 6008   7.570   3.057   1.708
  121DPPC    O9 6009   7.457   3.108   1.628
  121DPPC   O10 6010   7.665   2.960   1.648
  121DPPC   O11 6011   7.666   3.180   1.752
  121DPPC   C12 6012   7.780   3.134   1.825
  121DPPC   C13 6013   7.819   3.214   1.950
  121DPPC   O14 6014   7.942   3.173   2.012
  121DPPC   C15 6015   8.043   3.264   2.014
  121DPPC   O16 6016   8.048   3.353   1.928
  121DPPC   C17 6017   8.163   3.241   2.105
  121DPPC   C18 6018   8.159   3.335   2.227
  121DPPC   C19 6019   8.054   3.285   2.326
  121DPPC   C20 6020   8.073   3.361   2.458
  121DPPC   C21 6021   8.025   3.284   2.582
  121DPPC   C22 6022   8.058   3.373   2.703
  121DPPC   C23 6023   7.979   3.333   2.828
  121DPPC   C24 6024   7.831   3.363   2.805
  121DPPC   C25 6025   7.749   3.314   2.924
  121DPPC   C26 6026   7.801   3.367   3.058
  121DPPC   C27 6027   7.754   3.509   3.088
  121DPPC   C28 6028   7.831   3.561   3.210
  121DPPC   C29 6029   7.973   3.580   3.157
  121DPPC   C30 6030   8.066   3.624   3.270
  121DPPC   C31 6031   8.071   3.524   3.386
  121DPPC   C32 6032   7.709   3.200   2.056
  121DPPC   O33 6033   7.706   3.312   2.144
  121DPPC   C34 6034   7.623   3.290   2.249
  121DPPC   O35 6035   7.516   3.229   2.236
  121DPPC   C36 6036   7.660   3.355   2.383
  121DPPC   C37 6037   7.674   3.505   2.361
  121DPPC   C38 6038   7.751   3.574   2.474
  121DPPC   C39 6039   7.781   3.723   2.458
  121DPPC   C40 6040   7.864   3.757   2.582
  121DPPC   C41 6041   7.909   3.903   2.570
  121DPPC   C42 6042   7.978   3.940   2.702
  121DPPC   C43 6043   7.882   3.925   2.821
  121DPPC   C44 6044   7.945   3.992   2.943
  121DPPC   C45 6045   7.850   4.006   3.063
  121DPPC   C46 6046   7.935   4.067   3.175
  121DPPC   C47 6047   7.861   4.084   3.308
  121DPPC   C48 6048   7.961   4.113   3.420
  121DPPC   C49 6049   7.894   4.122   3.557
  121DPPC   C50 6050   8.004   4.176   3.649
  122DPPC    C1 6051   6.909   6.523   1.509
  122DPPC    C2 6052   7.142   6.537   1.462
  122DPPC    C3 6053   6.988   6.683   1.365
  122DPPC    N4 6054   7.021   6.616   1.491
  122DPPC    C5 6055   7.025   6.702   1.611
  122DPPC    C6 6056   7.146   6.791   1.638
  122DPPC    O7 6057   7.159   6.905   1.553
  122DPPC    P8 6058   7.319   6.924   1.559
  122DPPC    O9 6059   7.340   7.050   1.484
  122DPPC   O10 6060   7.370   6.790   1.526
  122DPPC   O11 6061   7.338   6.969   1.713
  122DPPC   C12 6062   7.279   7.092   1.757
  122DPPC   C13 6063   7.330   7.133   1.896
  122DPPC   O14 6064   7.468   7.161   1.919
  122DPPC   C15 6065   7.520   7.281   1.882
  122DPPC   O16 6066   7.455   7.363   1.816
  122DPPC   C17 6067   7.647   7.322   1.956
  122DPPC   C18 6068   7.632   7.313   2.108
  122DPPC   C19 6069   7.768   7.362   2.159
  122DPPC   C20 6070   7.761   7.368   2.311
  122DPPC   C21 6071   7.903   7.368   2.370
  122DPPC   C22 6072   7.970   7.231   2.375
  122DPPC   C23 6073   8.107   7.245   2.442
  122DPPC   C24 6074   8.130   7.104   2.497
  122DPPC   C25 6075   8.248   7.091   2.593
  122DPPC   C26 6076   8.249   6.943   2.634
  122DPPC   C27 6077   8.344   6.928   2.753
  122DPPC   C28 6078   8.310   7.034   2.857
  122DPPC   C29 6079   8.383   7.011   2.990
  122DPPC   C30 6080   8.372   7.137   3.075
  122DPPC   C31 6081   8.418   7.118   3.220
  122DPPC   C32 6082   7.290   7.009   1.976
  122DPPC   O33 6083   7.147   7.008   1.983
  122DPPC   C34 6084   7.089   6.910   2.057
  122DPPC   O35 6085   7.143   6.800   2.059
  122DPPC   C36 6086   6.939   6.927   2.084
  122DPPC   C37 6087   6.911   6.901   2.232
  122DPPC   C38 6088   6.894   6.751   2.253
  122DPPC   C39 6089   6.864   6.730   2.402
  122DPPC   C40 6090   6.985   6.763   2.490
  122DPPC   C41 6091   6.946   6.738   2.635
  122DPPC   C42 6092   7.057   6.758   2.739
  122DPPC   C43 6093   7.111   6.900   2.749
  122DPPC   C44 6094   7.247   6.912   2.819
  122DPPC   C45 6095   7.232   6.850   2.959
  122DPPC   C46 6096   7.362   6.862   3.038
  122DPPC   C47 6097   7.388   6.742   3.130
  122DPPC   C48 6098   7.513   6.754   3.219
  122DPPC   C49 6099   7.633   6.704   3.139
  122DPPC   C50 6100   7.757   6.748   3.218
  123DPPC    C1 6101   8.133   8.059   1.747
  123DPPC    C2 6102   7.949   8.164   1.663
  123DPPC    C3 6103   8.064   8.055   1.517
  123DPPC    N4 6104   8.020   8.035   1.656
  123DPPC    C5 6105   7.940   7.914   1.679
  123DPPC    C6 6106   8.010   7.780   1.657
  123DPPC    O7 6107   7.920   7.671   1.636
  123DPPC    P8 6108   8.008   7.555   1.566
  123DPPC    O9 6109   8.070   7.642   1.463
  123DPPC   O10 6110   7.909   7.448   1.541
  123DPPC   O11 6111   8.097   7.527   1.698
  123DPPC   C12 6112   8.046   7.401   1.745
  123DPPC   C13 6113   8.128   7.361   1.868
  123DPPC   O14 6114   8.068   7.241   1.918
  123DPPC   C15 6115   8.131   7.125   1.885
  123DPPC   O16 6116   8.202   7.118   1.786
  123DPPC   C17 6117   8.060   6.997   1.931
  123DPPC   C18 6118   8.158   6.900   1.996
  123DPPC   C19 6119   8.088   6.777   2.055
  123DPPC   C20 6120   8.191   6.704   2.141
  123DPPC   C21 6121   8.184   6.739   2.290
  123DPPC   C22 6122   8.092   6.657   2.381
  123DPPC   C23 6123   8.106   6.506   2.360
  123DPPC   C24 6124   7.989   6.451   2.443
  123DPPC   C25 6125   7.968   6.300   2.432
  123DPPC   C26 6126   7.851   6.253   2.520
  123DPPC   C27 6127   7.807   6.110   2.489
  123DPPC   C28 6128   7.713   6.048   2.592
  123DPPC   C29 6129   7.799   6.045   2.718
  123DPPC   C30 6130   7.746   5.961   2.835
  123DPPC   C31 6131   7.823   5.979   2.966
  123DPPC   C32 6132   8.111   7.480   1.962
  123DPPC   O33 6133   8.234   7.524   2.021
  123DPPC   C34 6134   8.210   7.624   2.110
  123DPPC   O35 6135   8.118   7.625   2.191
  123DPPC   C36 6136   8.342   7.702   2.122
  123DPPC   C37 6137   8.380   7.734   2.266
  123DPPC   C38 6138   8.415   7.610   2.349
  123DPPC   C39 6139   8.425   7.635   2.499
  123DPPC   C40 6140   8.461   7.510   2.579
  123DPPC   C41 6141   8.435   7.528   2.729
  123DPPC   C42 6142   8.299   7.474   2.772
  123DPPC   C43 6143   8.300   7.514   2.919
  123DPPC   C44 6144   8.160   7.494   2.977
  123DPPC   C45 6145   8.161   7.526   3.127
  123DPPC   C46 6146   8.217   7.668   3.133
  123DPPC   C47 6147   8.236   7.688   3.283
  123DPPC   C48 6148   8.302   7.563   3.343
  123DPPC   C49 6149   8.351   7.588   3.486
  123DPPC   C50 6150   8.241   7.604   3.592
  124DPPC    C1 6151   6.370   3.338   2.023
  124DPPC    C2 6152   6.346   3.178   2.187
  124DPPC    C3 6153   6.167   3.216   2.028
  124DPPC    N4 6154   6.312   3.205   2.047
  124DPPC    C5 6155   6.361   3.104   1.952
  124DPPC    C6 6156   6.510   3.104   1.918
  124DPPC    O7 6157   6.605   3.108   2.025
  124DPPC    P8 6158   6.753   3.106   1.962
  124DPPC    O9 6159   6.740   3.172   1.830
  124DPPC   O10 6160   6.837   2.984   1.972
  124DPPC   O11 6161   6.813   3.203   2.075
  124DPPC   C12 6162   6.827   3.141   2.203
  124DPPC   C13 6163   6.863   3.238   2.315
  124DPPC   O14 6164   6.858   3.174   2.444
  124DPPC   C15 6165   6.964   3.095   2.475
  124DPPC   O16 6166   7.053   3.082   2.392
  124DPPC   C17 6167   6.978   3.029   2.613
  124DPPC   C18 6168   7.120   3.034   2.670
  124DPPC   C19 6169   7.121   2.999   2.819
  124DPPC   C20 6170   7.031   3.085   2.908
  124DPPC   C21 6171   7.041   3.040   3.054
  124DPPC   C22 6172   6.961   3.123   3.154
  124DPPC   C23 6173   6.959   3.072   3.298
  124DPPC   C24 6174   6.833   3.134   3.358
  124DPPC   C25 6175   6.712   3.110   3.268
  124DPPC   C26 6176   6.582   3.147   3.339
  124DPPC   C27 6177   6.574   3.299   3.339
  124DPPC   C28 6178   6.457   3.332   3.431
  124DPPC   C29 6179   6.457   3.465   3.508
  124DPPC   C30 6180   6.345   3.463   3.612
  124DPPC   C31 6181   6.390   3.422   3.753
  124DPPC   C32 6182   6.776   3.363   2.306
  124DPPC   O33 6183   6.633   3.367   2.316
  124DPPC   C34 6184   6.594   3.497   2.305
  124DPPC   O35 6185   6.643   3.564   2.215
  124DPPC   C36 6186   6.488   3.546   2.404
  124DPPC   C37 6187   6.479   3.461   2.531
  124DPPC   C38 6188   6.364   3.509   2.620
  124DPPC   C39 6189   6.346   3.414   2.738
  124DPPC   C40 6190   6.208   3.428   2.803
  124DPPC   C41 6191   6.196   3.375   2.946
  124DPPC   C42 6192   6.048   3.359   2.983
  124DPPC   C43 6193   6.021   3.335   3.132
  124DPPC   C44 6194   5.987   3.187   3.149
  124DPPC   C45 6195   5.970   3.169   3.300
  124DPPC   C46 6196   5.983   3.019   3.325
  124DPPC   C47 6197   5.951   2.989   3.471
  124DPPC   C48 6198   5.959   2.838   3.498
  124DPPC   C49 6199   5.866   2.795   3.611
  124DPPC   C50 6200   5.890   2.646   3.636
  125DPPC    C1 6201   2.427   0.014   1.416
  125DPPC    C2 6202   2.299   0.129   1.584
  125DPPC    C3 6203   2.200   0.041   1.396
  125DPPC    N4 6204   2.304   0.012   1.495
  125DPPC    C5 6205   2.287  -0.108   1.580
  125DPPC    C6 6206   2.291  -0.243   1.508
  125DPPC    O7 6207   2.166  -0.278   1.447
  125DPPC    P8 6208   2.187  -0.402   1.348
  125DPPC    O9 6209   2.318  -0.378   1.283
  125DPPC   O10 6210   2.061  -0.415   1.271
  125DPPC   O11 6211   2.189  -0.504   1.473
  125DPPC   C12 6212   2.053  -0.545   1.492
  125DPPC   C13 6213   2.026  -0.607   1.629
  125DPPC   O14 6214   1.949  -0.526   1.718
  125DPPC   C15 6215   1.817  -0.517   1.685
  125DPPC   O16 6216   1.753  -0.600   1.620
  125DPPC   C17 6217   1.751  -0.410   1.772
  125DPPC   C18 6218   1.686  -0.479   1.892
  125DPPC   C19 6219   1.607  -0.373   1.968
  125DPPC   C20 6220   1.686  -0.285   2.065
  125DPPC   C21 6221   1.596  -0.175   2.122
  125DPPC   C22 6222   1.673  -0.106   2.235
  125DPPC   C23 6223   1.570  -0.021   2.311
  125DPPC   C24 6224   1.452  -0.115   2.333
  125DPPC   C25 6225   1.338  -0.049   2.412
  125DPPC   C26 6226   1.379   0.005   2.549
  125DPPC   C27 6227   1.271   0.092   2.612
  125DPPC   C28 6228   1.160  -0.003   2.658
  125DPPC   C29 6229   1.033   0.078   2.682
  125DPPC   C30 6230   0.916  -0.003   2.739
  125DPPC   C31 6231   0.796   0.091   2.753
  125DPPC   C32 6232   2.163  -0.637   1.691
  125DPPC   O33 6233   2.167  -0.711   1.813
  125DPPC   C34 6234   2.291  -0.732   1.867
  125DPPC   O35 6235   2.389  -0.737   1.793
  125DPPC   C36 6236   2.287  -0.785   2.010
  125DPPC   C37 6237   2.198  -0.699   2.100
  125DPPC   C38 6238   2.267  -0.569   2.142
  125DPPC   C39 6239   2.407  -0.604   2.194
  125DPPC   C40 6240   2.485  -0.474   2.218
  125DPPC   C41 6241   2.413  -0.371   2.304
  125DPPC   C42 6242   2.512  -0.269   2.361
  125DPPC   C43 6243   2.422  -0.174   2.441
  125DPPC   C44 6244   2.508  -0.058   2.491
  125DPPC   C45 6245   2.575   0.021   2.379
  125DPPC   C46 6246   2.632   0.151   2.435
  125DPPC   C47 6247   2.512   0.211   2.509
  125DPPC   C48 6248   2.544   0.348   2.568
  125DPPC   C49 6249   2.432   0.382   2.666
  125DPPC   C50 6250   2.484   0.492   2.759
  126DPPC    C1 6251   6.584   3.752   1.660
  126DPPC    C2 6252   6.550   3.911   1.500
  126DPPC    C3 6253   6.607   3.696   1.417
  126DPPC    N4 6254   6.533   3.766   1.523
  126DPPC    C5 6255   6.390   3.738   1.507
  126DPPC    C6 6256   6.334   3.606   1.562
  126DPPC    O7 6257   6.196   3.576   1.544
  126DPPC    P8 6258   6.127   3.442   1.600
  126DPPC    O9 6259   6.234   3.370   1.673
  126DPPC   O10 6260   6.060   3.400   1.475
  126DPPC   O11 6261   6.031   3.515   1.706
  126DPPC   C12 6262   6.083   3.565   1.830
  126DPPC   C13 6263   6.135   3.708   1.822
  126DPPC   O14 6264   6.192   3.754   1.946
  126DPPC   C15 6265   6.320   3.722   1.978
  126DPPC   O16 6266   6.387   3.639   1.916
  126DPPC   C17 6267   6.369   3.799   2.100
  126DPPC   C18 6268   6.248   3.847   2.181
  126DPPC   C19 6269   6.289   3.873   2.326
  126DPPC   C20 6270   6.185   3.944   2.413
  126DPPC   C21 6271   6.224   3.956   2.560
  126DPPC   C22 6272   6.118   4.032   2.640
  126DPPC   C23 6273   6.113   4.180   2.602
  126DPPC   C24 6274   6.022   4.248   2.704
  126DPPC   C25 6275   6.085   4.242   2.844
  126DPPC   C26 6276   6.014   4.335   2.943
  126DPPC   C27 6277   6.088   4.353   3.075
  126DPPC   C28 6278   6.221   4.430   3.074
  126DPPC   C29 6279   6.294   4.404   3.206
  126DPPC   C30 6280   6.307   4.253   3.226
  126DPPC   C31 6281   6.347   4.215   3.369
  126DPPC   C32 6282   6.015   3.787   1.769
  126DPPC   O33 6283   5.905   3.786   1.859
  126DPPC   C34 6284   5.806   3.872   1.822
  126DPPC   O35 6285   5.794   3.911   1.706
  126DPPC   C36 6286   5.695   3.876   1.927
  126DPPC   C37 6287   5.729   3.956   2.053
  126DPPC   C38 6288   5.625   3.965   2.164
  126DPPC   C39 6289   5.695   3.997   2.296
  126DPPC   C40 6290   5.590   4.049   2.394
  126DPPC   C41 6291   5.665   4.072   2.525
  126DPPC   C42 6292   5.576   4.120   2.639
  126DPPC   C43 6293   5.659   4.128   2.768
  126DPPC   C44 6294   5.564   4.182   2.874
  126DPPC   C45 6295   5.624   4.155   3.012
  126DPPC   C46 6296   5.524   4.187   3.124
  126DPPC   C47 6297   5.587   4.169   3.262
  126DPPC   C48 6298   5.481   4.166   3.372
  126DPPC   C49 6299   5.547   4.152   3.509
  126DPPC   C50 6300   5.446   4.123   3.620
  127DPPC    C1 6301   2.239   6.172   1.206
  127DPPC    C2 6302   2.416   6.255   1.338
  127DPPC    C3 6303   2.417   6.241   1.090
  127DPPC    N4 6304   2.343   6.276   1.212
  127DPPC    C5 6305   2.261   6.397   1.206
  127DPPC    C6 6306   2.338   6.527   1.232
  127DPPC    O7 6307   2.241   6.624   1.270
  127DPPC    P8 6308   2.312   6.761   1.317
  127DPPC    O9 6309   2.292   6.851   1.201
  127DPPC   O10 6310   2.448   6.737   1.371
  127DPPC   O11 6311   2.214   6.819   1.431
  127DPPC   C12 6312   2.228   6.747   1.554
  127DPPC   C13 6313   2.181   6.817   1.682
  127DPPC   O14 6314   2.205   6.744   1.803
  127DPPC   C15 6315   2.326   6.727   1.862
  127DPPC   O16 6316   2.424   6.760   1.796
  127DPPC   C17 6317   2.338   6.700   2.013
  127DPPC   C18 6318   2.477   6.645   2.047
  127DPPC   C19 6319   2.490   6.619   2.197
  127DPPC   C20 6320   2.632   6.571   2.228
  127DPPC   C21 6321   2.641   6.555   2.380
  127DPPC   C22 6322   2.636   6.689   2.452
  127DPPC   C23 6323   2.643   6.670   2.604
  127DPPC   C24 6324   2.769   6.606   2.662
  127DPPC   C25 6325   2.763   6.618   2.814
  127DPPC   C26 6326   2.895   6.553   2.856
  127DPPC   C27 6327   2.893   6.527   3.006
  127DPPC   C28 6328   2.787   6.422   3.041
  127DPPC   C29 6329   2.811   6.372   3.183
  127DPPC   C30 6330   2.698   6.271   3.205
  127DPPC   C31 6331   2.706   6.212   3.346
  127DPPC   C32 6332   2.033   6.840   1.650
  127DPPC   O33 6333   1.953   6.939   1.714
  127DPPC   C34 6334   1.862   6.998   1.632
  127DPPC   O35 6335   1.864   6.972   1.511
  127DPPC   C36 6336   1.765   7.098   1.694
  127DPPC   C37 6337   1.718   7.040   1.828
  127DPPC   C38 6338   1.586   7.109   1.865
  127DPPC   C39 6339   1.539   7.074   2.006
  127DPPC   C40 6340   1.408   7.144   2.043
  127DPPC   C41 6341   1.332   7.084   2.161
  127DPPC   C42 6342   1.423   7.101   2.283
  127DPPC   C43 6343   1.359   7.041   2.409
  127DPPC   C44 6344   1.448   7.090   2.524
  127DPPC   C45 6345   1.596   7.055   2.511
  127DPPC   C46 6346   1.655   7.105   2.643
  127DPPC   C47 6347   1.798   7.050   2.645
  127DPPC   C48 6348   1.846   7.057   2.790
  127DPPC   C49 6349   1.839   7.202   2.838
  127DPPC   C50 6350   1.915   7.220   2.969
  128DPPC    C1 6351   2.061   3.988   1.366
  128DPPC    C2 6352   1.856   3.871   1.350
  128DPPC    C3 6353   2.046   3.785   1.235
  128DPPC    N4 6354   2.002   3.854   1.357
  128DPPC    C5 6355   2.035   3.778   1.478
  128DPPC    C6 6356   2.178   3.726   1.493
  128DPPC    O7 6357   2.237   3.766   1.617
  128DPPC    P8 6358   2.395   3.791   1.596
  128DPPC    O9 6359   2.405   3.939   1.603
  128DPPC   O10 6360   2.456   3.709   1.488
  128DPPC   O11 6361   2.445   3.718   1.730
  128DPPC   C12 6362   2.479   3.581   1.711
  128DPPC   C13 6363   2.487   3.498   1.839
  128DPPC   O14 6364   2.393   3.390   1.845
  128DPPC   C15 6365   2.448   3.276   1.893
  128DPPC   O16 6366   2.559   3.245   1.848
  128DPPC   C17 6367   2.353   3.168   1.946
  128DPPC   C18 6368   2.402   3.125   2.084
  128DPPC   C19 6369   2.395   3.237   2.188
  128DPPC   C20 6370   2.389   3.191   2.334
  128DPPC   C21 6371   2.349   3.301   2.433
  128DPPC   C22 6372   2.377   3.259   2.578
  128DPPC   C23 6373   2.363   3.381   2.669
  128DPPC   C24 6374   2.361   3.339   2.816
  128DPPC   C25 6375   2.322   3.464   2.896
  128DPPC   C26 6376   2.437   3.559   2.930
  128DPPC   C27 6377   2.386   3.630   3.055
  128DPPC   C28 6378   2.506   3.693   3.126
  128DPPC   C29 6379   2.606   3.583   3.159
  128DPPC   C30 6380   2.710   3.641   3.255
  128DPPC   C31 6381   2.646   3.686   3.387
  128DPPC   C32 6382   2.472   3.590   1.960
  128DPPC   O33 6383   2.540   3.541   2.076
  128DPPC   C34 6384   2.576   3.643   2.159
  128DPPC   O35 6385   2.562   3.763   2.135
  128DPPC   C36 6386   2.612   3.598   2.301
  128DPPC   C37 6387   2.668   3.708   2.391
  128DPPC   C38 6388   2.685   3.643   2.528
  128DPPC   C39 6389   2.730   3.748   2.629
  128DPPC   C40 6390   2.805   3.678   2.742
  128DPPC   C41 6391   2.871   3.771   2.844
  128DPPC   C42 6392   2.976   3.691   2.921
  128DPPC   C43 6393   3.051   3.795   3.005
  128DPPC   C44 6394   3.074   3.718   3.135
  128DPPC   C45 6395   3.148   3.807   3.236
  128DPPC   C46 6396   3.277   3.861   3.175
  128DPPC   C47 6397   3.357   3.929   3.287
  128DPPC   C48 6398   3.483   3.979   3.216
  128DPPC   C49 6399   3.576   4.049   3.315
  128DPPC   C50 6400   3.697   4.107   3.241
  129DPPC    C1 6401   2.789   2.158   5.556
  129DPPC    C2 6402   2.701   2.132   5.783
  129DPPC    C3 6403   2.740   2.343   5.683
  129DPPC    N4 6404   2.694   2.206   5.656
  129DPPC    C5 6405   2.553   2.203   5.613
  129DPPC    C6 6406   2.496   2.082   5.539
  129DPPC    O7 6407   2.393   2.113   5.445
  129DPPC    P8 6408   2.301   1.984   5.417
  129DPPC    O9 6409   2.207   2.053   5.326
  129DPPC   O10 6410   2.254   1.942   5.550
  129DPPC   O11 6411   2.403   1.878   5.352
  129DPPC   C12 6412   2.439   1.938   5.227
  129DPPC   C13 6413   2.586   1.907   5.199
  129DPPC   O14 6414   2.639   1.989   5.094
  129DPPC   C15 6415   2.695   2.109   5.124
  129DPPC   O16 6416   2.652   2.164   5.225
  129DPPC   C17 6417   2.766   2.195   5.019
  129DPPC   C18 6418   2.693   2.325   4.988
  129DPPC   C19 6419   2.721   2.378   4.847
  129DPPC   C20 6420   2.677   2.265   4.753
  129DPPC   C21 6421   2.705   2.305   4.608
  129DPPC   C22 6422   2.635   2.202   4.519
  129DPPC   C23 6423   2.591   2.270   4.389
  129DPPC   C24 6424   2.552   2.166   4.285
  129DPPC   C25 6425   2.526   2.225   4.146
  129DPPC   C26 6426   2.535   2.118   4.037
  129DPPC   C27 6427   2.538   2.183   3.899
  129DPPC   C28 6428   2.560   2.070   3.798
  129DPPC   C29 6429   2.579   2.130   3.658
  129DPPC   C30 6430   2.558   2.021   3.554
  129DPPC   C31 6431   2.600   2.080   3.419
  129DPPC   C32 6432   2.598   1.757   5.174
  129DPPC   O33 6433   2.487   1.711   5.097
  129DPPC   C34 6434   2.496   1.577   5.072
  129DPPC   O35 6435   2.593   1.518   5.119
  129DPPC   C36 6436   2.390   1.509   4.987
  129DPPC   C37 6437   2.433   1.371   4.936
  129DPPC   C38 6438   2.556   1.394   4.847
  129DPPC   C39 6439   2.595   1.254   4.798
  129DPPC   C40 6440   2.496   1.193   4.699
  129DPPC   C41 6441   2.578   1.083   4.631
  129DPPC   C42 6442   2.508   1.030   4.505
  129DPPC   C43 6443   2.582   0.903   4.462
  129DPPC   C44 6444   2.497   0.825   4.362
  129DPPC   C45 6445   2.585   0.723   4.289
  129DPPC   C46 6446   2.509   0.657   4.173
  129DPPC   C47 6447   2.603   0.561   4.100
  129DPPC   C48 6448   2.544   0.534   3.961
  129DPPC   C49 6449   2.639   0.451   3.875
  129DPPC   C50 6450   2.582   0.385   3.749
  130DPPC    C1 6451   0.679   7.666   1.174
  130DPPC    C2 6452   0.856   7.829   1.172
  130DPPC    C3 6453   0.627   7.893   1.191
  130DPPC    N4 6454   0.727   7.793   1.231
  130DPPC    C5 6455   0.711   7.789   1.377
  130DPPC    C6 6456   0.785   7.680   1.454
  130DPPC    O7 6457   0.695   7.588   1.516
  130DPPC    P8 6458   0.766   7.524   1.645
  130DPPC    O9 6459   0.897   7.589   1.662
  130DPPC   O10 6460   0.747   7.377   1.644
  130DPPC   O11 6461   0.660   7.588   1.748
  130DPPC   C12 6462   0.727   7.693   1.820
  130DPPC   C13 6463   0.641   7.757   1.929
  130DPPC   O14 6464   0.730   7.794   2.035
  130DPPC   C15 6465   0.819   7.897   2.032
  130DPPC   O16 6466   0.805   7.979   1.941
  130DPPC   C17 6467   0.905   7.911   2.158
  130DPPC   C18 6468   0.852   8.010   2.262
  130DPPC   C19 6469   0.864   7.944   2.399
  130DPPC   C20 6470   1.005   7.887   2.419
  130DPPC   C21 6471   1.095   8.009   2.444
  130DPPC   C22 6472   1.243   7.968   2.444
  130DPPC   C23 6473   1.309   8.073   2.533
  130DPPC   C24 6474   1.323   8.030   2.679
  130DPPC   C25 6475   1.440   7.932   2.693
  130DPPC   C26 6476   1.453   7.885   2.838
  130DPPC   C27 6477   1.496   7.989   2.942
  130DPPC   C28 6478   1.504   7.951   3.090
  130DPPC   C29 6479   1.610   7.840   3.089
  130DPPC   C30 6480   1.623   7.780   3.229
  130DPPC   C31 6481   1.492   7.773   3.307
  130DPPC   C32 6482   0.539   7.650   1.969
  130DPPC   O33 6483   0.423   7.705   2.032
  130DPPC   C34 6484   0.350   7.605   2.089
  130DPPC   O35 6485   0.370   7.486   2.066
  130DPPC   C36 6486   0.220   7.651   2.155
  130DPPC   C37 6487   0.166   7.546   2.253
  130DPPC   C38 6488   0.021   7.562   2.298
  130DPPC   C39 6489  -0.012   7.699   2.358
  130DPPC   C40 6490  -0.143   7.716   2.435
  130DPPC   C41 6491  -0.154   7.866   2.458
  130DPPC   C42 6492  -0.299   7.900   2.494
  130DPPC   C43 6493  -0.323   8.047   2.529
  130DPPC   C44 6494  -0.439   8.078   2.623
  130DPPC   C45 6495  -0.460   8.228   2.645
  130DPPC   C46 6496  -0.573   8.269   2.739
  130DPPC   C47 6497  -0.534   8.218   2.878
  130DPPC   C48 6498  -0.657   8.218   2.970
  130DPPC   C49 6499  -0.710   8.362   2.978
  130DPPC   C50 6500  -0.856   8.363   3.025
  131DPPC    C1 6501   1.422   3.985   5.484
  131DPPC    C2 6502   1.447   3.810   5.314
  131DPPC    C3 6503   1.308   3.999   5.283
  131DPPC    N4 6504   1.436   3.954   5.341
  131DPPC    C5 6505   1.536   4.034   5.269
  131DPPC    C6 6506   1.549   4.184   5.298
  131DPPC    O7 6507   1.470   4.264   5.209
  131DPPC    P8 6508   1.489   4.416   5.258
  131DPPC    O9 6509   1.548   4.422   5.394
  131DPPC   O10 6510   1.367   4.493   5.226
  131DPPC   O11 6511   1.602   4.453   5.150
  131DPPC   C12 6512   1.543   4.439   5.021
  131DPPC   C13 6513   1.647   4.435   4.909
  131DPPC   O14 6514   1.582   4.450   4.783
  131DPPC   C15 6515   1.639   4.547   4.705
  131DPPC   O16 6516   1.738   4.611   4.739
  131DPPC   C17 6517   1.591   4.539   4.560
  131DPPC   C18 6518   1.695   4.454   4.486
  131DPPC   C19 6519   1.639   4.423   4.347
  131DPPC   C20 6520   1.757   4.408   4.251
  131DPPC   C21 6521   1.717   4.361   4.111
  131DPPC   C22 6522   1.840   4.384   4.023
  131DPPC   C23 6523   1.818   4.328   3.882
  131DPPC   C24 6524   1.934   4.358   3.787
  131DPPC   C25 6525   2.070   4.311   3.838
  131DPPC   C26 6526   2.177   4.335   3.730
  131DPPC   C27 6527   2.317   4.302   3.783
  131DPPC   C28 6528   2.420   4.306   3.670
  131DPPC   C29 6529   2.563   4.311   3.725
  131DPPC   C30 6530   2.635   4.440   3.685
  131DPPC   C31 6531   2.783   4.441   3.723
  131DPPC   C32 6532   1.729   4.308   4.931
  131DPPC   O33 6533   1.803   4.247   4.825
  131DPPC   C34 6534   1.868   4.128   4.823
  131DPPC   O35 6535   1.837   4.051   4.914
  131DPPC   C36 6536   1.950   4.074   4.706
  131DPPC   C37 6537   1.866   4.080   4.578
  131DPPC   C38 6538   1.939   4.017   4.460
  131DPPC   C39 6539   1.846   4.025   4.338
  131DPPC   C40 6540   1.703   3.970   4.341
  131DPPC   C41 6541   1.662   3.972   4.193
  131DPPC   C42 6542   1.509   3.965   4.190
  131DPPC   C43 6543   1.465   3.959   4.043
  131DPPC   C44 6544   1.521   3.837   3.970
  131DPPC   C45 6545   1.455   3.824   3.833
  131DPPC   C46 6546   1.507   3.920   3.725
  131DPPC   C47 6547   1.506   3.856   3.586
  131DPPC   C48 6548   1.528   3.958   3.474
  131DPPC   C49 6549   1.527   3.892   3.336
  131DPPC   C50 6550   1.631   3.785   3.304
  132DPPC    C1 6551   9.232   6.380   1.058
  132DPPC    C2 6552   9.433   6.490   1.161
  132DPPC    C3 6553   9.290   6.603   1.019
  132DPPC    N4 6554   9.291   6.498   1.122
  132DPPC    C5 6555   9.210   6.534   1.240
  132DPPC    C6 6556   9.058   6.546   1.238
  132DPPC    O7 6557   9.009   6.578   1.369
  132DPPC    P8 6558   8.852   6.552   1.389
  132DPPC    O9 6559   8.833   6.408   1.359
  132DPPC   O10 6560   8.796   6.657   1.302
  132DPPC   O11 6561   8.841   6.568   1.549
  132DPPC   C12 6562   8.954   6.520   1.621
  132DPPC   C13 6563   8.947   6.549   1.771
  132DPPC   O14 6564   9.063   6.506   1.845
  132DPPC   C15 6565   9.176   6.581   1.844
  132DPPC   O16 6566   9.199   6.652   1.746
  132DPPC   C17 6567   9.277   6.569   1.958
  132DPPC   C18 6568   9.249   6.652   2.084
  132DPPC   C19 6569   9.358   6.638   2.191
  132DPPC   C20 6570   9.301   6.692   2.322
  132DPPC   C21 6571   9.370   6.659   2.455
  132DPPC   C22 6572   9.518   6.696   2.461
  132DPPC   C23 6573   9.542   6.728   2.609
  132DPPC   C24 6574   9.679   6.675   2.651
  132DPPC   C25 6575   9.716   6.714   2.795
  132DPPC   C26 6576   9.866   6.684   2.792
  132DPPC   C27 6577   9.907   6.689   2.940
  132DPPC   C28 6578  10.059   6.686   2.960
  132DPPC   C29 6579  10.081   6.638   3.104
  132DPPC   C30 6580  10.070   6.485   3.102
  132DPPC   C31 6581  10.086   6.426   3.242
  132DPPC   C32 6582   8.817   6.486   1.823
  132DPPC   O33 6583   8.798   6.483   1.964
  132DPPC   C34 6584   8.682   6.432   2.016
  132DPPC   O35 6585   8.591   6.406   1.937
  132DPPC   C36 6586   8.670   6.428   2.168
  132DPPC   C37 6587   8.595   6.545   2.233
  132DPPC   C38 6588   8.538   6.507   2.370
  132DPPC   C39 6589   8.494   6.629   2.450
  132DPPC   C40 6590   8.493   6.600   2.600
  132DPPC   C41 6591   8.395   6.486   2.632
  132DPPC   C42 6592   8.404   6.452   2.781
  132DPPC   C43 6593   8.382   6.581   2.861
  132DPPC   C44 6594   8.352   6.537   3.004
  132DPPC   C45 6595   8.294   6.656   3.080
  132DPPC   C46 6596   8.282   6.617   3.228
  132DPPC   C47 6597   8.210   6.734   3.296
  132DPPC   C48 6598   8.202   6.726   3.448
  132DPPC   C49 6599   8.102   6.617   3.486
  132DPPC   C50 6600   8.113   6.594   3.637
  133DPPC    C1 6601   7.295   0.271   5.376
  133DPPC    C2 6602   7.273   0.473   5.467
  133DPPC    C3 6603   7.395   0.286   5.587
  133DPPC    N4 6604   7.370   0.363   5.464
  133DPPC    C5 6605   7.499   0.398   5.402
  133DPPC    C6 6606   7.600   0.498   5.457
  133DPPC    O7 6607   7.720   0.501   5.379
  133DPPC    P8 6608   7.831   0.601   5.438
  133DPPC    O9 6609   7.956   0.602   5.360
  133DPPC   O10 6610   7.813   0.593   5.585
  133DPPC   O11 6611   7.755   0.735   5.390
  133DPPC   C12 6612   7.780   0.757   5.251
  133DPPC   C13 6613   7.691   0.859   5.180
  133DPPC   O14 6614   7.745   0.992   5.166
  133DPPC   C15 6615   7.835   1.008   5.066
  133DPPC   O16 6616   7.870   0.904   5.009
  133DPPC   C17 6617   7.919   1.135   5.055
  133DPPC   C18 6618   7.856   1.259   4.991
  133DPPC   C19 6619   7.864   1.256   4.838
  133DPPC   C20 6620   7.812   1.389   4.783
  133DPPC   C21 6621   7.887   1.512   4.835
  133DPPC   C22 6622   7.806   1.638   4.802
  133DPPC   C23 6623   7.895   1.762   4.816
  133DPPC   C24 6624   7.797   1.881   4.821
  133DPPC   C25 6625   7.719   1.886   4.690
  133DPPC   C26 6626   7.604   1.986   4.683
  133DPPC   C27 6627   7.531   1.970   4.549
  133DPPC   C28 6628   7.420   2.076   4.551
  133DPPC   C29 6629   7.335   2.058   4.425
  133DPPC   C30 6630   7.203   2.135   4.428
  133DPPC   C31 6631   7.115   2.102   4.307
  133DPPC   C32 6632   7.566   0.869   5.268
  133DPPC   O33 6633   7.438   0.862   5.206
  133DPPC   C34 6634   7.391   0.737   5.179
  133DPPC   O35 6635   7.433   0.632   5.229
  133DPPC   C36 6636   7.253   0.735   5.113
  133DPPC   C37 6637   7.270   0.716   4.962
  133DPPC   C38 6638   7.131   0.746   4.906
  133DPPC   C39 6639   7.150   0.768   4.756
  133DPPC   C40 6640   7.206   0.643   4.687
  133DPPC   C41 6641   7.199   0.665   4.536
  133DPPC   C42 6642   7.210   0.533   4.459
  133DPPC   C43 6643   7.186   0.563   4.312
  133DPPC   C44 6644   7.284   0.654   4.237
  133DPPC   C45 6645   7.262   0.650   4.086
  133DPPC   C46 6646   7.275   0.507   4.035
  133DPPC   C47 6647   7.248   0.501   3.884
  133DPPC   C48 6648   7.269   0.361   3.825
  133DPPC   C49 6649   7.263   0.362   3.673
  133DPPC   C50 6650   7.117   0.377   3.627
  134DPPC    C1 6651   0.269   7.732   5.217
  134DPPC    C2 6652   0.209   7.780   5.424
  134DPPC    C3 6653   0.445   7.764   5.374
  134DPPC    N4 6654   0.315   7.816   5.329
  134DPPC    C5 6655   0.315   7.961   5.309
  134DPPC    C6 6656   0.400   8.024   5.199
  134DPPC    O7 6657   0.372   7.991   5.063
  134DPPC    P8 6658   0.478   8.078   4.979
  134DPPC    O9 6659   0.600   7.995   4.992
  134DPPC   O10 6660   0.468   8.213   5.039
  134DPPC   O11 6661   0.427   8.070   4.827
  134DPPC   C12 6662   0.444   8.192   4.753
  134DPPC   C13 6663   0.477   8.172   4.605
  134DPPC   O14 6664   0.476   8.294   4.530
  134DPPC   C15 6665   0.572   8.390   4.532
  134DPPC   O16 6666   0.680   8.358   4.581
  134DPPC   C17 6667   0.555   8.520   4.455
  134DPPC   C18 6668   0.464   8.507   4.332
  134DPPC   C19 6669   0.491   8.623   4.236
  134DPPC   C20 6670   0.419   8.611   4.102
  134DPPC   C21 6671   0.492   8.689   3.993
  134DPPC   C22 6672   0.397   8.796   3.939
  134DPPC   C23 6673   0.451   8.891   3.832
  134DPPC   C24 6674   0.436   9.037   3.875
  134DPPC   C25 6675   0.504   9.129   3.774
  134DPPC   C26 6676   0.485   9.277   3.807
  134DPPC   C27 6677   0.555   9.360   3.699
  134DPPC   C28 6678   0.507   9.505   3.698
  134DPPC   C29 6679   0.615   9.591   3.633
  134DPPC   C30 6680   0.620   9.542   3.489
  134DPPC   C31 6681   0.723   9.630   3.417
  134DPPC   C32 6682   0.368   8.075   4.558
  134DPPC   O33 6683   0.236   8.122   4.584
  134DPPC   C34 6684   0.134   8.031   4.582
  134DPPC   O35 6685   0.155   7.915   4.546
  134DPPC   C36 6686   0.001   8.089   4.628
  134DPPC   C37 6687  -0.082   8.133   4.507
  134DPPC   C38 6688  -0.135   8.023   4.415
  134DPPC   C39 6689  -0.208   8.082   4.294
  134DPPC   C40 6690  -0.259   7.987   4.185
  134DPPC   C41 6691  -0.300   8.053   4.054
  134DPPC   C42 6692  -0.389   8.174   4.084
  134DPPC   C43 6693  -0.445   8.214   3.947
  134DPPC   C44 6694  -0.505   8.089   3.884
  134DPPC   C45 6695  -0.616   8.149   3.797
  134DPPC   C46 6696  -0.694   8.040   3.722
  134DPPC   C47 6697  -0.817   8.093   3.647
  134DPPC   C48 6698  -0.906   7.972   3.617
  134DPPC   C49 6699  -1.023   8.033   3.540
  134DPPC   C50 6700  -0.964   8.112   3.424
  135DPPC    C1 6701   7.881   7.746   5.502
  135DPPC    C2 6702   7.942   7.922   5.636
  135DPPC    C3 6703   8.075   7.897   5.442
  135DPPC    N4 6704   7.939   7.881   5.495
  135DPPC    C5 6705   7.839   7.963   5.423
  135DPPC    C6 6706   7.789   7.917   5.286
  135DPPC    O7 6707   7.665   7.960   5.229
  135DPPC    P8 6708   7.659   7.916   5.075
  135DPPC    O9 6709   7.528   7.959   5.020
  135DPPC   O10 6710   7.714   7.779   5.068
  135DPPC   O11 6711   7.771   8.024   5.033
  135DPPC   C12 6712   7.722   8.142   4.968
  135DPPC   C13 6713   7.829   8.250   4.956
  135DPPC   O14 6714   7.778   8.384   4.943
  135DPPC   C15 6715   7.865   8.489   4.940
  135DPPC   O16 6716   7.970   8.478   5.002
  135DPPC   C17 6717   7.803   8.629   4.931
  135DPPC   C18 6718   7.893   8.729   4.858
  135DPPC   C19 6719   7.935   8.675   4.722
  135DPPC   C20 6720   7.820   8.635   4.630
  135DPPC   C21 6721   7.845   8.506   4.552
  135DPPC   C22 6722   7.703   8.463   4.512
  135DPPC   C23 6723   7.633   8.564   4.422
  135DPPC   C24 6724   7.703   8.567   4.285
  135DPPC   C25 6725   7.631   8.640   4.171
  135DPPC   C26 6726   7.714   8.640   4.042
  135DPPC   C27 6727   7.646   8.730   3.939
  135DPPC   C28 6728   7.753   8.778   3.841
  135DPPC   C29 6729   7.669   8.872   3.754
  135DPPC   C30 6730   7.742   8.927   3.631
  135DPPC   C31 6731   7.706   8.845   3.507
  135DPPC   C32 6732   7.940   8.200   4.862
  135DPPC   O33 6733   7.887   8.142   4.743
  135DPPC   C34 6734   7.984   8.100   4.658
  135DPPC   O35 6735   8.101   8.132   4.681
  135DPPC   C36 6736   7.937   8.073   4.515
  135DPPC   C37 6737   7.808   7.992   4.533
  135DPPC   C38 6738   7.725   7.993   4.405
  135DPPC   C39 6739   7.602   7.903   4.397
  135DPPC   C40 6740   7.527   7.892   4.263
  135DPPC   C41 6741   7.512   8.037   4.216
  135DPPC   C42 6742   7.439   8.027   4.081
  135DPPC   C43 6743   7.531   7.945   3.990
  135DPPC   C44 6744   7.481   7.958   3.846
  135DPPC   C45 6745   7.589   7.913   3.746
  135DPPC   C46 6746   7.555   7.899   3.598
  135DPPC   C47 6747   7.463   7.780   3.568
  135DPPC   C48 6748   7.431   7.779   3.418
  135DPPC   C49 6749   7.340   7.667   3.367
  135DPPC   C50 6750   7.323   7.683   3.216
  136DPPC    C1 6751   7.104   3.180   5.914
  136DPPC    C2 6752   7.315   3.179   5.830
  136DPPC    C3 6753   7.197   3.365   5.801
  136DPPC    N4 6754   7.224   3.265   5.905
  136DPPC    C5 6755   7.280   3.317   6.031
  136DPPC    C6 6756   7.426   3.361   6.027
  136DPPC    O7 6757   7.454   3.480   5.953
  136DPPC    P8 6758   7.607   3.478   5.903
  136DPPC    O9 6759   7.671   3.378   5.992
  136DPPC   O10 6760   7.644   3.621   5.899
  136DPPC   O11 6761   7.574   3.424   5.755
  136DPPC   C12 6762   7.554   3.545   5.681
  136DPPC   C13 6763   7.629   3.538   5.547
  136DPPC   O14 6764   7.593   3.650   5.464
  136DPPC   C15 6765   7.658   3.769   5.477
  136DPPC   O16 6766   7.756   3.781   5.551
  136DPPC   C17 6767   7.597   3.891   5.409
  136DPPC   C18 6768   7.657   3.938   5.276
  136DPPC   C19 6769   7.590   4.057   5.207
  136DPPC   C20 6770   7.662   4.082   5.075
  136DPPC   C21 6771   7.679   3.967   4.976
  136DPPC   C22 6772   7.759   4.016   4.855
  136DPPC   C23 6773   7.689   4.138   4.794
  136DPPC   C24 6774   7.796   4.222   4.725
  136DPPC   C25 6775   7.852   4.176   4.590
  136DPPC   C26 6776   7.970   4.259   4.541
  136DPPC   C27 6777   8.043   4.182   4.431
  136DPPC   C28 6778   8.153   4.261   4.360
  136DPPC   C29 6779   8.101   4.396   4.310
  136DPPC   C30 6780   8.164   4.430   4.174
  136DPPC   C31 6781   8.126   4.569   4.125
  136DPPC   C32 6782   7.562   3.411   5.495
  136DPPC   O33 6783   7.641   3.325   5.412
  136DPPC   C34 6784   7.594   3.212   5.352
  136DPPC   O35 6785   7.477   3.179   5.367
  136DPPC   C36 6786   7.674   3.161   5.232
  136DPPC   C37 6787   7.639   3.259   5.120
  136DPPC   C38 6788   7.587   3.192   4.993
  136DPPC   C39 6789   7.519   3.287   4.894
  136DPPC   C40 6790   7.467   3.217   4.768
  136DPPC   C41 6791   7.384   3.317   4.688
  136DPPC   C42 6792   7.320   3.253   4.564
  136DPPC   C43 6793   7.259   3.364   4.478
  136DPPC   C44 6794   7.219   3.302   4.344
  136DPPC   C45 6795   7.145   3.398   4.251
  136DPPC   C46 6796   7.111   3.318   4.125
  136DPPC   C47 6797   7.057   3.416   4.020
  136DPPC   C48 6798   7.076   3.350   3.883
  136DPPC   C49 6799   6.979   3.232   3.872
  136DPPC   C50 6800   7.006   3.185   3.729
  137DPPC    C1 6801   3.093   6.128   4.898
  137DPPC    C2 6802   3.205   5.955   5.020
  137DPPC    C3 6803   3.310   6.168   4.957
  137DPPC    N4 6804   3.189   6.101   5.006
  137DPPC    C5 6805   3.156   6.173   5.130
  137DPPC    C6 6806   3.021   6.141   5.194
  137DPPC    O7 6807   2.906   6.210   5.145
  137DPPC    P8 6808   2.771   6.125   5.170
  137DPPC    O9 6809   2.658   6.200   5.112
  137DPPC   O10 6810   2.787   6.082   5.311
  137DPPC   O11 6811   2.801   5.998   5.077
  137DPPC   C12 6812   2.701   5.969   4.979
  137DPPC   C13 6813   2.736   5.837   4.911
  137DPPC   O14 6814   2.858   5.843   4.836
  137DPPC   C15 6815   2.928   5.728   4.820
  137DPPC   O16 6816   2.898   5.637   4.897
  137DPPC   C17 6817   3.054   5.721   4.734
  137DPPC   C18 6818   3.030   5.783   4.596
  137DPPC   C19 6819   3.155   5.757   4.512
  137DPPC   C20 6820   3.196   5.610   4.497
  137DPPC   C21 6821   3.302   5.602   4.387
  137DPPC   C22 6822   3.358   5.461   4.367
  137DPPC   C23 6823   3.480   5.444   4.276
  137DPPC   C24 6824   3.524   5.298   4.257
  137DPPC   C25 6825   3.638   5.283   4.156
  137DPPC   C26 6826   3.664   5.134   4.138
  137DPPC   C27 6827   3.785   5.100   4.051
  137DPPC   C28 6828   3.767   5.164   3.913
  137DPPC   C29 6829   3.857   5.100   3.807
  137DPPC   C30 6830   3.771   5.096   3.681
  137DPPC   C31 6831   3.832   5.007   3.572
  137DPPC   C32 6832   2.608   5.798   4.836
  137DPPC   O33 6833   2.544   5.901   4.760
  137DPPC   C34 6834   2.446   5.861   4.674
  137DPPC   O35 6835   2.417   5.742   4.662
  137DPPC   C36 6836   2.389   5.967   4.580
  137DPPC   C37 6837   2.354   5.921   4.438
  137DPPC   C38 6838   2.335   6.026   4.329
  137DPPC   C39 6839   2.304   5.956   4.197
  137DPPC   C40 6840   2.364   6.038   4.083
  137DPPC   C41 6841   2.273   6.155   4.046
  137DPPC   C42 6842   2.300   6.203   3.903
  137DPPC   C43 6843   2.274   6.084   3.811
  137DPPC   C44 6844   2.319   6.095   3.665
  137DPPC   C45 6845   2.266   5.976   3.584
  137DPPC   C46 6846   2.296   5.844   3.655
  137DPPC   C47 6847   2.235   5.729   3.576
  137DPPC   C48 6848   2.083   5.722   3.590
  137DPPC   C49 6849   2.012   5.613   3.510
  137DPPC   C50 6850   1.871   5.585   3.563
  138DPPC    C1 6851   2.074   2.673   5.553
  138DPPC    C2 6852   2.034   2.896   5.625
  138DPPC    C3 6853   2.204   2.763   5.715
  138DPPC    N4 6854   2.139   2.800   5.588
  138DPPC    C5 6855   2.225   2.836   5.475
  138DPPC    C6 6856   2.158   2.890   5.347
  138DPPC    O7 6857   2.079   2.804   5.266
  138DPPC    P8 6858   2.046   2.891   5.135
  138DPPC    O9 6859   1.989   3.011   5.201
  138DPPC   O10 6860   1.970   2.804   5.043
  138DPPC   O11 6861   2.201   2.911   5.095
  138DPPC   C12 6862   2.211   2.998   4.982
  138DPPC   C13 6863   2.349   3.060   4.961
  138DPPC   O14 6864   2.362   3.173   4.874
  138DPPC   C15 6865   2.340   3.299   4.920
  138DPPC   O16 6866   2.317   3.314   5.040
  138DPPC   C17 6867   2.341   3.411   4.815
  138DPPC   C18 6868   2.453   3.512   4.837
  138DPPC   C19 6869   2.452   3.620   4.728
  138DPPC   C20 6870   2.315   3.687   4.712
  138DPPC   C21 6871   2.305   3.777   4.588
  138DPPC   C22 6872   2.264   3.702   4.461
  138DPPC   C23 6873   2.261   3.802   4.345
  138DPPC   C24 6874   2.280   3.714   4.221
  138DPPC   C25 6875   2.301   3.783   4.086
  138DPPC   C26 6876   2.314   3.662   3.993
  138DPPC   C27 6877   2.333   3.705   3.847
  138DPPC   C28 6878   2.215   3.798   3.816
  138DPPC   C29 6879   2.252   3.883   3.694
  138DPPC   C30 6880   2.142   3.977   3.646
  138DPPC   C31 6881   2.033   3.889   3.585
  138DPPC   C32 6882   2.435   2.943   4.913
  138DPPC   O33 6883   2.369   2.876   4.805
  138DPPC   C34 6884   2.410   2.747   4.795
  138DPPC   O35 6885   2.474   2.698   4.888
  138DPPC   C36 6886   2.385   2.659   4.672
  138DPPC   C37 6887   2.447   2.727   4.549
  138DPPC   C38 6888   2.430   2.623   4.438
  138DPPC   C39 6889   2.288   2.589   4.394
  138DPPC   C40 6890   2.281   2.475   4.292
  138DPPC   C41 6891   2.136   2.460   4.244
  138DPPC   C42 6892   2.116   2.328   4.169
  138DPPC   C43 6893   1.971   2.328   4.122
  138DPPC   C44 6894   1.924   2.204   4.044
  138DPPC   C45 6895   1.772   2.206   4.064
  138DPPC   C46 6896   1.714   2.101   3.970
  138DPPC   C47 6897   1.561   2.097   3.981
  138DPPC   C48 6898   1.501   1.971   3.919
  138DPPC   C49 6899   1.354   1.946   3.952
  138DPPC   C50 6900   1.364   1.954   4.104
  139DPPC    C1 6901   9.075   3.794   5.230
  139DPPC    C2 6902   8.900   3.952   5.183
  139DPPC    C3 6903   8.899   3.819   5.379
  139DPPC    N4 6904   8.985   3.895   5.288
  139DPPC    C5 6905   9.054   3.993   5.373
  139DPPC    C6 6906   9.135   4.098   5.296
  139DPPC    O7 6907   9.205   4.182   5.390
  139DPPC    P8 6908   9.242   4.322   5.321
  139DPPC    O9 6909   9.274   4.426   5.422
  139DPPC   O10 6910   9.144   4.350   5.214
  139DPPC   O11 6911   9.371   4.278   5.236
  139DPPC   C12 6912   9.388   4.357   5.119
  139DPPC   C13 6913   9.454   4.282   5.003
  139DPPC   O14 6914   9.501   4.365   4.896
  139DPPC   C15 6915   9.614   4.441   4.906
  139DPPC   O16 6916   9.679   4.439   5.010
  139DPPC   C17 6917   9.627   4.551   4.801
  139DPPC   C18 6918   9.716   4.509   4.684
  139DPPC   C19 6919   9.715   4.604   4.564
  139DPPC   C20 6920   9.752   4.533   4.434
  139DPPC   C21 6921   9.733   4.617   4.307
  139DPPC   C22 6922   9.713   4.515   4.195
  139DPPC   C23 6923   9.722   4.589   4.061
  139DPPC   C24 6924   9.728   4.488   3.947
  139DPPC   C25 6925   9.736   4.557   3.811
  139DPPC   C26 6926   9.740   4.446   3.706
  139DPPC   C27 6927   9.796   4.496   3.573
  139DPPC   C28 6928   9.715   4.604   3.501
  139DPPC   C29 6929   9.794   4.628   3.372
  139DPPC   C30 6930   9.721   4.728   3.282
  139DPPC   C31 6931   9.782   4.743   3.143
  139DPPC   C32 6932   9.355   4.170   4.973
  139DPPC   O33 6933   9.416   4.044   4.945
  139DPPC   C34 6934   9.333   3.936   4.948
  139DPPC   O35 6935   9.220   3.957   4.992
  139DPPC   C36 6936   9.374   3.800   4.893
  139DPPC   C37 6937   9.338   3.802   4.744
  139DPPC   C38 6938   9.386   3.679   4.665
  139DPPC   C39 6939   9.340   3.708   4.522
  139DPPC   C40 6940   9.343   3.597   4.417
  139DPPC   C41 6941   9.286   3.648   4.284
  139DPPC   C42 6942   9.253   3.522   4.204
  139DPPC   C43 6943   9.231   3.555   4.056
  139DPPC   C44 6944   9.114   3.649   4.029
  139DPPC   C45 6945   9.086   3.654   3.879
  139DPPC   C46 6946   9.169   3.747   3.790
  139DPPC   C47 6947   9.149   3.716   3.641
  139DPPC   C48 6948   9.219   3.813   3.546
  139DPPC   C49 6949   9.197   3.755   3.406
  139DPPC   C50 6950   9.270   3.837   3.299
  140DPPC    C1 6951   0.169   2.436   5.243
  140DPPC    C2 6952   0.302   2.562   5.412
  140DPPC    C3 6953   0.145   2.657   5.286
  140DPPC    N4 6954   0.170   2.530   5.356
  140DPPC    C5 6955   0.081   2.508   5.471
  140DPPC    C6 6956  -0.062   2.455   5.453
  140DPPC    O7 6957  -0.136   2.548   5.373
  140DPPC    P8 6958  -0.291   2.516   5.348
  140DPPC    O9 6959  -0.337   2.644   5.289
  140DPPC   O10 6960  -0.353   2.460   5.471
  140DPPC   O11 6961  -0.277   2.408   5.230
  140DPPC   C12 6962  -0.236   2.459   5.103
  140DPPC   C13 6963  -0.243   2.345   5.000
  140DPPC   O14 6964  -0.144   2.340   4.896
  140DPPC   C15 6965  -0.019   2.290   4.910
  140DPPC   O16 6966   0.035   2.247   5.013
  140DPPC   C17 6967   0.044   2.251   4.776
  140DPPC   C18 6968   0.096   2.375   4.703
  140DPPC   C19 6969   0.130   2.337   4.558
  140DPPC   C20 6970   0.262   2.399   4.511
  140DPPC   C21 6971   0.289   2.386   4.361
  140DPPC   C22 6972   0.423   2.451   4.326
  140DPPC   C23 6973   0.501   2.381   4.214
  140DPPC   C24 6974   0.421   2.380   4.084
  140DPPC   C25 6975   0.505   2.349   3.960
  140DPPC   C26 6976   0.442   2.317   3.824
  140DPPC   C27 6977   0.548   2.297   3.715
  140DPPC   C28 6978   0.490   2.254   3.580
  140DPPC   C29 6979   0.380   2.148   3.591
  140DPPC   C30 6980   0.362   2.081   3.454
  140DPPC   C31 6981   0.263   1.965   3.467
  140DPPC   C32 6982  -0.384   2.364   4.943
  140DPPC   O33 6983  -0.409   2.500   4.909
  140DPPC   C34 6984  -0.495   2.535   4.809
  140DPPC   O35 6985  -0.512   2.469   4.706
  140DPPC   C36 6986  -0.559   2.674   4.817
  140DPPC   C37 6987  -0.704   2.625   4.824
  140DPPC   C38 6988  -0.784   2.706   4.723
  140DPPC   C39 6989  -0.935   2.688   4.747
  140DPPC   C40 6990  -0.993   2.805   4.667
  140DPPC   C41 6991  -0.961   2.792   4.518
  140DPPC   C42 6992  -1.004   2.914   4.435
  140DPPC   C43 6993  -0.981   2.892   4.286
  140DPPC   C44 6994  -1.045   3.000   4.199
  140DPPC   C45 6995  -1.020   2.959   4.054
  140DPPC   C46 6996  -1.084   2.822   4.027
  140DPPC   C47 6997  -1.027   2.775   3.894
  140DPPC   C48 6998  -1.126   2.792   3.778
  140DPPC   C49 6999  -1.104   2.685   3.671
  140DPPC   C50 7000  -0.970   2.723   3.606
  141DPPC    C1 7001   5.854   1.746   6.135
  141DPPC    C2 7002   5.700   1.613   6.025
  141DPPC    C3 7003   5.621   1.816   6.092
  141DPPC    N4 7004   5.742   1.753   6.040
  141DPPC    C5 7005   5.771   1.805   5.905
  141DPPC    C6 7006   5.815   1.952   5.901
  141DPPC    O7 7007   5.702   2.040   5.903
  141DPPC    P8 7008   5.747   2.178   5.834
  141DPPC    O9 7009   5.875   2.209   5.901
  141DPPC   O10 7010   5.626   2.264   5.837
  141DPPC   O11 7011   5.765   2.134   5.680
  141DPPC   C12 7012   5.648   2.096   5.608
  141DPPC   C13 7013   5.672   2.087   5.457
  141DPPC   O14 7014   5.754   1.985   5.397
  141DPPC   C15 7015   5.678   1.887   5.342
  141DPPC   O16 7016   5.557   1.874   5.353
  141DPPC   C17 7017   5.763   1.773   5.285
  141DPPC   C18 7018   5.771   1.787   5.133
  141DPPC   C19 7019   5.842   1.669   5.067
  141DPPC   C20 7020   5.776   1.640   4.932
  141DPPC   C21 7021   5.625   1.623   4.955
  141DPPC   C22 7022   5.546   1.569   4.835
  141DPPC   C23 7023   5.555   1.664   4.716
  141DPPC   C24 7024   5.504   1.600   4.587
  141DPPC   C25 7025   5.562   1.461   4.562
  141DPPC   C26 7026   5.521   1.406   4.425
  141DPPC   C27 7027   5.614   1.466   4.319
  141DPPC   C28 7028   5.580   1.412   4.180
  141DPPC   C29 7029   5.439   1.461   4.146
  141DPPC   C30 7030   5.431   1.596   4.075
  141DPPC   C31 7031   5.289   1.652   4.063
  141DPPC   C32 7032   5.729   2.224   5.420
  141DPPC   O33 7033   5.634   2.331   5.425
  141DPPC   C34 7034   5.682   2.457   5.410
  141DPPC   O35 7035   5.803   2.468   5.428
  141DPPC   C36 7036   5.586   2.575   5.390
  141DPPC   C37 7037   5.552   2.607   5.244
  141DPPC   C38 7038   5.493   2.490   5.167
  141DPPC   C39 7039   5.450   2.544   5.030
  141DPPC   C40 7040   5.569   2.577   4.940
  141DPPC   C41 7041   5.523   2.624   4.803
  141DPPC   C42 7042   5.635   2.614   4.699
  141DPPC   C43 7043   5.590   2.651   4.558
  141DPPC   C44 7044   5.470   2.563   4.525
  141DPPC   C45 7045   5.416   2.604   4.388
  141DPPC   C46 7046   5.358   2.745   4.389
  141DPPC   C47 7047   5.320   2.791   4.248
  141DPPC   C48 7048   5.429   2.804   4.142
  141DPPC   C49 7049   5.367   2.843   4.007
  141DPPC   C50 7050   5.262   2.746   3.953
  142DPPC    C1 7051   1.567   6.006   4.836
  142DPPC    C2 7052   1.575   6.237   4.864
  142DPPC    C3 7053   1.622   6.148   4.654
  142DPPC    N4 7054   1.533   6.133   4.769
  142DPPC    C5 7055   1.394   6.120   4.724
  142DPPC    C6 7056   1.311   6.247   4.704
  142DPPC    O7 7057   1.348   6.329   4.593
  142DPPC    P8 7058   1.297   6.481   4.614
  142DPPC    O9 7059   1.385   6.566   4.531
  142DPPC   O10 7060   1.276   6.504   4.759
  142DPPC   O11 7061   1.155   6.471   4.538
  142DPPC   C12 7062   1.172   6.432   4.401
  142DPPC   C13 7063   1.045   6.458   4.319
  142DPPC   O14 7064   1.040   6.373   4.204
  142DPPC   C15 7065   0.923   6.363   4.136
  142DPPC   O16 7066   0.812   6.392   4.180
  142DPPC   C17 7067   0.937   6.285   4.005
  142DPPC   C18 7068   0.831   6.317   3.898
  142DPPC   C19 7069   0.876   6.230   3.780
  142DPPC   C20 7070   0.778   6.206   3.666
  142DPPC   C21 7071   0.649   6.149   3.727
  142DPPC   C22 7072   0.667   6.002   3.764
  142DPPC   C23 7073   0.537   5.961   3.833
  142DPPC   C24 7074   0.541   5.825   3.903
  142DPPC   C25 7075   0.408   5.750   3.911
  142DPPC   C26 7076   0.311   5.848   3.978
  142DPPC   C27 7077   0.174   5.782   3.999
  142DPPC   C28 7078   0.068   5.869   4.065
  142DPPC   C29 7079  -0.065   5.794   4.082
  142DPPC   C30 7080  -0.070   5.659   4.153
  142DPPC   C31 7081  -0.197   5.577   4.131
  142DPPC   C32 7082   1.039   6.607   4.286
  142DPPC   O33 7083   1.149   6.672   4.221
  142DPPC   C34 7084   1.112   6.799   4.189
  142DPPC   O35 7085   1.026   6.863   4.248
  142DPPC   C36 7086   1.223   6.864   4.105
  142DPPC   C37 7087   1.201   7.014   4.091
  142DPPC   C38 7088   1.091   7.050   3.990
  142DPPC   C39 7089   1.086   7.194   3.940
  142DPPC   C40 7090   0.972   7.224   3.842
  142DPPC   C41 7091   0.976   7.131   3.721
  142DPPC   C42 7092   0.906   7.193   3.600
  142DPPC   C43 7093   0.762   7.208   3.650
  142DPPC   C44 7094   0.676   7.294   3.556
  142DPPC   C45 7095   0.742   7.432   3.558
  142DPPC   C46 7096   0.677   7.515   3.447
  142DPPC   C47 7097   0.737   7.655   3.440
  142DPPC   C48 7098   0.686   7.746   3.328
  142DPPC   C49 7099   0.749   7.697   3.198
  142DPPC   C50 7100   0.897   7.733   3.186
  143DPPC    C1 7101   0.317   0.000   5.124
  143DPPC    C2 7102   0.137   0.144   5.208
  143DPPC    C3 7103   0.355   0.161   5.296
  143DPPC    N4 7104   0.279   0.133   5.174
  143DPPC    C5 7105   0.310   0.230   5.068
  143DPPC    C6 7106   0.271   0.378   5.073
  143DPPC    O7 7107   0.383   0.452   5.122
  143DPPC    P8 7108   0.335   0.604   5.146
  143DPPC    O9 7109   0.458   0.679   5.178
  143DPPC   O10 7110   0.225   0.589   5.244
  143DPPC   O11 7111   0.305   0.630   4.990
  143DPPC   C12 7112   0.399   0.721   4.931
  143DPPC   C13 7113   0.382   0.768   4.787
  143DPPC   O14 7114   0.293   0.880   4.779
  143DPPC   C15 7115   0.347   1.004   4.785
  143DPPC   O16 7116   0.453   1.020   4.844
  143DPPC   C17 7117   0.272   1.120   4.717
  143DPPC   C18 7118   0.168   1.069   4.617
  143DPPC   C19 7119   0.030   1.101   4.675
  143DPPC   C20 7120  -0.086   1.066   4.582
  143DPPC   C21 7121  -0.134   1.191   4.508
  143DPPC   C22 7122  -0.264   1.164   4.432
  143DPPC   C23 7123  -0.232   1.043   4.345
  143DPPC   C24 7124  -0.364   1.003   4.278
  143DPPC   C25 7125  -0.410   1.108   4.177
  143DPPC   C26 7126  -0.547   1.084   4.115
  143DPPC   C27 7127  -0.576   1.198   4.017
  143DPPC   C28 7128  -0.489   1.215   3.892
  143DPPC   C29 7129  -0.518   1.091   3.807
  143DPPC   C30 7130  -0.430   1.098   3.682
  143DPPC   C31 7131  -0.484   1.223   3.612
  143DPPC   C32 7132   0.361   0.643   4.701
  143DPPC   O33 7133   0.311   0.665   4.568
  143DPPC   C34 7134   0.277   0.552   4.502
  143DPPC   O35 7135   0.226   0.463   4.570
  143DPPC   C36 7136   0.233   0.573   4.357
  143DPPC   C37 7137   0.165   0.447   4.303
  143DPPC   C38 7138   0.095   0.459   4.167
  143DPPC   C39 7139  -0.021   0.558   4.184
  143DPPC   C40 7140  -0.102   0.580   4.056
  143DPPC   C41 7141  -0.010   0.645   3.952
  143DPPC   C42 7142  -0.037   0.569   3.822
  143DPPC   C43 7143   0.044   0.623   3.704
  143DPPC   C44 7144   0.032   0.772   3.675
  143DPPC   C45 7145   0.123   0.792   3.553
  143DPPC   C46 7146   0.158   0.936   3.516
  143DPPC   C47 7147   0.247   0.929   3.392
  143DPPC   C48 7148   0.293   1.063   3.335
  143DPPC   C49 7149   0.194   1.173   3.297
  143DPPC   C50 7150   0.263   1.295   3.234
  144DPPC    C1 7151   8.715   0.227   5.576
  144DPPC    C2 7152   8.918   0.343   5.627
  144DPPC    C3 7153   8.913   0.112   5.565
  144DPPC    N4 7154   8.855   0.244   5.537
  144DPPC    C5 7155   8.867   0.279   5.395
  144DPPC    C6 7156   8.871   0.428   5.358
  144DPPC    O7 7157   8.760   0.512   5.389
  144DPPC    P8 7158   8.805   0.663   5.356
  144DPPC    O9 7159   8.939   0.660   5.418
  144DPPC   O10 7160   8.694   0.738   5.419
  144DPPC   O11 7161   8.799   0.658   5.195
  144DPPC   C12 7162   8.664   0.675   5.153
  144DPPC   C13 7163   8.648   0.633   5.007
  144DPPC   O14 7164   8.515   0.653   4.955
  144DPPC   C15 7165   8.495   0.776   4.900
  144DPPC   O16 7166   8.541   0.883   4.939
  144DPPC   C17 7167   8.371   0.791   4.811
  144DPPC   C18 7168   8.392   0.837   4.666
  144DPPC   C19 7169   8.488   0.739   4.599
  144DPPC   C20 7170   8.523   0.778   4.455
  144DPPC   C21 7171   8.395   0.760   4.374
  144DPPC   C22 7172   8.432   0.769   4.225
  144DPPC   C23 7173   8.524   0.890   4.208
  144DPPC   C24 7174   8.548   0.933   4.063
  144DPPC   C25 7175   8.430   0.978   3.977
  144DPPC   C26 7176   8.485   1.040   3.849
  144DPPC   C27 7177   8.557   0.943   3.754
  144DPPC   C28 7178   8.628   1.033   3.653
  144DPPC   C29 7179   8.685   0.960   3.531
  144DPPC   C30 7180   8.565   0.885   3.471
  144DPPC   C31 7181   8.610   0.833   3.334
  144DPPC   C32 7182   8.711   0.494   4.996
  144DPPC   O33 7183   8.706   0.439   4.864
  144DPPC   C34 7184   8.820   0.473   4.799
  144DPPC   O35 7185   8.915   0.517   4.864
  144DPPC   C36 7186   8.843   0.411   4.661
  144DPPC   C37 7187   8.714   0.395   4.581
  144DPPC   C38 7188   8.729   0.273   4.491
  144DPPC   C39 7189   8.607   0.280   4.399
  144DPPC   C40 7190   8.608   0.157   4.308
  144DPPC   C41 7191   8.527   0.171   4.178
  144DPPC   C42 7192   8.536   0.040   4.099
  144DPPC   C43 7193   8.419   0.040   4.000
  144DPPC   C44 7194   8.451  -0.053   3.883
  144DPPC   C45 7195   8.315  -0.082   3.818
  144DPPC   C46 7196   8.252   0.048   3.765
  144DPPC   C47 7197   8.115   0.043   3.697
  144DPPC   C48 7198   8.093   0.167   3.609
  144DPPC   C49 7199   8.125   0.294   3.688
  144DPPC   C50 7200   8.099   0.423   3.610
  145DPPC    C1 7201   8.047   5.564   5.465
  145DPPC    C2 7202   8.296   5.580   5.496
  145DPPC    C3 7203   8.214   5.381   5.431
  145DPPC    N4 7204   8.182   5.524   5.422
  145DPPC    C5 7205   8.186   5.552   5.278
  145DPPC    C6 7206   8.208   5.700   5.241
  145DPPC    O7 7207   8.224   5.719   5.101
  145DPPC    P8 7208   8.228   5.877   5.069
  145DPPC    O9 7209   8.291   5.882   4.936
  145DPPC   O10 7210   8.291   5.941   5.187
  145DPPC   O11 7211   8.069   5.861   5.057
  145DPPC   C12 7212   8.043   5.829   4.920
  145DPPC   C13 7213   7.900   5.783   4.888
  145DPPC   O14 7214   7.900   5.718   4.760
  145DPPC   C15 7215   7.803   5.627   4.731
  145DPPC   O16 7216   7.723   5.599   4.820
  145DPPC   C17 7217   7.777   5.600   4.583
  145DPPC   C18 7218   7.668   5.703   4.551
  145DPPC   C19 7219   7.627   5.671   4.407
  145DPPC   C20 7220   7.488   5.609   4.415
  145DPPC   C21 7221   7.450   5.550   4.279
  145DPPC   C22 7222   7.420   5.673   4.193
  145DPPC   C23 7223   7.309   5.764   4.246
  145DPPC   C24 7224   7.319   5.902   4.181
  145DPPC   C25 7225   7.186   5.976   4.166
  145DPPC   C26 7226   7.227   6.115   4.117
  145DPPC   C27 7227   7.274   6.124   3.972
  145DPPC   C28 7228   7.158   6.096   3.876
  145DPPC   C29 7229   7.207   6.070   3.733
  145DPPC   C30 7230   7.289   5.941   3.731
  145DPPC   C31 7231   7.336   5.915   3.588
  145DPPC   C32 7232   7.798   5.892   4.919
  145DPPC   O33 7233   7.804   6.006   4.833
  145DPPC   C34 7234   7.694   6.084   4.850
  145DPPC   O35 7235   7.620   6.073   4.948
  145DPPC   C36 7236   7.650   6.156   4.723
  145DPPC   C37 7237   7.555   6.071   4.637
  145DPPC   C38 7238   7.499   6.148   4.517
  145DPPC   C39 7239   7.594   6.189   4.405
  145DPPC   C40 7240   7.523   6.268   4.294
  145DPPC   C41 7241   7.607   6.323   4.178
  145DPPC   C42 7242   7.657   6.195   4.110
  145DPPC   C43 7243   7.716   6.219   3.971
  145DPPC   C44 7244   7.606   6.279   3.884
  145DPPC   C45 7245   7.657   6.302   3.742
  145DPPC   C46 7246   7.542   6.373   3.670
  145DPPC   C47 7247   7.598   6.409   3.532
  145DPPC   C48 7248   7.627   6.283   3.449
  145DPPC   C49 7249   7.684   6.301   3.308
  145DPPC   C50 7250   7.820   6.368   3.326
  146DPPC    C1 7251   6.914   4.107   5.742
  146DPPC    C2 7252   7.115   4.121   5.874
  146DPPC    C3 7253   6.925   4.062   5.980
  146DPPC    N4 7254   6.992   4.045   5.850
  146DPPC    C5 7255   7.035   3.906   5.827
  146DPPC    C6 7256   6.927   3.812   5.772
  146DPPC    O7 7257   6.970   3.677   5.750
  146DPPC    P8 7258   6.847   3.581   5.713
  146DPPC    O9 7259   6.722   3.628   5.778
  146DPPC   O10 7260   6.892   3.440   5.715
  146DPPC   O11 7261   6.829   3.619   5.557
  146DPPC   C12 7262   6.915   3.538   5.477
  146DPPC   C13 7263   6.937   3.567   5.328
  146DPPC   O14 7264   7.041   3.660   5.295
  146DPPC   C15 7265   7.173   3.632   5.316
  146DPPC   O16 7266   7.210   3.562   5.411
  146DPPC   C17 7267   7.264   3.739   5.257
  146DPPC   C18 7268   7.198   3.824   5.149
  146DPPC   C19 7269   7.222   3.758   5.013
  146DPPC   C20 7270   7.375   3.757   5.005
  146DPPC   C21 7271   7.413   3.708   4.866
  146DPPC   C22 7272   7.354   3.812   4.770
  146DPPC   C23 7273   7.409   3.785   4.630
  146DPPC   C24 7274   7.561   3.805   4.617
  146DPPC   C25 7275   7.589   3.806   4.467
  146DPPC   C26 7276   7.581   3.663   4.414
  146DPPC   C27 7277   7.621   3.678   4.267
  146DPPC   C28 7278   7.553   3.803   4.211
  146DPPC   C29 7279   7.601   3.842   4.071
  146DPPC   C30 7280   7.533   3.974   4.033
  146DPPC   C31 7281   7.517   3.978   3.881
  146DPPC   C32 7282   6.810   3.620   5.260
  146DPPC   O33 7283   6.714   3.521   5.221
  146DPPC   C34 7284   6.611   3.572   5.149
  146DPPC   O35 7285   6.613   3.682   5.096
  146DPPC   C36 7286   6.489   3.479   5.149
  146DPPC   C37 7287   6.422   3.478   5.011
  146DPPC   C38 7288   6.332   3.361   4.973
  146DPPC   C39 7289   6.240   3.418   4.864
  146DPPC   C40 7290   6.308   3.449   4.730
  146DPPC   C41 7291   6.216   3.512   4.625
  146DPPC   C42 7292   6.284   3.531   4.489
  146DPPC   C43 7293   6.186   3.608   4.400
  146DPPC   C44 7294   6.217   3.568   4.255
  146DPPC   C45 7295   6.104   3.626   4.170
  146DPPC   C46 7296   6.117   3.558   4.034
  146DPPC   C47 7297   6.014   3.626   3.942
  146DPPC   C48 7298   6.005   3.573   3.799
  146DPPC   C49 7299   5.887   3.633   3.723
  146DPPC   C50 7300   5.755   3.592   3.789
  147DPPC    C1 7301   8.270   3.054   6.058
  147DPPC    C2 7302   8.124   2.865   6.062
  147DPPC    C3 7303   8.034   3.087   6.095
  147DPPC    N4 7304   8.135   3.007   6.025
  147DPPC    C5 7305   8.113   3.003   5.879
  147DPPC    C6 7306   8.122   3.135   5.803
  147DPPC    O7 7307   8.024   3.238   5.818
  147DPPC    P8 7308   8.101   3.378   5.799
  147DPPC    O9 7309   8.220   3.351   5.883
  147DPPC   O10 7310   8.014   3.496   5.815
  147DPPC   O11 7311   8.135   3.350   5.644
  147DPPC   C12 7312   8.013   3.394   5.583
  147DPPC   C13 7313   8.056   3.384   5.436
  147DPPC   O14 7314   7.963   3.451   5.350
  147DPPC   C15 7315   8.008   3.572   5.306
  147DPPC   O16 7316   8.104   3.622   5.364
  147DPPC   C17 7317   7.910   3.637   5.208
  147DPPC   C18 7318   7.936   3.595   5.063
  147DPPC   C19 7319   7.800   3.607   4.994
  147DPPC   C20 7320   7.821   3.570   4.847
  147DPPC   C21 7321   7.919   3.673   4.788
  147DPPC   C22 7322   7.940   3.640   4.640
  147DPPC   C23 7323   8.022   3.750   4.573
  147DPPC   C24 7324   8.025   3.704   4.427
  147DPPC   C25 7325   8.051   3.827   4.340
  147DPPC   C26 7326   8.063   3.793   4.192
  147DPPC   C27 7327   8.063   3.920   4.107
  147DPPC   C28 7328   7.942   4.008   4.139
  147DPPC   C29 7329   7.950   4.143   4.068
  147DPPC   C30 7330   7.812   4.211   4.076
  147DPPC   C31 7331   7.810   4.332   3.984
  147DPPC   C32 7332   8.088   3.236   5.414
  147DPPC   O33 7333   7.982   3.151   5.458
  147DPPC   C34 7334   8.005   3.018   5.470
  147DPPC   O35 7335   8.109   2.959   5.500
  147DPPC   C36 7336   7.878   2.935   5.498
  147DPPC   C37 7337   7.884   2.795   5.437
  147DPPC   C38 7338   7.885   2.791   5.285
  147DPPC   C39 7339   7.860   2.649   5.234
  147DPPC   C40 7340   7.868   2.656   5.082
  147DPPC   C41 7341   7.765   2.743   5.009
  147DPPC   C42 7342   7.792   2.730   4.858
  147DPPC   C43 7343   7.678   2.809   4.794
  147DPPC   C44 7344   7.688   2.789   4.643
  147DPPC   C45 7345   7.571   2.866   4.582
  147DPPC   C46 7346   7.565   2.866   4.429
  147DPPC   C47 7347   7.434   2.937   4.395
  147DPPC   C48 7348   7.385   2.942   4.250
  147DPPC   C49 7349   7.236   2.970   4.228
  147DPPC   C50 7350   7.195   2.973   4.081
  148DPPC    C1 7351   2.650   6.481   5.344
  148DPPC    C2 7352   2.874   6.505   5.408
  148DPPC    C3 7353   2.806   6.533   5.177
  148DPPC    N4 7354   2.771   6.560   5.318
  148DPPC    C5 7355   2.763   6.703   5.348
  148DPPC    C6 7356   2.845   6.809   5.273
  148DPPC    O7 7357   2.985   6.783   5.265
  148DPPC    P8 7358   3.072   6.917   5.289
  148DPPC    O9 7359   3.213   6.876   5.277
  148DPPC   O10 7360   3.034   6.983   5.416
  148DPPC   O11 7361   3.011   6.993   5.161
  148DPPC   C12 7362   3.070   6.967   5.034
  148DPPC   C13 7363   2.978   7.011   4.920
  148DPPC   O14 7364   3.012   6.943   4.799
  148DPPC   C15 7365   2.990   6.811   4.774
  148DPPC   O16 7366   2.923   6.746   4.855
  148DPPC   C17 7367   3.047   6.747   4.648
  148DPPC   C18 7368   2.952   6.658   4.567
  148DPPC   C19 7369   3.015   6.583   4.449
  148DPPC   C20 7370   3.103   6.692   4.387
  148DPPC   C21 7371   3.199   6.612   4.298
  148DPPC   C22 7372   3.257   6.703   4.190
  148DPPC   C23 7373   3.162   6.786   4.104
  148DPPC   C24 7374   3.241   6.858   3.995
  148DPPC   C25 7375   3.300   6.765   3.889
  148DPPC   C26 7376   3.344   6.844   3.766
  148DPPC   C27 7377   3.456   6.762   3.701
  148DPPC   C28 7378   3.526   6.838   3.588
  148DPPC   C29 7379   3.615   6.744   3.507
  148DPPC   C30 7380   3.668   6.815   3.382
  148DPPC   C31 7381   3.792   6.731   3.347
  148DPPC   C32 7382   2.994   7.163   4.923
  148DPPC   O33 7383   3.126   7.215   4.943
  148DPPC   C34 7384   3.126   7.351   4.957
  148DPPC   O35 7385   3.018   7.409   4.955
  148DPPC   C36 7386   3.254   7.434   4.946
  148DPPC   C37 7387   3.294   7.494   4.811
  148DPPC   C38 7388   3.418   7.582   4.824
  148DPPC   C39 7389   3.491   7.604   4.691
  148DPPC   C40 7390   3.540   7.467   4.643
  148DPPC   C41 7391   3.599   7.484   4.503
  148DPPC   C42 7392   3.707   7.592   4.495
  148DPPC   C43 7393   3.755   7.605   4.351
  148DPPC   C44 7394   3.870   7.514   4.307
  148DPPC   C45 7395   3.916   7.544   4.164
  148DPPC   C46 7396   3.978   7.419   4.101
  148DPPC   C47 7397   4.004   7.456   3.954
  148DPPC   C48 7398   4.085   7.352   3.876
  148DPPC   C49 7399   4.097   7.392   3.729
  148DPPC   C50 7400   4.190   7.295   3.655
  149DPPC    C1 7401   5.213   0.487   5.172
  149DPPC    C2 7402   5.275   0.542   4.947
  149DPPC    C3 7403   5.112   0.660   5.073
  149DPPC    N4 7404   5.245   0.597   5.080
  149DPPC    C5 7405   5.340   0.697   5.129
  149DPPC    C6 7406   5.428   0.676   5.252
  149DPPC    O7 7407   5.522   0.778   5.290
  149DPPC    P8 7408   5.637   0.723   5.388
  149DPPC    O9 7409   5.596   0.591   5.440
  149DPPC   O10 7410   5.707   0.826   5.469
  149DPPC   O11 7411   5.727   0.661   5.270
  149DPPC   C12 7412   5.818   0.760   5.219
  149DPPC   C13 7413   5.843   0.745   5.069
  149DPPC   O14 7414   5.961   0.816   5.027
  149DPPC   C15 7415   6.070   0.765   4.965
  149DPPC   O16 7416   6.098   0.646   4.978
  149DPPC   C17 7417   6.168   0.871   4.915
  149DPPC   C18 7418   6.152   0.879   4.763
  149DPPC   C19 7419   6.263   0.958   4.694
  149DPPC   C20 7420   6.258   0.939   4.542
  149DPPC   C21 7421   6.343   1.033   4.457
  149DPPC   C22 7422   6.354   0.965   4.320
  149DPPC   C23 7423   6.433   1.062   4.233
  149DPPC   C24 7424   6.463   1.010   4.092
  149DPPC   C25 7425   6.567   1.114   4.049
  149DPPC   C26 7426   6.555   1.176   3.910
  149DPPC   C27 7427   6.676   1.269   3.902
  149DPPC   C28 7428   6.672   1.339   3.766
  149DPPC   C29 7429   6.771   1.457   3.764
  149DPPC   C30 7430   6.754   1.545   3.641
  149DPPC   C31 7431   6.625   1.628   3.636
  149DPPC   C32 7432   5.708   0.769   5.001
  149DPPC   O33 7433   5.707   0.758   4.859
  149DPPC   C34 7434   5.587   0.804   4.815
  149DPPC   O35 7435   5.483   0.807   4.880
  149DPPC   C36 7436   5.574   0.812   4.662
  149DPPC   C37 7437   5.587   0.955   4.610
  149DPPC   C38 7438   5.586   0.972   4.458
  149DPPC   C39 7439   5.706   0.934   4.370
  149DPPC   C40 7440   5.704   0.979   4.224
  149DPPC   C41 7441   5.823   0.925   4.145
  149DPPC   C42 7442   5.935   1.022   4.107
  149DPPC   C43 7443   5.859   1.136   4.040
  149DPPC   C44 7444   5.932   1.184   3.915
  149DPPC   C45 7445   5.856   1.304   3.858
  149DPPC   C46 7446   5.901   1.361   3.724
  149DPPC   C47 7447   5.818   1.481   3.677
  149DPPC   C48 7448   5.668   1.458   3.657
  149DPPC   C49 7449   5.594   1.591   3.641
  149DPPC   C50 7450   5.441   1.586   3.635
  150DPPC    C1 7451   4.700   0.892   5.779
  150DPPC    C2 7452   4.833   0.718   5.707
  150DPPC    C3 7453   4.742   0.878   5.548
  150DPPC    N4 7454   4.803   0.860   5.680
  150DPPC    C5 7455   4.912   0.957   5.696
  150DPPC    C6 7456   5.040   0.942   5.613
  150DPPC    O7 7457   5.032   0.973   5.474
  150DPPC    P8 7458   5.165   0.947   5.386
  150DPPC    O9 7459   5.192   0.808   5.430
  150DPPC   O10 7460   5.266   1.052   5.411
  150DPPC   O11 7461   5.099   0.944   5.240
  150DPPC   C12 7462   5.054   1.078   5.221
  150DPPC   C13 7463   4.925   1.111   5.145
  150DPPC   O14 7464   4.799   1.074   5.204
  150DPPC   C15 7465   4.714   1.176   5.231
  150DPPC   O16 7466   4.742   1.292   5.202
  150DPPC   C17 7467   4.572   1.141   5.276
  150DPPC   C18 7468   4.472   1.237   5.213
  150DPPC   C19 7469   4.392   1.153   5.113
  150DPPC   C20 7470   4.284   1.240   5.049
  150DPPC   C21 7471   4.188   1.169   4.954
  150DPPC   C22 7472   4.094   1.273   4.893
  150DPPC   C23 7473   3.962   1.196   4.876
  150DPPC   C24 7474   3.852   1.276   4.806
  150DPPC   C25 7475   3.739   1.185   4.757
  150DPPC   C26 7476   3.641   1.269   4.675
  150DPPC   C27 7477   3.523   1.175   4.646
  150DPPC   C28 7478   3.406   1.271   4.626
  150DPPC   C29 7479   3.285   1.206   4.559
  150DPPC   C30 7480   3.332   1.170   4.418
  150DPPC   C31 7481   3.219   1.088   4.354
  150DPPC   C32 7482   4.941   1.050   5.005
  150DPPC   O33 7483   5.059   1.087   4.933
  150DPPC   C34 7484   5.110   1.008   4.835
  150DPPC   O35 7485   5.072   0.891   4.831
  150DPPC   C36 7486   5.210   1.071   4.738
  150DPPC   C37 7487   5.142   1.106   4.605
  150DPPC   C38 7488   5.228   1.193   4.513
  150DPPC   C39 7489   5.159   1.225   4.380
  150DPPC   C40 7490   5.144   1.104   4.288
  150DPPC   C41 7491   5.063   1.153   4.168
  150DPPC   C42 7492   5.020   1.044   4.070
  150DPPC   C43 7493   4.888   1.076   3.998
  150DPPC   C44 7494   4.775   1.105   4.097
  150DPPC   C45 7495   4.641   1.113   4.024
  150DPPC   C46 7496   4.544   1.193   4.112
  150DPPC   C47 7497   4.403   1.162   4.063
  150DPPC   C48 7498   4.406   1.195   3.914
  150DPPC   C49 7499   4.264   1.199   3.857
  150DPPC   C50 7500   4.264   1.245   3.711
  151DPPC    C1 7501   0.996   0.898   5.057
  151DPPC    C2 7502   1.124   0.739   4.941
  151DPPC    C3 7503   1.016   0.681   5.148
  151DPPC    N4 7504   1.003   0.756   5.022
  151DPPC    C5 7505   0.892   0.725   4.930
  151DPPC    C6 7506   0.805   0.605   4.969
  151DPPC    O7 7507   0.712   0.563   4.869
  151DPPC    P8 7508   0.682   0.406   4.884
  151DPPC    O9 7509   0.546   0.360   4.847
  151DPPC   O10 7510   0.754   0.358   5.004
  151DPPC   O11 7511   0.764   0.383   4.747
  151DPPC   C12 7512   0.670   0.399   4.640
  151DPPC   C13 7513   0.723   0.427   4.499
  151DPPC   O14 7514   0.761   0.313   4.420
  151DPPC   C15 7515   0.877   0.246   4.440
  151DPPC   O16 7516   0.954   0.270   4.534
  151DPPC   C17 7517   0.898   0.131   4.342
  151DPPC   C18 7518   0.935   0.175   4.200
  151DPPC   C19 7519   0.962   0.053   4.110
  151DPPC   C20 7520   1.044   0.090   3.987
  151DPPC   C21 7521   0.967   0.180   3.890
  151DPPC   C22 7522   0.858   0.106   3.813
  151DPPC   C23 7523   0.918   0.009   3.711
  151DPPC   C24 7524   0.812  -0.071   3.635
  151DPPC   C25 7525   0.719   0.021   3.556
  151DPPC   C26 7526   0.621  -0.047   3.460
  151DPPC   C27 7527   0.558   0.054   3.364
  151DPPC   C28 7528   0.481   0.161   3.442
  151DPPC   C29 7529   0.390   0.260   3.369
  151DPPC   C30 7530   0.350   0.381   3.453
  151DPPC   C31 7531   0.278   0.495   3.380
  151DPPC   C32 7532   0.824   0.542   4.510
  151DPPC   O33 7533   0.755   0.656   4.564
  151DPPC   C34 7534   0.825   0.770   4.587
  151DPPC   O35 7535   0.947   0.764   4.576
  151DPPC   C36 7536   0.749   0.902   4.598
  151DPPC   C37 7537   0.678   0.927   4.465
  151DPPC   C38 7538   0.529   0.960   4.464
  151DPPC   C39 7539   0.468   0.940   4.325
  151DPPC   C40 7540   0.317   0.955   4.311
  151DPPC   C41 7541   0.278   0.942   4.163
  151DPPC   C42 7542   0.131   0.983   4.154
  151DPPC   C43 7543   0.080   0.991   4.010
  151DPPC   C44 7544   0.176   1.094   3.950
  151DPPC   C45 7545   0.150   1.245   3.962
  151DPPC   C46 7546   0.232   1.331   3.866
  151DPPC   C47 7547   0.182   1.323   3.722
  151DPPC   C48 7548   0.050   1.399   3.703
  151DPPC   C49 7549   0.012   1.414   3.555
  151DPPC   C50 7550  -0.134   1.456   3.538
  152DPPC    C1 7551   4.871   1.806   5.928
  152DPPC    C2 7552   5.083   1.819   5.806
  152DPPC    C3 7553   5.017   1.615   5.886
  152DPPC    N4 7554   4.962   1.740   5.833
  152DPPC    C5 7555   4.895   1.720   5.703
  152DPPC    C6 7556   4.785   1.619   5.672
  152DPPC    O7 7557   4.654   1.656   5.627
  152DPPC    P8 7558   4.550   1.533   5.617
  152DPPC    O9 7559   4.452   1.530   5.727
  152DPPC   O10 7560   4.621   1.414   5.565
  152DPPC   O11 7561   4.465   1.618   5.510
  152DPPC   C12 7562   4.539   1.629   5.388
  152DPPC   C13 7563   4.462   1.707   5.282
  152DPPC   O14 7564   4.467   1.644   5.153
  152DPPC   C15 7565   4.340   1.637   5.104
  152DPPC   O16 7566   4.246   1.614   5.179
  152DPPC   C17 7567   4.331   1.613   4.953
  152DPPC   C18 7568   4.366   1.741   4.877
  152DPPC   C19 7569   4.514   1.778   4.856
  152DPPC   C20 7570   4.514   1.909   4.778
  152DPPC   C21 7571   4.653   1.973   4.771
  152DPPC   C22 7572   4.694   2.005   4.627
  152DPPC   C23 7573   4.828   2.078   4.634
  152DPPC   C24 7574   4.875   2.106   4.491
  152DPPC   C25 7575   4.797   2.230   4.448
  152DPPC   C26 7576   4.827   2.255   4.300
  152DPPC   C27 7577   4.799   2.131   4.214
  152DPPC   C28 7578   4.919   2.097   4.125
  152DPPC   C29 7579   4.899   1.972   4.039
  152DPPC   C30 7580   4.988   1.960   3.915
  152DPPC   C31 7581   4.907   2.044   3.816
  152DPPC   C32 7582   4.483   1.859   5.287
  152DPPC   O33 7583   4.623   1.885   5.275
  152DPPC   C34 7584   4.665   2.009   5.237
  152DPPC   O35 7585   4.589   2.102   5.214
  152DPPC   C36 7586   4.808   2.014   5.183
  152DPPC   C37 7587   4.833   1.889   5.099
  152DPPC   C38 7588   4.971   1.891   5.031
  152DPPC   C39 7589   4.976   1.769   4.938
  152DPPC   C40 7590   5.101   1.798   4.856
  152DPPC   C41 7591   5.126   1.693   4.747
  152DPPC   C42 7592   5.013   1.710   4.644
  152DPPC   C43 7593   5.037   1.630   4.516
  152DPPC   C44 7594   4.946   1.675   4.402
  152DPPC   C45 7595   4.958   1.580   4.284
  152DPPC   C46 7596   4.887   1.635   4.159
  152DPPC   C47 7597   4.907   1.547   4.036
  152DPPC   C48 7598   4.802   1.580   3.930
  152DPPC   C49 7599   4.818   1.485   3.812
  152DPPC   C50 7600   4.699   1.487   3.717
  153DPPC    C1 7601   2.037   1.283   5.481
  153DPPC    C2 7602   2.198   1.151   5.591
  153DPPC    C3 7603   1.966   1.093   5.578
  153DPPC    N4 7604   2.081   1.144   5.502
  153DPPC    C5 7605   2.085   1.077   5.371
  153DPPC    C6 7606   2.125   0.929   5.375
  153DPPC    O7 7607   2.262   0.908   5.410
  153DPPC    P8 7608   2.269   0.760   5.474
  153DPPC    O9 7609   2.131   0.725   5.515
  153DPPC   O10 7610   2.389   0.752   5.559
  153DPPC   O11 7611   2.301   0.687   5.334
  153DPPC   C12 7612   2.428   0.727   5.282
  153DPPC   C13 7613   2.497   0.627   5.188
  153DPPC   O14 7614   2.617   0.675   5.127
  153DPPC   C15 7615   2.703   0.588   5.067
  153DPPC   O16 7616   2.700   0.469   5.097
  153DPPC   C17 7617   2.796   0.635   4.954
  153DPPC   C18 7618   2.746   0.582   4.820
  153DPPC   C19 7619   2.837   0.616   4.701
  153DPPC   C20 7620   2.775   0.562   4.572
  153DPPC   C21 7621   2.903   0.548   4.488
  153DPPC   C22 7622   2.888   0.462   4.362
  153DPPC   C23 7623   3.008   0.468   4.268
  153DPPC   C24 7624   2.969   0.386   4.145
  153DPPC   C25 7625   3.036   0.425   4.014
  153DPPC   C26 7626   2.994   0.355   3.884
  153DPPC   C27 7627   3.062   0.420   3.764
  153DPPC   C28 7628   3.024   0.358   3.629
  153DPPC   C29 7629   3.040   0.432   3.495
  153DPPC   C30 7630   2.956   0.365   3.386
  153DPPC   C31 7631   3.022   0.232   3.347
  153DPPC   C32 7632   2.387   0.595   5.087
  153DPPC   O33 7633   2.417   0.502   4.982
  153DPPC   C34 7634   2.314   0.448   4.911
  153DPPC   O35 7635   2.200   0.479   4.945
  153DPPC   C36 7636   2.339   0.379   4.777
  153DPPC   C37 7637   2.248   0.405   4.657
  153DPPC   C38 7638   2.306   0.343   4.530
  153DPPC   C39 7639   2.201   0.341   4.419
  153DPPC   C40 7640   2.212   0.457   4.320
  153DPPC   C41 7641   2.099   0.449   4.218
  153DPPC   C42 7642   2.102   0.569   4.124
  153DPPC   C43 7643   1.957   0.573   4.074
  153DPPC   C44 7644   1.854   0.605   4.182
  153DPPC   C45 7645   1.718   0.585   4.116
  153DPPC   C46 7646   1.615   0.662   4.199
  153DPPC   C47 7647   1.650   0.811   4.190
  153DPPC   C48 7648   1.562   0.906   4.271
  153DPPC   C49 7649   1.594   1.044   4.213
  153DPPC   C50 7650   1.499   1.142   4.282
  154DPPC    C1 7651   9.107   7.594   5.379
  154DPPC    C2 7652   9.195   7.807   5.345
  154DPPC    C3 7653   9.053   7.710   5.180
  154DPPC    N4 7654   9.074   7.727   5.325
  154DPPC    C5 7655   8.956   7.775   5.398
  154DPPC    C6 7656   8.900   7.917   5.386
  154DPPC    O7 7657   8.821   7.932   5.267
  154DPPC    P8 7658   8.797   8.087   5.232
  154DPPC    O9 7659   8.774   8.162   5.358
  154DPPC   O10 7660   8.708   8.110   5.115
  154DPPC   O11 7661   8.948   8.111   5.182
  154DPPC   C12 7662   8.953   8.164   5.049
  154DPPC   C13 7663   9.089   8.222   5.007
  154DPPC   O14 7664   9.084   8.301   4.887
  154DPPC   C15 7665   9.190   8.374   4.843
  154DPPC   O16 7666   9.292   8.399   4.908
  154DPPC   C17 7667   9.163   8.435   4.706
  154DPPC   C18 7668   9.251   8.552   4.662
  154DPPC   C19 7669   9.198   8.627   4.540
  154DPPC   C20 7670   9.300   8.725   4.482
  154DPPC   C21 7671   9.306   8.696   4.332
  154DPPC   C22 7672   9.163   8.733   4.290
  154DPPC   C23 7673   9.152   8.726   4.137
  154DPPC   C24 7674   9.011   8.741   4.079
  154DPPC   C25 7675   9.012   8.681   3.939
  154DPPC   C26 7676   8.875   8.713   3.878
  154DPPC   C27 7677   8.838   8.638   3.749
  154DPPC   C28 7678   8.927   8.685   3.634
  154DPPC   C29 7679   8.895   8.610   3.505
  154DPPC   C30 7680   8.912   8.462   3.539
  154DPPC   C31 7681   8.893   8.372   3.417
  154DPPC   C32 7682   9.166   8.092   4.983
  154DPPC   O33 7683   9.105   7.997   4.895
  154DPPC   C34 7684   9.168   7.887   4.847
  154DPPC   O35 7685   9.284   7.854   4.872
  154DPPC   C36 7686   9.087   7.802   4.748
  154DPPC   C37 7687   9.013   7.885   4.643
  154DPPC   C38 7688   8.944   7.798   4.538
  154DPPC   C39 7689   8.856   7.869   4.435
  154DPPC   C40 7690   8.785   7.769   4.344
  154DPPC   C41 7691   8.658   7.823   4.278
  154DPPC   C42 7692   8.605   7.758   4.150
  154DPPC   C43 7693   8.712   7.731   4.044
  154DPPC   C44 7694   8.668   7.658   3.917
  154DPPC   C45 7695   8.799   7.633   3.841
  154DPPC   C46 7696   8.800   7.493   3.780
  154DPPC   C47 7697   8.930   7.477   3.700
  154DPPC   C48 7698   8.933   7.570   3.578
  154DPPC   C49 7699   9.078   7.572   3.528
  154DPPC   C50 7700   9.106   7.656   3.403
  155DPPC    C1 7701   3.699   4.114   6.385
  155DPPC    C2 7702   3.659   3.875   6.378
  155DPPC    C3 7703   3.501   4.027   6.463
  155DPPC    N4 7704   3.600   4.008   6.357
  155DPPC    C5 7705   3.562   4.042   6.219
  155DPPC    C6 7706   3.449   3.966   6.151
  155DPPC    O7 7707   3.420   4.029   6.026
  155DPPC    P8 7708   3.284   3.978   5.957
  155DPPC    O9 7709   3.230   4.095   5.885
  155DPPC   O10 7710   3.215   3.891   6.056
  155DPPC   O11 7711   3.363   3.880   5.857
  155DPPC   C12 7712   3.456   3.942   5.768
  155DPPC   C13 7713   3.504   3.848   5.657
  155DPPC   O14 7714   3.589   3.923   5.569
  155DPPC   C15 7715   3.704   3.869   5.519
  155DPPC   O16 7716   3.779   3.812   5.597
  155DPPC   C17 7717   3.750   3.927   5.385
  155DPPC   C18 7718   3.663   3.894   5.264
  155DPPC   C19 7719   3.730   3.954   5.140
  155DPPC   C20 7720   3.661   3.916   5.009
  155DPPC   C21 7721   3.724   4.008   4.904
  155DPPC   C22 7722   3.618   4.017   4.794
  155DPPC   C23 7723   3.685   4.097   4.683
  155DPPC   C24 7724   3.610   4.098   4.550
  155DPPC   C25 7725   3.713   4.147   4.448
  155DPPC   C26 7726   3.680   4.134   4.299
  155DPPC   C27 7727   3.809   4.128   4.217
  155DPPC   C28 7728   3.783   4.104   4.068
  155DPPC   C29 7729   3.741   4.212   3.968
  155DPPC   C30 7730   3.729   4.150   3.828
  155DPPC   C31 7731   3.712   4.271   3.736
  155DPPC   C32 7732   3.383   3.788   5.586
  155DPPC   O33 7733   3.407   3.684   5.491
  155DPPC   C34 7734   3.298   3.630   5.429
  155DPPC   O35 7735   3.186   3.652   5.474
  155DPPC   C36 7736   3.329   3.527   5.320
  155DPPC   C37 7737   3.379   3.583   5.187
  155DPPC   C38 7738   3.386   3.468   5.086
  155DPPC   C39 7739   3.400   3.523   4.944
  155DPPC   C40 7740   3.409   3.408   4.843
  155DPPC   C41 7741   3.382   3.459   4.701
  155DPPC   C42 7742   3.404   3.333   4.616
  155DPPC   C43 7743   3.434   3.382   4.474
  155DPPC   C44 7744   3.454   3.277   4.365
  155DPPC   C45 7745   3.505   3.327   4.230
  155DPPC   C46 7746   3.530   3.211   4.134
  155DPPC   C47 7747   3.581   3.251   3.995
  155DPPC   C48 7748   3.626   3.123   3.925
  155DPPC   C49 7749   3.655   3.159   3.779
  155DPPC   C50 7750   3.538   3.189   3.686
  156DPPC    C1 7751   7.390   2.631   6.000
  156DPPC    C2 7752   7.169   2.622   6.097
  156DPPC    C3 7753   7.234   2.799   5.954
  156DPPC    N4 7754   7.247   2.655   5.977
  156DPPC    C5 7755   7.214   2.581   5.853
  156DPPC    C6 7756   7.233   2.430   5.850
  156DPPC    O7 7757   7.154   2.380   5.741
  156DPPC    P8 7758   7.207   2.232   5.708
  156DPPC    O9 7759   7.120   2.169   5.605
  156DPPC   O10 7760   7.253   2.169   5.834
  156DPPC   O11 7761   7.334   2.273   5.619
  156DPPC   C12 7762   7.293   2.368   5.520
  156DPPC   C13 7763   7.402   2.408   5.420
  156DPPC   O14 7764   7.357   2.494   5.314
  156DPPC   C15 7765   7.351   2.626   5.344
  156DPPC   O16 7766   7.369   2.650   5.464
  156DPPC   C17 7767   7.313   2.726   5.235
  156DPPC   C18 7768   7.410   2.740   5.117
  156DPPC   C19 7769   7.326   2.823   5.018
  156DPPC   C20 7770   7.200   2.746   4.978
  156DPPC   C21 7771   7.096   2.822   4.896
  156DPPC   C22 7772   7.001   2.718   4.836
  156DPPC   C23 7773   6.899   2.790   4.748
  156DPPC   C24 7774   6.983   2.865   4.645
  156DPPC   C25 7775   6.915   2.945   4.534
  156DPPC   C26 7776   6.818   3.050   4.587
  156DPPC   C27 7777   6.831   3.192   4.531
  156DPPC   C28 7778   6.718   3.216   4.430
  156DPPC   C29 7779   6.748   3.341   4.347
  156DPPC   C30 7780   6.637   3.363   4.244
  156DPPC   C31 7781   6.660   3.488   4.157
  156DPPC   C32 7782   7.492   2.287   5.393
  156DPPC   O33 7783   7.431   2.166   5.349
  156DPPC   C34 7784   7.517   2.063   5.329
  156DPPC   O35 7785   7.629   2.063   5.381
  156DPPC   C36 7786   7.471   1.943   5.246
  156DPPC   C37 7787   7.590   1.890   5.166
  156DPPC   C38 7788   7.552   1.768   5.081
  156DPPC   C39 7789   7.463   1.808   4.963
  156DPPC   C40 7790   7.412   1.690   4.880
  156DPPC   C41 7791   7.317   1.735   4.770
  156DPPC   C42 7792   7.182   1.779   4.828
  156DPPC   C43 7793   7.091   1.848   4.727
  156DPPC   C44 7794   6.941   1.863   4.755
  156DPPC   C45 7795   6.886   1.949   4.641
  156DPPC   C46 7796   6.734   1.934   4.643
  156DPPC   C47 7797   6.672   1.981   4.511
  156DPPC   C48 7798   6.697   1.869   4.410
  156DPPC   C49 7799   6.650   1.908   4.269
  156DPPC   C50 7800   6.687   2.049   4.224
  157DPPC    C1 7801   0.283   0.959   5.251
  157DPPC    C2 7802   0.198   1.133   5.367
  157DPPC    C3 7803   0.438   1.102   5.361
  157DPPC    N4 7804   0.313   1.099   5.283
  157DPPC    C5 7805   0.330   1.170   5.155
  157DPPC    C6 7806   0.366   1.318   5.162
  157DPPC    O7 7807   0.275   1.411   5.222
  157DPPC    P8 7808   0.362   1.521   5.301
  157DPPC    O9 7809   0.441   1.438   5.394
  157DPPC   O10 7810   0.258   1.623   5.333
  157DPPC   O11 7811   0.458   1.583   5.188
  157DPPC   C12 7812   0.390   1.692   5.127
  157DPPC   C13 7813   0.466   1.750   5.008
  157DPPC   O14 7814   0.411   1.867   4.945
  157DPPC   C15 7815   0.407   1.984   5.015
  157DPPC   O16 7816   0.439   1.995   5.133
  157DPPC   C17 7817   0.359   2.104   4.933
  157DPPC   C18 7818   0.381   2.095   4.782
  157DPPC   C19 7819   0.523   2.135   4.738
  157DPPC   C20 7820   0.528   2.121   4.586
  157DPPC   C21 7821   0.535   1.973   4.548
  157DPPC   C22 7822   0.560   1.961   4.397
  157DPPC   C23 7823   0.561   1.817   4.344
  157DPPC   C24 7824   0.561   1.828   4.191
  157DPPC   C25 7825   0.455   1.927   4.141
  157DPPC   C26 7826   0.443   1.918   3.989
  157DPPC   C27 7827   0.444   1.773   3.941
  157DPPC   C28 7828   0.443   1.779   3.788
  157DPPC   C29 7829   0.425   1.634   3.741
  157DPPC   C30 7830   0.410   1.619   3.589
  157DPPC   C31 7831   0.415   1.475   3.540
  157DPPC   C32 7832   0.474   1.632   4.911
  157DPPC   O33 7833   0.342   1.587   4.878
  157DPPC   C34 7834   0.329   1.481   4.793
  157DPPC   O35 7835   0.419   1.399   4.778
  157DPPC   C36 7836   0.188   1.459   4.738
  157DPPC   C37 7837   0.106   1.585   4.711
  157DPPC   C38 7838   0.177   1.687   4.621
  157DPPC   C39 7839   0.086   1.811   4.617
  157DPPC   C40 7840   0.139   1.924   4.529
  157DPPC   C41 7841   0.027   2.013   4.474
  157DPPC   C42 7842  -0.072   1.933   4.390
  157DPPC   C43 7843  -0.178   2.015   4.316
  157DPPC   C44 7844  -0.277   1.936   4.230
  157DPPC   C45 7845  -0.359   2.036   4.149
  157DPPC   C46 7846  -0.449   1.962   4.050
  157DPPC   C47 7847  -0.534   2.069   3.981
  157DPPC   C48 7848  -0.459   2.164   3.886
  157DPPC   C49 7849  -0.555   2.267   3.826
  157DPPC   C50 7850  -0.649   2.190   3.733
  158DPPC    C1 7851   2.882   0.780   5.370
  158DPPC    C2 7852   2.971   0.555   5.423
  158DPPC    C3 7853   3.046   0.661   5.244
  158DPPC    N4 7854   2.999   0.692   5.380
  158DPPC    C5 7855   3.095   0.750   5.476
  158DPPC    C6 7856   3.194   0.862   5.442
  158DPPC    O7 7857   3.146   0.995   5.459
  158DPPC    P8 7858   3.266   1.079   5.527
  158DPPC    O9 7859   3.328   0.990   5.628
  158DPPC   O10 7860   3.237   1.222   5.552
  158DPPC   O11 7861   3.371   1.072   5.405
  158DPPC   C12 7862   3.328   1.163   5.304
  158DPPC   C13 7863   3.439   1.200   5.205
  158DPPC   O14 7864   3.425   1.329   5.145
  158DPPC   C15 7865   3.539   1.397   5.119
  158DPPC   O16 7866   3.653   1.353   5.135
  158DPPC   C17 7867   3.525   1.482   4.993
  158DPPC   C18 7868   3.465   1.620   5.024
  158DPPC   C19 7869   3.457   1.714   4.903
  158DPPC   C20 7870   3.386   1.650   4.784
  158DPPC   C21 7871   3.392   1.739   4.660
  158DPPC   C22 7872   3.290   1.677   4.563
  158DPPC   C23 7873   3.314   1.713   4.417
  158DPPC   C24 7874   3.215   1.645   4.322
  158DPPC   C25 7875   3.243   1.684   4.177
  158DPPC   C26 7876   3.151   1.607   4.082
  158DPPC   C27 7877   3.201   1.635   3.940
  158DPPC   C28 7878   3.116   1.569   3.832
  158DPPC   C29 7879   3.160   1.603   3.689
  158DPPC   C30 7880   3.305   1.568   3.655
  158DPPC   C31 7881   3.348   1.648   3.532
  158DPPC   C32 7882   3.462   1.082   5.110
  158DPPC   O33 7883   3.346   1.029   5.044
  158DPPC   C34 7884   3.380   0.931   4.955
  158DPPC   O35 7885   3.492   0.884   4.941
  158DPPC   C36 7886   3.256   0.903   4.869
  158DPPC   C37 7887   3.196   0.767   4.904
  158DPPC   C38 7888   3.263   0.645   4.841
  158DPPC   C39 7889   3.175   0.521   4.828
  158DPPC   C40 7890   3.246   0.436   4.722
  158DPPC   C41 7891   3.269   0.515   4.593
  158DPPC   C42 7892   3.343   0.419   4.500
  158DPPC   C43 7893   3.381   0.488   4.369
  158DPPC   C44 7894   3.486   0.595   4.400
  158DPPC   C45 7895   3.570   0.638   4.280
  158DPPC   C46 7896   3.652   0.758   4.329
  158DPPC   C47 7897   3.744   0.813   4.220
  158DPPC   C48 7898   3.828   0.932   4.266
  158DPPC   C49 7899   3.928   0.977   4.159
  158DPPC   C50 7900   4.023   0.861   4.129
  159DPPC    C1 7901   3.531   8.224   4.774
  159DPPC    C2 7902   3.449   7.998   4.760
  159DPPC    C3 7903   3.610   8.053   4.919
  159DPPC    N4 7904   3.490   8.106   4.852
  159DPPC    C5 7905   3.372   8.130   4.936
  159DPPC    C6 7906   3.340   8.260   5.010
  159DPPC    O7 7907   3.277   8.361   4.930
  159DPPC    P8 7908   3.283   8.502   5.007
  159DPPC    O9 7909   3.282   8.465   5.150
  159DPPC   O10 7910   3.178   8.584   4.943
  159DPPC   O11 7911   3.429   8.540   4.949
  159DPPC   C12 7912   3.436   8.653   4.861
  159DPPC   C13 7913   3.577   8.685   4.809
  159DPPC   O14 7914   3.604   8.822   4.778
  159DPPC   C15 7915   3.617   8.923   4.869
  159DPPC   O16 7916   3.597   8.898   4.988
  159DPPC   C17 7917   3.637   9.064   4.815
  159DPPC   C18 7918   3.760   9.083   4.726
  159DPPC   C19 7919   3.781   9.227   4.681
  159DPPC   C20 7920   3.927   9.257   4.648
  159DPPC   C21 7921   3.946   9.402   4.604
  159DPPC   C22 7922   4.097   9.430   4.608
  159DPPC   C23 7923   4.176   9.413   4.477
  159DPPC   C24 7924   4.324   9.438   4.503
  159DPPC   C25 7925   4.403   9.439   4.372
  159DPPC   C26 7926   4.400   9.299   4.310
  159DPPC   C27 7927   4.450   9.306   4.166
  159DPPC   C28 7928   4.416   9.169   4.107
  159DPPC   C29 7929   4.498   9.130   3.984
  159DPPC   C30 7930   4.485   9.231   3.869
  159DPPC   C31 7931   4.351   9.245   3.797
  159DPPC   C32 7932   3.603   8.588   4.693
  159DPPC   O33 7933   3.513   8.600   4.583
  159DPPC   C34 7934   3.548   8.520   4.479
  159DPPC   O35 7935   3.644   8.443   4.480
  159DPPC   C36 7936   3.455   8.541   4.359
  159DPPC   C37 7937   3.536   8.592   4.240
  159DPPC   C38 7938   3.438   8.673   4.155
  159DPPC   C39 7939   3.511   8.728   4.032
  159DPPC   C40 7940   3.420   8.735   3.909
  159DPPC   C41 7941   3.502   8.798   3.796
  159DPPC   C42 7942   3.604   8.704   3.733
  159DPPC   C43 7943   3.664   8.784   3.617
  159DPPC   C44 7944   3.766   8.699   3.542
  159DPPC   C45 7945   3.813   8.763   3.411
  159DPPC   C46 7946   3.697   8.813   3.326
  159DPPC   C47 7947   3.762   8.924   3.243
  159DPPC   C48 7948   3.895   8.869   3.190
  159DPPC   C49 7949   3.963   8.990   3.127
  159DPPC   C50 7950   3.883   9.050   3.011
  160DPPC    C1 7951   1.026   3.457   5.653
  160DPPC    C2 7952   0.931   3.359   5.460
  160DPPC    C3 7953   1.029   3.562   5.434
  160DPPC    N4 7954   1.046   3.436   5.509
  160DPPC    C5 7955   1.170   3.361   5.482
  160DPPC    C6 7956   1.305   3.418   5.526
  160DPPC    O7 7957   1.420   3.349   5.478
  160DPPC    P8 7958   1.559   3.426   5.505
  160DPPC    O9 7959   1.662   3.326   5.544
  160DPPC   O10 7960   1.516   3.540   5.589
  160DPPC   O11 7961   1.572   3.471   5.351
  160DPPC   C12 7962   1.614   3.356   5.277
  160DPPC   C13 7963   1.635   3.372   5.126
  160DPPC   O14 7964   1.767   3.335   5.085
  160DPPC   C15 7965   1.782   3.215   5.022
  160DPPC   O16 7966   1.719   3.122   5.072
  160DPPC   C17 7967   1.912   3.203   4.942
  160DPPC   C18 7968   1.884   3.139   4.806
  160DPPC   C19 7969   2.018   3.141   4.733
  160DPPC   C20 7970   2.024   3.048   4.612
  160DPPC   C21 7971   2.033   2.900   4.649
  160DPPC   C22 7972   2.024   2.815   4.521
  160DPPC   C23 7973   1.895   2.844   4.443
  160DPPC   C24 7974   1.857   2.722   4.359
  160DPPC   C25 7975   1.726   2.742   4.284
  160DPPC   C26 7976   1.690   2.640   4.175
  160DPPC   C27 7977   1.785   2.637   4.055
  160DPPC   C28 7978   1.725   2.548   3.946
  160DPPC   C29 7979   1.826   2.562   3.832
  160DPPC   C30 7980   1.766   2.481   3.717
  160DPPC   C31 7981   1.846   2.458   3.588
  160DPPC   C32 7982   1.590   3.517   5.102
  160DPPC   O33 7983   1.570   3.559   4.967
  160DPPC   C34 7984   1.587   3.694   4.966
  160DPPC   O35 7985   1.622   3.753   5.068
  160DPPC   C36 7986   1.554   3.765   4.834
  160DPPC   C37 7987   1.543   3.658   4.726
  160DPPC   C38 7988   1.521   3.714   4.585
  160DPPC   C39 7989   1.467   3.601   4.497
  160DPPC   C40 7990   1.457   3.633   4.348
  160DPPC   C41 7991   1.372   3.528   4.276
  160DPPC   C42 7992   1.328   3.575   4.137
  160DPPC   C43 7993   1.242   3.472   4.065
  160DPPC   C44 7994   1.164   3.532   3.947
  160DPPC   C45 7995   1.214   3.487   3.809
  160DPPC   C46 7996   1.136   3.536   3.687
  160DPPC   C47 7997   1.196   3.467   3.565
  160DPPC   C48 7998   1.130   3.524   3.440
  160DPPC   C49 7999   1.180   3.466   3.307
  160DPPC   C50 8000   1.332   3.480   3.294
  161DPPC    C1 8001   4.675   5.647   5.655
  161DPPC    C2 8002   4.452   5.588   5.682
  161DPPC    C3 8003   4.546   5.783   5.804
  161DPPC    N4 8004   4.542   5.704   5.680
  161DPPC    C5 8005   4.528   5.783   5.557
  161DPPC    C6 8006   4.422   5.894   5.559
  161DPPC    O7 8007   4.429   5.963   5.434
  161DPPC    P8 8008   4.287   6.033   5.404
  161DPPC    O9 8009   4.293   6.180   5.407
  161DPPC   O10 8010   4.182   5.949   5.466
  161DPPC   O11 8011   4.304   6.005   5.247
  161DPPC   C12 8012   4.397   6.092   5.181
  161DPPC   C13 8013   4.431   6.041   5.041
  161DPPC   O14 8014   4.344   6.071   4.931
  161DPPC   C15 8015   4.313   6.199   4.899
  161DPPC   O16 8016   4.335   6.297   4.971
  161DPPC   C17 8017   4.227   6.229   4.776
  161DPPC   C18 8018   4.204   6.379   4.752
  161DPPC   C19 8019   4.132   6.396   4.618
  161DPPC   C20 8020   4.003   6.315   4.625
  161DPPC   C21 8021   3.948   6.316   4.482
  161DPPC   C22 8022   4.059   6.262   4.392
  161DPPC   C23 8023   4.012   6.198   4.262
  161DPPC   C24 8024   4.116   6.108   4.195
  161DPPC   C25 8025   4.069   6.072   4.054
  161DPPC   C26 8026   4.175   5.991   3.978
  161DPPC   C27 8027   4.106   5.936   3.853
  161DPPC   C28 8028   4.096   6.027   3.730
  161DPPC   C29 8029   4.066   5.946   3.604
  161DPPC   C30 8030   3.939   5.866   3.633
  161DPPC   C31 8031   3.815   5.952   3.606
  161DPPC   C32 8032   4.465   5.894   5.068
  161DPPC   O33 8033   4.557   5.824   4.984
  161DPPC   C34 8034   4.564   5.690   5.007
  161DPPC   O35 8035   4.499   5.638   5.098
  161DPPC   C36 8036   4.637   5.604   4.903
  161DPPC   C37 8037   4.594   5.646   4.762
  161DPPC   C38 8038   4.702   5.600   4.664
  161DPPC   C39 8039   4.673   5.669   4.531
  161DPPC   C40 8040   4.758   5.616   4.416
  161DPPC   C41 8041   4.750   5.694   4.284
  161DPPC   C42 8042   4.860   5.636   4.194
  161DPPC   C43 8043   4.858   5.697   4.054
  161DPPC   C44 8044   4.973   5.643   3.968
  161DPPC   C45 8045   5.101   5.720   3.998
  161DPPC   C46 8046   5.205   5.676   3.896
  161DPPC   C47 8047   5.340   5.747   3.914
  161DPPC   C48 8048   5.441   5.681   3.821
  161DPPC   C49 8049   5.583   5.731   3.851
  161DPPC   C50 8050   5.579   5.883   3.848
  162DPPC    C1 8051   6.206   6.092   5.078
  162DPPC    C2 8052   6.439   6.054   5.107
  162DPPC    C3 8053   6.318   6.150   5.288
  162DPPC    N4 8054   6.310   6.056   5.176
  162DPPC    C5 8055   6.299   5.922   5.236
  162DPPC    C6 8056   6.248   5.808   5.148
  162DPPC    O7 8057   6.324   5.777   5.031
  162DPPC    P8 8058   6.252   5.659   4.947
  162DPPC    O9 8059   6.138   5.747   4.912
  162DPPC   O10 8060   6.250   5.545   5.041
  162DPPC   O11 8061   6.371   5.654   4.838
  162DPPC   C12 8062   6.344   5.766   4.753
  162DPPC   C13 8063   6.456   5.810   4.659
  162DPPC   O14 8064   6.433   5.763   4.526
  162DPPC   C15 8065   6.343   5.836   4.454
  162DPPC   O16 8066   6.262   5.910   4.508
  162DPPC   C17 8067   6.356   5.838   4.302
  162DPPC   C18 8068   6.474   5.751   4.257
  162DPPC   C19 8069   6.503   5.772   4.108
  162DPPC   C20 8070   6.384   5.747   4.015
  162DPPC   C21 8071   6.423   5.757   3.868
  162DPPC   C22 8072   6.450   5.903   3.830
  162DPPC   C23 8073   6.495   5.904   3.684
  162DPPC   C24 8074   6.500   6.045   3.625
  162DPPC   C25 8075   6.583   6.055   3.497
  162DPPC   C26 8076   6.718   5.985   3.519
  162DPPC   C27 8077   6.787   6.009   3.384
  162DPPC   C28 8078   6.714   5.934   3.273
  162DPPC   C29 8079   6.686   5.784   3.290
  162DPPC   C30 8080   6.547   5.756   3.233
  162DPPC   C31 8081   6.542   5.761   3.080
  162DPPC   C32 8082   6.583   5.756   4.725
  162DPPC   O33 8083   6.703   5.810   4.669
  162DPPC   C34 8084   6.819   5.740   4.689
  162DPPC   O35 8085   6.813   5.646   4.768
  162DPPC   C36 8086   6.942   5.794   4.617
  162DPPC   C37 8087   6.982   5.710   4.495
  162DPPC   C38 8088   6.896   5.740   4.372
  162DPPC   C39 8089   6.961   5.678   4.248
  162DPPC   C40 8090   6.880   5.693   4.119
  162DPPC   C41 8091   6.960   5.642   3.999
  162DPPC   C42 8092   6.871   5.647   3.874
  162DPPC   C43 8093   6.941   5.594   3.749
  162DPPC   C44 8094   6.875   5.610   3.612
  162DPPC   C45 8095   6.964   5.563   3.496
  162DPPC   C46 8096   7.075   5.662   3.458
  162DPPC   C47 8097   7.159   5.604   3.345
  162DPPC   C48 8098   7.275   5.699   3.316
  162DPPC   C49 8099   7.227   5.790   3.202
  162DPPC   C50 8100   7.342   5.889   3.182
  163DPPC    C1 8101   6.183   5.054   1.235
  163DPPC    C2 8102   6.166   5.124   1.463
  163DPPC    C3 8103   6.012   4.966   1.362
  163DPPC    N4 8104   6.152   5.009   1.372
  163DPPC    C5 8105   6.247   4.906   1.414
  163DPPC    C6 8106   6.229   4.821   1.540
  163DPPC    O7 8107   6.343   4.741   1.573
  163DPPC    P8 8108   6.294   4.624   1.673
  163DPPC    O9 8109   6.407   4.540   1.719
  163DPPC   O10 8110   6.176   4.554   1.618
  163DPPC   O11 8111   6.230   4.714   1.790
  163DPPC   C12 8112   6.330   4.740   1.889
  163DPPC   C13 8113   6.282   4.857   1.974
  163DPPC   O14 8114   6.388   4.912   2.054
  163DPPC   C15 8115   6.487   4.983   1.994
  163DPPC   O16 8116   6.498   4.981   1.872
  163DPPC   C17 8117   6.605   5.032   2.079
  163DPPC   C18 8118   6.566   5.164   2.145
  163DPPC   C19 8119   6.685   5.213   2.228
  163DPPC   C20 8120   6.655   5.343   2.304
  163DPPC   C21 8121   6.760   5.348   2.415
  163DPPC   C22 8122   6.756   5.487   2.479
  163DPPC   C23 8123   6.619   5.537   2.524
  163DPPC   C24 8124   6.646   5.668   2.597
  163DPPC   C25 8125   6.694   5.778   2.502
  163DPPC   C26 8126   6.711   5.907   2.584
  163DPPC   C27 8127   6.802   5.878   2.703
  163DPPC   C28 8128   6.805   5.997   2.799
  163DPPC   C29 8129   6.914   5.989   2.906
  163DPPC   C30 8130   6.954   6.126   2.962
  163DPPC   C31 8131   7.059   6.126   3.073
  163DPPC   C32 8132   6.163   4.802   2.052
  163DPPC   O33 8133   6.088   4.915   2.098
  163DPPC   C34 8134   5.978   4.873   2.166
  163DPPC   O35 8135   5.956   4.752   2.165
  163DPPC   C36 8136   5.896   4.971   2.250
  163DPPC   C37 8137   5.919   4.971   2.401
  163DPPC   C38 8138   5.827   5.075   2.464
  163DPPC   C39 8139   5.853   5.084   2.615
  163DPPC   C40 8140   5.745   5.171   2.679
  163DPPC   C41 8141   5.744   5.149   2.830
  163DPPC   C42 8142   5.644   5.248   2.890
  163DPPC   C43 8143   5.642   5.255   3.042
  163DPPC   C44 8144   5.597   5.390   3.101
  163DPPC   C45 8145   5.632   5.396   3.249
  163DPPC   C46 8146   5.606   5.541   3.290
  163DPPC   C47 8147   5.631   5.569   3.438
  163DPPC   C48 8148   5.637   5.720   3.460
  163DPPC   C49 8149   5.734   5.773   3.354
  163DPPC   C50 8150   5.750   5.923   3.329
  164DPPC    C1 8151   2.594   2.173   2.221
  164DPPC    C2 8152   2.787   2.169   2.363
  164DPPC    C3 8153   2.699   1.966   2.290
  164DPPC    N4 8154   2.722   2.105   2.248
  164DPPC    C5 8155   2.806   2.099   2.128
  164DPPC    C6 8156   2.846   2.213   2.034
  164DPPC    O7 8157   2.936   2.299   2.103
  164DPPC    P8 8158   2.967   2.417   1.997
  164DPPC    O9 8159   2.831   2.451   1.950
  164DPPC   O10 8160   3.071   2.348   1.918
  164DPPC   O11 8161   3.037   2.520   2.099
  164DPPC   C12 8162   2.950   2.540   2.211
  164DPPC   C13 8163   3.033   2.607   2.321
  164DPPC   O14 8164   2.968   2.632   2.446
  164DPPC   C15 8165   2.973   2.526   2.531
  164DPPC   O16 8166   3.011   2.412   2.503
  164DPPC   C17 8167   2.899   2.533   2.665
  164DPPC   C18 8168   2.956   2.443   2.775
  164DPPC   C19 8169   2.881   2.451   2.908
  164DPPC   C20 8170   2.759   2.359   2.906
  164DPPC   C21 8171   2.661   2.397   3.017
  164DPPC   C22 8172   2.615   2.543   3.015
  164DPPC   C23 8173   2.474   2.538   3.072
  164DPPC   C24 8174   2.508   2.529   3.220
  164DPPC   C25 8175   2.382   2.542   3.307
  164DPPC   C26 8176   2.402   2.533   3.459
  164DPPC   C27 8177   2.272   2.537   3.539
  164DPPC   C28 8178   2.281   2.516   3.690
  164DPPC   C29 8179   2.371   2.620   3.756
  164DPPC   C30 8180   2.303   2.756   3.744
  164DPPC   C31 8181   2.389   2.871   3.797
  164DPPC   C32 8182   3.097   2.727   2.251
  164DPPC   O33 8183   3.005   2.832   2.219
  164DPPC   C34 8184   3.054   2.935   2.145
  164DPPC   O35 8185   3.172   2.936   2.110
  164DPPC   C36 8186   2.971   3.063   2.138
  164DPPC   C37 8187   2.974   3.127   2.277
  164DPPC   C38 8188   2.839   3.197   2.291
  164DPPC   C39 8189   2.823   3.286   2.415
  164DPPC   C40 8190   2.803   3.181   2.525
  164DPPC   C41 8191   2.778   3.255   2.656
  164DPPC   C42 8192   2.800   3.158   2.772
  164DPPC   C43 8193   2.775   3.222   2.908
  164DPPC   C44 8194   2.797   3.115   3.016
  164DPPC   C45 8195   2.793   3.175   3.157
  164DPPC   C46 8196   2.839   3.065   3.252
  164DPPC   C47 8197   2.870   3.130   3.387
  164DPPC   C48 8198   2.901   3.030   3.498
  164DPPC   C49 8199   2.793   2.939   3.556
  164DPPC   C50 8200   2.846   2.903   3.695
  165DPPC    C1 8201   0.161   3.305   1.231
  165DPPC    C2 8202   0.342   3.427   1.356
  165DPPC    C3 8203   0.128   3.514   1.333
  165DPPC    N4 8204   0.201   3.387   1.346
  165DPPC    C5 8205   0.152   3.312   1.463
  165DPPC    C6 8206   0.215   3.175   1.489
  165DPPC    O7 8207   0.136   3.065   1.442
  165DPPC    P8 8208   0.220   2.930   1.418
  165DPPC    O9 8209   0.324   2.986   1.328
  165DPPC   O10 8210   0.117   2.828   1.386
  165DPPC   O11 8211   0.272   2.915   1.569
  165DPPC   C12 8212   0.160   2.872   1.648
  165DPPC   C13 8213   0.163   2.924   1.792
  165DPPC   O14 8214   0.159   3.066   1.813
  165DPPC   C15 8215   0.038   3.121   1.843
  165DPPC   O16 8216  -0.069   3.066   1.818
  165DPPC   C17 8217   0.045   3.271   1.871
  165DPPC   C18 8218   0.116   3.308   2.001
  165DPPC   C19 8219   0.034   3.277   2.127
  165DPPC   C20 8220   0.092   3.325   2.260
  165DPPC   C21 8221  -0.009   3.316   2.374
  165DPPC   C22 8222   0.045   3.321   2.517
  165DPPC   C23 8223  -0.071   3.303   2.615
  165DPPC   C24 8224   0.006   3.304   2.747
  165DPPC   C25 8225  -0.083   3.242   2.854
  165DPPC   C26 8226  -0.033   3.310   2.982
  165DPPC   C27 8227  -0.095   3.230   3.097
  165DPPC   C28 8228  -0.248   3.221   3.087
  165DPPC   C29 8229  -0.311   3.165   3.215
  165DPPC   C30 8230  -0.375   3.273   3.302
  165DPPC   C31 8231  -0.433   3.202   3.425
  165DPPC   C32 8232   0.292   2.865   1.851
  165DPPC   O33 8233   0.288   2.812   1.984
  165DPPC   C34 8234   0.244   2.685   2.000
  165DPPC   O35 8235   0.262   2.605   1.908
  165DPPC   C36 8236   0.253   2.640   2.146
  165DPPC   C37 8237   0.200   2.499   2.171
  165DPPC   C38 8238   0.241   2.476   2.317
  165DPPC   C39 8239   0.113   2.437   2.392
  165DPPC   C40 8240   0.131   2.450   2.543
  165DPPC   C41 8241   0.008   2.409   2.624
  165DPPC   C42 8242   0.025   2.440   2.773
  165DPPC   C43 8243  -0.093   2.410   2.865
  165DPPC   C44 8244  -0.081   2.504   2.985
  165DPPC   C45 8245  -0.194   2.466   3.081
  165DPPC   C46 8246  -0.185   2.555   3.205
  165DPPC   C47 8247  -0.291   2.503   3.301
  165DPPC   C48 8248  -0.269   2.361   3.354
  165DPPC   C49 8249  -0.375   2.300   3.446
  165DPPC   C50 8250  -0.320   2.172   3.509
  166DPPC    C1 8251   2.324   3.359   1.235
  166DPPC    C2 8252   2.547   3.385   1.334
  166DPPC    C3 8253   2.369   3.287   1.457
  166DPPC    N4 8254   2.426   3.301   1.322
  166DPPC    C5 8255   2.482   3.173   1.274
  166DPPC    C6 8256   2.422   3.037   1.308
  166DPPC    O7 8257   2.294   3.031   1.244
  166DPPC    P8 8258   2.214   2.897   1.282
  166DPPC    O9 8259   2.306   2.782   1.264
  166DPPC   O10 8260   2.082   2.899   1.216
  166DPPC   O11 8261   2.184   2.940   1.435
  166DPPC   C12 8262   2.090   2.843   1.482
  166DPPC   C13 8263   2.030   2.875   1.619
  166DPPC   O14 8264   1.913   2.799   1.653
  166DPPC   C15 8265   1.922   2.669   1.690
  166DPPC   O16 8266   2.028   2.607   1.702
  166DPPC   C17 8267   1.794   2.618   1.757
  166DPPC   C18 8268   1.824   2.581   1.902
  166DPPC   C19 8269   1.707   2.507   1.966
  166DPPC   C20 8270   1.721   2.526   2.117
  166DPPC   C21 8271   1.650   2.423   2.205
  166DPPC   C22 8272   1.679   2.448   2.353
  166DPPC   C23 8273   1.653   2.591   2.403
  166DPPC   C24 8274   1.651   2.592   2.556
  166DPPC   C25 8275   1.697   2.731   2.600
  166DPPC   C26 8276   1.717   2.736   2.752
  166DPPC   C27 8277   1.586   2.691   2.817
  166DPPC   C28 8278   1.608   2.683   2.968
  166DPPC   C29 8279   1.492   2.598   3.018
  166DPPC   C30 8280   1.475   2.600   3.170
  166DPPC   C31 8281   1.363   2.499   3.198
  166DPPC   C32 8282   2.018   3.028   1.615
  166DPPC   O33 8283   1.984   3.097   1.735
  166DPPC   C34 8284   1.992   3.233   1.726
  166DPPC   O35 8285   2.062   3.292   1.644
  166DPPC   C36 8286   1.915   3.317   1.828
  166DPPC   C37 8287   2.008   3.351   1.945
  166DPPC   C38 8288   1.948   3.441   2.052
  166DPPC   C39 8289   2.056   3.447   2.161
  166DPPC   C40 8290   1.995   3.545   2.262
  166DPPC   C41 8291   2.079   3.543   2.390
  166DPPC   C42 8292   1.978   3.527   2.504
  166DPPC   C43 8293   2.035   3.532   2.646
  166DPPC   C44 8294   1.927   3.485   2.744
  166DPPC   C45 8295   1.895   3.595   2.846
  166DPPC   C46 8296   1.869   3.732   2.784
  166DPPC   C47 8297   1.849   3.833   2.897
  166DPPC   C48 8298   1.970   3.855   2.989
  166DPPC   C49 8299   1.937   3.955   3.101
  166DPPC   C50 8300   2.055   3.966   3.197
  167DPPC    C1 8301   2.293   2.255   1.370
  167DPPC    C2 8302   2.469   2.113   1.448
  167DPPC    C3 8303   2.445   2.337   1.522
  167DPPC    N4 8304   2.370   2.215   1.488
  167DPPC    C5 8305   2.287   2.172   1.602
  167DPPC    C6 8306   2.185   2.059   1.589
  167DPPC    O7 8307   2.254   1.936   1.610
  167DPPC    P8 8308   2.147   1.822   1.572
  167DPPC    O9 8309   2.232   1.704   1.546
  167DPPC   O10 8310   2.067   1.888   1.466
  167DPPC   O11 8311   2.085   1.851   1.718
  167DPPC   C12 8312   2.157   1.801   1.831
  167DPPC   C13 8313   2.085   1.836   1.961
  167DPPC   O14 8314   1.970   1.756   1.990
  167DPPC   C15 8315   1.990   1.628   2.032
  167DPPC   O16 8316   2.085   1.562   1.992
  167DPPC   C17 8317   1.887   1.580   2.134
  167DPPC   C18 8318   1.941   1.597   2.276
  167DPPC   C19 8319   1.858   1.542   2.393
  167DPPC   C20 8320   1.909   1.583   2.531
  167DPPC   C21 8321   2.057   1.550   2.550
  167DPPC   C22 8322   2.114   1.636   2.663
  167DPPC   C23 8323   2.252   1.568   2.660
  167DPPC   C24 8324   2.331   1.665   2.747
  167DPPC   C25 8325   2.447   1.597   2.820
  167DPPC   C26 8326   2.388   1.513   2.933
  167DPPC   C27 8327   2.487   1.437   3.022
  167DPPC   C28 8328   2.443   1.302   3.079
  167DPPC   C29 8329   2.563   1.248   3.157
  167DPPC   C30 8330   2.523   1.127   3.241
  167DPPC   C31 8331   2.404   1.170   3.326
  167DPPC   C32 8332   2.072   1.988   1.946
  167DPPC   O33 8333   2.074   2.059   2.070
  167DPPC   C34 8334   2.007   2.178   2.072
  167DPPC   O35 8335   1.932   2.219   1.984
  167DPPC   C36 8336   2.006   2.255   2.204
  167DPPC   C37 8337   2.120   2.356   2.214
  167DPPC   C38 8338   2.086   2.456   2.324
  167DPPC   C39 8339   2.070   2.387   2.459
  167DPPC   C40 8340   2.068   2.502   2.560
  167DPPC   C41 8341   2.072   2.466   2.709
  167DPPC   C42 8342   2.068   2.593   2.795
  167DPPC   C43 8343   2.027   2.559   2.939
  167DPPC   C44 8344   2.004   2.681   3.029
  167DPPC   C45 8345   1.974   2.645   3.175
  167DPPC   C46 8346   1.973   2.776   3.253
  167DPPC   C47 8347   1.906   2.764   3.390
  167DPPC   C48 8348   1.942   2.891   3.468
  167DPPC   C49 8349   1.869   2.884   3.602
  167DPPC   C50 8350   1.928   2.978   3.706
  168DPPC    C1 8351   2.802   7.968   1.328
  168DPPC    C2 8352   2.581   7.929   1.250
  168DPPC    C3 8353   2.643   7.874   1.473
  168DPPC    N4 8354   2.660   7.973   1.366
  168DPPC    C5 8355   2.627   8.109   1.408
  168DPPC    C6 8356   2.692   8.183   1.525
  168DPPC    O7 8357   2.661   8.323   1.532
  168DPPC    P8 8358   2.749   8.392   1.647
  168DPPC    O9 8359   2.732   8.539   1.649
  168DPPC   O10 8360   2.878   8.324   1.621
  168DPPC   O11 8361   2.706   8.311   1.780
  168DPPC   C12 8362   2.584   8.364   1.834
  168DPPC   C13 8363   2.553   8.317   1.976
  168DPPC   O14 8364   2.426   8.368   2.020
  168DPPC   C15 8365   2.317   8.289   2.006
  168DPPC   O16 8366   2.303   8.228   1.900
  168DPPC   C17 8367   2.198   8.305   2.100
  168DPPC   C18 8368   2.184   8.452   2.140
  168DPPC   C19 8369   2.113   8.462   2.276
  168DPPC   C20 8370   2.090   8.611   2.301
  168DPPC   C21 8371   2.029   8.651   2.436
  168DPPC   C22 8372   1.947   8.779   2.417
  168DPPC   C23 8373   1.894   8.832   2.550
  168DPPC   C24 8374   1.777   8.752   2.608
  168DPPC   C25 8375   1.727   8.818   2.736
  168DPPC   C26 8376   1.649   8.721   2.825
  168DPPC   C27 8377   1.733   8.595   2.848
  168DPPC   C28 8378   1.683   8.481   2.938
  168DPPC   C29 8379   1.533   8.455   2.935
  168DPPC   C30 8380   1.511   8.348   3.042
  168DPPC   C31 8381   1.361   8.321   3.050
  168DPPC   C32 8382   2.674   8.365   2.055
  168DPPC   O33 8383   2.700   8.506   2.045
  168DPPC   C34 8384   2.829   8.548   2.054
  168DPPC   O35 8385   2.918   8.472   2.090
  168DPPC   C36 8386   2.841   8.699   2.036
  168DPPC   C37 8387   2.803   8.780   2.160
  168DPPC   C38 8388   2.807   8.923   2.106
  168DPPC   C39 8389   2.778   9.027   2.214
  168DPPC   C40 8390   2.862   9.004   2.339
  168DPPC   C41 8391   2.831   9.109   2.447
  168DPPC   C42 8392   2.915   9.081   2.571
  168DPPC   C43 8393   2.912   9.200   2.667
  168DPPC   C44 8394   2.998   9.179   2.792
  168DPPC   C45 8395   3.146   9.150   2.770
  168DPPC   C46 8396   3.220   9.156   2.904
  168DPPC   C47 8397   3.365   9.108   2.897
  168DPPC   C48 8398   3.431   9.208   2.802
  168DPPC   C49 8399   3.581   9.178   2.799
  168DPPC   C50 8400   3.625   9.075   2.695
  169DPPC    C1 8401   0.143   2.495   1.610
  169DPPC    C2 8402   0.361   2.437   1.594
  169DPPC    C3 8403   0.203   2.283   1.495
  169DPPC    N4 8404   0.235   2.425   1.519
  169DPPC    C5 8405   0.237   2.507   1.397
  169DPPC    C6 8406   0.331   2.482   1.279
  169DPPC    O7 8407   0.463   2.536   1.292
  169DPPC    P8 8408   0.484   2.682   1.227
  169DPPC    O9 8409   0.371   2.726   1.143
  169DPPC   O10 8410   0.618   2.661   1.167
  169DPPC   O11 8411   0.504   2.743   1.375
  169DPPC   C12 8412   0.632   2.714   1.433
  169DPPC   C13 8413   0.654   2.787   1.566
  169DPPC   O14 8414   0.602   2.726   1.684
  169DPPC   C15 8415   0.689   2.667   1.771
  169DPPC   O16 8416   0.792   2.615   1.729
  169DPPC   C17 8417   0.633   2.620   1.905
  169DPPC   C18 8418   0.700   2.492   1.955
  169DPPC   C19 8419   0.696   2.478   2.108
  169DPPC   C20 8420   0.769   2.353   2.155
  169DPPC   C21 8421   0.681   2.228   2.142
  169DPPC   C22 8422   0.566   2.247   2.241
  169DPPC   C23 8423   0.624   2.237   2.383
  169DPPC   C24 8424   0.514   2.264   2.486
  169DPPC   C25 8425   0.567   2.257   2.629
  169DPPC   C26 8426   0.460   2.272   2.737
  169DPPC   C27 8427   0.402   2.131   2.746
  169DPPC   C28 8428   0.289   2.130   2.848
  169DPPC   C29 8429   0.334   2.138   2.994
  169DPPC   C30 8430   0.213   2.138   3.087
  169DPPC   C31 8431   0.132   2.017   3.038
  169DPPC   C32 8432   0.616   2.933   1.537
  169DPPC   O33 8433   0.639   3.022   1.646
  169DPPC   C34 8434   0.596   3.151   1.635
  169DPPC   O35 8435   0.562   3.204   1.529
  169DPPC   C36 8436   0.617   3.231   1.763
  169DPPC   C37 8437   0.539   3.182   1.885
  169DPPC   C38 8438   0.540   3.301   1.981
  169DPPC   C39 8439   0.466   3.259   2.108
  169DPPC   C40 8440   0.445   3.378   2.201
  169DPPC   C41 8441   0.575   3.457   2.218
  169DPPC   C42 8442   0.656   3.406   2.337
  169DPPC   C43 8443   0.803   3.445   2.328
  169DPPC   C44 8444   0.884   3.417   2.455
  169DPPC   C45 8445   1.034   3.415   2.426
  169DPPC   C46 8446   1.083   3.553   2.382
  169DPPC   C47 8447   1.233   3.579   2.389
  169DPPC   C48 8448   1.272   3.716   2.335
  169DPPC   C49 8449   1.237   3.707   2.186
  169DPPC   C50 8450   1.217   3.836   2.106
  170DPPC    C1 8451   6.889   8.361   1.426
  170DPPC    C2 8452   7.065   8.248   1.360
  170DPPC    C3 8453   7.080   8.408   1.547
  170DPPC    N4 8454   7.006   8.296   1.486
  170DPPC    C5 8455   6.956   8.185   1.568
  170DPPC    C6 8456   7.054   8.095   1.644
  170DPPC    O7 8457   6.980   7.985   1.697
  170DPPC    P8 8458   7.067   7.850   1.686
  170DPPC    O9 8459   7.157   7.866   1.570
  170DPPC   O10 8460   6.977   7.733   1.697
  170DPPC   O11 8461   7.169   7.860   1.810
  170DPPC   C12 8462   7.082   7.829   1.919
  170DPPC   C13 8463   7.155   7.821   2.053
  170DPPC   O14 8464   7.084   7.745   2.153
  170DPPC   C15 8465   7.091   7.609   2.153
  170DPPC   O16 8466   7.127   7.547   2.053
  170DPPC   C17 8467   7.016   7.535   2.264
  170DPPC   C18 8468   6.983   7.613   2.391
  170DPPC   C19 8469   6.933   7.523   2.504
  170DPPC   C20 8470   6.874   7.606   2.619
  170DPPC   C21 8471   6.803   7.521   2.725
  170DPPC   C22 8472   6.754   7.602   2.845
  170DPPC   C23 8473   6.867   7.690   2.899
  170DPPC   C24 8474   6.810   7.783   3.006
  170DPPC   C25 8475   6.688   7.862   2.957
  170DPPC   C26 8476   6.624   7.944   3.070
  170DPPC   C27 8477   6.581   7.833   3.165
  170DPPC   C28 8478   6.505   7.890   3.285
  170DPPC   C29 8479   6.441   7.773   3.361
  170DPPC   C30 8480   6.549   7.675   3.405
  170DPPC   C31 8481   6.469   7.551   3.447
  170DPPC   C32 8482   7.194   7.961   2.100
  170DPPC   O33 8483   7.280   7.968   2.214
  170DPPC   C34 8484   7.306   8.090   2.267
  170DPPC   O35 8485   7.234   8.187   2.239
  170DPPC   C36 8486   7.426   8.104   2.360
  170DPPC   C37 8487   7.542   8.146   2.269
  170DPPC   C38 8488   7.674   8.148   2.345
  170DPPC   C39 8489   7.669   8.255   2.455
  170DPPC   C40 8490   7.803   8.276   2.526
  170DPPC   C41 8491   7.798   8.402   2.611
  170DPPC   C42 8492   7.945   8.429   2.643
  170DPPC   C43 8493   7.973   8.543   2.742
  170DPPC   C44 8494   8.118   8.530   2.788
  170DPPC   C45 8495   8.136   8.625   2.906
  170DPPC   C46 8496   8.269   8.615   2.981
  170DPPC   C47 8497   8.265   8.683   3.118
  170DPPC   C48 8498   8.388   8.630   3.192
  170DPPC   C49 8499   8.377   8.686   3.334
  170DPPC   C50 8500   8.494   8.659   3.429
  171DPPC    C1 8501   5.826   7.355   1.330
  171DPPC    C2 8502   5.762   7.150   1.259
  171DPPC    C3 8503   5.985   7.180   1.365
  171DPPC    N4 8504   5.842   7.213   1.366
  171DPPC    C5 8505   5.790   7.170   1.496
  171DPPC    C6 8506   5.670   7.247   1.551
  171DPPC    O7 8507   5.624   7.179   1.668
  171DPPC    P8 8508   5.497   7.229   1.753
  171DPPC    O9 8509   5.470   7.123   1.852
  171DPPC   O10 8510   5.395   7.248   1.647
  171DPPC   O11 8511   5.569   7.367   1.793
  171DPPC   C12 8512   5.634   7.343   1.918
  171DPPC   C13 8513   5.747   7.442   1.944
  171DPPC   O14 8514   5.841   7.402   2.045
  171DPPC   C15 8515   5.960   7.460   2.075
  171DPPC   O16 8516   6.014   7.545   2.005
  171DPPC   C17 8517   6.053   7.384   2.170
  171DPPC   C18 8518   6.181   7.464   2.193
  171DPPC   C19 8519   6.288   7.406   2.285
  171DPPC   C20 8520   6.247   7.452   2.425
  171DPPC   C21 8521   6.348   7.423   2.536
  171DPPC   C22 8522   6.304   7.501   2.660
  171DPPC   C23 8523   6.377   7.447   2.783
  171DPPC   C24 8524   6.354   7.299   2.812
  171DPPC   C25 8525   6.390   7.258   2.955
  171DPPC   C26 8526   6.280   7.284   3.058
  171DPPC   C27 8527   6.345   7.251   3.193
  171DPPC   C28 8528   6.242   7.253   3.306
  171DPPC   C29 8529   6.279   7.143   3.406
  171DPPC   C30 8530   6.153   7.091   3.474
  171DPPC   C31 8531   6.176   6.984   3.582
  171DPPC   C32 8532   5.690   7.578   1.985
  171DPPC   O33 8533   5.597   7.570   2.093
  171DPPC   C34 8534   5.544   7.688   2.135
  171DPPC   O35 8535   5.576   7.797   2.089
  171DPPC   C36 8536   5.459   7.693   2.262
  171DPPC   C37 8537   5.517   7.784   2.371
  171DPPC   C38 8538   5.426   7.786   2.494
  171DPPC   C39 8539   5.488   7.874   2.602
  171DPPC   C40 8540   5.504   8.017   2.552
  171DPPC   C41 8541   5.587   8.110   2.641
  171DPPC   C42 8542   5.572   8.252   2.588
  171DPPC   C43 8543   5.549   8.351   2.702
  171DPPC   C44 8544   5.672   8.354   2.794
  171DPPC   C45 8545   5.625   8.393   2.934
  171DPPC   C46 8546   5.509   8.301   2.975
  171DPPC   C47 8547   5.443   8.348   3.104
  171DPPC   C48 8548   5.301   8.294   3.124
  171DPPC   C49 8549   5.237   8.380   3.233
  171DPPC   C50 8550   5.087   8.362   3.212
  172DPPC    C1 8551   3.036   4.968   1.614
  172DPPC    C2 8552   3.023   4.961   1.867
  172DPPC    C3 8553   3.136   4.813   1.744
  172DPPC    N4 8554   3.104   4.956   1.744
  172DPPC    C5 8555   3.233   5.023   1.764
  172DPPC    C6 8556   3.230   5.175   1.755
  172DPPC    O7 8557   3.354   5.246   1.759
  172DPPC    P8 8558   3.325   5.394   1.702
  172DPPC    O9 8559   3.183   5.410   1.665
  172DPPC   O10 8560   3.434   5.464   1.630
  172DPPC   O11 8561   3.313   5.471   1.842
  172DPPC   C12 8562   3.447   5.444   1.885
  172DPPC   C13 8563   3.480   5.476   2.031
  172DPPC   O14 8564   3.456   5.365   2.118
  172DPPC   C15 8565   3.566   5.342   2.195
  172DPPC   O16 8566   3.675   5.336   2.138
  172DPPC   C17 8567   3.545   5.244   2.311
  172DPPC   C18 8568   3.500   5.313   2.439
  172DPPC   C19 8569   3.596   5.421   2.490
  172DPPC   C20 8570   3.555   5.472   2.628
  172DPPC   C21 8571   3.642   5.589   2.672
  172DPPC   C22 8572   3.598   5.651   2.805
  172DPPC   C23 8573   3.677   5.778   2.835
  172DPPC   C24 8574   3.599   5.861   2.937
  172DPPC   C25 8575   3.689   5.983   2.960
  172DPPC   C26 8576   3.634   6.069   3.073
  172DPPC   C27 8577   3.689   6.211   3.058
  172DPPC   C28 8578   3.642   6.293   3.179
  172DPPC   C29 8579   3.656   6.213   3.309
  172DPPC   C30 8580   3.672   6.292   3.439
  172DPPC   C31 8581   3.549   6.384   3.447
  172DPPC   C32 8582   3.404   5.606   2.061
  172DPPC   O33 8583   3.406   5.643   2.199
  172DPPC   C34 8584   3.327   5.741   2.250
  172DPPC   O35 8585   3.285   5.826   2.172
  172DPPC   C36 8586   3.325   5.773   2.400
  172DPPC   C37 8587   3.263   5.665   2.489
  172DPPC   C38 8588   3.244   5.715   2.633
  172DPPC   C39 8589   3.157   5.629   2.724
  172DPPC   C40 8590   3.159   5.682   2.867
  172DPPC   C41 8591   3.085   5.590   2.964
  172DPPC   C42 8592   3.105   5.628   3.111
  172DPPC   C43 8593   3.250   5.589   3.141
  172DPPC   C44 8594   3.298   5.656   3.270
  172DPPC   C45 8595   3.265   5.576   3.396
  172DPPC   C46 8596   3.311   5.652   3.521
  172DPPC   C47 8597   3.460   5.684   3.508
  172DPPC   C48 8598   3.515   5.761   3.628
  172DPPC   C49 8599   3.525   5.672   3.752
  172DPPC   C50 8600   3.616   5.549   3.736
  173DPPC    C1 8601   6.108   1.966   2.181
  173DPPC    C2 8602   5.975   1.981   1.990
  173DPPC    C3 8603   5.983   2.173   2.141
  173DPPC    N4 8604   6.059   2.062   2.081
  173DPPC    C5 8605   6.184   2.113   2.024
  173DPPC    C6 8606   6.187   2.219   1.913
  173DPPC    O7 8607   6.309   2.273   1.862
  173DPPC    P8 8608   6.300   2.418   1.793
  173DPPC    O9 8609   6.178   2.394   1.712
  173DPPC   O10 8610   6.426   2.474   1.740
  173DPPC   O11 8611   6.257   2.497   1.927
  173DPPC   C12 8612   6.376   2.556   1.980
  173DPPC   C13 8613   6.355   2.631   2.112
  173DPPC   O14 8614   6.476   2.677   2.174
  173DPPC   C15 8615   6.456   2.790   2.247
  173DPPC   O16 8616   6.369   2.865   2.204
  173DPPC   C17 8617   6.582   2.851   2.310
  173DPPC   C18 8618   6.553   2.937   2.433
  173DPPC   C19 8619   6.643   2.906   2.552
  173DPPC   C20 8620   6.628   2.768   2.616
  173DPPC   C21 8621   6.723   2.756   2.736
  173DPPC   C22 8622   6.694   2.625   2.809
  173DPPC   C23 8623   6.781   2.588   2.930
  173DPPC   C24 8624   6.726   2.681   3.038
  173DPPC   C25 8625   6.797   2.658   3.172
  173DPPC   C26 8626   6.706   2.735   3.268
  173DPPC   C27 8627   6.775   2.755   3.403
  173DPPC   C28 8628   6.804   2.627   3.482
  173DPPC   C29 8629   6.855   2.674   3.619
  173DPPC   C30 8630   6.745   2.758   3.683
  173DPPC   C31 8631   6.781   2.814   3.821
  173DPPC   C32 8632   6.300   2.512   2.191
  173DPPC   O33 8633   6.263   2.526   2.329
  173DPPC   C34 8634   6.241   2.415   2.404
  173DPPC   O35 8635   6.216   2.309   2.347
  173DPPC   C36 8636   6.207   2.436   2.552
  173DPPC   C37 8637   6.315   2.453   2.659
  173DPPC   C38 8638   6.259   2.527   2.781
  173DPPC   C39 8639   6.343   2.533   2.909
  173DPPC   C40 8640   6.296   2.637   3.010
  173DPPC   C41 8641   6.340   2.606   3.154
  173DPPC   C42 8642   6.275   2.707   3.248
  173DPPC   C43 8643   6.339   2.711   3.387
  173DPPC   C44 8644   6.326   2.568   3.440
  173DPPC   C45 8645   6.372   2.574   3.586
  173DPPC   C46 8646   6.294   2.679   3.665
  173DPPC   C47 8647   6.339   2.688   3.811
  173DPPC   C48 8648   6.292   2.822   3.869
  173DPPC   C49 8649   6.382   2.944   3.849
  173DPPC   C50 8650   6.311   3.078   3.863
  174DPPC    C1 8651   9.027   4.871   1.098
  174DPPC    C2 8652   9.173   4.813   1.258
  174DPPC    C3 8653   9.034   4.634   1.180
  174DPPC    N4 8654   9.107   4.756   1.140
  174DPPC    C5 8655   9.192   4.742   1.021
  174DPPC    C6 8656   9.280   4.617   1.020
  174DPPC    O7 8657   9.355   4.606   1.142
  174DPPC    P8 8658   9.425   4.462   1.122
  174DPPC    O9 8659   9.511   4.467   1.001
  174DPPC   O10 8660   9.310   4.369   1.123
  174DPPC   O11 8661   9.511   4.470   1.258
  174DPPC   C12 8662   9.427   4.433   1.368
  174DPPC   C13 8663   9.497   4.450   1.502
  174DPPC   O14 8664   9.417   4.416   1.616
  174DPPC   C15 8665   9.428   4.284   1.648
  174DPPC   O16 8666   9.477   4.201   1.571
  174DPPC   C17 8667   9.367   4.234   1.779
  174DPPC   C18 8668   9.361   4.340   1.889
  174DPPC   C19 8669   9.302   4.278   2.016
  174DPPC   C20 8670   9.294   4.374   2.135
  174DPPC   C21 8671   9.210   4.328   2.254
  174DPPC   C22 8672   9.211   4.418   2.378
  174DPPC   C23 8673   9.150   4.335   2.491
  174DPPC   C24 8674   9.151   4.400   2.630
  174DPPC   C25 8675   9.139   4.293   2.739
  174DPPC   C26 8676   9.113   4.347   2.880
  174DPPC   C27 8677   9.074   4.236   2.978
  174DPPC   C28 8678   8.945   4.167   2.933
  174DPPC   C29 8679   8.911   4.073   3.049
  174DPPC   C30 8680   8.792   3.982   3.016
  174DPPC   C31 8681   8.708   3.950   3.139
  174DPPC   C32 8682   9.566   4.587   1.503
  174DPPC   O33 8683   9.479   4.697   1.476
  174DPPC   C34 8684   9.541   4.818   1.482
  174DPPC   O35 8685   9.664   4.823   1.476
  174DPPC   C36 8686   9.445   4.937   1.477
  174DPPC   C37 8687   9.485   5.037   1.585
  174DPPC   C38 8688   9.391   5.158   1.582
  174DPPC   C39 8689   9.402   5.260   1.695
  174DPPC   C40 8690   9.393   5.198   1.835
  174DPPC   C41 8691   9.376   5.308   1.941
  174DPPC   C42 8692   9.358   5.239   2.076
  174DPPC   C43 8693   9.388   5.338   2.189
  174DPPC   C44 8694   9.352   5.275   2.324
  174DPPC   C45 8695   9.391   5.371   2.437
  174DPPC   C46 8696   9.333   5.327   2.572
  174DPPC   C47 8697   9.375   5.436   2.671
  174DPPC   C48 8698   9.303   5.403   2.802
  174DPPC   C49 8699   9.153   5.414   2.772
  174DPPC   C50 8700   9.060   5.367   2.884
  175DPPC    C1 8701   3.796   1.703   1.881
  175DPPC    C2 8702   3.986   1.819   1.958
  175DPPC    C3 8703   3.780   1.913   1.997
  175DPPC    N4 8704   3.848   1.783   1.993
  175DPPC    C5 8705   3.856   1.718   2.125
  175DPPC    C6 8706   3.725   1.649   2.167
  175DPPC    O7 8707   3.612   1.734   2.185
  175DPPC    P8 8708   3.474   1.653   2.204
  175DPPC    O9 8709   3.514   1.513   2.230
  175DPPC   O10 8710   3.374   1.705   2.107
  175DPPC   O11 8711   3.453   1.724   2.347
  175DPPC   C12 8712   3.486   1.629   2.449
  175DPPC   C13 8713   3.510   1.695   2.585
  175DPPC   O14 8714   3.593   1.627   2.680
  175DPPC   C15 8715   3.726   1.612   2.657
  175DPPC   O16 8716   3.786   1.680   2.574
  175DPPC   C17 8717   3.796   1.533   2.768
  175DPPC   C18 8718   3.780   1.617   2.895
  175DPPC   C19 8719   3.829   1.561   3.029
  175DPPC   C20 8720   3.842   1.671   3.135
  175DPPC   C21 8721   3.880   1.620   3.274
  175DPPC   C22 8722   4.012   1.545   3.292
  175DPPC   C23 8723   4.039   1.512   3.439
  175DPPC   C24 8724   4.051   1.626   3.540
  175DPPC   C25 8725   4.071   1.582   3.685
  175DPPC   C26 8726   4.099   1.708   3.768
  175DPPC   C27 8727   4.142   1.667   3.909
  175DPPC   C28 8728   4.211   1.781   3.985
  175DPPC   C29 8729   4.230   1.756   4.135
  175DPPC   C30 8730   4.322   1.634   4.138
  175DPPC   C31 8731   4.460   1.657   4.077
  175DPPC   C32 8732   3.375   1.752   2.630
  175DPPC   O33 8733   3.281   1.645   2.641
  175DPPC   C34 8734   3.165   1.664   2.710
  175DPPC   O35 8735   3.092   1.750   2.660
  175DPPC   C36 8736   3.110   1.526   2.747
  175DPPC   C37 8737   2.970   1.549   2.804
  175DPPC   C38 8738   2.905   1.414   2.837
  175DPPC   C39 8739   2.990   1.323   2.926
  175DPPC   C40 8740   2.913   1.192   2.940
  175DPPC   C41 8741   2.994   1.098   3.030
  175DPPC   C42 8742   3.019   1.163   3.166
  175DPPC   C43 8743   3.131   1.096   3.245
  175DPPC   C44 8744   3.188   1.173   3.364
  175DPPC   C45 8745   3.302   1.077   3.398
  175DPPC   C46 8746   3.390   1.133   3.509
  175DPPC   C47 8747   3.324   1.170   3.642
  175DPPC   C48 8748   3.440   1.170   3.742
  175DPPC   C49 8749   3.391   1.218   3.879
  175DPPC   C50 8750   3.485   1.190   3.996
  176DPPC    C1 8751   8.368   4.696   1.158
  176DPPC    C2 8752   8.437   4.723   0.927
  176DPPC    C3 8753   8.204   4.702   0.991
  176DPPC    N4 8754   8.336   4.757   1.028
  176DPPC    C5 8755   8.321   4.903   1.039
  176DPPC    C6 8756   8.451   4.984   1.051
  176DPPC    O7 8757   8.495   4.999   1.186
  176DPPC    P8 8758   8.651   5.038   1.195
  176DPPC    O9 8759   8.660   5.170   1.260
  176DPPC   O10 8760   8.707   5.030   1.058
  176DPPC   O11 8761   8.702   4.911   1.280
  176DPPC   C12 8762   8.631   4.889   1.403
  176DPPC   C13 8763   8.695   4.785   1.495
  176DPPC   O14 8764   8.613   4.752   1.608
  176DPPC   C15 8765   8.639   4.630   1.664
  176DPPC   O16 8766   8.698   4.545   1.599
  176DPPC   C17 8767   8.562   4.596   1.792
  176DPPC   C18 8768   8.421   4.538   1.776
  176DPPC   C19 8769   8.357   4.514   1.913
  176DPPC   C20 8770   8.212   4.465   1.923
  176DPPC   C21 8771   8.187   4.405   2.062
  176DPPC   C22 8772   8.044   4.353   2.071
  176DPPC   C23 8773   8.008   4.293   2.208
  176DPPC   C24 8774   7.975   4.405   2.307
  176DPPC   C25 8775   7.949   4.356   2.450
  176DPPC   C26 8776   7.877   4.457   2.539
  176DPPC   C27 8777   7.857   4.411   2.684
  176DPPC   C28 8778   7.778   4.516   2.762
  176DPPC   C29 8779   7.795   4.486   2.911
  176DPPC   C30 8780   7.946   4.506   2.922
  176DPPC   C31 8781   8.000   4.433   3.046
  176DPPC   C32 8782   8.838   4.830   1.523
  176DPPC   O33 8783   8.842   4.961   1.582
  176DPPC   C34 8784   8.966   5.011   1.609
  176DPPC   O35 8785   9.065   4.945   1.578
  176DPPC   C36 8786   8.956   5.134   1.699
  176DPPC   C37 8787   8.952   5.103   1.849
  176DPPC   C38 8788   8.966   5.238   1.918
  176DPPC   C39 8789   8.936   5.222   2.067
  176DPPC   C40 8790   8.970   5.345   2.152
  176DPPC   C41 8791   8.918   5.332   2.295
  176DPPC   C42 8792   8.905   5.463   2.372
  176DPPC   C43 8793   8.850   5.428   2.510
  176DPPC   C44 8794   8.814   5.565   2.568
  176DPPC   C45 8795   8.753   5.555   2.708
  176DPPC   C46 8796   8.627   5.468   2.714
  176DPPC   C47 8797   8.501   5.545   2.676
  176DPPC   C48 8798   8.378   5.454   2.666
  176DPPC   C49 8799   8.280   5.532   2.578
  176DPPC   C50 8800   8.240   5.652   2.664
  177DPPC    C1 8801   9.210   2.550   1.590
  177DPPC    C2 8802   9.021   2.555   1.437
  177DPPC    C3 8803   9.015   2.632   1.659
  177DPPC    N4 8804   9.098   2.629   1.537
  177DPPC    C5 8805   9.152   2.759   1.495
  177DPPC    C6 8806   9.090   2.831   1.376
  177DPPC    O7 8807   8.958   2.878   1.407
  177DPPC    P8 8808   8.970   3.035   1.441
  177DPPC    O9 8809   8.890   3.122   1.352
  177DPPC   O10 8810   9.107   3.064   1.489
  177DPPC   O11 8811   8.886   3.029   1.578
  177DPPC   C12 8812   8.970   3.034   1.694
  177DPPC   C13 8813   8.907   3.065   1.830
  177DPPC   O14 8814   8.852   2.949   1.893
  177DPPC   C15 8815   8.924   2.862   1.969
  177DPPC   O16 8816   9.047   2.855   1.967
  177DPPC   C17 8817   8.844   2.754   2.042
  177DPPC   C18 8818   8.824   2.789   2.190
  177DPPC   C19 8819   8.741   2.692   2.275
  177DPPC   C20 8820   8.714   2.749   2.414
  177DPPC   C21 8821   8.622   2.651   2.488
  177DPPC   C22 8822   8.635   2.656   2.640
  177DPPC   C23 8823   8.547   2.552   2.709
  177DPPC   C24 8824   8.534   2.557   2.862
  177DPPC   C25 8825   8.485   2.692   2.914
  177DPPC   C26 8826   8.450   2.683   3.063
  177DPPC   C27 8827   8.347   2.576   3.098
  177DPPC   C28 8828   8.326   2.558   3.248
  177DPPC   C29 8829   8.208   2.462   3.263
  177DPPC   C30 8830   8.193   2.436   3.413
  177DPPC   C31 8831   8.063   2.370   3.461
  177DPPC   C32 8832   8.802   3.175   1.813
  177DPPC   O33 8833   8.720   3.205   1.926
  177DPPC   C34 8834   8.617   3.129   1.970
  177DPPC   O35 8835   8.573   3.032   1.907
  177DPPC   C36 8836   8.540   3.174   2.094
  177DPPC   C37 8837   8.637   3.233   2.197
  177DPPC   C38 8838   8.559   3.287   2.318
  177DPPC   C39 8839   8.664   3.344   2.414
  177DPPC   C40 8840   8.757   3.231   2.458
  177DPPC   C41 8841   8.848   3.285   2.569
  177DPPC   C42 8842   8.957   3.178   2.578
  177DPPC   C43 8843   8.898   3.055   2.648
  177DPPC   C44 8844   8.998   2.949   2.691
  177DPPC   C45 8845   8.946   2.827   2.768
  177DPPC   C46 8846   9.054   2.755   2.848
  177DPPC   C47 8847   9.013   2.662   2.963
  177DPPC   C48 8848   8.911   2.555   2.925
  177DPPC   C49 8849   8.837   2.486   3.039
  177DPPC   C50 8850   8.922   2.382   3.112
  178DPPC    C1 8851   8.061   2.189   1.741
  178DPPC    C2 8852   8.163   2.402   1.802
  178DPPC    C3 8853   8.239   2.189   1.891
  178DPPC    N4 8854   8.185   2.259   1.774
  178DPPC    C5 8855   8.272   2.245   1.656
  178DPPC    C6 8856   8.423   2.254   1.680
  178DPPC    O7 8857   8.469   2.386   1.706
  178DPPC    P8 8858   8.618   2.388   1.767
  178DPPC    O9 8859   8.656   2.530   1.788
  178DPPC   O10 8860   8.707   2.312   1.677
  178DPPC   O11 8861   8.573   2.312   1.902
  178DPPC   C12 8862   8.536   2.398   2.010
  178DPPC   C13 8863   8.501   2.317   2.135
  178DPPC   O14 8864   8.472   2.396   2.251
  178DPPC   C15 8865   8.339   2.417   2.273
  178DPPC   O16 8866   8.262   2.417   2.177
  178DPPC   C17 8867   8.289   2.442   2.415
  178DPPC   C18 8868   8.137   2.433   2.428
  178DPPC   C19 8869   8.114   2.468   2.576
  178DPPC   C20 8870   8.155   2.613   2.605
  178DPPC   C21 8871   8.116   2.625   2.753
  178DPPC   C22 8872   8.094   2.773   2.785
  178DPPC   C23 8873   8.067   2.781   2.936
  178DPPC   C24 8874   8.055   2.930   2.970
  178DPPC   C25 8875   8.118   2.962   3.105
  178DPPC   C26 8876   8.151   3.110   3.123
  178DPPC   C27 8877   8.178   3.159   3.265
  178DPPC   C28 8878   8.311   3.096   3.308
  178DPPC   C29 8879   8.355   3.146   3.445
  178DPPC   C30 8880   8.493   3.085   3.469
  178DPPC   C31 8881   8.550   3.128   3.605
  178DPPC   C32 8882   8.624   2.229   2.156
  178DPPC   O33 8883   8.615   2.116   2.244
  178DPPC   C34 8884   8.544   2.002   2.226
  178DPPC   O35 8885   8.495   1.976   2.117
  178DPPC   C36 8886   8.538   1.912   2.350
  178DPPC   C37 8887   8.429   1.959   2.447
  178DPPC   C38 8888   8.435   1.888   2.583
  178DPPC   C39 8889   8.310   1.937   2.656
  178DPPC   C40 8890   8.291   1.866   2.790
  178DPPC   C41 8891   8.170   1.929   2.859
  178DPPC   C42 8892   8.153   1.851   2.989
  178DPPC   C43 8893   8.026   1.908   3.051
  178DPPC   C44 8894   7.996   1.854   3.191
  178DPPC   C45 8895   7.892   1.951   3.247
  178DPPC   C46 8896   7.809   1.894   3.363
  178DPPC   C47 8897   7.722   1.777   3.315
  178DPPC   C48 8898   7.640   1.717   3.429
  178DPPC   C49 8899   7.536   1.813   3.487
  178DPPC   C50 8900   7.401   1.741   3.498
  179DPPC    C1 8901   5.328   6.370   1.907
  179DPPC    C2 8902   5.445   6.270   2.089
  179DPPC    C3 8903   5.217   6.265   2.083
  179DPPC    N4 8904   5.334   6.252   1.994
  179DPPC    C5 8905   5.357   6.118   1.939
  179DPPC    C6 8906   5.237   6.061   1.862
  179DPPC    O7 8907   5.204   6.116   1.734
  179DPPC    P8 8908   5.045   6.110   1.712
  179DPPC    O9 8909   4.991   5.976   1.746
  179DPPC   O10 8910   5.002   6.191   1.596
  179DPPC   O11 8911   5.003   6.196   1.842
  179DPPC   C12 8912   4.887   6.279   1.834
  179DPPC   C13 8913   4.832   6.343   1.962
  179DPPC   O14 8914   4.922   6.441   2.016
  179DPPC   C15 8915   4.868   6.530   2.103
  179DPPC   O16 8916   4.760   6.583   2.075
  179DPPC   C17 8917   4.951   6.574   2.223
  179DPPC   C18 8918   4.919   6.493   2.348
  179DPPC   C19 8919   5.010   6.515   2.470
  179DPPC   C20 8920   5.156   6.503   2.426
  179DPPC   C21 8921   5.258   6.504   2.540
  179DPPC   C22 8922   5.239   6.365   2.602
  179DPPC   C23 8923   5.321   6.348   2.730
  179DPPC   C24 8924   5.257   6.439   2.835
  179DPPC   C25 8925   5.329   6.428   2.969
  179DPPC   C26 8926   5.321   6.285   3.025
  179DPPC   C27 8927   5.399   6.289   3.157
  179DPPC   C28 8928   5.367   6.171   3.249
  179DPPC   C29 8929   5.420   6.203   3.389
  179DPPC   C30 8930   5.419   6.081   3.482
  179DPPC   C31 8931   5.280   6.064   3.543
  179DPPC   C32 8932   4.802   6.213   2.037
  179DPPC   O33 8933   4.794   6.214   2.179
  179DPPC   C34 8934   4.764   6.101   2.249
  179DPPC   O35 8935   4.753   5.997   2.185
  179DPPC   C36 8936   4.773   6.101   2.402
  179DPPC   C37 8937   4.906   6.100   2.478
  179DPPC   C38 8938   4.882   6.092   2.629
  179DPPC   C39 8939   5.012   6.060   2.703
  179DPPC   C40 8940   5.003   6.082   2.854
  179DPPC   C41 8941   4.881   5.997   2.888
  179DPPC   C42 8942   4.861   5.969   3.037
  179DPPC   C43 8943   4.738   5.885   3.070
  179DPPC   C44 8944   4.694   5.905   3.215
  179DPPC   C45 8945   4.577   5.812   3.249
  179DPPC   C46 8946   4.524   5.827   3.392
  179DPPC   C47 8947   4.387   5.760   3.397
  179DPPC   C48 8948   4.396   5.608   3.377
  179DPPC   C49 8949   4.293   5.529   3.457
  179DPPC   C50 8950   4.146   5.570   3.448
  180DPPC    C1 8951   6.028   2.595   1.273
  180DPPC    C2 8952   6.251   2.578   1.342
  180DPPC    C3 8953   6.140   2.791   1.339
  180DPPC    N4 8954   6.125   2.648   1.370
  180DPPC    C5 8955   6.072   2.643   1.507
  180DPPC    C6 8956   6.150   2.716   1.615
  180DPPC    O7 8957   6.066   2.732   1.730
  180DPPC    P8 8958   6.139   2.827   1.838
  180DPPC    O9 8959   6.058   2.951   1.839
  180DPPC   O10 8960   6.286   2.828   1.821
  180DPPC   O11 8961   6.104   2.740   1.969
  180DPPC   C12 8962   6.000   2.809   2.039
  180DPPC   C13 8963   5.984   2.740   2.174
  180DPPC   O14 8964   5.848   2.708   2.205
  180DPPC   C15 8965   5.817   2.588   2.263
  180DPPC   O16 8966   5.840   2.487   2.196
  180DPPC   C17 8967   5.734   2.577   2.391
  180DPPC   C18 8968   5.807   2.476   2.480
  180DPPC   C19 8969   5.783   2.474   2.631
  180DPPC   C20 8970   5.848   2.349   2.690
  180DPPC   C21 8971   5.825   2.329   2.840
  180DPPC   C22 8972   5.884   2.192   2.876
  180DPPC   C23 8973   6.037   2.191   2.861
  180DPPC   C24 8974   6.083   2.047   2.883
  180DPPC   C25 8975   6.215   2.024   2.810
  180DPPC   C26 8976   6.310   2.128   2.869
  180DPPC   C27 8977   6.449   2.111   2.807
  180DPPC   C28 8978   6.555   2.204   2.869
  180DPPC   C29 8979   6.547   2.193   3.021
  180DPPC   C30 8980   6.630   2.301   3.090
  180DPPC   C31 8981   6.633   2.273   3.241
  180DPPC   C32 8982   6.077   2.818   2.267
  180DPPC   O33 8983   6.037   2.833   2.404
  180DPPC   C34 8984   6.104   2.924   2.481
  180DPPC   O35 8985   6.160   3.018   2.427
  180DPPC   C36 8986   6.065   2.932   2.629
  180DPPC   C37 8987   5.918   2.902   2.658
  180DPPC   C38 8988   5.887   2.927   2.805
  180DPPC   C39 8989   5.751   2.874   2.848
  180DPPC   C40 8990   5.727   2.888   2.998
  180DPPC   C41 8991   5.607   2.819   3.064
  180DPPC   C42 8992   5.616   2.820   3.217
  180DPPC   C43 8993   5.483   2.764   3.267
  180DPPC   C44 8994   5.463   2.770   3.419
  180DPPC   C45 8995   5.328   2.709   3.452
  180DPPC   C46 8996   5.227   2.797   3.379
  180DPPC   C47 8997   5.202   2.919   3.468
  180DPPC   C48 8998   5.084   3.001   3.416
  180DPPC   C49 8999   5.003   3.059   3.532
  180DPPC   C50 9000   5.093   3.118   3.641
  181DPPC    C1 9001   5.691   5.828   1.460
  181DPPC    C2 9002   5.851   5.792   1.645
  181DPPC    C3 9003   5.638   5.897   1.668
  181DPPC    N4 9004   5.712   5.790   1.600
  181DPPC    C5 9005   5.649   5.662   1.638
  181DPPC    C6 9006   5.670   5.529   1.567
  181DPPC    O7 9007   5.640   5.414   1.647
  181DPPC    P8 9008   5.722   5.282   1.606
  181DPPC    O9 9009   5.802   5.326   1.490
  181DPPC   O10 9010   5.622   5.175   1.584
  181DPPC   O11 9011   5.801   5.264   1.746
  181DPPC   C12 9012   5.704   5.268   1.851
  181DPPC   C13 9013   5.761   5.246   1.992
  181DPPC   O14 9014   5.671   5.297   2.092
  181DPPC   C15 9015   5.581   5.210   2.145
  181DPPC   O16 9016   5.573   5.091   2.118
  181DPPC   C17 9017   5.537   5.269   2.279
  181DPPC   C18 9018   5.402   5.337   2.259
  181DPPC   C19 9019   5.364   5.425   2.378
  181DPPC   C20 9020   5.304   5.342   2.492
  181DPPC   C21 9021   5.320   5.416   2.625
  181DPPC   C22 9022   5.252   5.349   2.744
  181DPPC   C23 9023   5.258   5.443   2.865
  181DPPC   C24 9024   5.224   5.376   2.999
  181DPPC   C25 9025   5.085   5.312   2.999
  181DPPC   C26 9026   4.974   5.416   3.012
  181DPPC   C27 9027   4.842   5.362   2.959
  181DPPC   C28 9028   4.721   5.436   3.018
  181DPPC   C29 9029   4.597   5.391   2.942
  181DPPC   C30 9030   4.476   5.479   2.976
  181DPPC   C31 9031   4.493   5.616   2.908
  181DPPC   C32 9032   5.902   5.305   2.002
  181DPPC   O33 9033   5.979   5.246   2.107
  181DPPC   C34 9034   6.113   5.267   2.109
  181DPPC   O35 9035   6.161   5.355   2.037
  181DPPC   C36 9036   6.194   5.187   2.211
  181DPPC   C37 9037   6.213   5.281   2.330
  181DPPC   C38 9038   6.267   5.221   2.460
  181DPPC   C39 9039   6.259   5.320   2.577
  181DPPC   C40 9040   6.324   5.258   2.701
  181DPPC   C41 9041   6.475   5.231   2.693
  181DPPC   C42 9042   6.522   5.169   2.825
  181DPPC   C43 9043   6.669   5.125   2.830
  181DPPC   C44 9044   6.686   5.017   2.937
  181DPPC   C45 9045   6.593   4.896   2.923
  181DPPC   C46 9046   6.649   4.770   2.989
  181DPPC   C47 9047   6.672   4.805   3.136
  181DPPC   C48 9048   6.750   4.702   3.218
  181DPPC   C49 9049   6.698   4.559   3.212
  181DPPC   C50 9050   6.784   4.452   3.278
  182DPPC    C1 9051   8.130   0.538   1.373
  182DPPC    C2 9052   8.351   0.631   1.350
  182DPPC    C3 9053   8.227   0.592   1.158
  182DPPC    N4 9054   8.214   0.633   1.298
  182DPPC    C5 9055   8.165   0.772   1.308
  182DPPC    C6 9056   8.021   0.805   1.269
  182DPPC    O7 9057   8.002   0.946   1.253
  182DPPC    P8 9058   7.861   0.958   1.176
  182DPPC    O9 9059   7.854   0.839   1.089
  182DPPC   O10 9060   7.846   1.099   1.134
  182DPPC   O11 9061   7.790   0.917   1.314
  182DPPC   C12 9062   7.777   1.036   1.392
  182DPPC   C13 9063   7.715   0.993   1.526
  182DPPC   O14 9064   7.685   1.109   1.604
  182DPPC   C15 9065   7.569   1.179   1.589
  182DPPC   O16 9066   7.481   1.150   1.509
  182DPPC   C17 9067   7.549   1.304   1.676
  182DPPC   C18 9068   7.432   1.288   1.773
  182DPPC   C19 9069   7.401   1.426   1.831
  182DPPC   C20 9070   7.296   1.417   1.941
  182DPPC   C21 9071   7.245   1.554   1.988
  182DPPC   C22 9072   7.146   1.533   2.103
  182DPPC   C23 9073   7.205   1.470   2.229
  182DPPC   C24 9074   7.097   1.446   2.334
  182DPPC   C25 9075   7.164   1.409   2.467
  182DPPC   C26 9076   7.067   1.396   2.585
  182DPPC   C27 9077   7.133   1.392   2.723
  182DPPC   C28 9078   7.048   1.333   2.835
  182DPPC   C29 9079   7.126   1.344   2.966
  182DPPC   C30 9080   7.042   1.266   3.068
  182DPPC   C31 9081   7.095   1.265   3.211
  182DPPC   C32 9082   7.814   0.889   1.580
  182DPPC   O33 9083   7.934   0.959   1.612
  182DPPC   C34 9084   8.038   0.884   1.657
  182DPPC   O35 9085   8.045   0.762   1.646
  182DPPC   C36 9086   8.135   0.970   1.738
  182DPPC   C37 9087   8.091   1.007   1.880
  182DPPC   C38 9088   8.193   1.097   1.950
  182DPPC   C39 9089   8.163   1.111   2.099
  182DPPC   C40 9090   8.274   1.195   2.162
  182DPPC   C41 9091   8.241   1.234   2.306
  182DPPC   C42 9092   8.146   1.354   2.300
  182DPPC   C43 9093   8.119   1.427   2.432
  182DPPC   C44 9094   8.054   1.560   2.393
  182DPPC   C45 9095   8.014   1.639   2.518
  182DPPC   C46 9096   7.888   1.566   2.564
  182DPPC   C47 9097   7.833   1.636   2.688
  182DPPC   C48 9098   7.700   1.574   2.734
  182DPPC   C49 9099   7.654   1.622   2.872
  182DPPC   C50 9100   7.752   1.597   2.986
  183DPPC    C1 9101   7.579   3.472   1.732
  183DPPC    C2 9102   7.612   3.663   1.609
  183DPPC    C3 9103   7.517   3.464   1.503
  183DPPC    N4 9104   7.519   3.550   1.623
  183DPPC    C5 9105   7.388   3.609   1.652
  183DPPC    C6 9106   7.259   3.527   1.656
  183DPPC    O7 9107   7.246   3.418   1.747
  183DPPC    P8 9108   7.106   3.339   1.745
  183DPPC    O9 9109   7.117   3.234   1.849
  183DPPC   O10 9110   7.072   3.314   1.604
  183DPPC   O11 9111   7.022   3.461   1.808
  183DPPC   C12 9112   6.995   3.433   1.946
  183DPPC   C13 9113   7.072   3.532   2.034
  183DPPC   O14 9114   7.088   3.477   2.165
  183DPPC   C15 9115   7.192   3.539   2.229
  183DPPC   O16 9116   7.296   3.573   2.173
  183DPPC   C17 9117   7.189   3.520   2.380
  183DPPC   C18 9118   7.300   3.429   2.434
  183DPPC   C19 9119   7.274   3.409   2.583
  183DPPC   C20 9120   7.370   3.323   2.666
  183DPPC   C21 9121   7.309   3.328   2.807
  183DPPC   C22 9122   7.406   3.252   2.898
  183DPPC   C23 9123   7.350   3.268   3.039
  183DPPC   C24 9124   7.440   3.222   3.154
  183DPPC   C25 9125   7.361   3.208   3.284
  183DPPC   C26 9126   7.432   3.158   3.410
  183DPPC   C27 9127   7.561   3.235   3.442
  183DPPC   C28 9128   7.619   3.202   3.580
  183DPPC   C29 9129   7.519   3.193   3.695
  183DPPC   C30 9130   7.591   3.139   3.819
  183DPPC   C31 9131   7.656   3.002   3.801
  183DPPC   C32 9132   6.997   3.664   2.020
  183DPPC   O33 9133   7.061   3.776   2.083
  183DPPC   C34 9134   7.169   3.831   2.022
  183DPPC   O35 9135   7.227   3.777   1.928
  183DPPC   C36 9136   7.230   3.954   2.089
  183DPPC   C37 9137   7.321   3.916   2.206
  183DPPC   C38 9138   7.233   3.903   2.330
  183DPPC   C39 9139   7.326   3.885   2.450
  183DPPC   C40 9140   7.235   3.873   2.573
  183DPPC   C41 9141   7.284   3.768   2.673
  183DPPC   C42 9142   7.418   3.824   2.723
  183DPPC   C43 9143   7.477   3.749   2.842
  183DPPC   C44 9144   7.377   3.757   2.958
  183DPPC   C45 9145   7.427   3.707   3.094
  183DPPC   C46 9146   7.326   3.743   3.203
  183DPPC   C47 9147   7.201   3.661   3.172
  183DPPC   C48 9148   7.091   3.673   3.277
  183DPPC   C49 9149   6.998   3.553   3.258
  183DPPC   C50 9150   6.917   3.568   3.129
  184DPPC    C1 9151   1.702   1.705   1.576
  184DPPC    C2 9152   1.492   1.732   1.684
  184DPPC    C3 9153   1.686   1.702   1.806
  184DPPC    N4 9154   1.634   1.772   1.687
  184DPPC    C5 9155   1.660   1.915   1.706
  184DPPC    C6 9156   1.604   2.001   1.592
  184DPPC    O7 9157   1.650   2.136   1.604
  184DPPC    P8 9158   1.577   2.201   1.477
  184DPPC    O9 9159   1.540   2.109   1.367
  184DPPC   O10 9160   1.628   2.340   1.469
  184DPPC   O11 9161   1.448   2.222   1.571
  184DPPC   C12 9162   1.471   2.322   1.671
  184DPPC   C13 9163   1.360   2.335   1.776
  184DPPC   O14 9164   1.378   2.455   1.853
  184DPPC   C15 9165   1.267   2.531   1.876
  184DPPC   O16 9166   1.173   2.509   1.800
  184DPPC   C17 9167   1.287   2.653   1.966
  184DPPC   C18 9168   1.318   2.600   2.106
  184DPPC   C19 9169   1.187   2.549   2.166
  184DPPC   C20 9170   1.204   2.528   2.317
  184DPPC   C21 9171   1.075   2.490   2.390
  184DPPC   C22 9172   1.097   2.505   2.540
  184DPPC   C23 9173   0.972   2.437   2.597
  184DPPC   C24 9174   0.952   2.485   2.741
  184DPPC   C25 9175   0.842   2.427   2.829
  184DPPC   C26 9176   0.829   2.483   2.971
  184DPPC   C27 9177   0.700   2.420   3.023
  184DPPC   C28 9178   0.668   2.446   3.171
  184DPPC   C29 9179   0.774   2.373   3.254
  184DPPC   C30 9180   0.748   2.222   3.248
  184DPPC   C31 9181   0.853   2.159   3.339
  184DPPC   C32 9182   1.349   2.199   1.845
  184DPPC   O33 9183   1.472   2.170   1.911
  184DPPC   C34 9184   1.481   2.051   1.977
  184DPPC   O35 9185   1.443   1.951   1.916
  184DPPC   C36 9186   1.606   2.039   2.065
  184DPPC   C37 9187   1.596   1.944   2.185
  184DPPC   C38 9188   1.722   1.958   2.271
  184DPPC   C39 9189   1.698   1.890   2.406
  184DPPC   C40 9190   1.828   1.919   2.481
  184DPPC   C41 9191   1.845   2.071   2.474
  184DPPC   C42 9192   1.762   2.139   2.583
  184DPPC   C43 9193   1.801   2.071   2.715
  184DPPC   C44 9194   1.763   2.151   2.840
  184DPPC   C45 9195   1.828   2.080   2.959
  184DPPC   C46 9196   1.807   1.930   2.937
  184DPPC   C47 9197   1.886   1.840   3.031
  184DPPC   C48 9198   1.860   1.691   3.011
  184DPPC   C49 9199   1.923   1.612   3.126
  184DPPC   C50 9200   1.874   1.467   3.129
  185DPPC    C1 9201   6.658   7.194   1.479
  185DPPC    C2 9202   6.608   7.281   1.714
  185DPPC    C3 9203   6.482   7.340   1.524
  185DPPC    N4 9204   6.562   7.233   1.584
  185DPPC    C5 9205   6.462   7.128   1.607
  185DPPC    C6 9206   6.495   6.982   1.637
  185DPPC    O7 9207   6.603   6.976   1.730
  185DPPC    P8 9208   6.709   6.862   1.689
  185DPPC    O9 9209   6.834   6.904   1.757
  185DPPC   O10 9210   6.705   6.848   1.542
  185DPPC   O11 9211   6.648   6.745   1.782
  185DPPC   C12 9212   6.663   6.786   1.918
  185DPPC   C13 9213   6.567   6.702   2.003
  185DPPC   O14 9214   6.558   6.727   2.144
  185DPPC   C15 9215   6.446   6.680   2.205
  185DPPC   O16 9216   6.355   6.628   2.140
  185DPPC   C17 9217   6.431   6.715   2.353
  185DPPC   C18 9218   6.296   6.781   2.380
  185DPPC   C19 9219   6.247   6.755   2.523
  185DPPC   C20 9220   6.329   6.820   2.635
  185DPPC   C21 9221   6.280   6.791   2.777
  185DPPC   C22 9222   6.375   6.862   2.873
  185DPPC   C23 9223   6.349   6.826   3.020
  185DPPC   C24 9224   6.446   6.890   3.120
  185DPPC   C25 9225   6.435   6.822   3.257
  185DPPC   C26 9226   6.518   6.910   3.351
  185DPPC   C27 9227   6.556   6.837   3.481
  185DPPC   C28 9228   6.636   6.915   3.585
  185DPPC   C29 9229   6.690   6.817   3.690
  185DPPC   C30 9230   6.585   6.788   3.797
  185DPPC   C31 9231   6.640   6.696   3.906
  185DPPC   C32 9232   6.632   6.565   1.980
  185DPPC   O33 9233   6.774   6.558   1.993
  185DPPC   C34 9234   6.826   6.447   1.934
  185DPPC   O35 9235   6.756   6.369   1.870
  185DPPC   C36 9236   6.977   6.446   1.962
  185DPPC   C37 9237   7.027   6.343   2.063
  185DPPC   C38 9238   7.030   6.395   2.206
  185DPPC   C39 9239   7.064   6.282   2.304
  185DPPC   C40 9240   7.075   6.334   2.447
  185DPPC   C41 9241   7.113   6.227   2.549
  185DPPC   C42 9242   7.243   6.147   2.532
  185DPPC   C43 9243   7.239   6.024   2.624
  185DPPC   C44 9244   7.360   5.935   2.596
  185DPPC   C45 9245   7.364   5.820   2.696
  185DPPC   C46 9246   7.490   5.733   2.699
  185DPPC   C47 9247   7.482   5.636   2.581
  185DPPC   C48 9248   7.602   5.542   2.573
  185DPPC   C49 9249   7.738   5.612   2.569
  185DPPC   C50 9250   7.847   5.510   2.537
  186DPPC    C1 9251   6.811   2.122   1.744
  186DPPC    C2 9252   6.808   2.351   1.738
  186DPPC    C3 9253   6.615   2.234   1.654
  186DPPC    N4 9254   6.719   2.236   1.758
  186DPPC    C5 9255   6.657   2.253   1.890
  186DPPC    C6 9256   6.557   2.147   1.936
  186DPPC    O7 9257   6.611   2.015   1.950
  186DPPC    P8 9258   6.502   1.898   1.962
  186DPPC    O9 9259   6.583   1.775   1.976
  186DPPC   O10 9260   6.418   1.921   1.842
  186DPPC   O11 9261   6.447   1.947   2.105
  186DPPC   C12 9262   6.532   1.872   2.192
  186DPPC   C13 9263   6.497   1.899   2.339
  186DPPC   O14 9264   6.381   1.831   2.387
  186DPPC   C15 9265   6.388   1.695   2.394
  186DPPC   O16 9266   6.478   1.640   2.332
  186DPPC   C17 9267   6.284   1.618   2.477
  186DPPC   C18 9268   6.333   1.556   2.608
  186DPPC   C19 9269   6.338   1.646   2.731
  186DPPC   C20 9270   6.354   1.560   2.857
  186DPPC   C21 9271   6.398   1.656   2.967
  186DPPC   C22 9272   6.382   1.606   3.110
  186DPPC   C23 9273   6.413   1.706   3.222
  186DPPC   C24 9274   6.309   1.818   3.232
  186DPPC   C25 9275   6.342   1.941   3.315
  186DPPC   C26 9276   6.265   2.066   3.273
  186DPPC   C27 9277   6.297   2.174   3.376
  186DPPC   C28 9278   6.221   2.143   3.505
  186DPPC   C29 9279   6.276   2.227   3.621
  186DPPC   C30 9280   6.204   2.192   3.751
  186DPPC   C31 9281   6.263   2.267   3.871
  186DPPC   C32 9282   6.499   2.050   2.361
  186DPPC   O33 9283   6.628   2.096   2.402
  186DPPC   C34 9284   6.638   2.231   2.414
  186DPPC   O35 9285   6.538   2.302   2.416
  186DPPC   C36 9286   6.771   2.289   2.463
  186DPPC   C37 9287   6.789   2.254   2.611
  186DPPC   C38 9288   6.929   2.281   2.665
  186DPPC   C39 9289   6.931   2.213   2.802
  186DPPC   C40 9290   7.079   2.205   2.841
  186DPPC   C41 9291   7.097   2.145   2.981
  186DPPC   C42 9292   7.057   2.238   3.095
  186DPPC   C43 9293   7.059   2.173   3.233
  186DPPC   C44 9294   7.060   2.277   3.345
  186DPPC   C45 9295   7.071   2.219   3.485
  186DPPC   C46 9296   7.018   2.325   3.582
  186DPPC   C47 9297   6.979   2.281   3.723
  186DPPC   C48 9298   6.869   2.174   3.725
  186DPPC   C49 9299   6.731   2.220   3.679
  186DPPC   C50 9300   6.630   2.130   3.751
  187DPPC    C1 9301   9.261   1.212   0.611
  187DPPC    C2 9302   9.038   1.183   0.631
  187DPPC    C3 9303   9.181   1.004   0.547
  187DPPC    N4 9304   9.164   1.109   0.649
  187DPPC    C5 9305   9.191   1.074   0.789
  187DPPC    C6 9306   9.112   0.956   0.845
  187DPPC    O7 9307   8.987   1.001   0.898
  187DPPC    P8 9308   8.935   0.869   0.975
  187DPPC    O9 9309   9.022   0.752   0.953
  187DPPC   O10 9310   8.789   0.845   0.968
  187DPPC   O11 9311   8.988   0.913   1.121
  187DPPC   C12 9312   8.888   0.927   1.222
  187DPPC   C13 9313   8.928   0.951   1.367
  187DPPC   O14 9314   8.836   0.930   1.476
  187DPPC   C15 9315   8.795   0.805   1.512
  187DPPC   O16 9316   8.852   0.710   1.460
  187DPPC   C17 9317   8.690   0.786   1.622
  187DPPC   C18 9318   8.707   0.665   1.713
  187DPPC   C19 9319   8.597   0.646   1.817
  187DPPC   C20 9320   8.459   0.620   1.755
  187DPPC   C21 9321   8.370   0.592   1.876
  187DPPC   C22 9322   8.363   0.726   1.949
  187DPPC   C23 9323   8.348   0.671   2.092
  187DPPC   C24 9324   8.350   0.799   2.176
  187DPPC   C25 9325   8.359   0.779   2.328
  187DPPC   C26 9326   8.375   0.917   2.390
  187DPPC   C27 9327   8.394   0.909   2.542
  187DPPC   C28 9328   8.371   1.041   2.616
  187DPPC   C29 9329   8.390   1.009   2.764
  187DPPC   C30 9330   8.541   0.999   2.789
  187DPPC   C31 9331   8.562   0.996   2.941
  187DPPC   C32 9332   8.975   1.096   1.363
  187DPPC   O33 9333   9.053   1.148   1.471
  187DPPC   C34 9334   9.178   1.094   1.478
  187DPPC   O35 9335   9.231   1.049   1.377
  187DPPC   C36 9336   9.243   1.096   1.617
  187DPPC   C37 9337   9.288   0.958   1.666
  187DPPC   C38 9338   9.176   0.884   1.737
  187DPPC   C39 9339   9.136   0.945   1.872
  187DPPC   C40 9340   9.025   0.857   1.929
  187DPPC   C41 9341   9.075   0.713   1.934
  187DPPC   C42 9342   8.965   0.615   1.975
  187DPPC   C43 9343   8.897   0.661   2.104
  187DPPC   C44 9344   8.795   0.560   2.157
  187DPPC   C45 9345   8.725   0.619   2.279
  187DPPC   C46 9346   8.670   0.517   2.379
  187DPPC   C47 9347   8.619   0.599   2.497
  187DPPC   C48 9348   8.603   0.511   2.621
  187DPPC   C49 9349   8.551   0.601   2.733
  187DPPC   C50 9350   8.479   0.529   2.847
  188DPPC    C1 9351   7.474   2.328   1.675
  188DPPC    C2 9352   7.578   2.122   1.609
  188DPPC    C3 9353   7.348   2.166   1.551
  188DPPC    N4 9354   7.481   2.226   1.569
  188DPPC    C5 9355   7.518   2.291   1.443
  188DPPC    C6 9356   7.654   2.350   1.404
  188DPPC    O7 9357   7.766   2.263   1.418
  188DPPC    P8 9358   7.895   2.359   1.407
  188DPPC    O9 9359   7.868   2.459   1.301
  188DPPC   O10 9360   8.020   2.280   1.414
  188DPPC   O11 9361   7.878   2.440   1.546
  188DPPC   C12 9362   7.897   2.578   1.513
  188DPPC   C13 9363   7.931   2.667   1.633
  188DPPC   O14 9364   8.073   2.674   1.651
  188DPPC   C15 9365   8.122   2.797   1.682
  188DPPC   O16 9366   8.093   2.894   1.613
  188DPPC   C17 9367   8.257   2.787   1.754
  188DPPC   C18 9368   8.255   2.740   1.900
  188DPPC   C19 9369   8.183   2.835   1.997
  188DPPC   C20 9370   8.233   2.815   2.141
  188DPPC   C21 9371   8.209   2.932   2.237
  188DPPC   C22 9372   8.286   2.886   2.360
  188DPPC   C23 9373   8.267   3.001   2.459
  188DPPC   C24 9374   8.353   2.964   2.580
  188DPPC   C25 9375   8.373   3.088   2.666
  188DPPC   C26 9376   8.451   3.063   2.795
  188DPPC   C27 9377   8.454   3.194   2.875
  188DPPC   C28 9378   8.524   3.162   3.007
  188DPPC   C29 9379   8.663   3.103   2.986
  188DPPC   C30 9380   8.714   3.071   3.127
  188DPPC   C31 9381   8.726   2.919   3.142
  188DPPC   C32 9382   7.844   2.609   1.745
  188DPPC   O33 9383   7.828   2.690   1.862
  188DPPC   C34 9384   7.723   2.655   1.941
  188DPPC   O35 9385   7.639   2.576   1.897
  188DPPC   C36 9386   7.693   2.739   2.065
  188DPPC   C37 9387   7.817   2.764   2.150
  188DPPC   C38 9388   7.820   2.867   2.264
  188DPPC   C39 9389   7.713   2.821   2.364
  188DPPC   C40 9390   7.719   2.922   2.478
  188DPPC   C41 9391   7.620   2.894   2.592
  188DPPC   C42 9392   7.678   2.929   2.729
  188DPPC   C43 9393   7.586   2.892   2.846
  188DPPC   C44 9394   7.675   2.915   2.968
  188DPPC   C45 9395   7.634   2.842   3.096
  188DPPC   C46 9396   7.739   2.872   3.203
  188DPPC   C47 9397   7.720   2.800   3.336
  188DPPC   C48 9398   7.851   2.809   3.413
  188DPPC   C49 9399   7.836   2.748   3.553
  188DPPC   C50 9400   7.951   2.776   3.649
  189DPPC    C1 9401   9.015   3.657   1.256
  189DPPC    C2 9402   8.894   3.467   1.346
  189DPPC    C3 9403   8.934   3.667   1.479
  189DPPC    N4 9404   8.906   3.614   1.345
  189DPPC    C5 9405   8.773   3.653   1.298
  189DPPC    C6 9406   8.725   3.797   1.318
  189DPPC    O7 9407   8.826   3.891   1.280
  189DPPC    P8 9408   8.785   4.046   1.269
  189DPPC    O9 9409   8.640   4.046   1.240
  189DPPC   O10 9410   8.882   4.114   1.180
  189DPPC   O11 9411   8.806   4.079   1.425
  189DPPC   C12 9412   8.947   4.071   1.449
  189DPPC   C13 9413   9.004   4.147   1.568
  189DPPC   O14 9414   8.977   4.096   1.699
  189DPPC   C15 9415   9.037   3.981   1.741
  189DPPC   O16 9416   9.092   3.908   1.659
  189DPPC   C17 9417   9.001   3.939   1.883
  189DPPC   C18 9418   9.042   4.045   1.986
  189DPPC   C19 9419   8.953   4.035   2.110
  189DPPC   C20 9420   8.808   4.068   2.076
  189DPPC   C21 9421   8.740   4.123   2.202
  189DPPC   C22 9422   8.591   4.147   2.179
  189DPPC   C23 9423   8.541   4.182   2.320
  189DPPC   C24 9424   8.400   4.240   2.306
  189DPPC   C25 9425   8.350   4.301   2.437
  189DPPC   C26 9426   8.348   4.215   2.564
  189DPPC   C27 9427   8.296   4.286   2.689
  189DPPC   C28 9428   8.275   4.197   2.812
  189DPPC   C29 9429   8.405   4.180   2.889
  189DPPC   C30 9430   8.403   4.214   3.038
  189DPPC   C31 9431   8.298   4.131   3.114
  189DPPC   C32 9432   8.980   4.297   1.547
  189DPPC   O33 9433   9.065   4.383   1.623
  189DPPC   C34 9434   9.082   4.511   1.582
  189DPPC   O35 9435   9.053   4.547   1.467
  189DPPC   C36 9436   9.163   4.603   1.674
  189DPPC   C37 9437   9.071   4.675   1.773
  189DPPC   C38 9438   9.027   4.594   1.896
  189DPPC   C39 9439   8.904   4.663   1.954
  189DPPC   C40 9440   8.881   4.634   2.102
  189DPPC   C41 9441   8.761   4.704   2.167
  189DPPC   C42 9442   8.790   4.697   2.316
  189DPPC   C43 9443   8.771   4.553   2.362
  189DPPC   C44 9444   8.748   4.552   2.513
  189DPPC   C45 9445   8.720   4.415   2.576
  189DPPC   C46 9446   8.673   4.449   2.718
  189DPPC   C47 9447   8.777   4.543   2.780
  189DPPC   C48 9448   8.714   4.601   2.906
  189DPPC   C49 9449   8.647   4.491   2.988
  189DPPC   C50 9450   8.585   4.561   3.109
  190DPPC    C1 9451   5.095   7.117   1.673
  190DPPC    C2 9452   4.862   7.184   1.632
  190DPPC    C3 9453   4.965   7.220   1.846
  190DPPC    N4 9454   4.988   7.213   1.701
  190DPPC    C5 9455   5.026   7.353   1.672
  190DPPC    C6 9456   5.157   7.404   1.732
  190DPPC    O7 9457   5.135   7.498   1.837
  190DPPC    P8 9458   5.281   7.552   1.876
  190DPPC    O9 9459   5.240   7.641   1.986
  190DPPC   O10 9460   5.358   7.590   1.755
  190DPPC   O11 9461   5.322   7.409   1.936
  190DPPC   C12 9462   5.261   7.397   2.064
  190DPPC   C13 9463   5.244   7.248   2.095
  190DPPC   O14 9464   5.127   7.202   2.165
  190DPPC   C15 9465   5.098   7.071   2.146
  190DPPC   O16 9466   5.148   6.993   2.065
  190DPPC   C17 9467   4.984   7.027   2.238
  190DPPC   C18 9468   5.042   6.934   2.344
  190DPPC   C19 9469   5.156   7.002   2.420
  190DPPC   C20 9470   5.241   6.886   2.470
  190DPPC   C21 9471   5.393   6.907   2.472
  190DPPC   C22 9472   5.452   6.828   2.589
  190DPPC   C23 9473   5.600   6.863   2.611
  190DPPC   C24 9474   5.635   6.819   2.753
  190DPPC   C25 9475   5.630   6.666   2.762
  190DPPC   C26 9476   5.728   6.589   2.673
  190DPPC   C27 9477   5.683   6.443   2.677
  190DPPC   C28 9478   5.714   6.381   2.813
  190DPPC   C29 9479   5.700   6.228   2.815
  190DPPC   C30 9480   5.760   6.179   2.947
  190DPPC   C31 9481   5.719   6.036   2.980
  190DPPC   C32 9482   5.381   7.212   2.152
  190DPPC   O33 9483   5.424   7.280   2.271
  190DPPC   C34 9484   5.556   7.245   2.277
  190DPPC   O35 9485   5.585   7.134   2.235
  190DPPC   C36 9486   5.652   7.356   2.321
  190DPPC   C37 9487   5.649   7.372   2.473
  190DPPC   C38 9488   5.717   7.502   2.516
  190DPPC   C39 9489   5.868   7.483   2.531
  190DPPC   C40 9490   5.932   7.600   2.606
  190DPPC   C41 9491   5.908   7.729   2.528
  190DPPC   C42 9492   5.953   7.853   2.606
  190DPPC   C43 9493   5.868   7.865   2.733
  190DPPC   C44 9494   5.919   7.971   2.831
  190DPPC   C45 9495   5.837   7.990   2.959
  190DPPC   C46 9496   5.903   8.090   3.054
  190DPPC   C47 9497   5.826   8.115   3.184
  190DPPC   C48 9498   5.905   8.205   3.279
  190DPPC   C49 9499   5.829   8.219   3.411
  190DPPC   C50 9500   5.906   8.265   3.535
  191DPPC    C1 9501   1.046   2.206   1.297
  191DPPC    C2 9502   1.231   2.086   1.191
  191DPPC    C3 9503   1.189   2.067   1.429
  191DPPC    N4 9504   1.128   2.084   1.296
  191DPPC    C5 9505   1.048   1.969   1.251
  191DPPC    C6 9506   0.955   1.899   1.350
  191DPPC    O7 9507   0.857   1.980   1.415
  191DPPC    P8 9508   0.762   1.891   1.510
  191DPPC    O9 9509   0.866   1.811   1.580
  191DPPC   O10 9510   0.682   1.841   1.397
  191DPPC   O11 9511   0.696   2.023   1.573
  191DPPC   C12 9512   0.757   2.027   1.702
  191DPPC   C13 9513   0.771   2.169   1.756
  191DPPC   O14 9514   0.852   2.195   1.872
  191DPPC   C15 9515   0.980   2.152   1.889
  191DPPC   O16 9516   1.051   2.135   1.790
  191DPPC   C17 9517   1.040   2.164   2.030
  191DPPC   C18 9518   1.050   2.026   2.094
  191DPPC   C19 9519   1.102   2.051   2.236
  191DPPC   C20 9520   1.232   2.132   2.243
  191DPPC   C21 9521   1.287   2.090   2.380
  191DPPC   C22 9522   1.346   2.207   2.457
  191DPPC   C23 9523   1.356   2.170   2.605
  191DPPC   C24 9524   1.416   2.283   2.688
  191DPPC   C25 9525   1.379   2.257   2.834
  191DPPC   C26 9526   1.228   2.242   2.857
  191DPPC   C27 9527   1.197   2.191   2.998
  191DPPC   C28 9528   1.282   2.067   3.027
  191DPPC   C29 9529   1.236   2.014   3.163
  191DPPC   C30 9530   1.300   1.882   3.209
  191DPPC   C31 9531   1.246   1.833   3.343
  191DPPC   C32 9532   0.624   2.208   1.775
  191DPPC   O33 9533   0.548   2.127   1.865
  191DPPC   C34 9534   0.412   2.130   1.858
  191DPPC   O35 9535   0.351   2.198   1.776
  191DPPC   C36 9536   0.344   2.018   1.937
  191DPPC   C37 9537   0.268   2.061   2.062
  191DPPC   C38 9538   0.230   1.933   2.137
  191DPPC   C39 9539   0.190   1.971   2.280
  191DPPC   C40 9540   0.064   2.057   2.277
  191DPPC   C41 9541   0.017   2.054   2.422
  191DPPC   C42 9542  -0.003   1.906   2.453
  191DPPC   C43 9543  -0.024   1.882   2.603
  191DPPC   C44 9544  -0.136   1.965   2.665
  191DPPC   C45 9545  -0.170   1.874   2.783
  191DPPC   C46 9546  -0.285   1.943   2.857
  191DPPC   C47 9547  -0.255   2.063   2.947
  191DPPC   C48 9548  -0.382   2.109   3.019
  191DPPC   C49 9549  -0.434   1.984   3.090
  191DPPC   C50 9550  -0.564   1.983   3.170
  192DPPC    C1 9551   4.861   1.008   1.683
  192DPPC    C2 9552   4.851   0.769   1.690
  192DPPC    C3 9553   5.063   0.877   1.667
  192DPPC    N4 9554   4.930   0.887   1.729
  192DPPC    C5 9555   4.944   0.873   1.875
  192DPPC    C6 9556   4.997   0.977   1.973
  192DPPC    O7 9557   4.931   1.103   1.961
  192DPPC    P8 9558   5.017   1.211   2.044
  192DPPC    O9 9559   4.955   1.340   2.008
  192DPPC   O10 9560   5.157   1.178   2.010
  192DPPC   O11 9561   4.980   1.186   2.198
  192DPPC   C12 9562   4.864   1.251   2.250
  192DPPC   C13 9563   4.870   1.243   2.402
  192DPPC   O14 9564   4.749   1.288   2.464
  192DPPC   C15 9565   4.642   1.205   2.450
  192DPPC   O16 9566   4.641   1.101   2.383
  192DPPC   C17 9567   4.510   1.258   2.507
  192DPPC   C18 9568   4.526   1.382   2.595
  192DPPC   C19 9569   4.396   1.434   2.656
  192DPPC   C20 9570   4.346   1.355   2.777
  192DPPC   C21 9571   4.226   1.421   2.846
  192DPPC   C22 9572   4.172   1.324   2.951
  192DPPC   C23 9573   4.255   1.314   3.079
  192DPPC   C24 9574   4.191   1.223   3.183
  192DPPC   C25 9575   4.289   1.204   3.298
  192DPPC   C26 9576   4.424   1.176   3.230
  192DPPC   C27 9577   4.500   1.089   3.331
  192DPPC   C28 9578   4.596   1.008   3.244
  192DPPC   C29 9579   4.672   0.908   3.332
  192DPPC   C30 9580   4.762   0.825   3.239
  192DPPC   C31 9581   4.897   0.888   3.206
  192DPPC   C32 9582   5.000   1.309   2.450
  192DPPC   O33 9583   5.039   1.263   2.579
  192DPPC   C34 9584   5.167   1.290   2.617
  192DPPC   O35 9585   5.259   1.280   2.536
  192DPPC   C36 9586   5.183   1.261   2.767
  192DPPC   C37 9587   5.241   1.120   2.776
  192DPPC   C38 9588   5.256   1.110   2.928
  192DPPC   C39 9589   5.221   0.968   2.973
  192DPPC   C40 9590   5.289   0.947   3.109
  192DPPC   C41 9591   5.325   0.803   3.143
  192DPPC   C42 9592   5.382   0.796   3.285
  192DPPC   C43 9593   5.421   0.655   3.329
  192DPPC   C44 9594   5.460   0.635   3.476
  192DPPC   C45 9595   5.447   0.489   3.519
  192DPPC   C46 9596   5.525   0.407   3.415
  192DPPC   C47 9597   5.524   0.261   3.460
  192DPPC   C48 9598   5.604   0.179   3.360
  192DPPC   C49 9599   5.638   0.039   3.411
  192DPPC   C50 9600   5.517  -0.037   3.465
  193DPPC    C1 9601   5.484   5.665   6.044
  193DPPC    C2 9602   5.349   5.477   6.039
  193DPPC    C3 9603   5.307   5.666   5.905
  193DPPC    N4 9604   5.413   5.576   5.952
  193DPPC    C5 9605   5.506   5.517   5.854
  193DPPC    C6 9606   5.459   5.391   5.782
  193DPPC    O7 9607   5.527   5.373   5.657
  193DPPC    P8 9608   5.496   5.217   5.628
  193DPPC    O9 9609   5.462   5.153   5.757
  193DPPC   O10 9610   5.603   5.158   5.545
  193DPPC   O11 9611   5.368   5.229   5.531
  193DPPC   C12 9612   5.392   5.192   5.395
  193DPPC   C13 9613   5.279   5.238   5.302
  193DPPC   O14 9614   5.270   5.143   5.195
  193DPPC   C15 9615   5.185   5.037   5.208
  193DPPC   O16 9616   5.096   5.044   5.292
  193DPPC   C17 9617   5.181   4.945   5.086
  193DPPC   C18 9618   5.321   4.929   5.027
  193DPPC   C19 9619   5.315   4.814   4.928
  193DPPC   C20 9620   5.415   4.835   4.814
  193DPPC   C21 9621   5.413   4.710   4.725
  193DPPC   C22 9622   5.529   4.722   4.626
  193DPPC   C23 9623   5.531   4.594   4.541
  193DPPC   C24 9624   5.616   4.639   4.422
  193DPPC   C25 9625   5.630   4.527   4.318
  193DPPC   C26 9626   5.690   4.591   4.192
  193DPPC   C27 9627   5.833   4.638   4.219
  193DPPC   C28 9628   5.886   4.721   4.101
  193DPPC   C29 9629   5.890   4.639   3.972
  193DPPC   C30 9630   5.962   4.723   3.867
  193DPPC   C31 9631   5.870   4.826   3.801
  193DPPC   C32 9632   5.300   5.384   5.262
  193DPPC   O33 9633   5.416   5.409   5.182
  193DPPC   C34 9634   5.369   5.432   5.057
  193DPPC   O35 9635   5.260   5.483   5.035
  193DPPC   C36 9636   5.481   5.424   4.952
  193DPPC   C37 9637   5.520   5.277   4.935
  193DPPC   C38 9638   5.662   5.267   4.878
  193DPPC   C39 9639   5.667   5.118   4.847
  193DPPC   C40 9640   5.805   5.070   4.800
  193DPPC   C41 9641   5.817   4.917   4.793
  193DPPC   C42 9642   5.946   4.869   4.727
  193DPPC   C43 9643   5.981   4.725   4.765
  193DPPC   C44 9644   6.099   4.690   4.674
  193DPPC   C45 9645   6.066   4.719   4.527
  193DPPC   C46 9646   6.176   4.668   4.433
  193DPPC   C47 9647   6.193   4.516   4.446
  193DPPC   C48 9648   6.308   4.467   4.359
  193DPPC   C49 9649   6.268   4.475   4.212
  193DPPC   C50 9650   6.379   4.401   4.136
  194DPPC    C1 9651   8.056   5.452   0.916
  194DPPC    C2 9652   7.893   5.626   0.955
  194DPPC    C3 9653   7.880   5.478   0.766
  194DPPC    N4 9654   7.914   5.488   0.909
  194DPPC    C5 9655   7.813   5.404   0.975
  194DPPC    C6 9656   7.822   5.251   0.977
  194DPPC    O7 9657   7.912   5.208   1.079
  194DPPC    P8 9658   7.909   5.048   1.095
  194DPPC    O9 9659   7.935   5.005   0.955
  194DPPC   O10 9660   7.776   5.020   1.154
  194DPPC   O11 9661   8.031   5.019   1.196
  194DPPC   C12 9662   7.999   5.074   1.324
  194DPPC   C13 9663   8.076   5.197   1.373
  194DPPC   O14 9664   8.167   5.166   1.479
  194DPPC   C15 9665   8.251   5.251   1.543
  194DPPC   O16 9666   8.264   5.365   1.499
  194DPPC   C17 9667   8.342   5.204   1.657
  194DPPC   C18 9668   8.287   5.097   1.751
  194DPPC   C19 9669   8.400   5.000   1.786
  194DPPC   C20 9670   8.457   4.984   1.927
  194DPPC   C21 9671   8.350   4.913   2.009
  194DPPC   C22 9672   8.391   4.896   2.155
  194DPPC   C23 9673   8.326   4.773   2.219
  194DPPC   C24 9674   8.294   4.810   2.363
  194DPPC   C25 9675   8.212   4.699   2.428
  194DPPC   C26 9676   8.215   4.727   2.579
  194DPPC   C27 9677   8.354   4.713   2.641
  194DPPC   C28 9678   8.334   4.716   2.792
  194DPPC   C29 9679   8.243   4.823   2.854
  194DPPC   C30 9680   8.260   4.834   3.006
  194DPPC   C31 9681   8.178   4.955   3.052
  194DPPC   C32 9682   7.965   5.290   1.421
  194DPPC   O33 9683   7.881   5.250   1.530
  194DPPC   C34 9684   7.768   5.323   1.547
  194DPPC   O35 9685   7.749   5.417   1.469
  194DPPC   C36 9686   7.686   5.287   1.670
  194DPPC   C37 9687   7.550   5.356   1.672
  194DPPC   C38 9688   7.476   5.335   1.804
  194DPPC   C39 9689   7.347   5.417   1.807
  194DPPC   C40 9690   7.252   5.392   1.924
  194DPPC   C41 9691   7.187   5.253   1.921
  194DPPC   C42 9692   7.109   5.235   2.051
  194DPPC   C43 9693   7.203   5.242   2.172
  194DPPC   C44 9694   7.130   5.246   2.307
  194DPPC   C45 9695   7.241   5.280   2.406
  194DPPC   C46 9696   7.194   5.254   2.549
  194DPPC   C47 9697   7.293   5.289   2.660
  194DPPC   C48 9698   7.228   5.253   2.793
  194DPPC   C49 9699   7.329   5.281   2.904
  194DPPC   C50 9700   7.454   5.196   2.882
  195DPPC    C1 9701   2.562   3.494   5.452
  195DPPC    C2 9702   2.352   3.555   5.397
  195DPPC    C3 9703   2.484   3.508   5.216
  195DPPC    N4 9704   2.458   3.462   5.353
  195DPPC    C5 9705   2.402   3.327   5.368
  195DPPC    C6 9706   2.463   3.208   5.294
  195DPPC    O7 9707   2.588   3.165   5.349
  195DPPC    P8 9708   2.632   3.019   5.297
  195DPPC    O9 9709   2.597   3.020   5.153
  195DPPC   O10 9710   2.578   2.921   5.395
  195DPPC   O11 9711   2.792   3.031   5.304
  195DPPC   C12 9712   2.823   3.138   5.215
  195DPPC   C13 9713   2.895   3.267   5.258
  195DPPC   O14 9714   2.875   3.365   5.155
  195DPPC   C15 9715   2.906   3.497   5.170
  195DPPC   O16 9716   2.888   3.542   5.283
  195DPPC   C17 9717   2.904   3.586   5.046
  195DPPC   C18 9718   3.011   3.544   4.946
  195DPPC   C19 9719   2.997   3.635   4.824
  195DPPC   C20 9720   3.061   3.573   4.700
  195DPPC   C21 9721   2.979   3.449   4.664
  195DPPC   C22 9722   3.010   3.393   4.526
  195DPPC   C23 9723   2.962   3.503   4.431
  195DPPC   C24 9724   2.992   3.483   4.282
  195DPPC   C25 9725   2.946   3.349   4.224
  195DPPC   C26 9726   2.981   3.330   4.076
  195DPPC   C27 9727   3.132   3.346   4.059
  195DPPC   C28 9728   3.154   3.354   3.908
  195DPPC   C29 9729   3.124   3.216   3.848
  195DPPC   C30 9730   3.218   3.121   3.922
  195DPPC   C31 9731   3.210   2.978   3.868
  195DPPC   C32 9732   3.041   3.229   5.282
  195DPPC   O33 9733   3.094   3.137   5.186
  195DPPC   C34 9734   3.225   3.105   5.204
  195DPPC   O35 9735   3.284   3.152   5.300
  195DPPC   C36 9736   3.292   3.007   5.108
  195DPPC   C37 9737   3.359   3.093   5.001
  195DPPC   C38 9738   3.377   3.011   4.872
  195DPPC   C39 9739   3.242   3.000   4.801
  195DPPC   C40 9740   3.276   2.944   4.662
  195DPPC   C41 9741   3.171   2.977   4.555
  195DPPC   C42 9742   3.233   2.935   4.422
  195DPPC   C43 9743   3.139   2.952   4.302
  195DPPC   C44 9744   2.997   2.898   4.315
  195DPPC   C45 9745   2.920   2.916   4.184
  195DPPC   C46 9746   2.772   2.879   4.199
  195DPPC   C47 9747   2.673   2.933   4.096
  195DPPC   C48 9748   2.673   3.085   4.078
  195DPPC   C49 9749   2.640   3.138   3.939
  195DPPC   C50 9750   2.642   3.289   3.964
  196DPPC    C1 9751   0.696   0.069   1.503
  196DPPC    C2 9752   0.557   0.223   1.404
  196DPPC    C3 9753   0.526   0.179   1.639
  196DPPC    N4 9754   0.625   0.194   1.531
  196DPPC    C5 9755   0.728   0.298   1.545
  196DPPC    C6 9756   0.689   0.446   1.551
  196DPPC    O7 9757   0.576   0.489   1.628
  196DPPC    P8 9758   0.574   0.650   1.623
  196DPPC    O9 9759   0.439   0.701   1.590
  196DPPC   O10 9760   0.689   0.697   1.541
  196DPPC   O11 9761   0.636   0.689   1.766
  196DPPC   C12 9762   0.523   0.674   1.851
  196DPPC   C13 9763   0.558   0.648   1.998
  196DPPC   O14 9764   0.446   0.604   2.076
  196DPPC   C15 9765   0.400   0.478   2.054
  196DPPC   O16 9766   0.465   0.396   1.990
  196DPPC   C17 9767   0.264   0.433   2.109
  196DPPC   C18 9768   0.274   0.414   2.261
  196DPPC   C19 9769   0.151   0.362   2.336
  196DPPC   C20 9770   0.194   0.359   2.483
  196DPPC   C21 9771   0.097   0.297   2.583
  196DPPC   C22 9772   0.198   0.230   2.677
  196DPPC   C23 9773   0.115   0.186   2.797
  196DPPC   C24 9774   0.207   0.132   2.906
  196DPPC   C25 9775   0.114   0.072   3.012
  196DPPC   C26 9776   0.183  -0.026   3.107
  196DPPC   C27 9777   0.216  -0.162   3.044
  196DPPC   C28 9778   0.269  -0.260   3.149
  196DPPC   C29 9779   0.315  -0.395   3.092
  196DPPC   C30 9780   0.330  -0.525   3.171
  196DPPC   C31 9781   0.361  -0.642   3.078
  196DPPC   C32 9782   0.644   0.766   2.043
  196DPPC   O33 9783   0.580   0.890   2.010
  196DPPC   C34 9784   0.648   1.008   2.008
  196DPPC   O35 9785   0.765   1.000   2.043
  196DPPC   C36 9786   0.568   1.133   1.972
  196DPPC   C37 9787   0.497   1.211   2.083
  196DPPC   C38 9788   0.400   1.314   2.026
  196DPPC   C39 9789   0.322   1.375   2.143
  196DPPC   C40 9790   0.252   1.268   2.226
  196DPPC   C41 9791   0.175   1.335   2.340
  196DPPC   C42 9792   0.110   1.229   2.429
  196DPPC   C43 9793   0.037   1.298   2.545
  196DPPC   C44 9794  -0.020   1.193   2.641
  196DPPC   C45 9795  -0.046   1.242   2.784
  196DPPC   C46 9796  -0.120   1.142   2.873
  196DPPC   C47 9797  -0.166   1.205   3.005
  196DPPC   C48 9798  -0.230   1.101   3.097
  196DPPC   C49 9799  -0.131   1.053   3.203
  196DPPC   C50 9800  -0.199   0.982   3.320
  197DPPC    C1 9801   8.881   1.989   5.654
  197DPPC    C2 9802   8.930   1.753   5.670
  197DPPC    C3 9803   8.770   1.839   5.520
  197DPPC    N4 9804   8.902   1.865   5.578
  197DPPC    C5 9805   9.016   1.880   5.487
  197DPPC    C6 9806   9.056   1.761   5.398
  197DPPC    O7 9807   8.956   1.706   5.312
  197DPPC    P8 9808   9.027   1.612   5.202
  197DPPC    O9 9809   8.928   1.521   5.139
  197DPPC   O10 9810   9.161   1.570   5.250
  197DPPC   O11 9811   9.056   1.732   5.100
  197DPPC   C12 9812   8.930   1.780   5.052
  197DPPC   C13 9813   8.931   1.925   5.001
  197DPPC   O14 9814   8.804   1.981   4.966
  197DPPC   C15 9815   8.786   2.114   4.989
  197DPPC   O16 9816   8.839   2.163   5.088
  197DPPC   C17 9817   8.674   2.184   4.913
  197DPPC   C18 9818   8.723   2.218   4.772
  197DPPC   C19 9819   8.598   2.234   4.685
  197DPPC   C20 9820   8.642   2.289   4.550
  197DPPC   C21 9821   8.524   2.320   4.458
  197DPPC   C22 9822   8.565   2.343   4.312
  197DPPC   C23 9823   8.440   2.383   4.234
  197DPPC   C24 9824   8.346   2.469   4.319
  197DPPC   C25 9825   8.233   2.516   4.227
  197DPPC   C26 9826   8.200   2.390   4.145
  197DPPC   C27 9827   8.082   2.434   4.058
  197DPPC   C28 9828   8.035   2.306   3.989
  197DPPC   C29 9829   7.909   2.349   3.914
  197DPPC   C30 9830   7.837   2.222   3.867
  197DPPC   C31 9831   7.918   2.124   3.782
  197DPPC   C32 9832   9.030   1.914   4.885
  197DPPC   O33 9833   9.065   2.035   4.818
  197DPPC   C34 9834   9.163   2.030   4.723
  197DPPC   O35 9835   9.246   1.939   4.719
  197DPPC   C36 9836   9.179   2.154   4.636
  197DPPC   C37 9837   9.057   2.171   4.544
  197DPPC   C38 9838   9.066   2.277   4.434
  197DPPC   C39 9839   8.951   2.285   4.334
  197DPPC   C40 9840   8.982   2.424   4.279
  197DPPC   C41 9841   8.952   2.538   4.376
  197DPPC   C42 9842   9.001   2.675   4.328
  197DPPC   C43 9843   8.965   2.785   4.427
  197DPPC   C44 9844   9.045   2.914   4.402
  197DPPC   C45 9845   9.018   3.016   4.512
  197DPPC   C46 9846   9.132   3.117   4.529
  197DPPC   C47 9847   9.067   3.216   4.625
  197DPPC   C48 9848   9.158   3.332   4.669
  197DPPC   C49 9849   9.099   3.415   4.783
  197DPPC   C50 9850   9.081   3.331   4.909
  198DPPC    C1 9851   4.009   4.782   5.240
  198DPPC    C2 9852   3.799   4.719   5.320
  198DPPC    C3 9853   3.983   4.710   5.468
  198DPPC    N4 9854   3.923   4.788   5.359
  198DPPC    C5 9855   3.893   4.925   5.404
  198DPPC    C6 9856   3.996   5.007   5.483
  198DPPC    O7 9857   4.097   5.059   5.397
  198DPPC    P8 9858   4.234   5.053   5.483
  198DPPC    O9 9859   4.259   4.908   5.462
  198DPPC   O10 9860   4.218   5.119   5.614
  198DPPC   O11 9861   4.320   5.138   5.377
  198DPPC   C12 9862   4.372   5.049   5.278
  198DPPC   C13 9863   4.447   5.110   5.159
  198DPPC   O14 9864   4.570   5.182   5.171
  198DPPC   C15 9865   4.677   5.099   5.188
  198DPPC   O16 9866   4.672   4.986   5.235
  198DPPC   C17 9867   4.818   5.152   5.162
  198DPPC   C18 9868   4.820   5.224   5.027
  198DPPC   C19 9869   4.949   5.273   4.961
  198DPPC   C20 9870   4.925   5.321   4.817
  198DPPC   C21 9871   5.060   5.350   4.752
  198DPPC   C22 9872   5.135   5.221   4.719
  198DPPC   C23 9873   5.249   5.263   4.626
  198DPPC   C24 9874   5.327   5.152   4.556
  198DPPC   C25 9875   5.471   5.192   4.523
  198DPPC   C26 9876   5.537   5.085   4.436
  198DPPC   C27 9877   5.682   5.114   4.398
  198DPPC   C28 9878   5.715   5.037   4.270
  198DPPC   C29 9879   5.857   5.074   4.229
  198DPPC   C30 9880   5.951   5.041   4.345
  198DPPC   C31 9881   6.104   5.040   4.336
  198DPPC   C32 9882   4.334   5.180   5.083
  198DPPC   O33 9883   4.230   5.095   5.036
  198DPPC   C34 9884   4.126   5.158   4.974
  198DPPC   O35 9885   4.129   5.278   4.947
  198DPPC   C36 9886   3.999   5.081   4.940
  198DPPC   C37 9887   4.057   4.948   4.891
  198DPPC   C38 9888   4.117   4.948   4.750
  198DPPC   C39 9889   4.179   4.811   4.724
  198DPPC   C40 9890   4.238   4.811   4.583
  198DPPC   C41 9891   4.295   4.674   4.548
  198DPPC   C42 9892   4.403   4.690   4.441
  198DPPC   C43 9893   4.500   4.573   4.428
  198DPPC   C44 9894   4.601   4.597   4.316
  198DPPC   C45 9895   4.719   4.500   4.305
  198DPPC   C46 9896   4.819   4.533   4.194
  198DPPC   C47 9897   4.936   4.435   4.185
  198DPPC   C48 9898   4.897   4.290   4.158
  198DPPC   C49 9899   5.018   4.204   4.121
  198DPPC   C50 9900   4.967   4.068   4.073
  199DPPC    C1 9901   6.997   6.245   5.282
  199DPPC    C2 9902   6.950   6.468   5.217
  199DPPC    C3 9903   6.863   6.294   5.094
  199DPPC    N4 9904   6.891   6.334   5.233
  199DPPC    C5 9905   6.774   6.324   5.322
  199DPPC    C6 9906   6.665   6.430   5.311
  199DPPC    O7 9907   6.581   6.405   5.198
  199DPPC    P8 9908   6.459   6.510   5.195
  199DPPC    O9 9909   6.532   6.639   5.183
  199DPPC   O10 9910   6.366   6.472   5.303
  199DPPC   O11 9911   6.392   6.455   5.060
  199DPPC   C12 9912   6.491   6.398   4.973
  199DPPC   C13 9913   6.459   6.421   4.825
  199DPPC   O14 9914   6.548   6.361   4.730
  199DPPC   C15 9915   6.532   6.230   4.698
  199DPPC   O16 9916   6.462   6.162   4.773
  199DPPC   C17 9917   6.599   6.170   4.575
  199DPPC   C18 9918   6.555   6.221   4.437
  199DPPC   C19 9919   6.642   6.146   4.336
  199DPPC   C20 9920   6.610   6.211   4.202
  199DPPC   C21 9921   6.692   6.128   4.103
  199DPPC   C22 9922   6.687   6.188   3.963
  199DPPC   C23 9923   6.786   6.304   3.954
  199DPPC   C24 9924   6.780   6.352   3.809
  199DPPC   C25 9925   6.868   6.278   3.710
  199DPPC   C26 9926   6.867   6.359   3.580
  199DPPC   C27 9927   6.922   6.500   3.604
  199DPPC   C28 9928   6.922   6.581   3.474
  199DPPC   C29 9929   7.005   6.708   3.491
  199DPPC   C30 9930   7.035   6.789   3.364
  199DPPC   C31 9931   7.109   6.917   3.401
  199DPPC   C32 9932   6.444   6.573   4.820
  199DPPC   O33 9933   6.549   6.660   4.864
  199DPPC   C34 9934   6.515   6.792   4.857
  199DPPC   O35 9935   6.401   6.825   4.828
  199DPPC   C36 9936   6.620   6.889   4.910
  199DPPC   C37 9937   6.620   7.019   4.829
  199DPPC   C38 9938   6.535   7.130   4.890
  199DPPC   C39 9939   6.507   7.249   4.797
  199DPPC   C40 9940   6.440   7.201   4.669
  199DPPC   C41 9941   6.421   7.323   4.579
  199DPPC   C42 9942   6.559   7.379   4.543
  199DPPC   C43 9943   6.635   7.293   4.442
  199DPPC   C44 9944   6.767   7.364   4.413
  199DPPC   C45 9945   6.755   7.504   4.352
  199DPPC   C46 9946   6.891   7.546   4.297
  199DPPC   C47 9947   6.949   7.447   4.195
  199DPPC   C48 9948   7.089   7.489   4.148
  199DPPC   C49 9949   7.179   7.500   4.271
  199DPPC   C50 9950   7.324   7.538   4.237
  200DPPC    C1 9951   2.695   7.506   5.007
  200DPPC    C2 9952   2.777   7.374   5.200
  200DPPC    C3 9953   2.827   7.594   5.164
  200DPPC    N4 9954   2.716   7.499   5.152
  200DPPC    C5 9955   2.612   7.562   5.236
  200DPPC    C6 9956   2.471   7.506   5.223
  200DPPC    O7 9957   2.450   7.366   5.246
  200DPPC    P8 9958   2.300   7.314   5.224
  200DPPC    O9 9959   2.204   7.421   5.258
  200DPPC   O10 9960   2.307   7.190   5.304
  200DPPC   O11 9961   2.308   7.297   5.064
  200DPPC   C12 9962   2.389   7.180   5.046
  200DPPC   C13 9963   2.370   7.121   4.906
  200DPPC   O14 9964   2.452   7.168   4.797
  200DPPC   C15 9965   2.587   7.152   4.798
  200DPPC   O16 9966   2.657   7.146   4.899
  200DPPC   C17 9967   2.638   7.177   4.656
  200DPPC   C18 9968   2.734   7.065   4.615
  200DPPC   C19 9969   2.783   7.104   4.475
  200DPPC   C20 9970   2.892   7.008   4.428
  200DPPC   C21 9971   2.943   7.029   4.286
  200DPPC   C22 9972   2.837   7.016   4.175
  200DPPC   C23 9973   2.912   7.022   4.042
  200DPPC   C24 9974   2.827   7.019   3.914
  200DPPC   C25 9975   2.903   7.032   3.783
  200DPPC   C26 9976   2.978   7.164   3.765
  200DPPC   C27 9977   3.053   7.174   3.631
  200DPPC   C28 9978   3.152   7.290   3.624
  200DPPC   C29 9979   3.219   7.291   3.487
  200DPPC   C30 9980   3.300   7.162   3.469
  200DPPC   C31 9981   3.398   7.151   3.352
  200DPPC   C32 9982   2.218   7.109   4.898
  200DPPC   O33 9983   2.170   7.028   4.791
  200DPPC   C34 9984   2.035   7.016   4.799
  200DPPC   O35 9985   1.968   7.032   4.901
  200DPPC   C36 9986   1.980   6.943   4.676
  200DPPC   C37 9987   1.940   7.028   4.556
  200DPPC   C38 9988   1.903   6.938   4.437
  200DPPC   C39 9989   2.031   6.884   4.373
  200DPPC   C40 9990   2.012   6.772   4.270
  200DPPC   C41 9991   2.140   6.722   4.203
  200DPPC   C42 9992   2.095   6.615   4.104
  200DPPC   C43 9993   1.976   6.669   4.024
  200DPPC   C44 9994   1.904   6.558   3.948
  200DPPC   C45 9995   1.756   6.593   3.927
  200DPPC   C46 9996   1.727   6.728   3.861
  200DPPC   C47 9997   1.583   6.741   3.810
  200DPPC   C48 9998   1.552   6.888   3.784
  200DPPC   C49 9999   1.410   6.924   3.739
  200DPPC   C5010000   1.391   7.075   3.721
  201DPPC    C110001   7.846   1.443   5.634
  201DPPC    C210002   7.856   1.510   5.867
  201DPPC    C310003   7.880   1.286   5.813
  201DPPC    N410004   7.911   1.421   5.764
  201DPPC    C510005   8.057   1.433   5.777
  201DPPC    C610006   8.131   1.544   5.701
  201DPPC    O710007   8.086   1.668   5.757
  201DPPC    P810008   8.139   1.791   5.668
  201DPPC    O910009   8.281   1.758   5.641
  201DPPC   O1010010   8.105   1.928   5.712
  201DPPC   O1110011   8.052   1.756   5.537
  201DPPC   C1210012   8.122   1.815   5.427
  201DPPC   C1310013   8.047   1.842   5.296
  201DPPC   O1410014   7.948   1.946   5.293
  201DPPC   C1510015   7.987   2.076   5.306
  201DPPC   O1610016   8.079   2.105   5.381
  201DPPC   C1710017   7.895   2.176   5.236
  201DPPC   C1810018   7.917   2.175   5.084
  201DPPC   C1910019   7.835   2.287   5.019
  201DPPC   C2010020   7.687   2.251   5.034
  201DPPC   C2110021   7.597   2.357   4.970
  201DPPC   C2210022   7.453   2.311   4.949
  201DPPC   C2310023   7.372   2.423   4.885
  201DPPC   C2410024   7.410   2.437   4.737
  201DPPC   C2510025   7.318   2.540   4.671
  201DPPC   C2610026   7.341   2.541   4.520
  201DPPC   C2710027   7.225   2.604   4.442
  201DPPC   C2810028   7.228   2.564   4.294
  201DPPC   C2910029   7.102   2.585   4.210
  201DPPC   C3010030   7.110   2.528   4.068
  201DPPC   C3110031   6.993   2.431   4.051
  201DPPC   C3210032   7.993   1.702   5.264
  201DPPC   O3310033   8.103   1.613   5.245
  201DPPC   C3410034   8.069   1.484   5.268
  201DPPC   O3510035   7.955   1.457   5.307
  201DPPC   C3610036   8.177   1.380   5.239
  201DPPC   C3710037   8.233   1.396   5.097
  201DPPC   C3810038   8.313   1.275   5.049
  201DPPC   C3910039   8.372   1.296   4.909
  201DPPC   C4010040   8.261   1.345   4.817
  201DPPC   C4110041   8.312   1.394   4.681
  201DPPC   C4210042   8.198   1.479   4.623
  201DPPC   C4310043   8.221   1.552   4.491
  201DPPC   C4410044   8.089   1.614   4.445
  201DPPC   C4510045   7.971   1.519   4.422
  201DPPC   C4610046   7.848   1.597   4.376
  201DPPC   C4710047   7.722   1.510   4.373
  201DPPC   C4810048   7.605   1.605   4.346
  201DPPC   C4910049   7.476   1.541   4.397
  201DPPC   C5010050   7.487   1.509   4.546
  202DPPC    C110051   0.722   2.537   5.549
  202DPPC    C210052   0.937   2.551   5.648
  202DPPC    C310053   0.735   2.622   5.751
  202DPPC    N410054   0.797   2.514   5.673
  202DPPC    C510055   0.775   2.384   5.738
  202DPPC    C610056   0.754   2.256   5.657
  202DPPC    O710057   0.626   2.249   5.594
  202DPPC    P810058   0.597   2.110   5.519
  202DPPC    O910059   0.453   2.078   5.525
  202DPPC   O1010060   0.710   2.030   5.572
  202DPPC   O1110061   0.642   2.168   5.375
  202DPPC   C1210062   0.541   2.236   5.300
  202DPPC   C1310063   0.600   2.341   5.206
  202DPPC   O1410064   0.499   2.383   5.114
  202DPPC   C1510065   0.495   2.510   5.066
  202DPPC   O1610066   0.487   2.603   5.147
  202DPPC   C1710067   0.440   2.529   4.925
  202DPPC   C1810068   0.403   2.668   4.872
  202DPPC   C1910069   0.377   2.662   4.721
  202DPPC   C2010070   0.318   2.801   4.697
  202DPPC   C2110071   0.261   2.826   4.557
  202DPPC   C2210072   0.371   2.825   4.450
  202DPPC   C2310073   0.305   2.865   4.318
  202DPPC   C2410074   0.400   2.824   4.206
  202DPPC   C2510075   0.340   2.833   4.065
  202DPPC   C2610076   0.436   2.768   3.966
  202DPPC   C2710077   0.393   2.787   3.820
  202DPPC   C2810078   0.506   2.734   3.732
  202DPPC   C2910079   0.483   2.759   3.582
  202DPPC   C3010080   0.608   2.738   3.497
  202DPPC   C3110081   0.602   2.807   3.361
  202DPPC   C3210082   0.713   2.257   5.146
  202DPPC   O3310083   0.768   2.288   5.017
  202DPPC   C3410084   0.855   2.199   4.963
  202DPPC   O3510085   0.872   2.093   5.022
  202DPPC   C3610086   0.886   2.216   4.814
  202DPPC   C3710087   0.836   2.352   4.767
  202DPPC   C3810088   0.830   2.368   4.615
  202DPPC   C3910089   0.820   2.520   4.603
  202DPPC   C4010090   0.775   2.570   4.465
  202DPPC   C4110091   0.746   2.721   4.468
  202DPPC   C4210092   0.736   2.764   4.322
  202DPPC   C4310093   0.863   2.725   4.247
  202DPPC   C4410094   0.838   2.725   4.096
  202DPPC   C4510095   0.959   2.691   4.008
  202DPPC   C4610096   0.914   2.676   3.863
  202DPPC   C4710097   1.039   2.683   3.774
  202DPPC   C4810098   0.994   2.654   3.630
  202DPPC   C4910099   1.097   2.665   3.517
  202DPPC   C5010100   1.030   2.613   3.389
  203DPPC    C110101   1.989   7.562   4.343
  203DPPC    C210102   1.778   7.507   4.238
  203DPPC    C310103   1.895   7.349   4.377
  203DPPC    N410104   1.861   7.491   4.358
  203DPPC    C510105   1.786   7.541   4.474
  203DPPC    C610106   1.810   7.503   4.620
  203DPPC    O710107   1.932   7.556   4.673
  203DPPC    P810108   2.001   7.441   4.762
  203DPPC    O910109   1.908   7.330   4.793
  203DPPC   O1010110   2.087   7.514   4.858
  203DPPC   O1110111   2.097   7.371   4.654
  203DPPC   C1210112   2.236   7.402   4.667
  203DPPC   C1310113   2.296   7.355   4.534
  203DPPC   O1410114   2.285   7.452   4.429
  203DPPC   C1510115   2.392   7.529   4.396
  203DPPC   O1610116   2.433   7.595   4.491
  203DPPC   C1710117   2.401   7.571   4.249
  203DPPC   C1810118   2.541   7.561   4.188
  203DPPC   C1910119   2.537   7.561   4.035
  203DPPC   C2010120   2.671   7.569   3.962
  203DPPC   C2110121   2.778   7.470   4.008
  203DPPC   C2210122   2.905   7.480   3.923
  203DPPC   C2310123   2.928   7.625   3.882
  203DPPC   C2410124   3.053   7.649   3.796
  203DPPC   C2510125   3.074   7.798   3.772
  203DPPC   C2610126   3.178   7.822   3.661
  203DPPC   C2710127   3.213   7.967   3.630
  203DPPC   C2810128   3.258   8.034   3.760
  203DPPC   C2910129   3.314   8.174   3.739
  203DPPC   C3010130   3.324   8.233   3.880
  203DPPC   C3110131   3.423   8.350   3.874
  203DPPC   C3210132   2.261   7.209   4.506
  203DPPC   O3310133   2.317   7.150   4.388
  203DPPC   C3410134   2.270   7.191   4.268
  203DPPC   O3510135   2.165   7.255   4.261
  203DPPC   C3610136   2.365   7.185   4.148
  203DPPC   C3710137   2.327   7.072   4.051
  203DPPC   C3810138   2.437   7.064   3.944
  203DPPC   C3910139   2.425   6.934   3.864
  203DPPC   C4010140   2.317   6.948   3.756
  203DPPC   C4110141   2.265   6.810   3.718
  203DPPC   C4210142   2.134   6.817   3.639
  203DPPC   C4310143   2.073   6.679   3.611
  203DPPC   C4410144   1.946   6.704   3.531
  203DPPC   C4510145   1.873   6.582   3.474
  203DPPC   C4610146   1.743   6.631   3.411
  203DPPC   C4710147   1.636   6.523   3.429
  203DPPC   C4810148   1.509   6.573   3.360
  203DPPC   C4910149   1.433   6.677   3.442
  203DPPC   C5010150   1.298   6.722   3.384
  204DPPC    C110151   9.476   7.629   4.589
  204DPPC    C210152   9.666   7.607   4.440
  204DPPC    C310153   9.679   7.533   4.662
  204DPPC    N410154   9.588   7.543   4.547
  204DPPC    C510155   9.551   7.410   4.497
  204DPPC    C610156   9.431   7.347   4.568
  204DPPC    O710157   9.380   7.235   4.496
  204DPPC    P810158   9.288   7.166   4.608
  204DPPC    O910159   9.249   7.262   4.713
  204DPPC   O1010160   9.354   7.036   4.637
  204DPPC   O1110161   9.164   7.149   4.506
  204DPPC   C1210162   9.181   7.021   4.443
  204DPPC   C1310163   9.059   6.976   4.363
  204DPPC   O1410164   9.046   6.839   4.321
  204DPPC   C1510165   9.018   6.743   4.413
  204DPPC   O1610166   8.999   6.773   4.531
  204DPPC   C1710167   9.004   6.601   4.357
  204DPPC   C1810168   8.866   6.559   4.308
  204DPPC   C1910169   8.867   6.421   4.242
  204DPPC   C2010170   8.959   6.420   4.120
  204DPPC   C2110171   8.921   6.299   4.033
  204DPPC   C2210172   8.982   6.333   3.897
  204DPPC   C2310173   8.886   6.296   3.783
  204DPPC   C2410174   8.954   6.349   3.656
  204DPPC   C2510175   9.088   6.277   3.641
  204DPPC   C2610176   9.155   6.323   3.512
  204DPPC   C2710177   9.054   6.337   3.397
  204DPPC   C2810178   9.114   6.400   3.271
  204DPPC   C2910179   8.996   6.465   3.198
  204DPPC   C3010180   8.932   6.369   3.097
  204DPPC   C3110181   8.822   6.441   3.019
  204DPPC   C3210182   9.034   7.085   4.260
  204DPPC   O3310183   9.139   7.119   4.169
  204DPPC   C3410184   9.102   7.211   4.077
  204DPPC   O3510185   8.991   7.263   4.071
  204DPPC   C3610186   9.217   7.250   3.983
  204DPPC   C3710187   9.172   7.294   3.843
  204DPPC   C3810188   9.288   7.311   3.745
  204DPPC   C3910189   9.341   7.171   3.712
  204DPPC   C4010190   9.229   7.098   3.638
  204DPPC   C4110191   9.288   6.969   3.582
  204DPPC   C4210192   9.186   6.894   3.495
  204DPPC   C4310193   9.264   6.780   3.429
  204DPPC   C4410194   9.382   6.828   3.345
  204DPPC   C4510195   9.468   6.711   3.297
  204DPPC   C4610196   9.511   6.618   3.410
  204DPPC   C4710197   9.590   6.505   3.346
  204DPPC   C4810198   9.508   6.459   3.225
  204DPPC   C4910199   9.581   6.358   3.137
  204DPPC   C5010200   9.654   6.248   3.215
  205DPPC    C110201   2.213   8.064   5.494
  205DPPC    C210202   2.433   7.960   5.488
  205DPPC    C310203   2.249   7.852   5.402
  205DPPC    N410204   2.309   7.986   5.414
  205DPPC    C510205   2.331   8.060   5.289
  205DPPC    C610206   2.219   8.063   5.184
  205DPPC    O710207   2.110   8.148   5.221
  205DPPC    P810208   1.972   8.093   5.158
  205DPPC    O910209   1.858   8.173   5.208
  205DPPC   O1010210   1.975   7.947   5.183
  205DPPC   O1110211   2.005   8.123   5.003
  205DPPC   C1210212   1.945   8.249   4.974
  205DPPC   C1310213   2.028   8.377   4.986
  205DPPC   O1410214   1.946   8.490   4.954
  205DPPC   C1510215   1.989   8.615   4.986
  205DPPC   O1610216   2.069   8.628   5.078
  205DPPC   C1710217   1.893   8.723   4.936
  205DPPC   C1810218   1.902   8.739   4.784
  205DPPC   C1910219   1.833   8.873   4.760
  205DPPC   C2010220   1.803   8.901   4.613
  205DPPC   C2110221   1.700   8.796   4.568
  205DPPC   C2210222   1.661   8.804   4.421
  205DPPC   C2310223   1.553   8.697   4.401
  205DPPC   C2410224   1.419   8.748   4.348
  205DPPC   C2510225   1.437   8.819   4.214
  205DPPC   C2610226   1.311   8.876   4.148
  205DPPC   C2710227   1.347   8.919   4.005
  205DPPC   C2810228   1.218   8.984   3.954
  205DPPC   C2910229   1.258   9.039   3.817
  205DPPC   C3010230   1.142   9.084   3.727
  205DPPC   C3110231   1.196   9.152   3.601
  205DPPC   C3210232   2.154   8.367   4.899
  205DPPC   O3310233   2.136   8.351   4.758
  205DPPC   C3410234   2.216   8.423   4.676
  205DPPC   O3510235   2.293   8.512   4.710
  205DPPC   C3610236   2.212   8.392   4.526
  205DPPC   C3710237   2.301   8.276   4.481
  205DPPC   C3810238   2.281   8.258   4.330
  205DPPC   C3910239   2.358   8.136   4.282
  205DPPC   C4010240   2.342   8.121   4.130
  205DPPC   C4110241   2.397   7.990   4.073
  205DPPC   C4210242   2.375   8.002   3.922
  205DPPC   C4310243   2.398   7.867   3.854
  205DPPC   C4410244   2.433   7.911   3.712
  205DPPC   C4510245   2.476   7.800   3.617
  205DPPC   C4610246   2.504   7.852   3.476
  205DPPC   C4710247   2.579   7.754   3.385
  205DPPC   C4810248   2.700   7.703   3.464
  205DPPC   C4910249   2.796   7.623   3.375
  205DPPC   C5010250   2.913   7.561   3.451
  206DPPC    C110251   2.057   5.309   4.842
  206DPPC    C210252   1.984   5.138   4.695
  206DPPC    C310253   2.097   5.072   4.900
  206DPPC    N410254   2.008   5.170   4.837
  206DPPC    C510255   1.893   5.139   4.923
  206DPPC    C610256   1.770   5.230   4.915
  206DPPC    O710257   1.702   5.239   4.790
  206DPPC    P810258   1.557   5.308   4.800
  206DPPC    O910259   1.575   5.384   4.925
  206DPPC   O1010260   1.439   5.218   4.792
  206DPPC   O1110261   1.570   5.412   4.678
  206DPPC   C1210262   1.526   5.341   4.561
  206DPPC   C1310263   1.548   5.416   4.430
  206DPPC   O1410264   1.480   5.359   4.317
  206DPPC   C1510265   1.344   5.369   4.308
  206DPPC   O1610266   1.276   5.433   4.387
  206DPPC   C1710267   1.276   5.293   4.194
  206DPPC   C1810268   1.228   5.381   4.079
  206DPPC   C1910269   1.200   5.279   3.968
  206DPPC   C2010270   1.162   5.355   3.840
  206DPPC   C2110271   1.135   5.258   3.725
  206DPPC   C2210272   1.100   5.347   3.605
  206DPPC   C2310273   1.066   5.270   3.478
  206DPPC   C2410274   1.040   5.366   3.362
  206DPPC   C2510275   1.167   5.449   3.339
  206DPPC   C2610276   1.152   5.556   3.231
  206DPPC   C2710277   1.274   5.639   3.193
  206DPPC   C2810278   1.307   5.757   3.284
  206DPPC   C2910279   1.443   5.821   3.253
  206DPPC   C3010280   1.492   5.911   3.367
  206DPPC   C3110281   1.535   5.830   3.489
  206DPPC   C3210282   1.700   5.400   4.420
  206DPPC   O3310283   1.748   5.281   4.356
  206DPPC   C3410284   1.884   5.273   4.353
  206DPPC   O3510285   1.962   5.333   4.428
  206DPPC   C3610286   1.935   5.146   4.286
  206DPPC   C3710287   1.983   5.179   4.145
  206DPPC   C3810288   2.036   5.051   4.080
  206DPPC   C3910289   2.135   4.981   4.173
  206DPPC   C4010290   2.166   4.860   4.084
  206DPPC   C4110291   2.269   4.762   4.141
  206DPPC   C4210292   2.295   4.665   4.025
  206DPPC   C4310293   2.363   4.736   3.908
  206DPPC   C4410294   2.504   4.783   3.945
  206DPPC   C4510295   2.598   4.803   3.827
  206DPPC   C4610296   2.744   4.837   3.860
  206DPPC   C4710297   2.838   4.832   3.740
  206DPPC   C4810298   2.975   4.885   3.781
  206DPPC   C4910299   3.066   4.898   3.659
  206DPPC   C5010300   3.211   4.918   3.704
  207DPPC    C110301   6.535   0.253   5.943
  207DPPC    C210302   6.742   0.275   5.834
  207DPPC    C310303   6.572   0.148   5.730
  207DPPC    N410304   6.597   0.268   5.811
  207DPPC    C510305   6.538   0.379   5.734
  207DPPC    C610306   6.584   0.524   5.757
  207DPPC    O710307   6.502   0.613   5.680
  207DPPC    P810308   6.562   0.762   5.690
  207DPPC    O910309   6.580   0.794   5.833
  207DPPC   O1010310   6.479   0.851   5.606
  207DPPC   O1110311   6.696   0.717   5.613
  207DPPC   C1210312   6.726   0.778   5.487
  207DPPC   C1310313   6.868   0.825   5.454
  207DPPC   O1410314   6.881   0.938   5.367
  207DPPC   C1510315   6.998   1.008   5.366
  207DPPC   O1610316   7.076   0.991   5.459
  207DPPC   C1710317   7.026   1.099   5.246
  207DPPC   C1810318   6.966   1.238   5.266
  207DPPC   C1910319   6.964   1.327   5.141
  207DPPC   C2010320   6.882   1.274   5.024
  207DPPC   C2110321   6.879   1.365   4.901
  207DPPC   C2210322   7.007   1.344   4.820
  207DPPC   C2310323   6.980   1.439   4.703
  207DPPC   C2410324   7.081   1.415   4.591
  207DPPC   C2510325   7.032   1.491   4.467
  207DPPC   C2610326   7.142   1.479   4.361
  207DPPC   C2710327   7.106   1.522   4.219
  207DPPC   C2810328   7.062   1.669   4.211
  207DPPC   C2910329   6.989   1.688   4.078
  207DPPC   C3010330   7.024   1.830   4.031
  207DPPC   C3110331   6.974   1.859   3.890
  207DPPC   C3210332   6.934   0.699   5.398
  207DPPC   O3310333   6.859   0.633   5.296
  207DPPC   C3410334   6.930   0.537   5.231
  207DPPC   O3510335   7.041   0.498   5.265
  207DPPC   C3610336   6.853   0.468   5.118
  207DPPC   C3710337   6.737   0.548   5.059
  207DPPC   C3810338   6.659   0.473   4.951
  207DPPC   C3910339   6.566   0.562   4.869
  207DPPC   C4010340   6.524   0.479   4.747
  207DPPC   C4110341   6.434   0.365   4.795
  207DPPC   C4210342   6.392   0.277   4.677
  207DPPC   C4310343   6.348   0.135   4.710
  207DPPC   C4410344   6.339   0.047   4.585
  207DPPC   C4510345   6.471   0.050   4.506
  207DPPC   C4610346   6.437  -0.013   4.371
  207DPPC   C4710347   6.555  -0.056   4.284
  207DPPC   C4810348   6.512  -0.094   4.142
  207DPPC   C4910349   6.642  -0.123   4.065
  207DPPC   C5010350   6.585  -0.190   3.940
  208DPPC    C110351   5.239   1.436   5.423
  208DPPC    C210352   5.386   1.337   5.269
  208DPPC    C310353   5.284   1.561   5.231
  208DPPC    N410354   5.344   1.466   5.325
  208DPPC    C510355   5.463   1.540   5.370
  208DPPC    C610356   5.551   1.482   5.481
  208DPPC    O710357   5.688   1.519   5.462
  208DPPC    P810358   5.796   1.480   5.574
  208DPPC    O910359   5.720   1.481   5.701
  208DPPC   O1010360   5.927   1.540   5.540
  208DPPC   O1110361   5.811   1.324   5.536
  208DPPC   C1210362   5.866   1.317   5.404
  208DPPC   C1310363   5.883   1.176   5.349
  208DPPC   O1410364   5.983   1.175   5.247
  208DPPC   C1510365   6.092   1.095   5.264
  208DPPC   O1610366   6.095   1.007   5.350
  208DPPC   C1710367   6.211   1.136   5.177
  208DPPC   C1810368   6.173   1.236   5.067
  208DPPC   C1910369   6.299   1.313   5.026
  208DPPC   C2010370   6.265   1.365   4.886
  208DPPC   C2110371   6.368   1.458   4.822
  208DPPC   C2210372   6.292   1.513   4.701
  208DPPC   C2310373   6.215   1.637   4.748
  208DPPC   C2410374   6.154   1.708   4.627
  208DPPC   C2510375   6.072   1.831   4.668
  208DPPC   C2610376   6.007   1.886   4.541
  208DPPC   C2710377   5.890   1.802   4.490
  208DPPC   C2810378   5.852   1.863   4.355
  208DPPC   C2910379   5.979   1.850   4.270
  208DPPC   C3010380   5.935   1.893   4.130
  208DPPC   C3110381   6.032   1.845   4.022
  208DPPC   C3210382   5.739   1.132   5.323
  208DPPC   O3310383   5.705   1.107   5.186
  208DPPC   C3410384   5.713   1.210   5.098
  208DPPC   O3510385   5.684   1.323   5.138
  208DPPC   C3610386   5.707   1.175   4.949
  208DPPC   C3710387   5.829   1.229   4.875
  208DPPC   C3810388   5.824   1.210   4.723
  208DPPC   C3910389   5.950   1.268   4.658
  208DPPC   C4010390   5.940   1.269   4.505
  208DPPC   C4110391   6.036   1.375   4.450
  208DPPC   C4210392   6.034   1.350   4.299
  208DPPC   C4310393   6.120   1.444   4.214
  208DPPC   C4410394   6.271   1.434   4.238
  208DPPC   C4510395   6.327   1.542   4.147
  208DPPC   C4610396   6.464   1.566   4.211
  208DPPC   C4710397   6.531   1.429   4.213
  208DPPC   C4810398   6.677   1.424   4.259
  208DPPC   C4910399   6.684   1.461   4.407
  208DPPC   C5010400   6.652   1.332   4.483
  209DPPC    C110401   4.796   3.790   5.941
  209DPPC    C210402   4.935   3.954   5.824
  209DPPC    C310403   4.929   3.716   5.768
  209DPPC    N410404   4.852   3.834   5.812
  209DPPC    C510405   4.746   3.842   5.711
  209DPPC    C610406   4.643   3.949   5.749
  209DPPC    O710407   4.524   3.958   5.670
  209DPPC    P810408   4.432   4.079   5.723
  209DPPC    O910409   4.483   4.106   5.860
  209DPPC   O1010410   4.292   4.040   5.695
  209DPPC   O1110411   4.494   4.200   5.636
  209DPPC   C1210412   4.511   4.162   5.500
  209DPPC   C1310413   4.379   4.141   5.426
  209DPPC   O1410414   4.390   4.080   5.296
  209DPPC   C1510415   4.277   4.022   5.246
  209DPPC   O1610416   4.188   3.992   5.325
  209DPPC   C1710417   4.288   3.958   5.108
  209DPPC   C1810418   4.151   3.926   5.049
  209DPPC   C1910419   4.169   3.932   4.897
  209DPPC   C2010420   4.277   3.831   4.858
  209DPPC   C2110421   4.291   3.823   4.706
  209DPPC   C2210422   4.400   3.722   4.670
  209DPPC   C2310423   4.433   3.704   4.522
  209DPPC   C2410424   4.555   3.612   4.523
  209DPPC   C2510425   4.550   3.476   4.592
  209DPPC   C2610426   4.675   3.387   4.592
  209DPPC   C2710427   4.721   3.350   4.450
  209DPPC   C2810428   4.847   3.265   4.458
  209DPPC   C2910429   4.889   3.230   4.315
  209DPPC   C3010430   5.027   3.165   4.297
  209DPPC   C3110431   5.068   3.124   4.155
  209DPPC   C3210432   4.297   4.269   5.438
  209DPPC   O3310433   4.346   4.389   5.377
  209DPPC   C3410434   4.289   4.510   5.404
  209DPPC   O3510435   4.251   4.539   5.517
  209DPPC   C3610436   4.336   4.622   5.311
  209DPPC   C3710437   4.360   4.564   5.172
  209DPPC   C3810438   4.443   4.659   5.086
  209DPPC   C3910439   4.453   4.600   4.945
  209DPPC   C4010440   4.575   4.650   4.867
  209DPPC   C4110441   4.541   4.799   4.857
  209DPPC   C4210442   4.656   4.861   4.778
  209DPPC   C4310443   4.787   4.851   4.856
  209DPPC   C4410444   4.914   4.887   4.778
  209DPPC   C4510445   4.915   4.810   4.646
  209DPPC   C4610446   5.016   4.871   4.548
  209DPPC   C4710447   4.987   4.807   4.412
  209DPPC   C4810448   5.063   4.865   4.293
  209DPPC   C4910449   5.212   4.833   4.302
  209DPPC   C5010450   5.232   4.681   4.304
  210DPPC    C110451   6.468   1.354   5.792
  210DPPC    C210452   6.427   1.397   6.029
  210DPPC    C310453   6.309   1.224   5.916
  210DPPC    N410454   6.438   1.295   5.924
  210DPPC    C510455   6.540   1.198   5.967
  210DPPC    C610456   6.615   1.129   5.853
  210DPPC    O710457   6.729   1.204   5.810
  210DPPC    P810458   6.815   1.133   5.694
  210DPPC    O910459   6.869   1.005   5.747
  210DPPC   O1010460   6.891   1.250   5.644
  210DPPC   O1110461   6.695   1.106   5.590
  210DPPC   C1210462   6.684   1.224   5.510
  210DPPC   C1310463   6.575   1.228   5.402
  210DPPC   O1410464   6.455   1.289   5.451
  210DPPC   C1510465   6.450   1.421   5.417
  210DPPC   O1610466   6.555   1.484   5.422
  210DPPC   C1710467   6.318   1.499   5.425
  210DPPC   C1810468   6.342   1.632   5.354
  210DPPC   C1910469   6.213   1.714   5.353
  210DPPC   C2010470   6.231   1.838   5.265
  210DPPC   C2110471   6.132   1.942   5.320
  210DPPC   C2210472   6.166   2.079   5.263
  210DPPC   C2310473   6.176   2.076   5.110
  210DPPC   C2410474   6.220   2.209   5.048
  210DPPC   C2510475   6.222   2.186   4.897
  210DPPC   C2610476   6.291   2.294   4.814
  210DPPC   C2710477   6.289   2.266   4.663
  210DPPC   C2810478   6.341   2.389   4.588
  210DPPC   C2910479   6.365   2.318   4.455
  210DPPC   C3010480   6.234   2.281   4.385
  210DPPC   C3110481   6.242   2.181   4.270
  210DPPC   C3210482   6.576   1.084   5.351
  210DPPC   O3310483   6.603   1.069   5.211
  210DPPC   C3410484   6.590   0.945   5.157
  210DPPC   O3510485   6.503   0.872   5.205
  210DPPC   C3610486   6.636   0.933   5.012
  210DPPC   C3710487   6.546   1.006   4.912
  210DPPC   C3810488   6.608   1.039   4.777
  210DPPC   C3910489   6.675   0.907   4.737
  210DPPC   C4010490   6.745   0.917   4.600
  210DPPC   C4110491   6.864   1.012   4.613
  210DPPC   C4210492   6.941   1.026   4.482
  210DPPC   C4310493   6.855   1.060   4.360
  210DPPC   C4410494   6.947   1.091   4.242
  210DPPC   C4510495   6.978   0.960   4.169
  210DPPC   C4610496   6.857   0.898   4.098
  210DPPC   C4710497   6.887   0.779   4.007
  210DPPC   C4810498   6.759   0.747   3.929
  210DPPC   C4910499   6.723   0.861   3.833
  210DPPC   C5010500   6.599   0.828   3.749
  211DPPC    C110501   1.418   7.912   5.201
  211DPPC    C210502   1.555   8.109   5.194
  211DPPC    C310503   1.599   7.922   5.351
  211DPPC    N410504   1.555   7.963   5.217
  211DPPC    C510505   1.648   7.921   5.111
  211DPPC    C610506   1.654   7.778   5.058
  211DPPC    O710507   1.552   7.752   4.962
  211DPPC    P810508   1.574   7.617   4.878
  211DPPC    O910509   1.436   7.566   4.893
  211DPPC   O1010510   1.693   7.554   4.940
  211DPPC   O1110511   1.612   7.715   4.756
  211DPPC   C1210512   1.492   7.769   4.700
  211DPPC   C1310513   1.519   7.872   4.590
  211DPPC   O1410514   1.537   7.819   4.458
  211DPPC   C1510515   1.425   7.787   4.389
  211DPPC   O1610516   1.318   7.780   4.450
  211DPPC   C1710517   1.450   7.714   4.257
  211DPPC   C1810518   1.434   7.823   4.151
  211DPPC   C1910519   1.286   7.860   4.138
  211DPPC   C2010520   1.251   7.933   4.008
  211DPPC   C2110521   1.111   7.992   4.024
  211DPPC   C2210522   1.073   8.089   3.911
  211DPPC   C2310523   1.114   8.021   3.780
  211DPPC   C2410524   1.091   8.123   3.669
  211DPPC   C2510525   1.105   8.066   3.528
  211DPPC   C2610526   0.984   7.986   3.479
  211DPPC   C2710527   0.892   8.075   3.394
  211DPPC   C2810528   0.971   8.145   3.283
  211DPPC   C2910529   0.867   8.205   3.189
  211DPPC   C3010530   0.917   8.301   3.081
  211DPPC   C3110531   1.014   8.238   2.981
  211DPPC   C3210532   1.630   7.962   4.644
  211DPPC   O3310533   1.651   8.077   4.563
  211DPPC   C3410534   1.719   8.166   4.640
  211DPPC   O3510535   1.767   8.131   4.748
  211DPPC   C3610536   1.733   8.309   4.586
  211DPPC   C3710537   1.852   8.318   4.490
  211DPPC   C3810538   1.836   8.447   4.409
  211DPPC   C3910539   1.935   8.450   4.292
  211DPPC   C4010540   1.895   8.581   4.225
  211DPPC   C4110541   1.860   8.555   4.078
  211DPPC   C4210542   1.812   8.682   4.009
  211DPPC   C4310543   1.777   8.657   3.863
  211DPPC   C4410544   1.759   8.779   3.772
  211DPPC   C4510545   1.619   8.838   3.792
  211DPPC   C4610546   1.598   8.969   3.716
  211DPPC   C4710547   1.640   8.946   3.571
  211DPPC   C4810548   1.621   9.081   3.502
  211DPPC   C4910549   1.718   9.193   3.543
  211DPPC   C5010550   1.653   9.313   3.473
  212DPPC    C110551   4.695   8.170   5.589
  212DPPC    C210552   4.749   8.385   5.510
  212DPPC    C310553   4.904   8.213   5.467
  212DPPC    N410554   4.761   8.242   5.479
  212DPPC    C510555   4.682   8.205   5.360
  212DPPC    C610556   4.690   8.286   5.231
  212DPPC    O710557   4.821   8.307   5.177
  212DPPC    P810558   4.807   8.453   5.109
  212DPPC    O910559   4.928   8.481   5.029
  212DPPC   O1010560   4.749   8.537   5.216
  212DPPC   O1110561   4.696   8.435   4.994
  212DPPC   C1210562   4.749   8.328   4.914
  212DPPC   C1310563   4.658   8.273   4.804
  212DPPC   O1410564   4.711   8.160   4.733
  212DPPC   C1510565   4.726   8.038   4.791
  212DPPC   O1610566   4.676   8.021   4.902
  212DPPC   C1710567   4.781   7.931   4.696
  212DPPC   C1810568   4.715   7.951   4.560
  212DPPC   C1910569   4.765   7.860   4.447
  212DPPC   C2010570   4.667   7.900   4.337
  212DPPC   C2110571   4.711   7.829   4.208
  212DPPC   C2210572   4.582   7.764   4.157
  212DPPC   C2310573   4.592   7.677   4.031
  212DPPC   C2410574   4.465   7.595   4.009
  212DPPC   C2510575   4.485   7.510   3.883
  212DPPC   C2610576   4.495   7.586   3.751
  212DPPC   C2710577   4.537   7.469   3.660
  212DPPC   C2810578   4.584   7.503   3.519
  212DPPC   C2910579   4.623   7.381   3.436
  212DPPC   C3010580   4.656   7.409   3.289
  212DPPC   C3110581   4.700   7.271   3.240
  212DPPC   C3210582   4.610   8.396   4.728
  212DPPC   O3310583   4.722   8.461   4.667
  212DPPC   C3410584   4.701   8.577   4.600
  212DPPC   O3510585   4.595   8.639   4.605
  212DPPC   C3610586   4.834   8.637   4.553
  212DPPC   C3710587   4.830   8.643   4.400
  212DPPC   C3810588   4.964   8.650   4.327
  212DPPC   C3910589   4.927   8.677   4.181
  212DPPC   C4010590   5.053   8.691   4.094
  212DPPC   C4110591   5.165   8.590   4.122
  212DPPC   C4210592   5.287   8.612   4.032
  212DPPC   C4310593   5.420   8.546   4.068
  212DPPC   C4410594   5.475   8.605   4.197
  212DPPC   C4510595   5.597   8.521   4.238
  212DPPC   C4610596   5.697   8.522   4.123
  212DPPC   C4710597   5.829   8.470   4.180
  212DPPC   C4810598   5.936   8.440   4.075
  212DPPC   C4910599   6.045   8.370   4.156
  212DPPC   C5010600   6.138   8.324   4.044
  213DPPC    C110601   7.701   1.896   5.866
  213DPPC    C210602   7.764   2.103   5.789
  213DPPC    C310603   7.786   1.934   5.634
  213DPPC    N410604   7.700   1.978   5.745
  213DPPC    C510605   7.568   2.007   5.686
  213DPPC    C610606   7.463   1.897   5.681
  213DPPC    O710607   7.511   1.777   5.619
  213DPPC    P810608   7.443   1.653   5.694
  213DPPC    O910609   7.363   1.700   5.810
  213DPPC   O1010610   7.548   1.550   5.710
  213DPPC   O1110611   7.346   1.598   5.577
  213DPPC   C1210612   7.412   1.580   5.451
  213DPPC   C1310613   7.323   1.554   5.329
  213DPPC   O1410614   7.393   1.499   5.217
  213DPPC   C1510615   7.429   1.368   5.229
  213DPPC   O1610616   7.406   1.302   5.330
  213DPPC   C1710617   7.490   1.302   5.105
  213DPPC   C1810618   7.392   1.281   4.990
  213DPPC   C1910619   7.442   1.190   4.877
  213DPPC   C2010620   7.333   1.164   4.773
  213DPPC   C2110621   7.374   1.068   4.661
  213DPPC   C2210622   7.495   1.120   4.583
  213DPPC   C2310623   7.560   1.001   4.512
  213DPPC   C2410624   7.471   0.985   4.389
  213DPPC   C2510625   7.453   1.114   4.309
  213DPPC   C2610626   7.574   1.115   4.215
  213DPPC   C2710627   7.565   1.241   4.129
  213DPPC   C2810628   7.447   1.221   4.034
  213DPPC   C2910629   7.428   1.329   3.926
  213DPPC   C3010630   7.286   1.335   3.870
  213DPPC   C3110631   7.295   1.432   3.753
  213DPPC   C3210632   7.229   1.675   5.319
  213DPPC   O3310633   7.115   1.656   5.236
  213DPPC   C3410634   7.027   1.758   5.214
  213DPPC   O3510635   7.027   1.857   5.288
  213DPPC   C3610636   6.914   1.737   5.114
  213DPPC   C3710637   6.789   1.700   5.194
  213DPPC   C3810638   6.666   1.715   5.103
  213DPPC   C3910639   6.658   1.849   5.031
  213DPPC   C4010640   6.622   1.953   5.137
  213DPPC   C4110641   6.621   2.098   5.089
  213DPPC   C4210642   6.598   2.204   5.197
  213DPPC   C4310643   6.592   2.345   5.138
  213DPPC   C4410644   6.711   2.400   5.058
  213DPPC   C4510645   6.697   2.547   5.019
  213DPPC   C4610646   6.565   2.564   4.944
  213DPPC   C4710647   6.552   2.705   4.886
  213DPPC   C4810648   6.425   2.733   4.804
  213DPPC   C4910649   6.426   2.879   4.758
  213DPPC   C5010650   6.377   2.965   4.874
  214DPPC    C110651   5.543   7.852   5.503
  214DPPC    C210652   5.559   7.674   5.655
  214DPPC    C310653   5.511   7.615   5.427
  214DPPC    N410654   5.581   7.710   5.514
  214DPPC    C510655   5.727   7.699   5.509
  214DPPC    C610656   5.807   7.741   5.385
  214DPPC    O710657   5.804   7.637   5.287
  214DPPC    P810658   5.890   7.682   5.158
  214DPPC    O910659   5.963   7.554   5.144
  214DPPC   O1010660   5.955   7.809   5.196
  214DPPC   O1110661   5.759   7.689   5.065
  214DPPC   C1210662   5.751   7.579   4.974
  214DPPC   C1310663   5.605   7.564   4.932
  214DPPC   O1410664   5.578   7.449   4.851
  214DPPC   C1510665   5.596   7.327   4.910
  214DPPC   O1610666   5.617   7.305   5.029
  214DPPC   C1710667   5.602   7.224   4.798
  214DPPC   C1810668   5.684   7.100   4.836
  214DPPC   C1910669   5.730   7.021   4.714
  214DPPC   C2010670   5.812   6.893   4.734
  214DPPC   C2110671   5.804   6.801   4.612
  214DPPC   C2210672   5.898   6.682   4.632
  214DPPC   C2310673   6.038   6.745   4.630
  214DPPC   C2410674   6.140   6.631   4.637
  214DPPC   C2510675   6.113   6.524   4.531
  214DPPC   C2610676   6.201   6.399   4.538
  214DPPC   C2710677   6.149   6.296   4.438
  214DPPC   C2810678   5.996   6.301   4.435
  214DPPC   C2910679   5.947   6.214   4.319
  214DPPC   C3010680   5.946   6.063   4.345
  214DPPC   C3110681   5.935   5.973   4.223
  214DPPC   C3210682   5.585   7.695   4.855
  214DPPC   O3310683   5.676   7.744   4.757
  214DPPC   C3410684   5.636   7.866   4.712
  214DPPC   O3510685   5.554   7.930   4.779
  214DPPC   C3610686   5.697   7.931   4.588
  214DPPC   C3710687   5.754   7.829   4.490
  214DPPC   C3810688   5.849   7.887   4.385
  214DPPC   C3910689   5.925   7.768   4.325
  214DPPC   C4010690   5.989   7.799   4.190
  214DPPC   C4110691   6.081   7.678   4.173
  214DPPC   C4210692   6.068   7.633   4.028
  214DPPC   C4310693   6.161   7.515   3.999
  214DPPC   C4410694   6.303   7.541   4.050
  214DPPC   C4510695   6.404   7.441   3.993
  214DPPC   C4610696   6.355   7.301   4.030
  214DPPC   C4710697   6.443   7.183   3.987
  214DPPC   C4810698   6.582   7.198   4.049
  214DPPC   C4910699   6.665   7.074   4.012
  214DPPC   C5010700   6.800   7.080   4.083
  215DPPC    C110701   8.108   0.239   5.142
  215DPPC    C210702   8.191   0.370   5.331
  215DPPC    C310703   8.002   0.244   5.341
  215DPPC    N410704   8.138   0.240   5.286
  215DPPC    C510705   8.200   0.119   5.343
  215DPPC    C610706   8.351   0.110   5.321
  215DPPC    O710707   8.394   0.042   5.203
  215DPPC    P810708   8.536   0.090   5.145
  215DPPC    O910709   8.635   0.003   5.212
  215DPPC   O1010710   8.527   0.232   5.186
  215DPPC   O1110711   8.503   0.059   4.990
  215DPPC   C1210712   8.443   0.174   4.932
  215DPPC   C1310713   8.424   0.149   4.782
  215DPPC   O1410714   8.393   0.267   4.706
  215DPPC   C1510715   8.287   0.348   4.731
  215DPPC   O1610716   8.234   0.352   4.841
  215DPPC   C1710717   8.260   0.451   4.621
  215DPPC   C1810718   8.221   0.366   4.500
  215DPPC   C1910719   8.199   0.439   4.367
  215DPPC   C2010720   8.161   0.334   4.263
  215DPPC   C2110721   8.121   0.392   4.127
  215DPPC   C2210722   8.240   0.472   4.076
  215DPPC   C2310723   8.195   0.539   3.945
  215DPPC   C2410724   8.131   0.672   3.984
  215DPPC   C2510725   8.079   0.746   3.860
  215DPPC   C2610726   8.014   0.877   3.905
  215DPPC   C2710727   7.953   0.928   3.774
  215DPPC   C2810728   7.875   0.816   3.704
  215DPPC   C2910729   7.792   0.852   3.581
  215DPPC   C3010730   7.665   0.920   3.630
  215DPPC   C3110731   7.598   0.851   3.749
  215DPPC   C3210732   8.311   0.046   4.775
  215DPPC   O3310733   8.266   0.027   4.641
  215DPPC   C3410734   8.342  -0.012   4.534
  215DPPC   O3510735   8.440  -0.080   4.565
  215DPPC   C3610736   8.279   0.005   4.396
  215DPPC   C3710737   8.201  -0.118   4.349
  215DPPC   C3810738   8.131  -0.071   4.221
  215DPPC   C3910739   8.027  -0.178   4.187
  215DPPC   C4010740   7.933  -0.142   4.072
  215DPPC   C4110741   7.855  -0.266   4.029
  215DPPC   C4210742   7.753  -0.228   3.921
  215DPPC   C4310743   7.827  -0.185   3.794
  215DPPC   C4410744   7.727  -0.178   3.678
  215DPPC   C4510745   7.620  -0.069   3.684
  215DPPC   C4610746   7.522  -0.075   3.566
  215DPPC   C4710747   7.449  -0.209   3.560
  215DPPC   C4810748   7.385  -0.212   3.421
  215DPPC   C4910749   7.322  -0.348   3.387
  215DPPC   C5010750   7.339  -0.380   3.238
  216DPPC    C110751   4.479   0.182   5.026
  216DPPC    C210752   4.544   0.377   4.884
  216DPPC    C310753   4.384   0.404   5.051
  216DPPC    N410754   4.504   0.326   5.016
  216DPPC    C510755   4.602   0.363   5.120
  216DPPC    C610756   4.663   0.503   5.128
  216DPPC    O710757   4.583   0.604   5.190
  216DPPC    P810758   4.667   0.740   5.173
  216DPPC    O910759   4.812   0.710   5.189
  216DPPC   O1010760   4.582   0.808   5.273
  216DPPC   O1110761   4.621   0.779   5.024
  216DPPC   C1210762   4.483   0.817   5.017
  216DPPC   C1310763   4.432   0.856   4.878
  216DPPC   O1410764   4.371   0.740   4.820
  216DPPC   C1510765   4.238   0.711   4.827
  216DPPC   O1610766   4.183   0.746   4.931
  216DPPC   C1710767   4.215   0.576   4.758
  216DPPC   C1810768   4.288   0.554   4.625
  216DPPC   C1910769   4.270   0.416   4.562
  216DPPC   C2010770   4.307   0.415   4.414
  216DPPC   C2110771   4.276   0.286   4.337
  216DPPC   C2210772   4.335   0.275   4.197
  216DPPC   C2310773   4.487   0.273   4.177
  216DPPC   C2410774   4.536   0.282   4.032
  216DPPC   C2510775   4.583   0.141   3.996
  216DPPC   C2610776   4.704   0.146   3.902
  216DPPC   C2710777   4.770   0.018   3.851
  216DPPC   C2810778   4.883   0.049   3.753
  216DPPC   C2910779   4.949  -0.078   3.697
  216DPPC   C3010780   4.862  -0.152   3.596
  216DPPC   C3110781   4.808  -0.066   3.481
  216DPPC   C3210782   4.537   0.929   4.795
  216DPPC   O3310783   4.555   1.070   4.813
  216DPPC   C3410784   4.656   1.122   4.738
  216DPPC   O3510785   4.746   1.051   4.694
  216DPPC   C3610786   4.635   1.266   4.690
  216DPPC   C3710787   4.544   1.280   4.568
  216DPPC   C3810788   4.479   1.419   4.578
  216DPPC   C3910789   4.360   1.436   4.484
  216DPPC   C4010790   4.268   1.323   4.530
  216DPPC   C4110791   4.166   1.280   4.424
  216DPPC   C4210792   4.055   1.385   4.412
  216DPPC   C4310793   3.949   1.331   4.315
  216DPPC   C4410794   3.997   1.305   4.172
  216DPPC   C4510795   3.884   1.343   4.076
  216DPPC   C4610796   3.908   1.300   3.931
  216DPPC   C4710797   3.809   1.360   3.831
  216DPPC   C4810798   3.826   1.277   3.703
  216DPPC   C4910799   3.738   1.329   3.589
  216DPPC   C5010800   3.747   1.239   3.465
  217DPPC    C110801   5.551   6.813   5.409
  217DPPC    C210802   5.570   6.982   5.251
  217DPPC    C310803   5.432   6.800   5.206
  217DPPC    N410804   5.472   6.892   5.314
  217DPPC    C510805   5.350   6.945   5.378
  217DPPC    C610806   5.362   7.086   5.436
  217DPPC    O710807   5.240   7.160   5.430
  217DPPC    P810808   5.256   7.298   5.511
  217DPPC    O910809   5.378   7.312   5.593
  217DPPC   O1010810   5.135   7.368   5.560
  217DPPC   O1110811   5.306   7.376   5.379
  217DPPC   C1210812   5.201   7.394   5.284
  217DPPC   C1310813   5.241   7.452   5.148
  217DPPC   O1410814   5.148   7.547   5.093
  217DPPC   C1510815   5.176   7.632   4.991
  217DPPC   O1610816   5.290   7.672   4.969
  217DPPC   C1710817   5.056   7.691   4.915
  217DPPC   C1810818   5.089   7.712   4.767
  217DPPC   C1910819   5.136   7.855   4.738
  217DPPC   C2010820   5.122   7.892   4.591
  217DPPC   C2110821   5.191   7.799   4.491
  217DPPC   C2210822   5.173   7.845   4.346
  217DPPC   C2310823   5.250   7.746   4.258
  217DPPC   C2410824   5.228   7.796   4.115
  217DPPC   C2510825   5.078   7.781   4.088
  217DPPC   C2610826   5.062   7.805   3.937
  217DPPC   C2710827   4.918   7.829   3.893
  217DPPC   C2810828   4.913   7.915   3.767
  217DPPC   C2910829   4.968   7.834   3.650
  217DPPC   C3010830   4.993   7.933   3.536
  217DPPC   C3110831   5.066   7.859   3.423
  217DPPC   C3210832   5.284   7.334   5.060
  217DPPC   O3310833   5.174   7.242   5.060
  217DPPC   C3410834   5.215   7.122   5.009
  217DPPC   O3510835   5.330   7.093   4.978
  217DPPC   C3610836   5.101   7.021   4.999
  217DPPC   C3710837   5.000   7.059   4.891
  217DPPC   C3810838   5.062   7.031   4.753
  217DPPC   C3910839   4.954   6.971   4.663
  217DPPC   C4010840   4.944   7.022   4.519
  217DPPC   C4110841   4.821   6.968   4.445
  217DPPC   C4210842   4.840   6.991   4.295
  217DPPC   C4310843   4.969   6.939   4.231
  217DPPC   C4410844   4.949   6.988   4.087
  217DPPC   C4510845   5.072   6.954   4.002
  217DPPC   C4610846   5.041   6.976   3.854
  217DPPC   C4710847   5.166   6.952   3.769
  217DPPC   C4810848   5.247   7.065   3.835
  217DPPC   C4910849   5.368   7.098   3.747
  217DPPC   C5010850   5.473   7.194   3.802
  218DPPC    C110851   2.049   4.227   5.740
  218DPPC    C210852   2.230   4.338   5.659
  218DPPC    C310853   2.253   4.202   5.857
  218DPPC    N410854   2.194   4.210   5.722
  218DPPC    C510855   2.211   4.097   5.630
  218DPPC    C610856   2.351   4.075   5.572
  218DPPC    O710857   2.361   3.968   5.478
  218DPPC    P810858   2.510   3.958   5.419
  218DPPC    O910859   2.535   3.813   5.403
  218DPPC   O1010860   2.611   4.034   5.496
  218DPPC   O1110861   2.479   3.998   5.266
  218DPPC   C1210862   2.432   3.889   5.186
  218DPPC   C1310863   2.279   3.896   5.176
  218DPPC   O1410864   2.237   3.778   5.107
  218DPPC   C1510865   2.107   3.739   5.117
  218DPPC   O1610866   2.032   3.798   5.195
  218DPPC   C1710867   2.058   3.624   5.028
  218DPPC   C1810868   1.988   3.680   4.905
  218DPPC   C1910869   1.942   3.561   4.820
  218DPPC   C2010870   1.886   3.598   4.682
  218DPPC   C2110871   1.901   3.479   4.586
  218DPPC   C2210872   1.854   3.528   4.449
  218DPPC   C2310873   1.799   3.410   4.368
  218DPPC   C2410874   1.775   3.454   4.223
  218DPPC   C2510875   1.690   3.355   4.144
  218DPPC   C2610876   1.674   3.410   4.002
  218DPPC   C2710877   1.612   3.305   3.910
  218DPPC   C2810878   1.580   3.366   3.774
  218DPPC   C2910879   1.702   3.438   3.716
  218DPPC   C3010880   1.688   3.466   3.566
  218DPPC   C3110881   1.815   3.538   3.520
  218DPPC   C3210882   2.251   4.030   5.107
  218DPPC   O3310883   2.323   4.043   4.984
  218DPPC   C3410884   2.306   4.161   4.918
  218DPPC   O3510885   2.201   4.223   4.921
  218DPPC   C3610886   2.390   4.170   4.790
  218DPPC   C3710887   2.299   4.194   4.670
  218DPPC   C3810888   2.373   4.179   4.537
  218DPPC   C3910889   2.492   4.272   4.509
  218DPPC   C4010890   2.533   4.252   4.363
  218DPPC   C4110891   2.646   4.349   4.328
  218DPPC   C4210892   2.657   4.381   4.179
  218DPPC   C4310893   2.789   4.456   4.158
  218DPPC   C4410894   2.790   4.582   4.246
  218DPPC   C4510895   2.930   4.642   4.228
  218DPPC   C4610896   2.943   4.776   4.302
  218DPPC   C4710897   3.088   4.825   4.299
  218DPPC   C4810898   3.144   4.830   4.156
  218DPPC   C4910899   3.294   4.861   4.163
  218DPPC   C5010900   3.358   4.846   4.024
  219DPPC    C110901   8.982   6.739   4.960
  219DPPC    C210902   9.160   6.845   4.874
  219DPPC    C310903   9.192   6.734   5.079
  219DPPC    N410904   9.127   6.722   4.948
  219DPPC    C510905   9.171   6.623   4.848
  219DPPC    C610906   9.099   6.497   4.798
  219DPPC    O710907   9.186   6.419   4.715
  219DPPC    P810908   9.088   6.299   4.674
  219DPPC    O910909   8.976   6.368   4.606
  219DPPC   O1010910   9.057   6.216   4.793
  219DPPC   O1110911   9.173   6.197   4.583
  219DPPC   C1210912   9.181   6.269   4.460
  219DPPC   C1310913   9.267   6.211   4.347
  219DPPC   O1410914   9.255   6.284   4.224
  219DPPC   C1510915   9.348   6.272   4.125
  219DPPC   O1610916   9.449   6.207   4.152
  219DPPC   C1710917   9.339   6.357   3.998
  219DPPC   C1810918   9.409   6.299   3.875
  219DPPC   C1910919   9.431   6.408   3.771
  219DPPC   C2010920   9.554   6.383   3.683
  219DPPC   C2110921   9.535   6.250   3.610
  219DPPC   C2210922   9.678   6.195   3.607
  219DPPC   C2310923   9.681   6.049   3.563
  219DPPC   C2410924   9.827   6.017   3.534
  219DPPC   C2510925   9.822   5.876   3.474
  219DPPC   C2610926   9.732   5.789   3.561
  219DPPC   C2710927   9.671   5.671   3.484
  219DPPC   C2810928   9.590   5.732   3.370
  219DPPC   C2910929   9.470   5.815   3.415
  219DPPC   C3010930   9.452   5.923   3.308
  219DPPC   C3110931   9.318   5.995   3.332
  219DPPC   C3210932   9.237   6.062   4.329
  219DPPC   O3310933   9.103   6.017   4.312
  219DPPC   C3410934   9.092   5.882   4.312
  219DPPC   O3510935   9.179   5.820   4.375
  219DPPC   C3610936   8.970   5.815   4.250
  219DPPC   C3710937   8.945   5.683   4.324
  219DPPC   C3810938   8.808   5.633   4.278
  219DPPC   C3910939   8.807   5.593   4.131
  219DPPC   C4010940   8.676   5.535   4.077
  219DPPC   C4110941   8.675   5.514   3.926
  219DPPC   C4210942   8.541   5.448   3.891
  219DPPC   C4310943   8.534   5.411   3.743
  219DPPC   C4410944   8.564   5.534   3.657
  219DPPC   C4510945   8.581   5.498   3.510
  219DPPC   C4610946   8.447   5.446   3.458
  219DPPC   C4710947   8.450   5.466   3.306
  219DPPC   C4810948   8.317   5.452   3.232
  219DPPC   C4910949   8.342   5.419   3.085
  219DPPC   C5010950   8.204   5.405   3.019
  220DPPC    C110951   4.611   6.660   5.195
  220DPPC    C210952   4.452   6.497   5.206
  220DPPC    C310953   4.464   6.641   5.022
  220DPPC    N410954   4.546   6.558   5.112
  220DPPC    C510955   4.625   6.457   5.039
  220DPPC    C610956   4.736   6.390   5.120
  220DPPC    O710957   4.685   6.298   5.216
  220DPPC    P810958   4.779   6.175   5.261
  220DPPC    O910959   4.706   6.125   5.380
  220DPPC   O1010960   4.916   6.230   5.253
  220DPPC   O1110961   4.730   6.088   5.135
  220DPPC   C1210962   4.837   6.050   5.047
  220DPPC   C1310963   4.798   6.012   4.904
  220DPPC   O1410964   4.915   5.986   4.824
  220DPPC   C1510965   4.954   5.855   4.825
  220DPPC   O1610966   4.906   5.774   4.903
  220DPPC   C1710967   5.081   5.833   4.742
  220DPPC   C1810968   5.066   5.839   4.590
  220DPPC   C1910969   5.192   5.829   4.504
  220DPPC   C2010970   5.262   5.694   4.518
  220DPPC   C2110971   5.373   5.654   4.421
  220DPPC   C2210972   5.317   5.615   4.284
  220DPPC   C2310973   5.439   5.597   4.194
  220DPPC   C2410974   5.549   5.502   4.240
  220DPPC   C2510975   5.649   5.463   4.131
  220DPPC   C2610976   5.601   5.353   4.037
  220DPPC   C2710977   5.713   5.313   3.941
  220DPPC   C2810978   5.652   5.220   3.836
  220DPPC   C2910979   5.760   5.178   3.736
  220DPPC   C3010980   5.723   5.223   3.595
  220DPPC   C3110981   5.851   5.229   3.511
  220DPPC   C3210982   4.721   6.131   4.848
  220DPPC   O3310983   4.668   6.127   4.715
  220DPPC   C3410984   4.603   6.238   4.671
  220DPPC   O3510985   4.600   6.344   4.732
  220DPPC   C3610986   4.530   6.215   4.538
  220DPPC   C3710987   4.636   6.233   4.429
  220DPPC   C3810988   4.691   6.095   4.393
  220DPPC   C3910989   4.791   6.114   4.279
  220DPPC   C4010990   4.758   6.049   4.144
  220DPPC   C4110991   4.617   6.084   4.096
  220DPPC   C4210992   4.590   5.993   3.976
  220DPPC   C4310993   4.700   6.004   3.870
  220DPPC   C4410994   4.667   5.918   3.747
  220DPPC   C4510995   4.794   5.897   3.665
  220DPPC   C4610996   4.866   6.029   3.638
  220DPPC   C4710997   4.788   6.126   3.549
  220DPPC   C4810998   4.868   6.255   3.532
  220DPPC   C4910999   4.801   6.353   3.436
  220DPPC   C5011000   4.884   6.481   3.451
  221DPPC    C111001   0.434   6.168   4.467
  221DPPC    C211002   0.383   5.974   4.348
  221DPPC    C311003   0.516   6.134   4.237
  221DPPC    N411004   0.489   6.074   4.369
  221DPPC    C511005   0.610   6.011   4.423
  221DPPC    C611006   0.735   6.089   4.465
  221DPPC    O711007   0.831   6.035   4.556
  221DPPC    P811008   0.940   6.151   4.581
  221DPPC    O911009   1.025   6.109   4.694
  221DPPC   O1011010   0.867   6.280   4.580
  221DPPC   O1111011   1.012   6.136   4.438
  221DPPC   C1211012   1.132   6.061   4.449
  221DPPC   C1311013   1.202   6.028   4.317
  221DPPC   O1411014   1.298   6.113   4.253
  221DPPC   C1511015   1.423   6.132   4.304
  221DPPC   O1611016   1.464   6.054   4.389
  221DPPC   C1711017   1.506   6.220   4.211
  221DPPC   C1811018   1.451   6.363   4.201
  221DPPC   C1911019   1.347   6.388   4.092
  221DPPC   C2011020   1.401   6.352   3.953
  221DPPC   C2111021   1.295   6.351   3.843
  221DPPC   C2211022   1.366   6.298   3.719
  221DPPC   C2311023   1.274   6.301   3.597
  221DPPC   C2411024   1.349   6.235   3.480
  221DPPC   C2511025   1.262   6.248   3.354
  221DPPC   C2611026   1.131   6.170   3.368
  221DPPC   C2711027   1.041   6.173   3.245
  221DPPC   C2811028   0.977   6.310   3.218
  221DPPC   C2911029   0.939   6.341   3.073
  221DPPC   C3011030   1.040   6.439   3.014
  221DPPC   C3111031   1.043   6.555   3.114
  221DPPC   C3211032   1.086   5.995   4.223
  221DPPC   O3311033   1.048   5.859   4.250
  221DPPC   C3411034   0.929   5.839   4.188
  221DPPC   O3511035   0.852   5.932   4.163
  221DPPC   C3611036   0.878   5.697   4.208
  221DPPC   C3711037   0.851   5.630   4.073
  221DPPC   C3811038   0.778   5.496   4.088
  221DPPC   C3911039   0.782   5.387   3.982
  221DPPC   C4011040   0.710   5.432   3.854
  221DPPC   C4111041   0.761   5.332   3.750
  221DPPC   C4211042   0.703   5.373   3.615
  221DPPC   C4311043   0.550   5.361   3.608
  221DPPC   C4411044   0.490   5.359   3.467
  221DPPC   C4511045   0.342   5.319   3.465
  221DPPC   C4611046   0.278   5.362   3.332
  221DPPC   C4711047   0.145   5.291   3.308
  221DPPC   C4811048   0.087   5.322   3.169
  221DPPC   C4911049  -0.043   5.244   3.146
  221DPPC   C5011050  -0.021   5.094   3.165
  222DPPC    C111051   5.898   4.042   6.315
  222DPPC    C211052   5.716   3.911   6.324
  222DPPC    C311053   5.757   4.030   6.117
  222DPPC    N411054   5.819   3.954   6.228
  222DPPC    C511055   5.923   3.866   6.175
  222DPPC    C611056   5.904   3.718   6.140
  222DPPC    O711057   5.787   3.693   6.062
  222DPPC    P811058   5.760   3.534   6.070
  222DPPC    O911059   5.613   3.528   6.087
  222DPPC   O1011060   5.851   3.463   6.162
  222DPPC   O1111061   5.817   3.502   5.923
  222DPPC   C1211062   5.725   3.551   5.825
  222DPPC   C1311063   5.763   3.548   5.677
  222DPPC   O1411064   5.648   3.563   5.591
  222DPPC   C1511065   5.612   3.678   5.527
  222DPPC   O1611066   5.676   3.779   5.555
  222DPPC   C1711067   5.537   3.649   5.397
  222DPPC   C1811068   5.555   3.740   5.275
  222DPPC   C1911069   5.691   3.750   5.206
  222DPPC   C2011070   5.676   3.856   5.098
  222DPPC   C2111071   5.565   3.823   4.998
  222DPPC   C2211072   5.603   3.891   4.866
  222DPPC   C2311073   5.493   3.890   4.760
  222DPPC   C2411074   5.535   3.983   4.646
  222DPPC   C2511075   5.425   3.998   4.542
  222DPPC   C2611076   5.355   4.134   4.545
  222DPPC   C2711077   5.282   4.155   4.412
  222DPPC   C2811078   5.210   4.290   4.415
  222DPPC   C2911079   5.136   4.294   4.549
  222DPPC   C3011080   5.063   4.423   4.585
  222DPPC   C3111081   5.065   4.422   4.738
  222DPPC   C3211082   5.844   3.419   5.659
  222DPPC   O3311083   5.939   3.423   5.552
  222DPPC   C3411084   5.981   3.307   5.496
  222DPPC   O3511085   5.927   3.198   5.509
  222DPPC   C3611086   6.098   3.323   5.397
  222DPPC   C3711087   6.046   3.321   5.254
  222DPPC   C3811088   5.930   3.410   5.210
  222DPPC   C3911089   5.904   3.384   5.061
  222DPPC   C4011090   5.805   3.478   4.993
  222DPPC   C4111091   5.812   3.459   4.842
  222DPPC   C4211092   5.720   3.555   4.766
  222DPPC   C4311093   5.726   3.532   4.615
  222DPPC   C4411094   5.635   3.641   4.558
  222DPPC   C4511095   5.634   3.632   4.406
  222DPPC   C4611096   5.533   3.719   4.331
  222DPPC   C4711097   5.568   3.723   4.182
  222DPPC   C4811098   5.475   3.813   4.100
  222DPPC   C4911099   5.323   3.796   4.112
  222DPPC   C5011100   5.249   3.858   3.994
  223DPPC    C111101   3.492   7.360   5.800
  223DPPC    C211102   3.574   7.138   5.821
  223DPPC    C311103   3.345   7.177   5.767
  223DPPC    N411104   3.483   7.224   5.745
  223DPPC    C511105   3.544   7.218   5.611
  223DPPC    C611106   3.489   7.310   5.501
  223DPPC    O711107   3.531   7.275   5.369
  223DPPC    P811108   3.448   7.357   5.259
  223DPPC    O911109   3.526   7.479   5.231
  223DPPC   O1011110   3.312   7.355   5.316
  223DPPC   O1111111   3.473   7.237   5.154
  223DPPC   C1211112   3.593   7.263   5.081
  223DPPC   C1311113   3.657   7.144   5.008
  223DPPC   O1411114   3.765   7.196   4.930
  223DPPC   C1511115   3.880   7.123   4.929
  223DPPC   O1611116   3.887   7.020   4.995
  223DPPC   C1711117   3.999   7.173   4.847
  223DPPC   C1811118   3.954   7.233   4.714
  223DPPC   C1911119   3.896   7.126   4.621
  223DPPC   C2011120   3.871   7.178   4.479
  223DPPC   C2111121   3.832   7.081   4.368
  223DPPC   C2211122   3.961   7.032   4.302
  223DPPC   C2311123   3.946   6.945   4.177
  223DPPC   C2411124   3.914   7.040   4.061
  223DPPC   C2511125   3.929   6.973   3.925
  223DPPC   C2611126   4.074   6.956   3.877
  223DPPC   C2711127   4.074   6.899   3.735
  223DPPC   C2811128   4.026   6.753   3.735
  223DPPC   C2911129   4.068   6.682   3.606
  223DPPC   C3011130   3.995   6.548   3.597
  223DPPC   C3111131   4.043   6.478   3.469
  223DPPC   C3211132   3.542   7.074   4.935
  223DPPC   O3311133   3.468   7.140   4.832
  223DPPC   C3411134   3.366   7.071   4.773
  223DPPC   O3511135   3.333   6.965   4.826
  223DPPC   C3611136   3.302   7.126   4.645
  223DPPC   C3711137   3.400   7.131   4.528
  223DPPC   C3811138   3.336   7.162   4.392
  223DPPC   C3911139   3.439   7.192   4.284
  223DPPC   C4011140   3.391   7.221   4.141
  223DPPC   C4111141   3.513   7.252   4.054
  223DPPC   C4211142   3.468   7.316   3.922
  223DPPC   C4311143   3.596   7.334   3.840
  223DPPC   C4411144   3.557   7.371   3.697
  223DPPC   C4511145   3.674   7.397   3.602
  223DPPC   C4611146   3.625   7.414   3.458
  223DPPC   C4711147   3.743   7.455   3.370
  223DPPC   C4811148   3.698   7.469   3.225
  223DPPC   C4911149   3.821   7.442   3.137
  223DPPC   C5011150   3.787   7.467   2.990
  224DPPC    C111151   3.596   3.406   5.986
  224DPPC    C211152   3.379   3.321   5.913
  224DPPC    C311153   3.394   3.534   5.999
  224DPPC    N411154   3.469   3.437   5.918
  224DPPC    C511155   3.489   3.506   5.790
  224DPPC    C611156   3.595   3.453   5.693
  224DPPC    O711157   3.582   3.317   5.653
  224DPPC    P811158   3.723   3.255   5.605
  224DPPC    O911159   3.670   3.117   5.608
  224DPPC   O1011160   3.821   3.311   5.700
  224DPPC   O1111161   3.721   3.322   5.459
  224DPPC   C1211162   3.709   3.215   5.365
  224DPPC   C1311163   3.708   3.255   5.217
  224DPPC   O1411164   3.700   3.145   5.126
  224DPPC   C1511165   3.792   3.045   5.118
  224DPPC   O1611166   3.890   3.047   5.192
  224DPPC   C1711167   3.800   2.972   4.984
  224DPPC   C1811168   3.784   3.071   4.869
  224DPPC   C1911169   3.787   2.994   4.736
  224DPPC   C2011170   3.781   3.088   4.615
  224DPPC   C2111171   3.784   3.034   4.472
  224DPPC   C2211172   3.668   2.941   4.434
  224DPPC   C2311173   3.689   2.895   4.290
  224DPPC   C2411174   3.575   2.811   4.233
  224DPPC   C2511175   3.593   2.796   4.082
  224DPPC   C2611176   3.720   2.717   4.050
  224DPPC   C2711177   3.708   2.637   3.920
  224DPPC   C2811178   3.683   2.721   3.794
  224DPPC   C2911179   3.700   2.643   3.664
  224DPPC   C3011180   3.683   2.731   3.540
  224DPPC   C3111181   3.699   2.652   3.410
  224DPPC   C3211182   3.836   3.338   5.205
  224DPPC   O3311183   3.822   3.439   5.105
  224DPPC   C3411184   3.938   3.503   5.073
  224DPPC   O3511185   4.040   3.495   5.141
  224DPPC   C3611186   3.928   3.592   4.949
  224DPPC   C3711187   3.845   3.538   4.831
  224DPPC   C3811188   3.859   3.638   4.716
  224DPPC   C3911189   3.792   3.586   4.588
  224DPPC   C4011190   3.801   3.685   4.472
  224DPPC   C4111191   3.757   3.618   4.341
  224DPPC   C4211192   3.803   3.684   4.211
  224DPPC   C4311193   3.724   3.624   4.095
  224DPPC   C4411194   3.755   3.705   3.969
  224DPPC   C4511195   3.700   3.629   3.848
  224DPPC   C4611196   3.687   3.725   3.730
  224DPPC   C4711197   3.687   3.646   3.599
  224DPPC   C4811198   3.806   3.551   3.589
  224DPPC   C4911199   3.778   3.473   3.461
  224DPPC   C5011200   3.871   3.355   3.429
  225DPPC    C111201   9.003   3.050   5.234
  225DPPC    C211202   9.191   3.181   5.234
  225DPPC    C311203   9.089   3.114   5.442
  225DPPC    N411204   9.129   3.070   5.308
  225DPPC    C511205   9.213   2.950   5.315
  225DPPC    C611206   9.343   2.954   5.396
  225DPPC    O711207   9.437   3.058   5.367
  225DPPC    P811208   9.563   3.031   5.463
  225DPPC    O911209   9.529   2.928   5.564
  225DPPC   O1011210   9.623   3.164   5.490
  225DPPC   O1111211   9.648   2.954   5.350
  225DPPC   C1211212   9.724   3.044   5.269
  225DPPC   C1311213   9.710   3.022   5.119
  225DPPC   O1411214   9.790   3.121   5.052
  225DPPC   C1511215   9.924   3.112   5.030
  225DPPC   O1611216   9.994   3.079   5.125
  225DPPC   C1711217   9.971   3.218   4.931
  225DPPC   C1811218   9.967   3.153   4.792
  225DPPC   C1911219  10.004   3.255   4.685
  225DPPC   C2011220   9.964   3.199   4.548
  225DPPC   C2111221  10.016   3.283   4.431
  225DPPC   C2211222   9.939   3.239   4.307
  225DPPC   C2311223   9.989   3.301   4.176
  225DPPC   C2411224   9.893   3.266   4.062
  225DPPC   C2511225   9.944   3.315   3.926
  225DPPC   C2611226   9.845   3.295   3.811
  225DPPC   C2711227   9.899   3.351   3.680
  225DPPC   C2811228   9.822   3.289   3.563
  225DPPC   C2911229   9.910   3.300   3.439
  225DPPC   C3011230   9.841   3.241   3.316
  225DPPC   C3111231   9.922   3.272   3.190
  225DPPC   C3211232   9.560   3.024   5.093
  225DPPC   O3311233   9.523   2.925   4.996
  225DPPC   C3411234   9.402   2.938   4.935
  225DPPC   O3511235   9.326   3.027   4.973
  225DPPC   C3611236   9.368   2.821   4.843
  225DPPC   C3711237   9.405   2.867   4.702
  225DPPC   C3811238   9.360   2.742   4.625
  225DPPC   C3911239   9.395   2.756   4.477
  225DPPC   C4011240   9.402   2.620   4.407
  225DPPC   C4111241   9.425   2.633   4.257
  225DPPC   C4211242   9.442   2.495   4.193
  225DPPC   C4311243   9.424   2.520   4.043
  225DPPC   C4411244   9.463   2.395   3.963
  225DPPC   C4511245   9.452   2.415   3.811
  225DPPC   C4611246   9.574   2.498   3.771
  225DPPC   C4711247   9.568   2.531   3.621
  225DPPC   C4811248   9.573   2.406   3.533
  225DPPC   C4911249   9.593   2.431   3.383
  225DPPC   C5011250   9.725   2.508   3.369
  226DPPC    C111251   3.875   7.888   5.496
  226DPPC    C211252   3.846   8.118   5.473
  226DPPC    C311253   4.063   8.044   5.455
  226DPPC    N411254   3.925   8.005   5.423
  226DPPC    C511255   3.891   7.986   5.281
  226DPPC    C611256   3.974   7.891   5.193
  226DPPC    O711257   4.081   7.960   5.128
  226DPPC    P811258   4.170   7.846   5.058
  226DPPC    O911259   4.063   7.791   4.973
  226DPPC   O1011260   4.215   7.777   5.182
  226DPPC   O1111261   4.256   7.973   5.011
  226DPPC   C1211262   4.215   8.039   4.891
  226DPPC   C1311263   4.315   8.053   4.776
  226DPPC   O1411264   4.270   8.127   4.661
  226DPPC   C1511265   4.293   8.261   4.652
  226DPPC   O1611266   4.327   8.322   4.753
  226DPPC   C1711267   4.246   8.327   4.523
  226DPPC   C1811268   4.355   8.396   4.440
  226DPPC   C1911269   4.483   8.314   4.418
  226DPPC   C2011270   4.573   8.356   4.302
  226DPPC   C2111271   4.712   8.292   4.314
  226DPPC   C2211272   4.786   8.308   4.181
  226DPPC   C2311273   4.928   8.254   4.194
  226DPPC   C2411274   4.988   8.243   4.054
  226DPPC   C2511275   5.133   8.196   4.047
  226DPPC   C2611276   5.193   8.197   3.906
  226DPPC   C2711277   5.332   8.135   3.916
  226DPPC   C2811278   5.410   8.160   3.788
  226DPPC   C2911279   5.337   8.093   3.671
  226DPPC   C3011280   5.437   8.071   3.558
  226DPPC   C3111281   5.546   7.974   3.602
  226DPPC   C3211282   4.378   7.917   4.747
  226DPPC   O3311283   4.281   7.813   4.736
  226DPPC   C3411284   4.334   7.688   4.737
  226DPPC   O3511285   4.452   7.663   4.759
  226DPPC   C3611286   4.238   7.571   4.711
  226DPPC   C3711287   4.208   7.545   4.563
  226DPPC   C3811288   4.319   7.479   4.482
  226DPPC   C3911289   4.267   7.353   4.413
  226DPPC   C4011290   4.387   7.310   4.329
  226DPPC   C4111291   4.352   7.219   4.211
  226DPPC   C4211292   4.474   7.199   4.122
  226DPPC   C4311293   4.429   7.132   3.992
  226DPPC   C4411294   4.548   7.126   3.897
  226DPPC   C4511295   4.493   7.089   3.759
  226DPPC   C4611296   4.606   7.025   3.679
  226DPPC   C4711297   4.564   6.978   3.539
  226DPPC   C4811298   4.688   6.921   3.470
  226DPPC   C4911299   4.663   6.882   3.325
  226DPPC   C5011300   4.793   6.850   3.249
  227DPPC    C111301   4.746   4.066   1.455
  227DPPC    C211302   4.802   4.281   1.409
  227DPPC    C311303   4.573   4.229   1.393
  227DPPC    N411304   4.694   4.202   1.471
  227DPPC    C511305   4.676   4.245   1.611
  227DPPC    C611306   4.659   4.395   1.637
  227DPPC    O711307   4.632   4.423   1.774
  227DPPC    P811308   4.691   4.565   1.822
  227DPPC    O911309   4.619   4.607   1.944
  227DPPC   O1011310   4.706   4.650   1.701
  227DPPC   O1111311   4.843   4.527   1.860
  227DPPC   C1211312   4.848   4.517   2.002
  227DPPC   C1311313   4.984   4.460   2.041
  227DPPC   O1411314   4.993   4.385   2.162
  227DPPC   C1511315   4.926   4.267   2.176
  227DPPC   O1611316   4.867   4.223   2.078
  227DPPC   C1711317   4.918   4.203   2.315
  227DPPC   C1811318   5.034   4.109   2.349
  227DPPC   C1911319   5.034   4.086   2.501
  227DPPC   C2011320   5.138   3.990   2.558
  227DPPC   C2111321   5.111   3.964   2.706
  227DPPC   C2211322   5.219   3.885   2.780
  227DPPC   C2311323   5.191   3.837   2.922
  227DPPC   C2411324   5.328   3.844   2.989
  227DPPC   C2511325   5.279   3.791   3.124
  227DPPC   C2611326   5.388   3.771   3.230
  227DPPC   C2711327   5.320   3.750   3.365
  227DPPC   C2811328   5.418   3.739   3.483
  227DPPC   C2911329   5.356   3.691   3.614
  227DPPC   C3011330   5.306   3.548   3.595
  227DPPC   C3111331   5.256   3.508   3.734
  227DPPC   C3211332   5.087   4.571   2.018
  227DPPC   O3311333   5.077   4.666   2.125
  227DPPC   C3411334   5.187   4.745   2.138
  227DPPC   O3511335   5.260   4.763   2.041
  227DPPC   C3611336   5.203   4.839   2.258
  227DPPC   C3711337   5.327   4.798   2.337
  227DPPC   C3811338   5.362   4.886   2.458
  227DPPC   C3911339   5.282   4.857   2.585
  227DPPC   C4011340   5.323   4.949   2.700
  227DPPC   C4111341   5.264   4.926   2.839
  227DPPC   C4211342   5.360   4.987   2.941
  227DPPC   C4311343   5.284   4.984   3.074
  227DPPC   C4411344   5.352   5.047   3.196
  227DPPC   C4511345   5.288   4.989   3.323
  227DPPC   C4611346   5.386   5.022   3.436
  227DPPC   C4711347   5.350   4.934   3.556
  227DPPC   C4811348   5.456   4.961   3.664
  227DPPC   C4911349   5.409   4.867   3.774
  227DPPC   C5011350   5.492   4.878   3.902
  228DPPC    C111351   5.577   2.685   1.983
  228DPPC    C211352   5.739   2.608   1.813
  228DPPC    C311353   5.543   2.502   1.829
  228DPPC    N411354   5.599   2.637   1.846
  228DPPC    C511355   5.522   2.712   1.746
  228DPPC    C611356   5.527   2.865   1.747
  228DPPC    O711357   5.651   2.909   1.692
  228DPPC    P811358   5.639   3.065   1.656
  228DPPC    O911359   5.503   3.086   1.603
  228DPPC   O1011360   5.758   3.099   1.574
  228DPPC   O1111361   5.640   3.138   1.799
  228DPPC   C1211362   5.765   3.108   1.861
  228DPPC   C1311363   5.771   3.126   2.013
  228DPPC   O1411364   5.700   3.025   2.085
  228DPPC   C1511365   5.718   3.031   2.220
  228DPPC   O1611366   5.816   3.078   2.277
  228DPPC   C1711367   5.624   2.935   2.294
  228DPPC   C1811368   5.573   3.009   2.418
  228DPPC   C1911369   5.492   2.912   2.503
  228DPPC   C2011370   5.440   2.997   2.618
  228DPPC   C2111371   5.353   2.917   2.716
  228DPPC   C2211372   5.309   3.026   2.814
  228DPPC   C2311373   5.246   2.969   2.942
  228DPPC   C2411374   5.113   2.904   2.902
  228DPPC   C2511375   5.020   2.885   3.022
  228DPPC   C2611376   4.906   2.786   2.995
  228DPPC   C2711377   4.869   2.705   3.120
  228DPPC   C2811378   4.987   2.621   3.169
  228DPPC   C2911379   4.935   2.554   3.296
  228DPPC   C3011380   5.045   2.456   3.339
  228DPPC   C3111381   4.996   2.352   3.440
  228DPPC   C3211382   5.730   3.269   2.048
  228DPPC   O3311383   5.835   3.366   2.050
  228DPPC   C3411384   5.794   3.493   2.077
  228DPPC   O3511385   5.681   3.527   2.041
  228DPPC   C3611386   5.911   3.579   2.124
  228DPPC   C3711387   5.889   3.671   2.244
  228DPPC   C3811388   5.912   3.600   2.378
  228DPPC   C3911389   5.906   3.713   2.481
  228DPPC   C4011390   5.904   3.653   2.621
  228DPPC   C4111391   5.899   3.770   2.719
  228DPPC   C4211392   5.896   3.690   2.850
  228DPPC   C4311393   5.877   3.788   2.966
  228DPPC   C4411394   5.857   3.706   3.093
  228DPPC   C4511395   5.808   3.806   3.199
  228DPPC   C4611396   5.842   3.768   3.343
  228DPPC   C4711397   5.977   3.831   3.376
  228DPPC   C4811398   6.098   3.759   3.315
  228DPPC   C4911399   6.218   3.840   3.365
  228DPPC   C5011400   6.347   3.792   3.299
  229DPPC    C111401   3.327   3.881   2.049
  229DPPC    C211402   3.559   3.922   2.038
  229DPPC    C311403   3.466   3.797   2.227
  229DPPC    N411404   3.458   3.825   2.082
  229DPPC    C511405   3.484   3.698   2.013
  229DPPC    C611406   3.383   3.585   2.037
  229DPPC    O711407   3.440   3.458   2.002
  229DPPC    P811408   3.353   3.327   2.035
  229DPPC    O911409   3.439   3.229   1.964
  229DPPC   O1011410   3.214   3.358   1.994
  229DPPC   O1111411   3.385   3.337   2.193
  229DPPC   C1211412   3.407   3.207   2.248
  229DPPC   C1311413   3.436   3.203   2.398
  229DPPC   O1411414   3.318   3.176   2.475
  229DPPC   C1511415   3.288   3.046   2.504
  229DPPC   O1611416   3.346   2.955   2.445
  229DPPC   C1711417   3.174   3.015   2.601
  229DPPC   C1811418   3.226   2.915   2.705
  229DPPC   C1911419   3.127   2.891   2.819
  229DPPC   C2011420   3.183   2.793   2.922
  229DPPC   C2111421   3.123   2.816   3.061
  229DPPC   C2211422   3.077   2.683   3.122
  229DPPC   C2311423   3.008   2.711   3.255
  229DPPC   C2411424   2.932   2.586   3.299
  229DPPC   C2511425   2.897   2.579   3.448
  229DPPC   C2611426   2.813   2.455   3.477
  229DPPC   C2711427   2.818   2.402   3.620
  229DPPC   C2811428   2.797   2.519   3.717
  229DPPC   C2911429   2.801   2.459   3.858
  229DPPC   C3011430   2.853   2.534   3.980
  229DPPC   C3111431   2.857   2.436   4.098
  229DPPC   C3211432   3.505   3.330   2.447
  229DPPC   O3311433   3.627   3.362   2.378
  229DPPC   C3411434   3.682   3.484   2.398
  229DPPC   O3511435   3.623   3.585   2.436
  229DPPC   C3611436   3.823   3.490   2.337
  229DPPC   C3711437   3.941   3.465   2.431
  229DPPC   C3811438   3.918   3.543   2.561
  229DPPC   C3911439   4.046   3.532   2.645
  229DPPC   C4011440   4.036   3.618   2.771
  229DPPC   C4111441   4.161   3.596   2.857
  229DPPC   C4211442   4.125   3.644   2.998
  229DPPC   C4311443   4.240   3.676   3.094
  229DPPC   C4411444   4.177   3.711   3.229
  229DPPC   C4511445   4.285   3.743   3.332
  229DPPC   C4611446   4.232   3.769   3.473
  229DPPC   C4711447   4.180   3.913   3.483
  229DPPC   C4811448   4.141   3.944   3.627
  229DPPC   C4911449   4.125   4.095   3.642
  229DPPC   C5011450   4.077   4.120   3.785
  230DPPC    C111451   5.581   1.045   2.194
  230DPPC    C211452   5.420   1.033   2.379
  230DPPC    C311453   5.402   1.190   2.198
  230DPPC    N411454   5.440   1.053   2.234
  230DPPC    C511455   5.368   0.941   2.172
  230DPPC    C611456   5.391   0.891   2.029
  230DPPC    O711457   5.280   0.836   1.959
  230DPPC    P811458   5.315   0.689   1.905
  230DPPC    O911459   5.443   0.706   1.834
  230DPPC   O1011460   5.202   0.640   1.822
  230DPPC   O1111461   5.330   0.624   2.051
  230DPPC   C1211462   5.200   0.577   2.089
  230DPPC   C1311463   5.163   0.592   2.237
  230DPPC   O1411464   5.122   0.721   2.283
  230DPPC   C1511465   4.997   0.770   2.258
  230DPPC   O1611466   4.923   0.731   2.168
  230DPPC   C1711467   4.942   0.879   2.350
  230DPPC   C1811468   4.927   0.823   2.492
  230DPPC   C1911469   4.885   0.943   2.576
  230DPPC   C2011470   4.885   0.903   2.724
  230DPPC   C2111471   4.849   1.030   2.802
  230DPPC   C2211472   4.699   1.060   2.807
  230DPPC   C2311473   4.690   1.172   2.911
  230DPPC   C2411474   4.791   1.282   2.878
  230DPPC   C2511475   4.770   1.389   2.985
  230DPPC   C2611476   4.817   1.332   3.120
  230DPPC   C2711477   4.799   1.416   3.246
  230DPPC   C2811478   4.832   1.318   3.359
  230DPPC   C2911479   4.966   1.246   3.348
  230DPPC   C3011480   4.981   1.173   3.481
  230DPPC   C3111481   5.100   1.078   3.494
  230DPPC   C3211482   5.284   0.534   2.311
  230DPPC   O3311483   5.289   0.517   2.452
  230DPPC   C3411484   5.335   0.630   2.511
  230DPPC   O3511485   5.386   0.724   2.450
  230DPPC   C3611486   5.322   0.639   2.663
  230DPPC   C3711487   5.330   0.500   2.726
  230DPPC   C3811488   5.353   0.511   2.877
  230DPPC   C3911489   5.326   0.376   2.942
  230DPPC   C4011490   5.346   0.375   3.094
  230DPPC   C4111491   5.310   0.232   3.137
  230DPPC   C4211492   5.163   0.195   3.123
  230DPPC   C4311493   5.092   0.264   3.240
  230DPPC   C4411494   4.941   0.242   3.239
  230DPPC   C4511495   4.863   0.313   3.351
  230DPPC   C4611496   4.711   0.300   3.344
  230DPPC   C4711497   4.644   0.382   3.455
  230DPPC   C4811498   4.652   0.530   3.420
  230DPPC   C4911499   4.513   0.583   3.383
  230DPPC   C5011500   4.406   0.552   3.488
  231DPPC    C111501   1.124   0.155   1.681
  231DPPC    C211502   1.205   0.335   1.583
  231DPPC    C311503   1.374   0.207   1.696
  231DPPC    N411504   1.249   0.199   1.618
  231DPPC    C511505   1.276   0.124   1.495
  231DPPC    C611506   1.358  -0.005   1.492
  231DPPC    O711507   1.292  -0.112   1.561
  231DPPC    P811508   1.398  -0.229   1.594
  231DPPC    O911509   1.493  -0.186   1.699
  231DPPC   O1011510   1.420  -0.310   1.472
  231DPPC   O1111511   1.282  -0.309   1.671
  231DPPC   C1211512   1.271  -0.254   1.803
  231DPPC   C1311513   1.135  -0.276   1.869
  231DPPC   O1411514   1.115  -0.206   1.993
  231DPPC   C1511515   1.014  -0.115   1.997
  231DPPC   O1611516   0.939  -0.102   1.900
  231DPPC   C1711517   1.004  -0.021   2.118
  231DPPC   C1811518   1.040   0.123   2.082
  231DPPC   C1911519   0.991   0.226   2.185
  231DPPC   C2011520   0.839   0.243   2.183
  231DPPC   C2111521   0.802   0.360   2.274
  231DPPC   C2211522   0.855   0.343   2.416
  231DPPC   C2311523   0.822   0.462   2.505
  231DPPC   C2411524   0.855   0.423   2.649
  231DPPC   C2511525   0.814   0.546   2.730
  231DPPC   C2611526   0.850   0.532   2.878
  231DPPC   C2711527   0.810   0.654   2.962
  231DPPC   C2811528   0.816   0.616   3.110
  231DPPC   C2911529   0.819   0.744   3.195
  231DPPC   C3011530   0.835   0.714   3.344
  231DPPC   C3111531   0.717   0.635   3.400
  231DPPC   C3211532   1.116  -0.428   1.864
  231DPPC   O3311533   1.237  -0.496   1.898
  231DPPC   C3411534   1.221  -0.629   1.923
  231DPPC   O3511535   1.155  -0.696   1.844
  231DPPC   C3611536   1.326  -0.687   2.018
  231DPPC   C3711537   1.255  -0.724   2.148
  231DPPC   C3811538   1.370  -0.793   2.220
  231DPPC   C3911539   1.342  -0.868   2.351
  231DPPC   C4011540   1.475  -0.925   2.401
  231DPPC   C4111541   1.459  -1.006   2.530
  231DPPC   C4211542   1.600  -1.046   2.573
  231DPPC   C4311543   1.670  -0.914   2.607
  231DPPC   C4411544   1.792  -0.924   2.698
  231DPPC   C4511545   1.856  -0.785   2.701
  231DPPC   C4611546   1.998  -0.798   2.645
  231DPPC   C4711547   2.081  -0.670   2.660
  231DPPC   C4811548   2.215  -0.707   2.724
  231DPPC   C4911549   2.335  -0.646   2.652
  231DPPC   C5011550   2.459  -0.722   2.701
  232DPPC    C111551   7.754   6.832   1.162
  232DPPC    C211552   7.858   6.959   1.343
  232DPPC    C311553   7.635   6.993   1.287
  232DPPC    N411554   7.738   6.888   1.297
  232DPPC    C511555   7.706   6.777   1.388
  232DPPC    C611556   7.817   6.676   1.420
  232DPPC    O711557   7.767   6.557   1.482
  232DPPC    P811558   7.839   6.421   1.434
  232DPPC    O911559   7.885   6.435   1.294
  232DPPC   O1011560   7.750   6.311   1.477
  232DPPC   O1111561   7.962   6.423   1.538
  232DPPC   C1211562   7.921   6.383   1.669
  232DPPC   C1311563   8.002   6.449   1.781
  232DPPC   O1411564   8.005   6.372   1.902
  232DPPC   C1511565   8.113   6.291   1.919
  232DPPC   O1611566   8.204   6.295   1.837
  232DPPC   C1711567   8.118   6.210   2.049
  232DPPC   C1811568   8.246   6.234   2.129
  232DPPC   C1911569   8.236   6.145   2.253
  232DPPC   C2011570   8.343   6.170   2.361
  232DPPC   C2111571   8.310   6.081   2.481
  232DPPC   C2211572   8.410   6.085   2.597
  232DPPC   C2311573   8.360   6.005   2.717
  232DPPC   C2411574   8.447   6.040   2.838
  232DPPC   C2511575   8.598   6.037   2.817
  232DPPC   C2611576   8.667   6.068   2.950
  232DPPC   C2711577   8.666   5.943   3.038
  232DPPC   C2811578   8.729   5.970   3.176
  232DPPC   C2911579   8.657   6.084   3.248
  232DPPC   C3011580   8.706   6.104   3.392
  232DPPC   C3111581   8.626   6.215   3.461
  232DPPC   C3211582   7.952   6.594   1.785
  232DPPC   O3311583   7.812   6.611   1.809
  232DPPC   C3411584   7.771   6.740   1.798
  232DPPC   O3511585   7.835   6.820   1.729
  232DPPC   C3611586   7.633   6.768   1.857
  232DPPC   C3711587   7.641   6.863   1.977
  232DPPC   C3811588   7.673   6.778   2.100
  232DPPC   C3911589   7.682   6.881   2.213
  232DPPC   C4011590   7.547   6.951   2.231
  232DPPC   C4111591   7.552   7.047   2.350
  232DPPC   C4211592   7.602   6.966   2.469
  232DPPC   C4311593   7.608   7.047   2.599
  232DPPC   C4411594   7.654   6.966   2.720
  232DPPC   C4511595   7.781   6.885   2.694
  232DPPC   C4611596   7.783   6.765   2.789
  232DPPC   C4711597   7.927   6.714   2.794
  232DPPC   C4811598   7.945   6.589   2.881
  232DPPC   C4911599   7.838   6.490   2.834
  232DPPC   C5011600   7.833   6.373   2.933
  233DPPC    C111601   0.465   5.309   1.128
  233DPPC    C211602   0.637   5.145   1.131
  233DPPC    C311603   0.673   5.362   1.070
  233DPPC    N411604   0.603   5.282   1.172
  233DPPC    C511605   0.638   5.305   1.313
  233DPPC    C611606   0.624   5.449   1.361
  233DPPC    O711607   0.746   5.504   1.412
  233DPPC    P811608   0.719   5.657   1.453
  233DPPC    O911609   0.630   5.702   1.343
  233DPPC   O1011610   0.844   5.730   1.483
  233DPPC   O1111611   0.629   5.634   1.585
  233DPPC   C1211612   0.584   5.751   1.654
  233DPPC   C1311613   0.464   5.834   1.607
  233DPPC   O1411614   0.446   5.954   1.684
  233DPPC   C1511615   0.510   6.068   1.647
  233DPPC   O1611616   0.590   6.060   1.554
  233DPPC   C1711617   0.504   6.186   1.744
  233DPPC   C1811618   0.639   6.226   1.803
  233DPPC   C1911619   0.607   6.331   1.909
  233DPPC   C2011620   0.738   6.383   1.970
  233DPPC   C2111621   0.815   6.274   2.044
  233DPPC   C2211622   0.942   6.325   2.113
  233DPPC   C2311623   1.008   6.204   2.179
  233DPPC   C2411624   1.154   6.234   2.211
  233DPPC   C2511625   1.214   6.124   2.299
  233DPPC   C2611626   1.212   5.991   2.223
  233DPPC   C2711627   1.309   5.890   2.285
  233DPPC   C2811628   1.301   5.903   2.437
  233DPPC   C2911629   1.405   5.810   2.501
  233DPPC   C3011630   1.383   5.804   2.653
  233DPPC   C3111631   1.459   5.688   2.718
  233DPPC   C3211632   0.345   5.740   1.630
  233DPPC   O3311633   0.359   5.662   1.749
  233DPPC   C3411634   0.250   5.585   1.775
  233DPPC   O3511635   0.159   5.583   1.692
  233DPPC   C3611636   0.245   5.509   1.908
  233DPPC   C3711637   0.177   5.590   2.019
  233DPPC   C3811638   0.246   5.723   2.049
  233DPPC   C3911639   0.172   5.811   2.149
  233DPPC   C4011640   0.257   5.933   2.187
  233DPPC   C4111641   0.392   5.887   2.242
  233DPPC   C4211642   0.483   6.005   2.278
  233DPPC   C4311643   0.615   5.948   2.328
  233DPPC   C4411644   0.713   6.042   2.399
  233DPPC   C4511645   0.811   5.965   2.488
  233DPPC   C4611646   0.862   6.054   2.601
  233DPPC   C4711647   0.986   5.992   2.666
  233DPPC   C4811648   1.042   6.081   2.778
  233DPPC   C4911649   1.133   5.998   2.869
  233DPPC   C5011650   1.038   5.888   2.918
  234DPPC    C111651   8.587   1.828   1.000
  234DPPC    C211652   8.516   1.607   1.049
  234DPPC    C311653   8.726   1.634   0.979
  234DPPC    N411654   8.627   1.702   1.064
  234DPPC    C511655   8.676   1.714   1.202
  234DPPC    C611656   8.785   1.807   1.256
  234DPPC    O711657   8.914   1.791   1.196
  234DPPC    P811658   9.010   1.916   1.227
  234DPPC    O911659   8.913   2.024   1.198
  234DPPC   O1011660   9.128   1.886   1.142
  234DPPC   O1111661   9.031   1.867   1.379
  234DPPC   C1211662   8.985   1.965   1.473
  234DPPC   C1311663   8.956   1.891   1.604
  234DPPC   O1411664   8.932   1.983   1.711
  234DPPC   C1511665   8.832   1.945   1.796
  234DPPC   O1611666   8.723   1.908   1.753
  234DPPC   C1711667   8.843   2.003   1.937
  234DPPC   C1811668   8.990   2.020   1.975
  234DPPC   C1911669   9.018   2.032   2.125
  234DPPC   C2011670   8.974   1.909   2.206
  234DPPC   C2111671   9.004   1.923   2.355
  234DPPC   C2211672   8.946   1.798   2.422
  234DPPC   C2311673   8.938   1.831   2.572
  234DPPC   C2411674   8.826   1.753   2.640
  234DPPC   C2511675   8.823   1.787   2.790
  234DPPC   C2611676   8.700   1.733   2.862
  234DPPC   C2711677   8.695   1.758   3.013
  234DPPC   C2811678   8.568   1.701   3.077
  234DPPC   C2911679   8.573   1.698   3.230
  234DPPC   C3011680   8.437   1.648   3.278
  234DPPC   C3111681   8.434   1.649   3.431
  234DPPC   C3211682   9.087   1.819   1.635
  234DPPC   O3311683   9.092   1.715   1.733
  234DPPC   C3411684   9.034   1.592   1.725
  234DPPC   O3511685   9.013   1.550   1.612
  234DPPC   C3611686   9.040   1.500   1.847
  234DPPC   C3711687   8.929   1.560   1.935
  234DPPC   C3811688   8.929   1.480   2.066
  234DPPC   C3911689   8.805   1.519   2.146
  234DPPC   C4011690   8.787   1.456   2.284
  234DPPC   C4111691   8.641   1.488   2.316
  234DPPC   C4211692   8.597   1.428   2.449
  234DPPC   C4311693   8.464   1.485   2.498
  234DPPC   C4411694   8.435   1.413   2.630
  234DPPC   C4511695   8.331   1.501   2.700
  234DPPC   C4611696   8.305   1.433   2.835
  234DPPC   C4711697   8.427   1.397   2.920
  234DPPC   C4811698   8.394   1.333   3.054
  234DPPC   C4911699   8.517   1.293   3.136
  234DPPC   C5011700   8.477   1.196   3.248
  235DPPC    C111701   2.648   3.995   1.887
  235DPPC    C211702   2.462   4.143   1.865
  235DPPC    C311703   2.552   4.093   2.078
  235DPPC    N411704   2.587   4.119   1.938
  235DPPC    C511705   2.681   4.232   1.943
  235DPPC    C611706   2.729   4.282   1.807
  235DPPC    O711707   2.806   4.401   1.820
  235DPPC    P811708   2.848   4.447   1.671
  235DPPC    O911709   2.824   4.336   1.576
  235DPPC   O1011710   2.981   4.510   1.658
  235DPPC   O1111711   2.729   4.553   1.646
  235DPPC   C1211712   2.752   4.654   1.744
  235DPPC   C1311713   2.635   4.746   1.781
  235DPPC   O1411714   2.680   4.860   1.856
  235DPPC   C1511715   2.593   4.963   1.862
  235DPPC   O1611716   2.500   4.971   1.781
  235DPPC   C1711717   2.609   5.061   1.979
  235DPPC   C1811718   2.641   4.976   2.102
  235DPPC   C1911719   2.527   4.893   2.160
  235DPPC   C2011720   2.591   4.835   2.287
  235DPPC   C2111721   2.500   4.743   2.369
  235DPPC   C2211722   2.560   4.741   2.510
  235DPPC   C2311723   2.523   4.866   2.589
  235DPPC   C2411724   2.597   4.858   2.722
  235DPPC   C2511725   2.582   4.997   2.783
  235DPPC   C2611726   2.434   5.037   2.793
  235DPPC   C2711727   2.407   5.176   2.850
  235DPPC   C2811728   2.436   5.162   3.000
  235DPPC   C2911729   2.409   5.284   3.087
  235DPPC   C3011730   2.421   5.241   3.234
  235DPPC   C3111731   2.361   5.338   3.335
  235DPPC   C3211732   2.522   4.655   1.830
  235DPPC   O3311733   2.525   4.577   1.949
  235DPPC   C3411734   2.411   4.513   1.986
  235DPPC   O3511735   2.334   4.488   1.894
  235DPPC   C3611736   2.417   4.447   2.124
  235DPPC   C3711737   2.285   4.377   2.157
  235DPPC   C3811738   2.293   4.295   2.286
  235DPPC   C3911739   2.341   4.366   2.412
  235DPPC   C4011740   2.327   4.281   2.539
  235DPPC   C4111741   2.374   4.345   2.670
  235DPPC   C4211742   2.280   4.451   2.727
  235DPPC   C4311743   2.360   4.513   2.842
  235DPPC   C4411744   2.254   4.599   2.910
  235DPPC   C4511745   2.304   4.655   3.044
  235DPPC   C4611746   2.238   4.786   3.089
  235DPPC   C4711747   2.300   4.840   3.218
  235DPPC   C4811748   2.285   4.736   3.330
  235DPPC   C4911749   2.347   4.797   3.456
  235DPPC   C5011750   2.493   4.836   3.431
  236DPPC    C111751   0.326   1.077   1.107
  236DPPC    C211752   0.193   1.203   0.949
  236DPPC    C311753   0.091   1.037   1.088
  236DPPC    N411754   0.196   1.141   1.083
  236DPPC    C511755   0.170   1.233   1.194
  236DPPC    C611756   0.236   1.371   1.201
  236DPPC    O711757   0.379   1.365   1.212
  236DPPC    P811758   0.445   1.512   1.209
  236DPPC    O911759   0.367   1.587   1.108
  236DPPC   O1011760   0.591   1.488   1.204
  236DPPC   O1111761   0.384   1.561   1.350
  236DPPC   C1211762   0.453   1.502   1.460
  236DPPC   C1311763   0.430   1.587   1.585
  236DPPC   O1411764   0.527   1.570   1.690
  236DPPC   C1511765   0.561   1.671   1.775
  236DPPC   O1611766   0.536   1.786   1.741
  236DPPC   C1711767   0.674   1.651   1.876
  236DPPC   C1811768   0.644   1.745   1.993
  236DPPC   C1911769   0.752   1.725   2.099
  236DPPC   C2011770   0.730   1.822   2.215
  236DPPC   C2111771   0.620   1.767   2.306
  236DPPC   C2211772   0.630   1.821   2.448
  236DPPC   C2311773   0.533   1.741   2.536
  236DPPC   C2411774   0.391   1.740   2.480
  236DPPC   C2511775   0.296   1.713   2.597
  236DPPC   C2611776   0.344   1.578   2.651
  236DPPC   C2711777   0.259   1.533   2.770
  236DPPC   C2811778   0.246   1.631   2.888
  236DPPC   C2911779   0.139   1.575   2.981
  236DPPC   C3011780   0.138   1.651   3.114
  236DPPC   C3111781   0.016   1.625   3.203
  236DPPC   C3211782   0.285   1.552   1.618
  236DPPC   O3311783   0.272   1.411   1.636
  236DPPC   C3411784   0.145   1.362   1.629
  236DPPC   O3511785   0.054   1.430   1.580
  236DPPC   C3611786   0.116   1.222   1.682
  236DPPC   C3711787   0.107   1.219   1.835
  236DPPC   C3811788  -0.040   1.242   1.873
  236DPPC   C3911789  -0.076   1.192   2.013
  236DPPC   C4011790  -0.219   1.215   2.062
  236DPPC   C4111791  -0.227   1.172   2.208
  236DPPC   C4211792  -0.207   1.021   2.223
  236DPPC   C4311793  -0.212   0.978   2.370
  236DPPC   C4411794  -0.202   0.827   2.388
  236DPPC   C4511795  -0.201   0.811   2.541
  236DPPC   C4611796  -0.168   0.670   2.589
  236DPPC   C4711797  -0.176   0.659   2.742
  236DPPC   C4811798  -0.049   0.720   2.803
  236DPPC   C4911799  -0.060   0.732   2.955
  236DPPC   C5011800   0.064   0.802   3.011
  237DPPC    C111801   7.419   7.677   1.625
  237DPPC    C211802   7.631   7.565   1.650
  237DPPC    C311803   7.476   7.494   1.503
  237DPPC    N411804   7.534   7.619   1.553
  237DPPC    C511805   7.604   7.689   1.444
  237DPPC    C611806   7.646   7.835   1.464
  237DPPC    O711807   7.537   7.928   1.467
  237DPPC    P811808   7.593   8.077   1.494
  237DPPC    O911809   7.496   8.178   1.448
  237DPPC   O1011810   7.736   8.076   1.458
  237DPPC   O1111811   7.573   8.061   1.653
  237DPPC   C1211812   7.438   8.065   1.700
  237DPPC   C1311813   7.433   8.081   1.853
  237DPPC   O1411814   7.433   8.215   1.903
  237DPPC   C1511815   7.322   8.293   1.888
  237DPPC   O1611816   7.222   8.241   1.838
  237DPPC   C1711817   7.333   8.439   1.932
  237DPPC   C1811818   7.425   8.440   2.054
  237DPPC   C1911819   7.434   8.579   2.118
  237DPPC   C2011820   7.498   8.568   2.256
  237DPPC   C2111821   7.391   8.538   2.361
  237DPPC   C2211822   7.457   8.554   2.498
  237DPPC   C2311823   7.361   8.539   2.616
  237DPPC   C2411824   7.423   8.598   2.742
  237DPPC   C2511825   7.439   8.749   2.723
  237DPPC   C2611826   7.535   8.797   2.832
  237DPPC   C2711827   7.526   8.736   2.973
  237DPPC   C2811828   7.632   8.788   3.070
  237DPPC   C2911829   7.777   8.772   3.023
  237DPPC   C3011830   7.865   8.837   3.130
  237DPPC   C3111831   7.835   8.986   3.142
  237DPPC   C3211832   7.528   7.974   1.907
  237DPPC   O3311833   7.454   7.855   1.931
  237DPPC   C3411834   7.533   7.759   1.986
  237DPPC   O3511835   7.651   7.742   1.954
  237DPPC   C3611836   7.472   7.647   2.070
  237DPPC   C3711837   7.469   7.683   2.219
  237DPPC   C3811838   7.437   7.566   2.313
  237DPPC   C3911839   7.418   7.609   2.458
  237DPPC   C4011840   7.369   7.493   2.546
  237DPPC   C4111841   7.307   7.557   2.670
  237DPPC   C4211842   7.248   7.446   2.757
  237DPPC   C4311843   7.348   7.337   2.797
  237DPPC   C4411844   7.458   7.405   2.879
  237DPPC   C4511845   7.558   7.301   2.931
  237DPPC   C4611846   7.651   7.370   3.031
  237DPPC   C4711847   7.770   7.276   3.054
  237DPPC   C4811848   7.730   7.136   3.101
  237DPPC   C4911849   7.858   7.062   3.063
  237DPPC   C5011850   7.970   7.108   3.157
  238DPPC    C111851   3.319   2.018   2.337
  238DPPC    C211852   3.396   2.076   2.121
  238DPPC    C311853   3.164   2.029   2.148
  238DPPC    N411854   3.282   2.088   2.213
  238DPPC    C511855   3.227   2.222   2.235
  238DPPC    C611856   3.303   2.316   2.328
  238DPPC    O711857   3.403   2.392   2.258
  238DPPC    P811858   3.476   2.498   2.355
  238DPPC    O911859   3.401   2.519   2.481
  238DPPC   O1011860   3.542   2.609   2.283
  238DPPC   O1111861   3.592   2.389   2.382
  238DPPC   C1211862   3.587   2.368   2.524
  238DPPC   C1311863   3.637   2.238   2.586
  238DPPC   O1411864   3.588   2.224   2.720
  238DPPC   C1511865   3.576   2.100   2.775
  238DPPC   O1611866   3.573   1.999   2.704
  238DPPC   C1711867   3.541   2.088   2.923
  238DPPC   C1811868   3.661   2.064   3.015
  238DPPC   C1911869   3.638   2.068   3.166
  238DPPC   C2011870   3.581   2.198   3.222
  238DPPC   C2111871   3.559   2.177   3.372
  238DPPC   C2211872   3.501   2.307   3.429
  238DPPC   C2311873   3.508   2.300   3.582
  238DPPC   C2411874   3.648   2.272   3.639
  238DPPC   C2511875   3.632   2.256   3.790
  238DPPC   C2611876   3.578   2.130   3.858
  238DPPC   C2711877   3.608   2.132   4.008
  238DPPC   C2811878   3.513   2.223   4.086
  238DPPC   C2911879   3.537   2.204   4.235
  238DPPC   C3011880   3.496   2.063   4.276
  238DPPC   C3111881   3.502   2.023   4.424
  238DPPC   C3211882   3.789   2.243   2.571
  238DPPC   O3311883   3.855   2.369   2.586
  238DPPC   C3411884   3.989   2.375   2.568
  238DPPC   O3511885   4.052   2.272   2.544
  238DPPC   C3611886   4.056   2.513   2.570
  238DPPC   C3711887   4.129   2.547   2.700
  238DPPC   C3811888   4.216   2.673   2.690
  238DPPC   C3911889   4.301   2.688   2.816
  238DPPC   C4011890   4.208   2.681   2.937
  238DPPC   C4111891   4.275   2.686   3.075
  238DPPC   C4211892   4.171   2.656   3.183
  238DPPC   C4311893   4.215   2.652   3.329
  238DPPC   C4411894   4.112   2.643   3.443
  238DPPC   C4511895   4.034   2.512   3.438
  238DPPC   C4611896   4.097   2.394   3.513
  238DPPC   C4711897   4.008   2.270   3.500
  238DPPC   C4811898   4.037   2.151   3.591
  238DPPC   C4911899   4.145   2.063   3.528
  238DPPC   C5011900   4.090   2.029   3.389
  239DPPC    C111901   3.349   2.578   2.000
  239DPPC    C211902   3.529   2.675   1.868
  239DPPC    C311903   3.363   2.531   1.773
  239DPPC    N411904   3.386   2.638   1.871
  239DPPC    C511905   3.318   2.763   1.835
  239DPPC    C611906   3.166   2.747   1.820
  239DPPC    O711907   3.098   2.841   1.737
  239DPPC    P811908   2.949   2.787   1.709
  239DPPC    O911909   2.980   2.648   1.671
  239DPPC   O1011910   2.898   2.885   1.610
  239DPPC   O1111911   2.900   2.810   1.861
  239DPPC   C1211912   2.778   2.885   1.864
  239DPPC   C1311913   2.665   2.783   1.876
  239DPPC   O1411914   2.530   2.823   1.848
  239DPPC   C1511915   2.426   2.736   1.848
  239DPPC   O1611916   2.431   2.614   1.835
  239DPPC   C1711917   2.288   2.800   1.868
  239DPPC   C1811918   2.234   2.769   2.008
  239DPPC   C1911919   2.110   2.855   2.032
  239DPPC   C2011920   2.043   2.841   2.168
  239DPPC   C2111921   2.135   2.901   2.275
  239DPPC   C2211922   2.050   2.895   2.402
  239DPPC   C2311923   2.112   2.989   2.506
  239DPPC   C2411924   2.039   2.988   2.640
  239DPPC   C2511925   1.912   3.073   2.638
  239DPPC   C2611926   1.847   3.097   2.775
  239DPPC   C2711927   1.944   3.157   2.877
  239DPPC   C2811928   1.861   3.168   3.005
  239DPPC   C2911929   1.938   3.268   3.092
  239DPPC   C3011930   1.847   3.306   3.208
  239DPPC   C3111931   1.745   3.409   3.157
  239DPPC   C3211932   2.694   2.749   2.022
  239DPPC   O3311933   2.663   2.847   2.121
  239DPPC   C3411934   2.657   2.800   2.249
  239DPPC   O3511935   2.673   2.682   2.278
  239DPPC   C3611936   2.616   2.905   2.353
  239DPPC   C3711937   2.603   2.835   2.489
  239DPPC   C3811938   2.505   2.913   2.576
  239DPPC   C3911939   2.504   2.853   2.717
  239DPPC   C4011940   2.428   2.942   2.816
  239DPPC   C4111941   2.484   2.911   2.955
  239DPPC   C4211942   2.402   2.985   3.060
  239DPPC   C4311943   2.441   2.964   3.206
  239DPPC   C4411944   2.348   3.020   3.315
  239DPPC   C4511945   2.379   3.163   3.359
  239DPPC   C4611946   2.260   3.235   3.422
  239DPPC   C4711947   2.273   3.277   3.569
  239DPPC   C4811948   2.139   3.314   3.632
  239DPPC   C4911949   2.166   3.369   3.772
  239DPPC   C5011950   2.211   3.255   3.863
  240DPPC    C111951   1.312   4.651   1.209
  240DPPC    C211952   1.514   4.665   1.095
  240DPPC    C311953   1.296   4.704   0.987
  240DPPC    N411954   1.382   4.727   1.105
  240DPPC    C511955   1.393   4.872   1.127
  240DPPC    C611956   1.453   4.908   1.263
  240DPPC    O711957   1.358   4.948   1.362
  240DPPC    P811958   1.448   4.975   1.493
  240DPPC    O911959   1.357   5.052   1.581
  240DPPC   O1011960   1.569   5.040   1.437
  240DPPC   O1111961   1.462   4.818   1.524
  240DPPC   C1211962   1.353   4.775   1.606
  240DPPC   C1311963   1.313   4.628   1.618
  240DPPC   O1411964   1.192   4.604   1.691
  240DPPC   C1511965   1.079   4.572   1.623
  240DPPC   O1611966   1.093   4.560   1.501
  240DPPC   C1711967   0.945   4.548   1.693
  240DPPC   C1811968   0.888   4.667   1.770
  240DPPC   C1911969   0.743   4.633   1.805
  240DPPC   C2011970   0.704   4.753   1.891
  240DPPC   C2111971   0.632   4.695   2.013
  240DPPC   C2211972   0.592   4.811   2.104
  240DPPC   C2311973   0.730   4.866   2.142
  240DPPC   C2411974   0.709   4.971   2.252
  240DPPC   C2511975   0.853   5.006   2.293
  240DPPC   C2611976   0.937   5.087   2.194
  240DPPC   C2711977   1.072   5.095   2.266
  240DPPC   C2811978   1.038   5.146   2.406
  240DPPC   C2911979   1.162   5.198   2.480
  240DPPC   C3011980   1.130   5.234   2.625
  240DPPC   C3111981   1.218   5.346   2.681
  240DPPC   C3211982   1.441   4.563   1.670
  240DPPC   O3311983   1.483   4.604   1.801
  240DPPC   C3411984   1.564   4.514   1.861
  240DPPC   O3511985   1.614   4.422   1.796
  240DPPC   C3611986   1.593   4.531   2.011
  240DPPC   C3711987   1.493   4.628   2.075
  240DPPC   C3811988   1.521   4.609   2.224
  240DPPC   C3911989   1.551   4.464   2.262
  240DPPC   C4011990   1.559   4.434   2.412
  240DPPC   C4111991   1.429   4.449   2.492
  240DPPC   C4211992   1.463   4.438   2.641
  240DPPC   C4311993   1.343   4.491   2.719
  240DPPC   C4411994   1.359   4.500   2.871
  240DPPC   C4511995   1.253   4.592   2.932
  240DPPC   C4611996   1.285   4.597   3.081
  240DPPC   C4711997   1.413   4.674   3.116
  240DPPC   C4811998   1.428   4.682   3.268
  240DPPC   C4911999   1.538   4.781   3.302
  240DPPC   C5012000   1.535   4.831   3.447
  241DPPC    C112001   3.086   3.173   1.737
  241DPPC    C212002   3.290   3.213   1.643
  241DPPC    C312003   3.093   3.232   1.511
  241DPPC    N412004   3.152   3.264   1.642
  241DPPC    C512005   3.150   3.409   1.662
  241DPPC    C612006   3.009   3.459   1.693
  241DPPC    O712007   3.012   3.602   1.696
  241DPPC    P812008   2.860   3.639   1.735
  241DPPC    O912009   2.775   3.538   1.670
  241DPPC   O1012010   2.826   3.782   1.716
  241DPPC   O1112011   2.864   3.604   1.892
  241DPPC   C1212012   2.945   3.712   1.939
  241DPPC   C1312013   2.943   3.720   2.092
  241DPPC   O1412014   3.024   3.830   2.135
  241DPPC   C1512015   2.964   3.949   2.163
  241DPPC   O1612016   2.889   3.996   2.078
  241DPPC   C1712017   3.036   4.034   2.267
  241DPPC   C1812018   3.125   3.969   2.374
  241DPPC   C1912019   3.182   4.083   2.458
  241DPPC   C2012020   3.300   4.041   2.545
  241DPPC   C2112021   3.262   3.946   2.659
  241DPPC   C2212022   3.383   3.937   2.753
  241DPPC   C2312023   3.409   3.791   2.790
  241DPPC   C2412024   3.528   3.797   2.886
  241DPPC   C2512025   3.573   3.663   2.945
  241DPPC   C2612026   3.693   3.683   3.037
  241DPPC   C2712027   3.740   3.545   3.084
  241DPPC   C2812028   3.752   3.444   2.970
  241DPPC   C2912029   3.809   3.316   3.032
  241DPPC   C3012030   3.833   3.213   2.921
  241DPPC   C3112031   3.706   3.206   2.836
  241DPPC   C3212032   3.005   3.587   2.136
  241DPPC   O3312033   3.002   3.554   2.275
  241DPPC   C3412034   3.105   3.595   2.353
  241DPPC   O3512035   3.217   3.633   2.318
  241DPPC   C3612036   3.073   3.558   2.498
  241DPPC   C3712037   3.183   3.476   2.565
  241DPPC   C3812038   3.145   3.438   2.708
  241DPPC   C3912039   3.247   3.348   2.778
  241DPPC   C4012040   3.192   3.322   2.918
  241DPPC   C4112041   3.283   3.242   3.012
  241DPPC   C4212042   3.209   3.214   3.142
  241DPPC   C4312043   3.299   3.132   3.235
  241DPPC   C4412044   3.254   3.172   3.375
  241DPPC   C4512045   3.240   3.324   3.385
  241DPPC   C4612046   3.143   3.345   3.501
  241DPPC   C4712047   3.103   3.485   3.549
  241DPPC   C4812048   2.978   3.480   3.637
  241DPPC   C4912049   2.941   3.621   3.684
  241DPPC   C5012050   2.813   3.622   3.767
  242DPPC    C112051   5.274   5.121   1.831
  242DPPC    C212052   5.269   5.104   1.601
  242DPPC    C312053   5.095   5.223   1.707
  242DPPC    N412054   5.239   5.198   1.710
  242DPPC    C512055   5.321   5.319   1.705
  242DPPC    C612056   5.293   5.426   1.811
  242DPPC    O712057   5.388   5.533   1.820
  242DPPC    P812058   5.316   5.677   1.820
  242DPPC    O912059   5.184   5.640   1.875
  242DPPC   O1012060   5.328   5.747   1.691
  242DPPC   O1112061   5.420   5.752   1.918
  242DPPC   C1212062   5.485   5.665   2.011
  242DPPC   C1312063   5.580   5.750   2.096
  242DPPC   O1412064   5.670   5.689   2.190
  242DPPC   C1512065   5.777   5.619   2.143
  242DPPC   O1612066   5.812   5.624   2.026
  242DPPC   C1712067   5.851   5.532   2.245
  242DPPC   C1812068   5.782   5.522   2.381
  242DPPC   C1912069   5.865   5.587   2.493
  242DPPC   C2012070   5.805   5.566   2.632
  242DPPC   C2112071   5.916   5.590   2.734
  242DPPC   C2212072   5.861   5.619   2.874
  242DPPC   C2312073   5.957   5.640   2.992
  242DPPC   C2412074   6.043   5.514   3.008
  242DPPC   C2512075   6.103   5.513   3.149
  242DPPC   C2612076   6.196   5.394   3.169
  242DPPC   C2712077   6.119   5.262   3.169
  242DPPC   C2812078   6.213   5.147   3.208
  242DPPC   C2912079   6.137   5.014   3.213
  242DPPC   C3012080   6.234   4.901   3.250
  242DPPC   C3112081   6.154   4.770   3.257
  242DPPC   C3212082   5.478   5.852   2.147
  242DPPC   O3312083   5.372   5.797   2.226
  242DPPC   C3412084   5.279   5.889   2.264
  242DPPC   O3512085   5.306   6.004   2.228
  242DPPC   C3612086   5.175   5.855   2.371
  242DPPC   C3712087   5.044   5.805   2.310
  242DPPC   C3812088   4.945   5.736   2.404
  242DPPC   C3912089   5.002   5.609   2.468
  242DPPC   C4012090   4.883   5.535   2.529
  242DPPC   C4112091   4.940   5.402   2.580
  242DPPC   C4212092   4.823   5.304   2.585
  242DPPC   C4312093   4.877   5.170   2.635
  242DPPC   C4412094   4.774   5.058   2.646
  242DPPC   C4512095   4.651   5.106   2.724
  242DPPC   C4612096   4.580   4.983   2.779
  242DPPC   C4712097   4.519   4.904   2.662
  242DPPC   C4812098   4.463   4.765   2.694
  242DPPC   C4912099   4.372   4.728   2.576
  242DPPC   C5012100   4.261   4.832   2.560
  243DPPC    C112101   8.294   6.144   1.517
  243DPPC    C212102   8.449   6.065   1.689
  243DPPC    C312103   8.224   5.970   1.645
  243DPPC    N412104   8.347   6.028   1.589
  243DPPC    C512105   8.396   5.916   1.507
  243DPPC    C612106   8.509   5.947   1.408
  243DPPC    O712107   8.565   5.832   1.344
  243DPPC    P812108   8.703   5.878   1.276
  243DPPC    O912109   8.710   6.014   1.218
  243DPPC   O1012110   8.752   5.758   1.204
  243DPPC   O1112111   8.787   5.904   1.411
  243DPPC   C1212112   8.847   5.781   1.453
  243DPPC   C1312113   8.852   5.750   1.603
  243DPPC   O1412114   8.753   5.657   1.647
  243DPPC   C1512115   8.763   5.522   1.628
  243DPPC   O1612116   8.831   5.479   1.535
  243DPPC   C1712117   8.651   5.450   1.703
  243DPPC   C1812118   8.700   5.433   1.846
  243DPPC   C1912119   8.597   5.382   1.947
  243DPPC   C2012120   8.478   5.478   1.962
  243DPPC   C2112121   8.409   5.409   2.080
  243DPPC   C2212122   8.503   5.388   2.199
  243DPPC   C2312123   8.484   5.253   2.267
  243DPPC   C2412124   8.557   5.229   2.400
  243DPPC   C2512125   8.550   5.077   2.410
  243DPPC   C2612126   8.628   5.030   2.533
  243DPPC   C2712127   8.562   5.093   2.656
  243DPPC   C2812128   8.629   5.058   2.790
  243DPPC   C2912129   8.573   5.123   2.916
  243DPPC   C3012130   8.659   5.075   3.033
  243DPPC   C3112131   8.614   5.141   3.164
  243DPPC   C3212132   8.847   5.888   1.670
  243DPPC   O3312133   8.839   5.890   1.812
  243DPPC   C3412134   8.801   6.011   1.864
  243DPPC   O3512135   8.773   6.105   1.791
  243DPPC   C3612136   8.770   6.003   2.014
  243DPPC   C3712137   8.856   5.899   2.086
  243DPPC   C3812138   8.814   5.880   2.232
  243DPPC   C3912139   8.841   6.010   2.307
  243DPPC   C4012140   8.821   5.980   2.456
  243DPPC   C4112141   8.856   6.101   2.542
  243DPPC   C4212142   8.775   6.221   2.491
  243DPPC   C4312143   8.798   6.326   2.600
  243DPPC   C4412144   8.946   6.364   2.588
  243DPPC   C4512145   8.981   6.476   2.687
  243DPPC   C4612146   9.130   6.496   2.714
  243DPPC   C4712147   9.169   6.351   2.746
  243DPPC   C4812148   9.294   6.343   2.835
  243DPPC   C4912149   9.363   6.208   2.856
  243DPPC   C5012150   9.297   6.122   2.964
  244DPPC    C112151   6.736   2.991   1.545
  244DPPC    C212152   6.860   2.807   1.461
  244DPPC    C312153   6.913   3.026   1.382
  244DPPC    N412154   6.869   2.948   1.499
  244DPPC    C512155   6.964   2.978   1.607
  244DPPC    C612156   7.103   2.915   1.617
  244DPPC    O712157   7.100   2.792   1.690
  244DPPC    P812158   7.238   2.712   1.673
  244DPPC    O912159   7.342   2.796   1.609
  244DPPC   O1012160   7.186   2.594   1.600
  244DPPC   O1112161   7.261   2.674   1.828
  244DPPC   C1212162   7.163   2.579   1.870
  244DPPC   C1312163   7.174   2.549   2.019
  244DPPC   O1412164   7.116   2.657   2.093
  244DPPC   C1512165   6.997   2.628   2.152
  244DPPC   O1612166   6.925   2.541   2.104
  244DPPC   C1712167   6.938   2.733   2.247
  244DPPC   C1812168   6.912   2.688   2.390
  244DPPC   C1912169   7.046   2.668   2.460
  244DPPC   C2012170   7.031   2.627   2.606
  244DPPC   C2112171   7.164   2.619   2.682
  244DPPC   C2212172   7.136   2.580   2.827
  244DPPC   C2312173   7.268   2.548   2.898
  244DPPC   C2412174   7.255   2.561   3.049
  244DPPC   C2512175   7.182   2.691   3.084
  244DPPC   C2612176   7.161   2.712   3.235
  244DPPC   C2712177   7.291   2.714   3.316
  244DPPC   C2812178   7.267   2.723   3.467
  244DPPC   C2912179   7.396   2.715   3.549
  244DPPC   C3012180   7.368   2.704   3.699
  244DPPC   C3112181   7.292   2.824   3.756
  244DPPC   C3212182   7.321   2.523   2.052
  244DPPC   O3312183   7.357   2.471   2.180
  244DPPC   C3412184   7.406   2.567   2.262
  244DPPC   O3512185   7.415   2.686   2.229
  244DPPC   C3612186   7.449   2.513   2.399
  244DPPC   C3712187   7.594   2.467   2.383
  244DPPC   C3812188   7.648   2.384   2.500
  244DPPC   C3912189   7.659   2.448   2.639
  244DPPC   C4012190   7.766   2.375   2.720
  244DPPC   C4112191   7.812   2.454   2.842
  244DPPC   C4212192   7.762   2.394   2.973
  244DPPC   C4312193   7.826   2.473   3.088
  244DPPC   C4412194   7.764   2.426   3.220
  244DPPC   C4512195   7.612   2.446   3.216
  244DPPC   C4612196   7.531   2.400   3.338
  244DPPC   C4712197   7.561   2.259   3.388
  244DPPC   C4812198   7.495   2.230   3.523
  244DPPC   C4912199   7.561   2.320   3.628
  244DPPC   C5012200   7.471   2.294   3.750
  245DPPC    C112201   5.442   3.533   1.509
  245DPPC    C212202   5.507   3.425   1.709
  245DPPC    C312203   5.646   3.594   1.628
  245DPPC    N412204   5.504   3.555   1.641
  245DPPC    C512205   5.441   3.659   1.724
  245DPPC    C612206   5.393   3.788   1.658
  245DPPC    O712207   5.491   3.891   1.649
  245DPPC    P812208   5.403   4.022   1.612
  245DPPC    O912209   5.321   3.983   1.495
  245DPPC   O1012210   5.483   4.145   1.597
  245DPPC   O1112211   5.310   4.030   1.744
  245DPPC   C1212212   5.382   4.076   1.859
  245DPPC   C1312213   5.291   4.116   1.975
  245DPPC   O1412214   5.354   4.185   2.084
  245DPPC   C1512215   5.364   4.321   2.085
  245DPPC   O1612216   5.353   4.386   1.981
  245DPPC   C1712217   5.439   4.366   2.210
  245DPPC   C1812218   5.348   4.354   2.333
  245DPPC   C1912219   5.412   4.432   2.447
  245DPPC   C2012220   5.334   4.428   2.579
  245DPPC   C2112221   5.398   4.513   2.689
  245DPPC   C2212222   5.294   4.512   2.800
  245DPPC   C2312223   5.366   4.573   2.921
  245DPPC   C2412224   5.264   4.564   3.035
  245DPPC   C2512225   5.327   4.609   3.167
  245DPPC   C2612226   5.245   4.553   3.283
  245DPPC   C2712227   5.330   4.542   3.410
  245DPPC   C2812228   5.250   4.504   3.535
  245DPPC   C2912229   5.331   4.505   3.665
  245DPPC   C3012230   5.255   4.452   3.787
  245DPPC   C3112231   5.353   4.447   3.905
  245DPPC   C3212232   5.210   3.991   2.006
  245DPPC   O3312233   5.296   3.890   2.060
  245DPPC   C3412234   5.233   3.769   2.063
  245DPPC   O3512235   5.120   3.762   2.017
  245DPPC   C3612236   5.322   3.651   2.103
  245DPPC   C3712237   5.316   3.601   2.247
  245DPPC   C3812238   5.436   3.512   2.280
  245DPPC   C3912239   5.444   3.476   2.428
  245DPPC   C4012240   5.565   3.389   2.465
  245DPPC   C4112241   5.553   3.331   2.606
  245DPPC   C4212242   5.690   3.290   2.660
  245DPPC   C4312243   5.670   3.277   2.811
  245DPPC   C4412244   5.625   3.416   2.858
  245DPPC   C4512245   5.633   3.419   3.011
  245DPPC   C4612246   5.557   3.306   3.080
  245DPPC   C4712247   5.565   3.315   3.233
  245DPPC   C4812248   5.480   3.212   3.307
  245DPPC   C4912249   5.499   3.237   3.457
  245DPPC   C5012250   5.646   3.241   3.498
  246DPPC    C112251   9.296   7.897   1.354
  246DPPC    C212252   9.466   8.024   1.441
  246DPPC    C312253   9.297   7.936   1.586
  246DPPC    N412254   9.384   7.906   1.471
  246DPPC    C512255   9.474   7.790   1.468
  246DPPC    C612256   9.547   7.735   1.590
  246DPPC    O712257   9.645   7.834   1.623
  246DPPC    P812258   9.738   7.770   1.737
  246DPPC    O912259   9.855   7.860   1.752
  246DPPC   O1012260   9.747   7.623   1.731
  246DPPC   O1112261   9.625   7.808   1.845
  246DPPC   C1212262   9.635   7.945   1.884
  246DPPC   C1312263   9.504   8.023   1.895
  246DPPC   O1412264   9.534   8.160   1.927
  246DPPC   C1512265   9.578   8.252   1.838
  246DPPC   O1612266   9.565   8.219   1.720
  246DPPC   C1712267   9.654   8.376   1.887
  246DPPC   C1812268   9.602   8.453   2.008
  246DPPC   C1912269   9.688   8.575   2.044
  246DPPC   C2012270   9.837   8.548   2.063
  246DPPC   C2112271   9.892   8.506   2.200
  246DPPC   C2212272  10.045   8.503   2.201
  246DPPC   C2312273  10.106   8.492   2.341
  246DPPC   C2412274  10.037   8.373   2.408
  246DPPC   C2512275  10.046   8.376   2.561
  246DPPC   C2612276   9.960   8.267   2.625
  246DPPC   C2712277   9.979   8.262   2.777
  246DPPC   C2812278  10.114   8.210   2.825
  246DPPC   C2912279  10.121   8.071   2.761
  246DPPC   C3012280  10.243   8.000   2.820
  246DPPC   C3112281  10.243   7.865   2.748
  246DPPC   C3212282   9.394   7.974   1.989
  246DPPC   O3312283   9.316   7.868   1.934
  246DPPC   C3412284   9.232   7.816   2.028
  246DPPC   O3512285   9.248   7.843   2.147
  246DPPC   C3612286   9.149   7.703   1.967
  246DPPC   C3712287   9.001   7.703   2.007
  246DPPC   C3812288   8.980   7.630   2.140
  246DPPC   C3912289   8.835   7.632   2.190
  246DPPC   C4012290   8.824   7.567   2.328
  246DPPC   C4112291   8.874   7.668   2.432
  246DPPC   C4212292   8.842   7.619   2.574
  246DPPC   C4312293   8.926   7.694   2.677
  246DPPC   C4412294   8.884   7.651   2.818
  246DPPC   C4512295   9.005   7.623   2.907
  246DPPC   C4612296   9.079   7.754   2.934
  246DPPC   C4712297   9.197   7.746   3.032
  246DPPC   C4812298   9.277   7.875   3.044
  246DPPC   C4912299   9.327   7.926   2.909
  246DPPC   C5012300   9.421   8.047   2.909
  247DPPC    C112301   7.079   1.211   0.974
  247DPPC    C212302   7.321   1.229   0.991
  247DPPC    C312303   7.206   1.093   1.147
  247DPPC    N412304   7.205   1.141   1.008
  247DPPC    C512305   7.194   1.026   0.917
  247DPPC    C612306   7.310   0.927   0.908
  247DPPC    O712307   7.343   0.862   1.031
  247DPPC    P812308   7.503   0.873   1.041
  247DPPC    O912309   7.521   0.978   1.144
  247DPPC   O1012310   7.570   0.884   0.910
  247DPPC   O1112311   7.529   0.729   1.108
  247DPPC   C1212312   7.518   0.753   1.249
  247DPPC   C1312313   7.526   0.630   1.339
  247DPPC   O1412314   7.489   0.661   1.475
  247DPPC   C1512315   7.358   0.652   1.509
  247DPPC   O1612316   7.261   0.646   1.434
  247DPPC   C1712317   7.336   0.682   1.658
  247DPPC   C1812318   7.418   0.805   1.695
  247DPPC   C1912319   7.403   0.833   1.845
  247DPPC   C2012320   7.488   0.945   1.906
  247DPPC   C2112321   7.441   0.989   2.045
  247DPPC   C2212322   7.436   0.871   2.142
  247DPPC   C2312323   7.356   0.903   2.269
  247DPPC   C2412324   7.414   1.033   2.325
  247DPPC   C2512325   7.414   1.030   2.478
  247DPPC   C2612326   7.481   1.141   2.559
  247DPPC   C2712327   7.474   1.110   2.709
  247DPPC   C2812328   7.555   1.211   2.791
  247DPPC   C2912329   7.520   1.212   2.940
  247DPPC   C3012330   7.589   1.104   3.023
  247DPPC   C3112331   7.564   1.119   3.173
  247DPPC   C3212332   7.673   0.599   1.311
  247DPPC   O3312333   7.763   0.561   1.415
  247DPPC   C3412334   7.736   0.438   1.466
  247DPPC   O3512335   7.678   0.352   1.400
  247DPPC   C3612336   7.798   0.407   1.602
  247DPPC   C3712337   7.758   0.518   1.700
  247DPPC   C3812338   7.857   0.542   1.814
  247DPPC   C3912339   7.800   0.652   1.904
  247DPPC   C4012340   7.876   0.668   2.036
  247DPPC   C4112341   7.830   0.773   2.137
  247DPPC   C4212342   7.911   0.788   2.266
  247DPPC   C4312343   7.875   0.922   2.330
  247DPPC   C4412344   7.937   0.936   2.469
  247DPPC   C4512345   7.921   1.080   2.518
  247DPPC   C4612346   7.975   1.082   2.661
  247DPPC   C4712347   7.955   1.211   2.740
  247DPPC   C4812348   7.987   1.192   2.889
  247DPPC   C4912349   7.941   1.305   2.981
  247DPPC   C5012350   7.981   1.279   3.126
  248DPPC    C112351   6.352   1.213   1.669
  248DPPC    C212352   6.490   1.384   1.780
  248DPPC    C312353   6.263   1.395   1.785
  248DPPC    N412354   6.372   1.296   1.789
  248DPPC    C512355   6.380   1.224   1.917
  248DPPC    C612356   6.274   1.117   1.941
  248DPPC    O712357   6.142   1.161   1.971
  248DPPC    P812358   6.030   1.052   1.931
  248DPPC    O912359   6.050   1.010   1.791
  248DPPC   O1012360   5.903   1.117   1.969
  248DPPC   O1112361   6.064   0.934   2.036
  248DPPC   C1212362   6.040   0.981   2.169
  248DPPC   C1312363   6.091   0.882   2.273
  248DPPC   O1412364   6.013   0.876   2.393
  248DPPC   C1512365   5.888   0.823   2.392
  248DPPC   O1612366   5.834   0.784   2.289
  248DPPC   C1712367   5.819   0.807   2.528
  248DPPC   C1812368   5.740   0.937   2.551
  248DPPC   C1912369   5.658   0.933   2.680
  248DPPC   C2012370   5.741   0.910   2.805
  248DPPC   C2112371   5.668   0.923   2.939
  248DPPC   C2212372   5.757   0.968   3.055
  248DPPC   C2312373   5.701   0.914   3.186
  248DPPC   C2412374   5.784   0.938   3.312
  248DPPC   C2512375   5.706   0.882   3.431
  248DPPC   C2612376   5.792   0.907   3.555
  248DPPC   C2712377   5.707   0.892   3.682
  248DPPC   C2812378   5.592   0.992   3.668
  248DPPC   C2912379   5.503   1.007   3.791
  248DPPC   C3012380   5.445   1.145   3.826
  248DPPC   C3112381   5.356   1.202   3.716
  248DPPC   C3212382   6.242   0.886   2.298
  248DPPC   O3312383   6.282   1.022   2.319
  248DPPC   C3412384   6.409   1.054   2.357
  248DPPC   O3512385   6.512   0.990   2.340
  248DPPC   C3612386   6.406   1.202   2.396
  248DPPC   C3712387   6.527   1.240   2.482
  248DPPC   C3812388   6.539   1.163   2.614
  248DPPC   C3912389   6.576   1.256   2.729
  248DPPC   C4012390   6.575   1.154   2.842
  248DPPC   C4112391   6.638   1.230   2.960
  248DPPC   C4212392   6.605   1.148   3.084
  248DPPC   C4312393   6.665   1.200   3.215
  248DPPC   C4412394   6.708   1.092   3.314
  248DPPC   C4512395   6.811   1.149   3.412
  248DPPC   C4612396   6.853   1.067   3.534
  248DPPC   C4712397   6.974   1.133   3.600
  248DPPC   C4812398   7.057   1.054   3.702
  248DPPC   C4912399   7.135   0.932   3.652
  248DPPC   C5012400   7.198   0.846   3.762
  249DPPC    C112401   1.877   5.538   1.565
  249DPPC    C212402   2.049   5.653   1.442
  249DPPC    C312403   2.039   5.418   1.443
  249DPPC    N412404   1.956   5.539   1.441
  249DPPC    C512405   1.880   5.551   1.315
  249DPPC    C612406   1.821   5.685   1.274
  249DPPC    O712407   1.708   5.732   1.349
  249DPPC    P812408   1.693   5.890   1.320
  249DPPC    O912409   1.552   5.928   1.344
  249DPPC   O1012410   1.790   5.937   1.219
  249DPPC   O1112411   1.765   5.913   1.462
  249DPPC   C1212412   1.682   5.870   1.570
  249DPPC   C1312413   1.757   5.849   1.702
  249DPPC   O1412414   1.668   5.840   1.815
  249DPPC   C1512415   1.603   5.722   1.831
  249DPPC   O1612416   1.624   5.631   1.751
  249DPPC   C1712417   1.515   5.696   1.954
  249DPPC   C1812418   1.594   5.691   2.085
  249DPPC   C1912419   1.666   5.556   2.097
  249DPPC   C2012420   1.748   5.567   2.225
  249DPPC   C2112421   1.651   5.592   2.342
  249DPPC   C2212422   1.715   5.600   2.481
  249DPPC   C2312423   1.777   5.469   2.531
  249DPPC   C2412424   1.848   5.504   2.662
  249DPPC   C2512425   1.943   5.394   2.709
  249DPPC   C2612426   1.985   5.428   2.852
  249DPPC   C2712427   2.011   5.304   2.938
  249DPPC   C2812428   2.018   5.349   3.085
  249DPPC   C2912429   2.006   5.222   3.169
  249DPPC   C3012430   1.869   5.155   3.179
  249DPPC   C3112431   1.872   5.009   3.226
  249DPPC   C3212432   1.852   5.969   1.710
  249DPPC   O3312433   1.953   5.976   1.811
  249DPPC   C3412434   2.045   5.876   1.816
  249DPPC   O3512435   2.056   5.788   1.730
  249DPPC   C3612436   2.148   5.885   1.929
  249DPPC   C3712437   2.109   5.785   2.038
  249DPPC   C3812438   2.214   5.750   2.142
  249DPPC   C3912439   2.158   5.677   2.265
  249DPPC   C4012440   2.263   5.688   2.376
  249DPPC   C4112441   2.201   5.616   2.496
  249DPPC   C4212442   2.308   5.602   2.605
  249DPPC   C4312443   2.360   5.739   2.647
  249DPPC   C4412444   2.265   5.812   2.743
  249DPPC   C4512445   2.302   5.776   2.887
  249DPPC   C4612446   2.445   5.792   2.940
  249DPPC   C4712447   2.448   5.809   3.092
  249DPPC   C4812448   2.594   5.818   3.135
  249DPPC   C4912449   2.621   5.850   3.282
  249DPPC   C5012450   2.522   5.765   3.361
  250DPPC    C112451   8.739   8.062   1.061
  250DPPC    C212452   8.927   8.116   1.192
  250DPPC    C312453   8.969   8.087   0.964
  250DPPC    N412454   8.867   8.135   1.059
  250DPPC    C512455   8.858   8.276   1.019
  250DPPC    C612456   8.843   8.392   1.117
  250DPPC    O712457   8.962   8.413   1.194
  250DPPC    P812458   8.931   8.504   1.323
  250DPPC    O912459   8.867   8.625   1.267
  250DPPC   O1012460   9.068   8.510   1.380
  250DPPC   O1112461   8.829   8.388   1.368
  250DPPC   C1212462   8.765   8.422   1.491
  250DPPC   C1312463   8.706   8.308   1.574
  250DPPC   O1412464   8.620   8.351   1.680
  250DPPC   C1512465   8.490   8.310   1.679
  250DPPC   O1612466   8.444   8.240   1.589
  250DPPC   C1712467   8.398   8.364   1.788
  250DPPC   C1812468   8.394   8.276   1.913
  250DPPC   C1912469   8.343   8.365   2.027
  250DPPC   C2012470   8.333   8.285   2.157
  250DPPC   C2112471   8.221   8.183   2.145
  250DPPC   C2212472   8.194   8.135   2.288
  250DPPC   C2312473   8.087   8.027   2.272
  250DPPC   C2412474   8.063   7.944   2.397
  250DPPC   C2512475   7.936   7.858   2.390
  250DPPC   C2612476   7.901   7.797   2.525
  250DPPC   C2712477   7.766   7.724   2.520
  250DPPC   C2812478   7.763   7.653   2.656
  250DPPC   C2912479   7.801   7.745   2.772
  250DPPC   C3012480   7.814   7.653   2.894
  250DPPC   C3112481   7.855   7.751   3.004
  250DPPC   C3212482   8.823   8.213   1.604
  250DPPC   O3312483   8.925   8.285   1.673
  250DPPC   C3412484   9.030   8.207   1.712
  250DPPC   O3512485   9.035   8.088   1.681
  250DPPC   C3612486   9.139   8.264   1.803
  250DPPC   C3712487   9.081   8.282   1.944
  250DPPC   C3812488   9.173   8.371   2.027
  250DPPC   C3912489   9.113   8.388   2.167
  250DPPC   C4012490   9.216   8.456   2.256
  250DPPC   C4112491   9.172   8.458   2.403
  250DPPC   C4212492   9.275   8.526   2.493
  250DPPC   C4312493   9.405   8.446   2.495
  250DPPC   C4412494   9.403   8.305   2.556
  250DPPC   C4512495   9.546   8.250   2.555
  250DPPC   C4612496   9.569   8.184   2.420
  250DPPC   C4712497   9.708   8.121   2.418
  250DPPC   C4812498   9.739   8.059   2.281
  250DPPC   C4912499   9.885   8.013   2.272
  250DPPC   C5012500   9.922   7.916   2.384
  251DPPC    C112501   6.564   5.633   1.436
  251DPPC    C212502   6.783   5.620   1.349
  251DPPC    C312503   6.630   5.775   1.258
  251DPPC    N412504   6.675   5.714   1.383
  251DPPC    C512505   6.718   5.815   1.481
  251DPPC    C612506   6.634   5.938   1.516
  251DPPC    O712507   6.518   5.911   1.596
  251DPPC    P812508   6.439   6.028   1.674
  251DPPC    O912509   6.334   5.946   1.738
  251DPPC   O1012510   6.403   6.137   1.581
  251DPPC   O1112511   6.543   6.087   1.782
  251DPPC   C1212512   6.590   5.968   1.845
  251DPPC   C1312513   6.682   5.998   1.964
  251DPPC   O1412514   6.742   5.877   2.011
  251DPPC   C1512515   6.877   5.866   2.006
  251DPPC   O1612516   6.946   5.915   1.916
  251DPPC   C1712517   6.932   5.762   2.104
  251DPPC   C1812518   6.978   5.833   2.231
  251DPPC   C1912519   7.033   5.733   2.333
  251DPPC   C2012520   7.155   5.659   2.277
  251DPPC   C2112521   7.268   5.757   2.249
  251DPPC   C2212522   7.388   5.681   2.191
  251DPPC   C2312523   7.519   5.755   2.164
  251DPPC   C2412524   7.620   5.655   2.107
  251DPPC   C2512525   7.757   5.723   2.108
  251DPPC   C2612526   7.836   5.654   2.219
  251DPPC   C2712527   7.962   5.741   2.229
  251DPPC   C2812528   8.052   5.747   2.106
  251DPPC   C2912529   8.182   5.818   2.143
  251DPPC   C3012530   8.282   5.827   2.028
  251DPPC   C3112531   8.419   5.864   2.085
  251DPPC   C3212532   6.604   6.089   2.059
  251DPPC   O3312533   6.690   6.179   2.129
  251DPPC   C3412534   6.616   6.264   2.206
  251DPPC   O3512535   6.494   6.267   2.193
  251DPPC   C3612536   6.681   6.360   2.305
  251DPPC   C3712537   6.585   6.367   2.424
  251DPPC   C3812538   6.659   6.441   2.537
  251DPPC   C3912539   6.605   6.406   2.676
  251DPPC   C4012540   6.646   6.502   2.788
  251DPPC   C4112541   6.607   6.435   2.920
  251DPPC   C4212542   6.649   6.528   3.035
  251DPPC   C4312543   6.635   6.469   3.175
  251DPPC   C4412544   6.496   6.410   3.198
  251DPPC   C4512545   6.475   6.360   3.342
  251DPPC   C4612546   6.492   6.490   3.421
  251DPPC   C4712547   6.494   6.463   3.572
  251DPPC   C4812548   6.355   6.449   3.633
  251DPPC   C4912549   6.282   6.584   3.630
  251DPPC   C5012550   6.138   6.580   3.681
  252DPPC    C112551   4.473   2.536   1.676
  252DPPC    C212552   4.670   2.561   1.823
  252DPPC    C312553   4.478   2.675   1.860
  252DPPC    N412554   4.524   2.544   1.813
  252DPPC    C512555   4.474   2.420   1.875
  252DPPC    C612556   4.328   2.381   1.899
  252DPPC    O712557   4.256   2.482   1.969
  252DPPC    P812558   4.122   2.415   2.029
  252DPPC    O912559   4.164   2.299   2.111
  252DPPC   O1012560   4.032   2.397   1.913
  252DPPC   O1112561   4.084   2.541   2.120
  252DPPC   C1212562   4.184   2.559   2.221
  252DPPC   C1312563   4.245   2.699   2.223
  252DPPC   O1412564   4.355   2.718   2.314
  252DPPC   C1512565   4.466   2.793   2.293
  252DPPC   O1612566   4.484   2.861   2.192
  252DPPC   C1712567   4.557   2.797   2.416
  252DPPC   C1812568   4.646   2.673   2.423
  252DPPC   C1912569   4.701   2.662   2.565
  252DPPC   C2012570   4.807   2.553   2.585
  252DPPC   C2112571   4.830   2.516   2.732
  252DPPC   C2212572   4.872   2.371   2.755
  252DPPC   C2312573   4.872   2.343   2.906
  252DPPC   C2412574   4.917   2.199   2.927
  252DPPC   C2512575   4.964   2.162   3.068
  252DPPC   C2612576   5.018   2.020   3.081
  252DPPC   C2712577   4.903   1.928   3.042
  252DPPC   C2812578   4.948   1.790   2.992
  252DPPC   C2912579   5.063   1.801   2.892
  252DPPC   C3012580   5.151   1.676   2.878
  252DPPC   C3112581   5.281   1.708   2.804
  252DPPC   C3212582   4.131   2.799   2.246
  252DPPC   O3312583   4.049   2.779   2.361
  252DPPC   C3412584   3.941   2.861   2.357
  252DPPC   O3512585   3.918   2.924   2.254
  252DPPC   C3612586   3.857   2.871   2.485
  252DPPC   C3712587   3.744   2.769   2.468
  252DPPC   C3812588   3.643   2.764   2.583
  252DPPC   C3912589   3.722   2.722   2.707
  252DPPC   C4012590   3.637   2.716   2.834
  252DPPC   C4112591   3.714   2.650   2.948
  252DPPC   C4212592   3.761   2.506   2.924
  252DPPC   C4312593   3.845   2.455   3.042
  252DPPC   C4412594   3.895   2.315   3.005
  252DPPC   C4512595   4.040   2.302   3.052
  252DPPC   C4612596   4.105   2.165   3.034
  252DPPC   C4712597   4.110   2.130   2.885
  252DPPC   C4812598   4.192   2.001   2.882
  252DPPC   C4912599   4.116   1.904   2.974
  252DPPC   C5012600   4.168   1.760   2.968
  253DPPC    C112601   3.820   7.474   1.722
  253DPPC    C212602   3.791   7.706   1.670
  253DPPC    C312603   3.613   7.544   1.623
  253DPPC    N412604   3.722   7.583   1.713
  253DPPC    C512605   3.663   7.597   1.847
  253DPPC    C612606   3.743   7.612   1.977
  253DPPC    O712607   3.800   7.738   2.015
  253DPPC    P812608   3.957   7.726   2.048
  253DPPC    O912609   4.028   7.855   2.038
  253DPPC   O1012610   4.009   7.622   1.956
  253DPPC   O1112611   3.950   7.679   2.202
  253DPPC   C1212612   3.876   7.774   2.279
  253DPPC   C1312613   3.799   7.705   2.392
  253DPPC   O1412614   3.703   7.782   2.466
  253DPPC   C1512615   3.572   7.783   2.427
  253DPPC   O1612616   3.536   7.723   2.326
  253DPPC   C1712617   3.474   7.858   2.517
  253DPPC   C1812618   3.330   7.818   2.486
  253DPPC   C1912619   3.243   7.902   2.581
  253DPPC   C2012620   3.099   7.854   2.599
  253DPPC   C2112621   3.056   7.916   2.731
  253DPPC   C2212622   2.917   7.861   2.766
  253DPPC   C2312623   2.868   7.943   2.885
  253DPPC   C2412624   2.717   7.945   2.908
  253DPPC   C2512625   2.674   8.000   3.044
  253DPPC   C2612626   2.529   7.965   3.081
  253DPPC   C2712627   2.432   8.035   2.985
  253DPPC   C2812628   2.379   8.174   3.021
  253DPPC   C2912629   2.308   8.236   2.900
  253DPPC   C3012630   2.263   8.372   2.954
  253DPPC   C3112631   2.182   8.466   2.866
  253DPPC   C3212632   3.906   7.643   2.481
  253DPPC   O3312633   4.009   7.718   2.546
  253DPPC   C3412634   4.108   7.652   2.611
  253DPPC   O3512635   4.104   7.529   2.620
  253DPPC   C3612636   4.228   7.732   2.663
  253DPPC   C3712637   4.217   7.794   2.803
  253DPPC   C3812638   4.346   7.872   2.823
  253DPPC   C3912639   4.358   8.009   2.755
  253DPPC   C4012640   4.486   8.081   2.800
  253DPPC   C4112641   4.612   7.995   2.788
  253DPPC   C4212642   4.719   8.051   2.882
  253DPPC   C4312643   4.822   7.939   2.893
  253DPPC   C4412644   4.935   7.990   2.984
  253DPPC   C4512645   5.062   7.910   2.955
  253DPPC   C4612646   5.176   7.956   3.045
  253DPPC   C4712647   5.295   7.865   3.014
  253DPPC   C4812648   5.404   7.893   3.117
  253DPPC   C4912649   5.521   7.795   3.137
  253DPPC   C5012650   5.610   7.822   3.258
  254DPPC    C112651   3.123   1.394   2.367
  254DPPC    C212652   3.030   1.614   2.348
  254DPPC    C312653   3.145   1.511   2.171
  254DPPC    N412654   3.048   1.486   2.278
  254DPPC    C512655   2.925   1.424   2.226
  254DPPC    C612656   2.848   1.480   2.106
  254DPPC    O712657   2.713   1.514   2.137
  254DPPC    P812658   2.663   1.584   2.001
  254DPPC    O912659   2.720   1.505   1.890
  254DPPC   O1012660   2.689   1.727   2.031
  254DPPC   O1112661   2.515   1.550   2.053
  254DPPC   C1212662   2.470   1.644   2.152
  254DPPC   C1312663   2.324   1.642   2.197
  254DPPC   O1412664   2.280   1.726   2.304
  254DPPC   C1512665   2.300   1.860   2.295
  254DPPC   O1612666   2.349   1.925   2.203
  254DPPC   C1712667   2.240   1.937   2.413
  254DPPC   C1812668   2.346   2.001   2.503
  254DPPC   C1912669   2.282   2.044   2.635
  254DPPC   C2012670   2.397   2.077   2.729
  254DPPC   C2112671   2.342   2.157   2.847
  254DPPC   C2212672   2.421   2.123   2.973
  254DPPC   C2312673   2.430   1.979   3.023
  254DPPC   C2412674   2.320   1.939   3.122
  254DPPC   C2512675   2.345   1.797   3.174
  254DPPC   C2612676   2.237   1.769   3.278
  254DPPC   C2712677   2.244   1.638   3.356
  254DPPC   C2812678   2.381   1.648   3.425
  254DPPC   C2912679   2.414   1.524   3.509
  254DPPC   C3012680   2.300   1.487   3.605
  254DPPC   C3112681   2.356   1.378   3.696
  254DPPC   C3212682   2.308   1.491   2.221
  254DPPC   O3312683   2.378   1.440   2.335
  254DPPC   C3412684   2.404   1.307   2.327
  254DPPC   O3512685   2.366   1.240   2.231
  254DPPC   C3612686   2.489   1.252   2.442
  254DPPC   C3712687   2.408   1.155   2.528
  254DPPC   C3812688   2.502   1.096   2.633
  254DPPC   C3912689   2.435   0.994   2.724
  254DPPC   C4012690   2.538   0.943   2.825
  254DPPC   C4112691   2.485   0.829   2.912
  254DPPC   C4212692   2.610   0.759   2.964
  254DPPC   C4312693   2.694   0.825   3.073
  254DPPC   C4412694   2.797   0.721   3.117
  254DPPC   C4512695   2.871   0.754   3.247
  254DPPC   C4612696   2.784   0.763   3.373
  254DPPC   C4712697   2.877   0.753   3.495
  254DPPC   C4812698   2.806   0.740   3.630
  254DPPC   C4912699   2.908   0.729   3.743
  254DPPC   C5012700   2.860   0.790   3.875
  255DPPC    C112701   1.551   7.628   1.686
  255DPPC    C212702   1.559   7.399   1.611
  255DPPC    C312703   1.395   7.536   1.530
  255DPPC    N412704   1.536   7.538   1.571
  255DPPC    C512705   1.618   7.588   1.460
  255DPPC    C612706   1.770   7.602   1.463
  255DPPC    O712707   1.860   7.491   1.460
  255DPPC    P812708   2.015   7.529   1.440
  255DPPC    O912709   2.019   7.650   1.356
  255DPPC   O1012710   2.084   7.402   1.407
  255DPPC   O1112711   2.024   7.556   1.599
  255DPPC   C1212712   2.008   7.429   1.664
  255DPPC   C1312713   2.027   7.431   1.815
  255DPPC   O1412714   2.035   7.301   1.874
  255DPPC   C1512715   2.160   7.248   1.888
  255DPPC   O1612716   2.260   7.292   1.833
  255DPPC   C1712717   2.169   7.115   1.964
  255DPPC   C1812718   2.054   7.074   2.055
  255DPPC   C1912719   2.094   6.960   2.149
  255DPPC   C2012720   1.971   6.896   2.214
  255DPPC   C2112721   1.900   6.802   2.116
  255DPPC   C2212722   1.771   6.745   2.174
  255DPPC   C2312723   1.792   6.643   2.287
  255DPPC   C2412724   1.662   6.619   2.365
  255DPPC   C2512725   1.693   6.495   2.449
  255DPPC   C2612726   1.584   6.467   2.552
  255DPPC   C2712727   1.593   6.319   2.591
  255DPPC   C2812728   1.475   6.279   2.680
  255DPPC   C2912729   1.481   6.362   2.808
  255DPPC   C3012730   1.406   6.270   2.904
  255DPPC   C3112731   1.471   6.136   2.938
  255DPPC   C3212732   1.921   7.531   1.863
  255DPPC   O3312733   1.929   7.597   1.990
  255DPPC   C3412734   1.807   7.646   2.025
  255DPPC   O3512735   1.712   7.629   1.949
  255DPPC   C3612736   1.774   7.697   2.165
  255DPPC   C3712737   1.846   7.829   2.190
  255DPPC   C3812738   1.802   7.887   2.324
  255DPPC   C3912739   1.872   8.020   2.353
  255DPPC   C4012740   1.836   8.054   2.498
  255DPPC   C4112741   1.893   8.194   2.521
  255DPPC   C4212742   1.870   8.246   2.663
  255DPPC   C4312743   1.961   8.164   2.755
  255DPPC   C4412744   1.886   8.098   2.871
  255DPPC   C4512745   1.995   8.017   2.942
  255DPPC   C4612746   1.945   7.955   3.072
  255DPPC   C4712747   2.046   7.862   3.139
  255DPPC   C4812748   2.012   7.715   3.114
  255DPPC   C4912749   2.121   7.630   3.179
  255DPPC   C5012750   2.116   7.659   3.329
  256DPPC    C112751   2.747   6.670   1.718
  256DPPC    C212752   2.709   6.444   1.768
  256DPPC    C312753   2.598   6.558   1.580
  256DPPC    N412754   2.722   6.539   1.657
  256DPPC    C512755   2.833   6.512   1.565
  256DPPC    C612756   2.874   6.365   1.555
  256DPPC    O712757   2.774   6.293   1.482
  256DPPC    P812758   2.820   6.140   1.467
  256DPPC    O912759   2.967   6.147   1.452
  256DPPC   O1012760   2.722   6.097   1.365
  256DPPC   O1112761   2.767   6.104   1.615
  256DPPC   C1212762   2.627   6.097   1.589
  256DPPC   C1312763   2.549   6.044   1.710
  256DPPC   O1412764   2.503   6.147   1.799
  256DPPC   C1512765   2.378   6.198   1.787
  256DPPC   O1612766   2.311   6.191   1.684
  256DPPC   C1712767   2.345   6.302   1.894
  256DPPC   C1812768   2.270   6.229   2.006
  256DPPC   C1912769   2.224   6.344   2.096
  256DPPC   C2012770   2.140   6.278   2.206
  256DPPC   C2112771   2.117   6.383   2.314
  256DPPC   C2212772   2.235   6.443   2.391
  256DPPC   C2312773   2.184   6.527   2.508
  256DPPC   C2412774   2.145   6.664   2.451
  256DPPC   C2512775   2.099   6.742   2.575
  256DPPC   C2612776   1.991   6.674   2.659
  256DPPC   C2712777   1.961   6.732   2.797
  256DPPC   C2812778   1.833   6.674   2.856
  256DPPC   C2912779   1.860   6.529   2.898
  256DPPC   C3012780   1.761   6.488   3.007
  256DPPC   C3112781   1.816   6.359   3.069
  256DPPC   C3212782   2.633   5.928   1.763
  256DPPC   O3312783   2.576   5.844   1.863
  256DPPC   C3412784   2.650   5.739   1.909
  256DPPC   O3512785   2.769   5.727   1.882
  256DPPC   C3612786   2.561   5.635   1.978
  256DPPC   C3712787   2.632   5.572   2.099
  256DPPC   C3812788   2.538   5.509   2.201
  256DPPC   C3912789   2.491   5.373   2.148
  256DPPC   C4012790   2.384   5.319   2.243
  256DPPC   C4112791   2.452   5.301   2.379
  256DPPC   C4212792   2.338   5.270   2.477
  256DPPC   C4312793   2.269   5.141   2.433
  256DPPC   C4412794   2.165   5.086   2.530
  256DPPC   C4512795   2.115   4.948   2.484
  256DPPC   C4612796   2.001   4.908   2.577
  256DPPC   C4712797   2.049   4.898   2.722
  256DPPC   C4812798   1.927   4.894   2.815
  256DPPC   C4912799   1.916   4.748   2.860
  256DPPC   C5012800   1.792   4.740   2.949
  257SOL     OW12801   9.589   0.674   5.839
  257SOL    HW112802   9.520   0.631   5.780
  257SOL    HW212803   9.550   0.690   5.929
  258SOL     OW12804   6.228   8.136   1.144
  258SOL    HW112805   6.327   8.128   1.159
  258SOL    HW212806   6.198   8.228   1.169
  259SOL     OW12807   7.562   3.014   6.684
  259SOL    HW112808   7.506   2.946   6.637
  259SOL    HW212809   7.659   2.989   6.675
  260SOL     OW12810   3.773   2.382   0.658
  260SOL    HW112811   3.743   2.446   0.729
  260SOL    HW212812   3.871   2.368   0.666
  261SOL     OW12813   6.349   1.305   0.609
  261SOL    HW112814   6.375   1.355   0.692
  261SOL    HW212815   6.276   1.354   0.563
  262SOL     OW12816   1.010   5.497   4.424
  262SOL    HW112817   0.944   5.428   4.396
  262SOL    HW212818   1.102   5.457   4.428
  263SOL     OW12819   0.726   3.949   6.562
  263SOL    HW112820   0.729   3.850   6.573
  263SOL    HW212821   0.783   3.976   6.483
  264SOL     OW12822   4.092   1.902   0.850
  264SOL    HW112823   4.117   1.894   0.754
  264SOL    HW212824   4.121   1.992   0.884
  265SOL     OW12825   4.311   5.130   1.961
  265SOL    HW112826   4.348   5.091   2.046
  265SOL    HW212827   4.212   5.119   1.959
  266SOL     OW12828   3.498   1.439   1.860
  266SOL    HW112829   3.443   1.417   1.940
  266SOL    HW212830   3.580   1.383   1.858
  267SOL     OW12831   4.147   7.382   1.911
  267SOL    HW112832   4.106   7.474   1.908
  267SOL    HW212833   4.075   7.314   1.924
  268SOL     OW12834   8.385   3.099   5.476
  268SOL    HW112835   8.386   3.160   5.397
  268SOL    HW212836   8.303   3.043   5.474
  269SOL     OW12837   3.520   1.466   0.405
  269SOL    HW112838   3.504   1.545   0.345
  269SOL    HW212839   3.471   1.478   0.491
  270SOL     OW12840   6.597   0.376   1.057
  270SOL    HW112841   6.604   0.286   1.014
  270SOL    HW212842   6.525   0.429   1.013
  271SOL     OW12843   4.544   2.606   1.299
  271SOL    HW112844   4.498   2.679   1.350
  271SOL    HW212845   4.629   2.582   1.346
  272SOL     OW12846   9.271   1.054   6.276
  272SOL    HW112847   9.257   1.153   6.265
  272SOL    HW212848   9.368   1.036   6.289
  273SOL     OW12849   7.586   7.602   4.903
  273SOL    HW112850   7.644   7.655   4.965
  273SOL    HW212851   7.592   7.641   4.811
  274SOL     OW12852   9.000   6.706   0.150
  274SOL    HW112853   9.049   6.790   0.127
  274SOL    HW212854   8.987   6.651   0.068
  275SOL     OW12855   9.373   0.662   6.397
  275SOL    HW112856   9.307   0.706   6.336
  275SOL    HW212857   9.331   0.650   6.487
  276SOL     OW12858   1.348   4.366   6.501
  276SOL    HW112859   1.415   4.291   6.494
  276SOL    HW212860   1.333   4.388   6.597
  277SOL     OW12861   5.900   3.019   1.295
  277SOL    HW112862   5.903   3.118   1.313
  277SOL    HW212863   5.960   2.998   1.218
  278SOL     OW12864   9.446   7.088   6.747
  278SOL    HW112865   9.454   7.152   6.824
  278SOL    HW212866   9.379   7.124   6.681
  279SOL     OW12867   1.125   6.706   6.258
  279SOL    HW112868   1.044   6.754   6.222
  279SOL    HW212869   1.183   6.771   6.307
  280SOL     OW12870   9.293   3.349   0.575
  280SOL    HW112871   9.287   3.444   0.607
  280SOL    HW212872   9.332   3.293   0.648
  281SOL     OW12873   5.767   5.710   5.851
  281SOL    HW112874   5.841   5.750   5.905
  281SOL    HW212875   5.703   5.782   5.824
  282SOL     OW12876   5.662   7.302   6.208
  282SOL    HW112877   5.707   7.223   6.249
  282SOL    HW212878   5.669   7.297   6.108
  283SOL     OW12879   6.305   4.458   0.359
  283SOL    HW112880   6.344   4.513   0.285
  283SOL    HW212881   6.357   4.473   0.443
  284SOL     OW12882   6.054   0.482   1.707
  284SOL    HW112883   6.066   0.581   1.708
  284SOL    HW212884   6.040   0.449   1.800
  285SOL     OW12885   3.885   2.772   5.334
  285SOL    HW112886   3.921   2.821   5.413
  285SOL    HW212887   3.946   2.784   5.256
  286SOL     OW12888   3.095   6.532   4.914
  286SOL    HW112889   3.174   6.590   4.936
  286SOL    HW212890   3.012   6.588   4.913
  287SOL     OW12891   1.773   3.678   6.688
  287SOL    HW112892   1.676   3.662   6.703
  287SOL    HW212893   1.795   3.660   6.592
  288SOL     OW12894   8.251   8.025   5.834
  288SOL    HW112895   8.301   8.085   5.898
  288SOL    HW212896   8.206   8.081   5.764
  289SOL     OW12897   4.141   0.977   1.079
  289SOL    HW112898   4.095   0.924   1.008
  289SOL    HW212899   4.178   1.061   1.039
  290SOL     OW12900   6.971   7.096   1.550
  290SOL    HW112901   7.046   7.031   1.541
  290SOL    HW212902   6.938   7.096   1.644
  291SOL     OW12903   3.098   6.891   0.410
  291SOL    HW112904   3.065   6.897   0.315
  291SOL    HW212905   3.195   6.867   0.410
  292SOL     OW12906   8.903   6.443   0.709
  292SOL    HW112907   8.832   6.489   0.762
  292SOL    HW212908   8.925   6.355   0.752
  293SOL     OW12909   6.639   6.385   6.380
  293SOL    HW112910   6.603   6.376   6.287
  293SOL    HW212911   6.728   6.431   6.377
  294SOL     OW12912   0.820   2.499   0.862
  294SOL    HW112913   0.847   2.567   0.794
  294SOL    HW212914   0.842   2.532   0.954
  295SOL     OW12915   3.054   1.211   1.363
  295SOL    HW112916   2.982   1.167   1.310
  295SOL    HW212917   3.142   1.195   1.319
  296SOL     OW12918   7.299   6.410   6.146
  296SOL    HW112919   7.212   6.365   6.125
  296SOL    HW212920   7.370   6.341   6.161
  297SOL     OW12921   7.729   2.394   6.623
  297SOL    HW112922   7.783   2.347   6.693
  297SOL    HW212923   7.690   2.477   6.661
  298SOL     OW12924   6.674   6.842   5.580
  298SOL    HW112925   6.734   6.835   5.661
  298SOL    HW212926   6.730   6.834   5.497
  299SOL     OW12927   5.629   0.885   0.259
  299SOL    HW112928   5.717   0.841   0.242
  299SOL    HW212929   5.557   0.833   0.213
  300SOL     OW12930   1.153   0.848   6.240
  300SOL    HW112931   1.111   0.893   6.318
  300SOL    HW212932   1.229   0.905   6.206
  301SOL     OW12933   4.603   4.249   1.986
  301SOL    HW112934   4.591   4.304   1.903
  301SOL    HW212935   4.700   4.245   2.009
  302SOL     OW12936   8.718   6.009   6.353
  302SOL    HW112937   8.761   6.033   6.266
  302SOL    HW212938   8.626   5.974   6.335
  303SOL     OW12939   6.910   1.032   6.795
  303SOL    HW112940   6.931   0.985   6.710
  303SOL    HW212941   6.985   1.020   6.860
  304SOL     OW12942   4.327   0.333   5.743
  304SOL    HW112943   4.421   0.310   5.767
  304SOL    HW212944   4.319   0.431   5.726
  305SOL     OW12945   6.121   4.514   0.575
  305SOL    HW112946   6.157   4.488   0.485
  305SOL    HW212947   6.055   4.445   0.606
  306SOL     OW12948   1.013   8.245   6.809
  306SOL    HW112949   0.977   8.155   6.832
  306SOL    HW212950   0.986   8.311   6.879
  307SOL     OW12951   3.514   5.988   6.136
  307SOL    HW112952   3.415   5.992   6.139
  307SOL    HW212953   3.551   6.008   6.227
  308SOL     OW12954   3.222   0.357   5.150
  308SOL    HW112955   3.130   0.368   5.113
  308SOL    HW212956   3.218   0.307   5.236
  309SOL     OW12957   4.294   6.936   5.690
  309SOL    HW112958   4.262   6.848   5.724
  309SOL    HW212959   4.230   6.971   5.622
  310SOL     OW12960   4.733   1.387   1.471
  310SOL    HW112961   4.783   1.303   1.451
  310SOL    HW212962   4.720   1.395   1.569
  311SOL     OW12963   6.979   4.697   6.115
  311SOL    HW112964   6.978   4.668   6.020
  311SOL    HW212965   6.924   4.780   6.125
  312SOL     OW12966   8.048   4.539   5.342
  312SOL    HW112967   7.949   4.528   5.351
  312SOL    HW212968   8.086   4.461   5.291
  313SOL     OW12969   1.551   0.874   5.507
  313SOL    HW112970   1.456   0.848   5.522
  313SOL    HW212971   1.609   0.793   5.509
  314SOL     OW12972   3.072   6.196   6.313
  314SOL    HW112973   3.106   6.276   6.362
  314SOL    HW212974   3.011   6.224   6.239
  315SOL     OW12975   1.748   4.204   0.709
  315SOL    HW112976   1.669   4.215   0.649
  315SOL    HW212977   1.718   4.168   0.798
  316SOL     OW12978   4.417   0.051   6.629
  316SOL    HW112979   4.472   0.134   6.618
  316SOL    HW212980   4.353   0.043   6.553
  317SOL     OW12981   6.986   1.276   6.418
  317SOL    HW112982   6.972   1.359   6.363
  317SOL    HW212983   6.946   1.198   6.372
  318SOL     OW12984   6.886   2.724   1.828
  318SOL    HW112985   6.861   2.799   1.888
  318SOL    HW212986   6.966   2.750   1.773
  319SOL     OW12987   7.632   7.564   1.121
  319SOL    HW112988   7.707   7.563   1.055
  319SOL    HW212989   7.545   7.547   1.073
  320SOL     OW12990   7.991   8.056   0.605
  320SOL    HW112991   8.080   8.101   0.600
  320SOL    HW212992   7.978   8.000   0.523
  321SOL     OW12993   1.039  -0.023   1.127
  321SOL    HW112994   1.035  -0.106   1.183
  321SOL    HW212995   1.017  -0.046   1.032
  322SOL     OW12996   3.188   8.403   2.053
  322SOL    HW112997   3.227   8.490   2.081
  322SOL    HW212998   3.090   8.402   2.071
  323SOL     OW12999   0.381   3.647   1.145
  323SOL    HW113000   0.409   3.689   1.232
  323SOL    HW213001   0.458   3.647   1.081
  324SOL     OW13002   7.148   3.155   0.442
  324SOL    HW113003   7.155   3.072   0.497
  324SOL    HW213004   7.103   3.227   0.495
  325SOL     OW13005   1.885   0.510   1.021
  325SOL    HW113006   1.936   0.587   0.982
  325SOL    HW213007   1.880   0.435   0.955
  326SOL     OW13008   0.245   3.053   0.412
  326SOL    HW113009   0.260   2.954   0.418
  326SOL    HW213010   0.147   3.073   0.412
  327SOL     OW13011   4.037   6.083   6.046
  327SOL    HW113012   4.000   6.006   6.099
  327SOL    HW213013   3.961   6.136   6.008
  328SOL     OW13014   2.464   6.007   6.279
  328SOL    HW113015   2.448   5.983   6.375
  328SOL    HW213016   2.377   6.033   6.237
  329SOL     OW13017   1.569   4.104   0.313
  329SOL    HW113018   1.611   4.183   0.268
  329SOL    HW213019   1.638   4.032   0.325
  330SOL     OW13020   7.816   3.255   6.195
  330SOL    HW113021   7.768   3.312   6.129
  330SOL    HW213022   7.837   3.310   6.277
  331SOL     OW13023   7.838   5.994   6.348
  331SOL    HW113024   7.768   5.996   6.419
  331SOL    HW213025   7.904   5.922   6.369
  332SOL     OW13026   7.286   1.471   1.324
  332SOL    HW113027   7.292   1.373   1.307
  332SOL    HW213028   7.330   1.493   1.411
  333SOL     OW13029   6.536   3.357   1.328
  333SOL    HW113030   6.615   3.311   1.367
  333SOL    HW213031   6.480   3.291   1.278
  334SOL     OW13032   7.408   2.910   6.210
  334SOL    HW113033   7.436   2.826   6.256
  334SOL    HW213034   7.470   2.984   6.236
  335SOL     OW13035   3.476   0.959   1.059
  335SOL    HW113036   3.382   0.970   1.026
  335SOL    HW213037   3.530   1.039   1.034
  336SOL     OW13038   4.229   8.321   6.240
  336SOL    HW113039   4.291   8.245   6.221
  336SOL    HW213040   4.139   8.302   6.201
  337SOL     OW13041   3.039   6.203   6.746
  337SOL    HW113042   2.984   6.184   6.665
  337SOL    HW213043   3.131   6.228   6.718
  338SOL     OW13044   0.615   4.532   6.752
  338SOL    HW113045   0.595   4.438   6.782
  338SOL    HW213046   0.703   4.534   6.705
  339SOL     OW13047   2.630   3.206   5.633
  339SOL    HW113048   2.689   3.136   5.674
  339SOL    HW213049   2.635   3.201   5.534
  340SOL     OW13050   6.117   6.440   5.380
  340SOL    HW113051   6.202   6.441   5.327
  340SOL    HW213052   6.042   6.475   5.323
  341SOL     OW13053   5.435   2.507   1.469
  341SOL    HW113054   5.476   2.417   1.455
  341SOL    HW213055   5.358   2.518   1.406
  342SOL     OW13056   9.120   3.903   1.044
  342SOL    HW113057   9.215   3.875   1.030
  342SOL    HW213058   9.117   3.994   1.086
  343SOL     OW13059   0.381   3.145   5.571
  343SOL    HW113060   0.436   3.145   5.487
  343SOL    HW213061   0.298   3.200   5.556
  344SOL     OW13062   7.151   4.407   6.422
  344SOL    HW113063   7.065   4.359   6.436
  344SOL    HW213064   7.219   4.344   6.384
  345SOL     OW13065   1.072   7.974   1.537
  345SOL    HW113066   1.115   8.063   1.550
  345SOL    HW213067   0.978   7.977   1.571
  346SOL     OW13068   0.634   1.236   4.778
  346SOL    HW113069   0.575   1.317   4.773
  346SOL    HW213070   0.579   1.155   4.797
  347SOL     OW13071   4.661   5.820   6.749
  347SOL    HW113072   4.748   5.869   6.742
  347SOL    HW213073   4.678   5.728   6.784
  348SOL     OW13074   0.286   4.107   6.643
  348SOL    HW113075   0.258   4.014   6.667
  348SOL    HW213076   0.212   4.153   6.594
  349SOL     OW13077   7.614   6.261   6.817
  349SOL    HW113078   7.570   6.351   6.816
  349SOL    HW213079   7.693   6.262   6.755
  350SOL     OW13080   3.475   6.284   6.505
  350SOL    HW113081   3.531   6.226   6.445
  350SOL    HW213082   3.421   6.347   6.449
  351SOL     OW13083   6.531   3.675   6.699
  351SOL    HW113084   6.467   3.751   6.690
  351SOL    HW213085   6.624   3.707   6.679
  352SOL     OW13086   7.778   0.615   5.880
  352SOL    HW113087   7.852   0.574   5.827
  352SOL    HW213088   7.712   0.657   5.817
  353SOL     OW13089   7.927   7.401   5.015
  353SOL    HW113090   7.966   7.414   5.106
  353SOL    HW213091   7.827   7.408   5.020
  354SOL     OW13092   4.029   5.910   0.861
  354SOL    HW113093   3.962   5.951   0.799
  354SOL    HW213094   4.115   5.895   0.813
  355SOL     OW13095   6.528   1.810   5.836
  355SOL    HW113096   6.533   1.895   5.783
  355SOL    HW213097   6.455   1.753   5.798
  356SOL     OW13098   5.723   3.625   0.710
  356SOL    HW113099   5.687   3.589   0.796
  356SOL    HW213100   5.681   3.714   0.691
  357SOL     OW13101   5.223   0.353   6.386
  357SOL    HW113102   5.316   0.377   6.359
  357SOL    HW213103   5.198   0.404   6.469
  358SOL     OW13104   7.529   3.522   0.895
  358SOL    HW113105   7.523   3.620   0.908
  358SOL    HW213106   7.563   3.478   0.978
  359SOL     OW13107   0.389   3.205   6.302
  359SOL    HW113108   0.332   3.123   6.294
  359SOL    HW213109   0.338   3.283   6.266
  360SOL     OW13110   2.509  -0.049   5.992
  360SOL    HW113111   2.444   0.027   5.982
  360SOL    HW213112   2.494  -0.115   5.919
  361SOL     OW13113   3.386   3.477   0.249
  361SOL    HW113114   3.362   3.543   0.179
  361SOL    HW213115   3.486   3.468   0.254
  362SOL     OW13116   2.312   5.009   6.825
  362SOL    HW113117   2.371   5.086   6.804
  362SOL    HW213118   2.221   5.025   6.785
  363SOL     OW13119   2.750   3.260   6.708
  363SOL    HW113120   2.674   3.223   6.763
  363SOL    HW213121   2.756   3.359   6.723
  364SOL     OW13122   7.337   5.890   5.599
  364SOL    HW113123   7.343   5.812   5.537
  364SOL    HW213124   7.256   5.945   5.576
  365SOL     OW13125   7.610   3.730   6.451
  365SOL    HW113126   7.683   3.708   6.516
  365SOL    HW213127   7.627   3.684   6.364
  366SOL     OW13128   1.195   7.146   5.693
  366SOL    HW113129   1.216   7.085   5.769
  366SOL    HW213130   1.158   7.232   5.729
  367SOL     OW13131   8.113   6.146   0.142
  367SOL    HW113132   8.158   6.057   0.134
  367SOL    HW213133   8.121   6.196   0.056
  368SOL     OW13134   4.805   7.392   6.446
  368SOL    HW113135   4.862   7.337   6.507
  368SOL    HW213136   4.726   7.427   6.496
  369SOL     OW13137   2.241   0.412   0.881
  369SOL    HW113138   2.234   0.360   0.967
  369SOL    HW213139   2.187   0.368   0.810
  370SOL     OW13140   0.475   0.254   5.729
  370SOL    HW113141   0.573   0.235   5.735
  370SOL    HW213142   0.456   0.346   5.764
  371SOL     OW13143   8.843   1.832   0.263
  371SOL    HW113144   8.802   1.796   0.179
  371SOL    HW213145   8.892   1.917   0.243
  372SOL     OW13146   3.926   4.257   0.700
  372SOL    HW113147   3.949   4.320   0.626
  372SOL    HW213148   4.009   4.237   0.753
  373SOL     OW13149   2.649   2.191   0.506
  373SOL    HW113150   2.719   2.151   0.565
  373SOL    HW213151   2.572   2.223   0.562
  374SOL     OW13152   8.872   4.224   6.478
  374SOL    HW113153   8.845   4.293   6.544
  374SOL    HW213154   8.869   4.263   6.386
  375SOL     OW13155   8.102   1.072   6.023
  375SOL    HW113156   8.128   1.116   5.937
  375SOL    HW213157   8.093   0.973   6.008
  376SOL     OW13158   0.832   4.861   0.297
  376SOL    HW113159   0.769   4.919   0.244
  376SOL    HW213160   0.893   4.813   0.234
  377SOL     OW13161   7.050   5.446   5.873
  377SOL    HW113162   7.039   5.543   5.853
  377SOL    HW213163   7.121   5.408   5.814
  378SOL     OW13164   5.752   1.473   0.473
  378SOL    HW113165   5.777   1.401   0.538
  378SOL    HW213166   5.804   1.461   0.388
  379SOL     OW13167   5.133   7.403   6.384
  379SOL    HW113168   5.125   7.422   6.286
  379SOL    HW213169   5.124   7.305   6.400
  380SOL     OW13170   0.448   3.334   1.053
  380SOL    HW113171   0.532   3.386   1.036
  380SOL    HW213172   0.467   3.262   1.119
  381SOL     OW13173   6.525   4.903   0.968
  381SOL    HW113174   6.545   4.992   0.927
  381SOL    HW213175   6.600   4.839   0.949
  382SOL     OW13176   3.835   0.040   0.395
  382SOL    HW113177   3.816  -0.054   0.421
  382SOL    HW213178   3.933   0.051   0.377
  383SOL     OW13179   2.433   5.606   6.583
  383SOL    HW113180   2.528   5.612   6.614
  383SOL    HW213181   2.372   5.613   6.662
  384SOL     OW13182   8.473   3.915   5.364
  384SOL    HW113183   8.399   3.853   5.339
  384SOL    HW213184   8.495   3.974   5.286
  385SOL     OW13185   3.528   2.322   5.292
  385SOL    HW113186   3.465   2.399   5.306
  385SOL    HW213187   3.543   2.309   5.194
  386SOL     OW13188   3.998   5.174   1.825
  386SOL    HW113189   3.934   5.249   1.841
  386SOL    HW213190   3.957   5.109   1.761
  387SOL     OW13191   6.173   0.950   1.437
  387SOL    HW113192   6.127   1.020   1.492
  387SOL    HW213193   6.108   0.912   1.371
  388SOL     OW13194   6.541   7.793   1.270
  388SOL    HW113195   6.606   7.800   1.347
  388SOL    HW213196   6.590   7.765   1.188
  389SOL     OW13197   5.890   0.434   5.343
  389SOL    HW113198   5.843   0.521   5.353
  389SOL    HW213199   5.939   0.413   5.428
  390SOL     OW13200   8.380   0.031   6.296
  390SOL    HW113201   8.359  -0.063   6.269
  390SOL    HW213202   8.303   0.069   6.347
  391SOL     OW13203   0.354   8.287   1.564
  391SOL    HW113204   0.426   8.314   1.628
  391SOL    HW213205   0.270   8.266   1.615
  392SOL     OW13206   6.637   1.063   0.701
  392SOL    HW113207   6.595   0.973   0.709
  392SOL    HW213208   6.567   1.133   0.701
  393SOL     OW13209   6.586   7.512   0.516
  393SOL    HW113210   6.626   7.597   0.550
  393SOL    HW213211   6.489   7.526   0.497
  394SOL     OW13212   6.540   2.701   1.107
  394SOL    HW113213   6.640   2.700   1.099
  394SOL    HW213214   6.513   2.770   1.174
  395SOL     OW13215   6.078   6.701   6.408
  395SOL    HW113216   6.036   6.704   6.317
  395SOL    HW213217   6.059   6.612   6.450
  396SOL     OW13218   5.709   7.235   5.940
  396SOL    HW113219   5.800   7.277   5.936
  396SOL    HW213220   5.668   7.236   5.849
  397SOL     OW13221   5.100   3.998   1.292
  397SOL    HW113222   5.053   4.086   1.280
  397SOL    HW213223   5.186   4.013   1.340
  398SOL     OW13224   0.658   5.094   5.505
  398SOL    HW113225   0.663   5.032   5.427
  398SOL    HW213226   0.597   5.170   5.484
  399SOL     OW13227   3.608  -0.015   1.164
  399SOL    HW113228   3.706  -0.015   1.143
  399SOL    HW213229   3.557   0.015   1.084
  400SOL     OW13230   8.360   4.966   6.336
  400SOL    HW113231   8.360   5.017   6.422
  400SOL    HW213232   8.391   5.025   6.261
  401SOL     OW13233   8.534   2.861   6.311
  401SOL    HW113234   8.579   2.866   6.401
  401SOL    HW213235   8.516   2.766   6.288
  402SOL     OW13236   6.860   5.855   5.477
  402SOL    HW113237   6.872   5.806   5.391
  402SOL    HW213238   6.910   5.808   5.550
  403SOL     OW13239   8.607   7.743   5.890
  403SOL    HW113240   8.617   7.644   5.898
  403SOL    HW213241   8.540   7.764   5.818
  404SOL     OW13242   3.156   3.150   6.563
  404SOL    HW113243   3.150   3.154   6.464
  404SOL    HW213244   3.224   3.082   6.590
  405SOL     OW13245   1.632   5.700   5.527
  405SOL    HW113246   1.708   5.636   5.513
  405SOL    HW213247   1.548   5.660   5.492
  406SOL     OW13248   8.749   4.732   0.367
  406SOL    HW113249   8.656   4.750   0.401
  406SOL    HW213250   8.751   4.644   0.320
  407SOL     OW13251   5.697   3.998   5.728
  407SOL    HW113252   5.659   3.955   5.810
  407SOL    HW213253   5.680   3.939   5.649
  408SOL     OW13254   6.464   2.424   0.710
  408SOL    HW113255   6.420   2.346   0.665
  408SOL    HW213256   6.486   2.493   0.641
  409SOL     OW13257   3.500   1.724   6.361
  409SOL    HW113258   3.490   1.699   6.458
  409SOL    HW213259   3.416   1.698   6.312
  410SOL     OW13260   0.235   1.304   6.271
  410SOL    HW113261   0.177   1.385   6.264
  410SOL    HW213262   0.217   1.243   6.194
  411SOL     OW13263   0.341   4.640   1.380
  411SOL    HW113264   0.398   4.683   1.309
  411SOL    HW213265   0.284   4.710   1.423
  412SOL     OW13266   8.627   6.893   0.553
  412SOL    HW113267   8.653   6.810   0.503
  412SOL    HW213268   8.622   6.970   0.489
  413SOL     OW13269   2.681   7.952   6.659
  413SOL    HW113270   2.631   8.038   6.665
  413SOL    HW213271   2.617   7.876   6.672
  414SOL     OW13272   1.580   7.201   0.331
  414SOL    HW113273   1.605   7.260   0.254
  414SOL    HW213274   1.649   7.210   0.403
  415SOL     OW13275   9.583   0.073   1.208
  415SOL    HW113276   9.484   0.066   1.224
  415SOL    HW213277   9.609   0.011   1.134
  416SOL     OW13278   8.642   2.034   0.622
  416SOL    HW113279   8.689   1.950   0.596
  416SOL    HW213280   8.703   2.112   0.604
  417SOL     OW13281   6.903   7.901   0.852
  417SOL    HW113282   6.965   7.826   0.829
  417SOL    HW213283   6.918   7.929   0.947
  418SOL     OW13284   1.257   0.003   5.206
  418SOL    HW113285   1.192   0.078   5.221
  418SOL    HW213286   1.220  -0.081   5.246
  419SOL     OW13287   3.146   0.968   6.630
  419SOL    HW113288   3.156   0.897   6.699
  419SOL    HW213289   3.072   1.030   6.655
  420SOL     OW13290   5.806   4.371   6.230
  420SOL    HW113291   5.842   4.440   6.293
  420SOL    HW213292   5.862   4.369   6.147
  421SOL     OW13293   2.055   0.643   5.094
  421SOL    HW113294   2.111   0.606   5.020
  421SOL    HW213295   2.050   0.576   5.168
  422SOL     OW13296   0.539   6.909   1.135
  422SOL    HW113297   0.466   6.842   1.118
  422SOL    HW213298   0.570   6.900   1.230
  423SOL     OW13299   1.928   7.879   4.212
  423SOL    HW113300   1.841   7.917   4.241
  423SOL    HW213301   1.974   7.943   4.151
  424SOL     OW13302   7.670   6.464   6.513
  424SOL    HW113303   7.632   6.485   6.603
  424SOL    HW213304   7.738   6.533   6.489
  425SOL     OW13305   0.711   3.360   5.233
  425SOL    HW113306   0.616   3.381   5.253
  425SOL    HW213307   0.743   3.417   5.157
  426SOL     OW13308   1.276   2.767   1.149
  426SOL    HW113309   1.188   2.743   1.190
  426SOL    HW213310   1.285   2.866   1.146
  427SOL     OW13311   5.636  -0.048   1.250
  427SOL    HW113312   5.681  -0.091   1.171
  427SOL    HW213313   5.702   0.008   1.299
  428SOL     OW13314   3.208   6.361   5.756
  428SOL    HW113315   3.222   6.284   5.694
  428SOL    HW213316   3.119   6.403   5.739
  429SOL     OW13317   0.348   0.469   5.865
  429SOL    HW113318   0.271   0.526   5.835
  429SOL    HW213319   0.330   0.435   5.957
  430SOL     OW13320   2.859   7.818   0.891
  430SOL    HW113321   2.901   7.738   0.848
  430SOL    HW213322   2.761   7.803   0.901
  431SOL     OW13323   7.721   6.469   5.961
  431SOL    HW113324   7.719   6.568   5.972
  431SOL    HW213325   7.691   6.445   5.869
  432SOL     OW13326   1.352   5.074   5.795
  432SOL    HW113327   1.318   5.087   5.702
  432SOL    HW213328   1.282   5.100   5.860
  433SOL     OW13329   7.174   2.976   1.161
  433SOL    HW113330   7.216   2.952   1.249
  433SOL    HW213331   7.157   3.074   1.159
  434SOL     OW13332   2.169   6.473   5.508
  434SOL    HW113333   2.187   6.482   5.410
  434SOL    HW213334   2.089   6.526   5.533
  435SOL     OW13335   1.149   3.985   6.250
  435SOL    HW113336   1.209   3.907   6.232
  435SOL    HW213337   1.176   4.028   6.336
  436SOL     OW13338   9.403   2.999   1.102
  436SOL    HW113339   9.382   3.036   1.193
  436SOL    HW213340   9.490   2.950   1.106
  437SOL     OW13341   0.503   1.750   0.780
  437SOL    HW113342   0.595   1.750   0.819
  437SOL    HW213343   0.449   1.823   0.823
  438SOL     OW13344   4.186   6.470   1.088
  438SOL    HW113345   4.275   6.478   1.133
  438SOL    HW213346   4.119   6.433   1.152
  439SOL     OW13347   4.647   4.650   5.538
  439SOL    HW113348   4.702   4.689   5.464
  439SOL    HW213349   4.672   4.554   5.552
  440SOL     OW13350   0.452   7.252   6.366
  440SOL    HW113351   0.436   7.349   6.383
  440SOL    HW213352   0.485   7.239   6.272
  441SOL     OW13353   9.368   2.695   6.072
  441SOL    HW113354   9.332   2.721   6.162
  441SOL    HW213355   9.309   2.624   6.033
  442SOL     OW13356   4.484   6.444   0.212
  442SOL    HW113357   4.568   6.409   0.253
  442SOL    HW213358   4.506   6.525   0.157
  443SOL     OW13359   3.934   1.837   0.513
  443SOL    HW113360   3.909   1.796   0.426
  443SOL    HW213361   3.862   1.900   0.542
  444SOL     OW13362   4.850   7.143   6.643
  444SOL    HW113363   4.762   7.131   6.689
  444SOL    HW213364   4.911   7.067   6.668
  445SOL     OW13365   7.908   0.277   0.879
  445SOL    HW113366   7.859   0.343   0.936
  445SOL    HW213367   7.977   0.229   0.934
  446SOL     OW13368   7.468   5.232   5.325
  446SOL    HW113369   7.425   5.300   5.266
  446SOL    HW213370   7.537   5.181   5.273
  447SOL     OW13371   4.275   6.381   0.476
  447SOL    HW113372   4.206   6.361   0.406
  447SOL    HW213373   4.290   6.300   0.533
  448SOL     OW13374   9.576   5.362   0.385
  448SOL    HW113375   9.520   5.293   0.339
  448SOL    HW213376   9.559   5.358   0.484
  449SOL     OW13377   6.814   3.183   5.665
  449SOL    HW113378   6.871   3.265   5.665
  449SOL    HW213379   6.723   3.207   5.631
  450SOL     OW13380   3.646   4.911   5.601
  450SOL    HW113381   3.655   4.932   5.698
  450SOL    HW213382   3.616   4.817   5.589
  451SOL     OW13383   0.142   4.316   0.158
  451SOL    HW113384   0.169   4.412   0.147
  451SOL    HW213385   0.216   4.266   0.203
  452SOL     OW13386   0.215   1.877   5.716
  452SOL    HW113387   0.170   1.852   5.631
  452SOL    HW213388   0.165   1.837   5.793
  453SOL     OW13389   3.652   3.602   0.745
  453SOL    HW113390   3.647   3.651   0.832
  453SOL    HW213391   3.658   3.667   0.670
  454SOL     OW13392   1.916   7.239   6.488
  454SOL    HW113393   1.893   7.275   6.578
  454SOL    HW213394   1.970   7.307   6.438
  455SOL     OW13395   9.219   2.868   5.853
  455SOL    HW113396   9.193   2.957   5.888
  455SOL    HW213397   9.283   2.825   5.917
  456SOL     OW13398   2.033   1.432   6.611
  456SOL    HW113399   1.944   1.477   6.624
  456SOL    HW213400   2.099   1.473   6.674
  457SOL     OW13401   6.619   2.958   0.593
  457SOL    HW113402   6.553   2.963   0.518
  457SOL    HW213403   6.709   2.990   0.561
  458SOL     OW13404   2.422   5.699   1.250
  458SOL    HW113405   2.419   5.757   1.331
  458SOL    HW213406   2.516   5.694   1.216
  459SOL     OW13407   9.263   2.834   6.321
  459SOL    HW113408   9.205   2.902   6.276
  459SOL    HW213409   9.224   2.810   6.410
  460SOL     OW13410   6.370   7.610   0.189
  460SOL    HW113411   6.373   7.557   0.273
  460SOL    HW213412   6.342   7.551   0.113
  461SOL     OW13413   5.279   5.286   0.408
  461SOL    HW113414   5.204   5.231   0.446
  461SOL    HW213415   5.271   5.288   0.308
  462SOL     OW13416   9.280   5.340   6.203
  462SOL    HW113417   9.324   5.257   6.171
  462SOL    HW213418   9.250   5.328   6.298
  463SOL     OW13419   9.135   3.068   6.333
  463SOL    HW113420   9.170   3.153   6.294
  463SOL    HW213421   9.045   3.085   6.375
  464SOL     OW13422   1.137   0.362   6.476
  464SOL    HW113423   1.171   0.337   6.567
  464SOL    HW213424   1.132   0.462   6.470
  465SOL     OW13425   3.066   6.446   6.413
  465SOL    HW113426   2.993   6.484   6.356
  465SOL    HW213427   3.065   6.490   6.503
  466SOL     OW13428   4.413   0.523   5.422
  466SOL    HW113429   4.363   0.442   5.390
  466SOL    HW213430   4.461   0.565   5.345
  467SOL     OW13431   7.470   3.584   6.786
  467SOL    HW113432   7.427   3.507   6.739
  467SOL    HW213433   7.479   3.562   6.883
  468SOL     OW13434   2.150   8.342   1.074
  468SOL    HW113435   2.104   8.277   1.014
  468SOL    HW213436   2.246   8.316   1.085
  469SOL     OW13437   9.423   4.818   0.666
  469SOL    HW113438   9.473   4.759   0.730
  469SOL    HW213439   9.405   4.767   0.582
  470SOL     OW13440   8.965   4.726   6.791
  470SOL    HW113441   9.041   4.668   6.820
  470SOL    HW213442   8.955   4.803   6.855
  471SOL     OW13443   7.460   7.364   6.176
  471SOL    HW113444   7.395   7.289   6.190
  471SOL    HW213445   7.528   7.363   6.249
  472SOL     OW13446   3.138   7.599   6.273
  472SOL    HW113447   3.061   7.632   6.328
  472SOL    HW213448   3.146   7.654   6.190
  473SOL     OW13449   0.355   6.890   0.567
  473SOL    HW113450   0.415   6.938   0.504
  473SOL    HW213451   0.397   6.803   0.593
  474SOL     OW13452   5.418   5.458   0.547
  474SOL    HW113453   5.363   5.392   0.496
  474SOL    HW213454   5.362   5.537   0.572
  475SOL     OW13455   0.263   7.587   6.797
  475SOL    HW113456   0.299   7.580   6.890
  475SOL    HW213457   0.212   7.504   6.775
  476SOL     OW13458   5.004   7.906   5.565
  476SOL    HW113459   5.024   7.832   5.629
  476SOL    HW213460   5.030   7.878   5.473
  477SOL     OW13461   6.870   3.469   0.188
  477SOL    HW113462   6.944   3.456   0.122
  477SOL    HW213463   6.782   3.461   0.141
  478SOL     OW13464   1.978   4.482   4.742
  478SOL    HW113465   1.958   4.385   4.752
  478SOL    HW213466   1.894   4.532   4.724
  479SOL     OW13467   8.233   2.446   5.830
  479SOL    HW113468   8.233   2.494   5.742
  479SOL    HW213469   8.235   2.347   5.814
  480SOL     OW13470   4.427   5.727   0.235
  480SOL    HW113471   4.426   5.632   0.267
  480SOL    HW213472   4.521   5.759   0.228
  481SOL     OW13473   8.153   2.399   0.378
  481SOL    HW113474   8.079   2.356   0.430
  481SOL    HW213475   8.119   2.483   0.335
  482SOL     OW13476   8.868   7.399   6.455
  482SOL    HW113477   8.780   7.389   6.501
  482SOL    HW213478   8.883   7.322   6.393
  483SOL     OW13479   0.664   4.675   5.497
  483SOL    HW113480   0.735   4.625   5.448
  483SOL    HW213481   0.707   4.733   5.567
  484SOL     OW13482   2.146   4.422   0.959
  484SOL    HW113483   2.205   4.397   1.036
  484SOL    HW213484   2.056   4.447   0.993
  485SOL     OW13485   5.979   7.795   2.176
  485SOL    HW113486   6.050   7.820   2.242
  485SOL    HW213487   5.999   7.705   2.138
  486SOL     OW13488   2.605   1.172   5.882
  486SOL    HW113489   2.565   1.252   5.837
  486SOL    HW213490   2.655   1.203   5.964
  487SOL     OW13491   5.850   1.924   1.663
  487SOL    HW113492   5.846   1.845   1.723
  487SOL    HW213493   5.945   1.940   1.635
  488SOL     OW13494   1.255   5.478   4.671
  488SOL    HW113495   1.180   5.415   4.691
  488SOL    HW213496   1.285   5.466   4.577
  489SOL     OW13497   8.124   6.141   5.668
  489SOL    HW113498   8.027   6.162   5.678
  489SOL    HW213499   8.179   6.211   5.713
  490SOL     OW13500   0.950   6.784   5.769
  490SOL    HW113501   1.018   6.794   5.696
  490SOL    HW213502   0.859   6.775   5.727
  491SOL     OW13503   1.895   3.729   0.432
  491SOL    HW113504   1.814   3.762   0.480
  491SOL    HW213505   1.914   3.635   0.460
  492SOL     OW13506   0.157   7.485   6.547
  492SOL    HW113507   0.121   7.578   6.550
  492SOL    HW213508   0.091   7.424   6.503
  493SOL     OW13509   1.448   7.073   0.883
  493SOL    HW113510   1.380   7.139   0.914
  493SOL    HW213511   1.443   6.990   0.940
  494SOL     OW13512   5.642   1.901   0.142
  494SOL    HW113513   5.620   1.830   0.209
  494SOL    HW213514   5.599   1.880   0.055
  495SOL     OW13515   5.005   5.586   5.073
  495SOL    HW113516   4.965   5.648   5.005
  495SOL    HW213517   5.088   5.546   5.036
  496SOL     OW13518   9.106   4.648   5.163
  496SOL    HW113519   9.043   4.709   5.211
  496SOL    HW213520   9.080   4.553   5.179
  497SOL     OW13521   5.947   5.439   0.411
  497SOL    HW113522   5.862   5.468   0.456
  497SOL    HW213523   6.025   5.488   0.452
  498SOL     OW13524   1.725   1.173   1.013
  498SOL    HW113525   1.746   1.220   1.099
  498SOL    HW213526   1.630   1.144   1.012
  499SOL     OW13527   7.935   0.465   6.568
  499SOL    HW113528   7.862   0.415   6.615
  499SOL    HW213529   7.951   0.424   6.478
  500SOL     OW13530   4.711   7.794   6.209
  500SOL    HW113531   4.803   7.820   6.178
  500SOL    HW213532   4.701   7.694   6.203
  501SOL     OW13533   1.851   1.438   1.714
  501SOL    HW113534   1.946   1.417   1.739
  501SOL    HW213535   1.788   1.388   1.773
  502SOL     OW13536   8.557   2.563   6.580
  502SOL    HW113537   8.596   2.536   6.668
  502SOL    HW213538   8.495   2.491   6.547
  503SOL     OW13539   8.466   7.214   0.726
  503SOL    HW113540   8.485   7.137   0.787
  503SOL    HW213541   8.548   7.271   0.718
  504SOL     OW13542   1.299   4.242   1.267
  504SOL    HW113543   1.380   4.250   1.326
  504SOL    HW213544   1.222   4.290   1.310
  505SOL     OW13545   6.694   7.105   1.007
  505SOL    HW113546   6.685   7.178   1.075
  505SOL    HW213547   6.734   7.024   1.050
  506SOL     OW13548   2.042   7.538   6.768
  506SOL    HW113549   2.132   7.560   6.729
  506SOL    HW213550   2.028   7.590   6.851
  507SOL     OW13551   1.323   4.136   0.161
  507SOL    HW113552   1.311   4.043   0.125
  507SOL    HW213553   1.395   4.135   0.231
  508SOL     OW13554   4.542   3.578   1.362
  508SOL    HW113555   4.531   3.544   1.456
  508SOL    HW213556   4.472   3.537   1.303
  509SOL     OW13557   3.691   1.971   0.173
  509SOL    HW113558   3.763   1.980   0.103
  509SOL    HW213559   3.603   1.959   0.128
  510SOL     OW13560   1.059   6.577   5.245
  510SOL    HW113561   1.008   6.622   5.318
  510SOL    HW213562   1.114   6.503   5.284
  511SOL     OW13563   2.255   1.786   6.515
  511SOL    HW113564   2.270   1.742   6.426
  511SOL    HW213565   2.339   1.782   6.569
  512SOL     OW13566   6.058   3.581   0.735
  512SOL    HW113567   5.970   3.596   0.691
  512SOL    HW213568   6.059   3.627   0.824
  513SOL     OW13569   2.910   4.169   6.182
  513SOL    HW113570   2.950   4.259   6.164
  513SOL    HW213571   2.839   4.149   6.114
  514SOL     OW13572   8.800   2.586   0.904
  514SOL    HW113573   8.872   2.563   0.969
  514SOL    HW213574   8.771   2.681   0.917
  515SOL     OW13575   8.633   0.505   5.758
  515SOL    HW113576   8.656   0.603   5.758
  515SOL    HW213577   8.692   0.457   5.823
  516SOL     OW13578   3.000   6.954   0.883
  516SOL    HW113579   3.058   6.919   0.957
  516SOL    HW213580   2.904   6.950   0.912
  517SOL     OW13581   4.545   3.978   0.163
  517SOL    HW113582   4.598   3.915   0.106
  517SOL    HW213583   4.516   4.056   0.107
  518SOL     OW13584   3.332   7.944   0.230
  518SOL    HW113585   3.419   7.963   0.277
  518SOL    HW213586   3.324   8.006   0.152
  519SOL     OW13587   1.044   0.968   6.490
  519SOL    HW113588   1.069   0.959   6.586
  519SOL    HW213589   0.995   1.054   6.476
  520SOL     OW13590   1.628   1.716   0.349
  520SOL    HW113591   1.614   1.737   0.446
  520SOL    HW213592   1.725   1.706   0.331
  521SOL     OW13593   0.593   2.337   1.418
  521SOL    HW113594   0.570   2.414   1.358
  521SOL    HW213595   0.662   2.367   1.484
  522SOL     OW13596   5.678   7.584   1.018
  522SOL    HW113597   5.743   7.652   0.984
  522SOL    HW213598   5.637   7.617   1.103
  523SOL     OW13599   3.653   5.445   5.715
  523SOL    HW113600   3.648   5.452   5.814
  523SOL    HW213601   3.564   5.415   5.680
  524SOL     OW13602   4.182   3.308   6.505
  524SOL    HW113603   4.093   3.269   6.530
  524SOL    HW213604   4.244   3.234   6.479
  525SOL     OW13605   2.555   0.013   5.498
  525SOL    HW113606   2.652   0.024   5.518
  525SOL    HW213607   2.520   0.095   5.453
  526SOL     OW13608   5.652   3.203   0.615
  526SOL    HW113609   5.705   3.177   0.696
  526SOL    HW213610   5.627   3.120   0.564
  527SOL     OW13611   7.256   1.878   6.152
  527SOL    HW113612   7.289   1.868   6.058
  527SOL    HW213613   7.300   1.809   6.209
  528SOL     OW13614   2.702   1.456   6.160
  528SOL    HW113615   2.757   1.373   6.160
  528SOL    HW213616   2.642   1.456   6.079
  529SOL     OW13617   4.692   7.348   0.195
  529SOL    HW113618   4.783   7.356   0.235
  529SOL    HW213619   4.660   7.439   0.168
  530SOL     OW13620   7.867   4.198   0.667
  530SOL    HW113621   7.887   4.279   0.722
  530SOL    HW213622   7.953   4.158   0.634
  531SOL     OW13623   0.189   3.198   5.784
  531SOL    HW113624   0.233   3.190   5.873
  531SOL    HW213625   0.259   3.207   5.713
  532SOL     OW13626   2.930   7.918   1.612
  532SOL    HW113627   2.970   8.000   1.653
  532SOL    HW213628   3.001   7.849   1.599
  533SOL     OW13629   1.039   5.382   1.475
  533SOL    HW113630   0.992   5.469   1.492
  533SOL    HW213631   1.131   5.386   1.512
  534SOL     OW13632   1.587   4.184   6.684
  534SOL    HW113633   1.620   4.091   6.696
  534SOL    HW213634   1.543   4.216   6.768
  535SOL     OW13635   1.143   2.042   0.884
  535SOL    HW113636   1.079   1.965   0.884
  535SOL    HW213637   1.226   2.016   0.835
  536SOL     OW13638   3.662   6.091   6.341
  536SOL    HW113639   3.743   6.112   6.395
  536SOL    HW213640   3.667   6.139   6.253
  537SOL     OW13641   1.129   7.711   6.043
  537SOL    HW113642   1.173   7.795   6.013
  537SOL    HW213643   1.128   7.707   6.143
  538SOL     OW13644   7.319   7.103   1.219
  538SOL    HW113645   7.316   7.098   1.319
  538SOL    HW213646   7.336   7.198   1.191
  539SOL     OW13647   3.476   2.726   6.492
  539SOL    HW113648   3.565   2.726   6.446
  539SOL    HW213649   3.486   2.689   6.585
  540SOL     OW13650   2.792   6.997   1.637
  540SOL    HW113651   2.836   7.073   1.684
  540SOL    HW213652   2.695   6.994   1.661
  541SOL     OW13653   8.190   7.650   6.485
  541SOL    HW113654   8.177   7.601   6.399
  541SOL    HW213655   8.121   7.722   6.494
  542SOL     OW13656   8.306   6.767   6.068
  542SOL    HW113657   8.345   6.794   5.980
  542SOL    HW213658   8.354   6.815   6.142
  543SOL     OW13659   0.784   6.001   1.048
  543SOL    HW113660   0.833   6.002   0.961
  543SOL    HW213661   0.700   6.054   1.039
  544SOL     OW13662   5.451   1.215   1.034
  544SOL    HW113663   5.531   1.160   1.008
  544SOL    HW213664   5.371   1.156   1.039
  545SOL     OW13665   8.523   7.986   5.537
  545SOL    HW113666   8.510   8.081   5.566
  545SOL    HW213667   8.497   7.977   5.440
  546SOL     OW13668   5.445   0.204   0.739
  546SOL    HW113669   5.482   0.285   0.785
  546SOL    HW213670   5.413   0.138   0.808
  547SOL     OW13671   9.197   7.655   6.315
  547SOL    HW113672   9.228   7.740   6.272
  547SOL    HW213673   9.100   7.662   6.335
  548SOL     OW13674   5.441   0.993   1.730
  548SOL    HW113675   5.481   0.910   1.690
  548SOL    HW213676   5.507   1.035   1.792
  549SOL     OW13677   0.759   2.944   5.437
  549SOL    HW113678   0.675   2.896   5.411
  549SOL    HW213679   0.801   2.983   5.355
  550SOL     OW13680   1.792   1.958   5.150
  550SOL    HW113681   1.767   1.906   5.068
  550SOL    HW213682   1.814   2.052   5.124
  551SOL     OW13683   9.232   1.321   6.191
  551SOL    HW113684   9.157   1.357   6.136
  551SOL    HW213685   9.295   1.395   6.214
  552SOL     OW13686   6.175   0.901   5.714
  552SOL    HW113687   6.249   0.950   5.668
  552SOL    HW213688   6.109   0.870   5.647
  553SOL     OW13689   6.054   3.246   1.126
  553SOL    HW113690   6.013   3.302   1.054
  553SOL    HW213691   6.059   3.300   1.210
  554SOL     OW13692   3.507   4.499   6.225
  554SOL    HW113693   3.602   4.527   6.213
  554SOL    HW213694   3.463   4.494   6.135
  555SOL     OW13695   6.191   2.400   6.363
  555SOL    HW113696   6.265   2.454   6.403
  555SOL    HW213697   6.103   2.435   6.395
  556SOL     OW13698   0.247   7.289   0.381
  556SOL    HW113699   0.243   7.379   0.425
  556SOL    HW213700   0.313   7.292   0.305
  557SOL     OW13701   2.623   1.486   0.868
  557SOL    HW113702   2.664   1.485   0.777
  557SOL    HW213703   2.694   1.468   0.937
  558SOL     OW13704   3.400   6.526   0.887
  558SOL    HW113705   3.394   6.621   0.917
  558SOL    HW213706   3.435   6.469   0.961
  559SOL     OW13707   5.531   0.604   6.505
  559SOL    HW113708   5.489   0.689   6.473
  559SOL    HW213709   5.513   0.531   6.439
  560SOL     OW13710   7.799   1.997   0.453
  560SOL    HW113711   7.720   2.059   0.443
  560SOL    HW213712   7.772   1.917   0.508
  561SOL     OW13713   0.805   4.870   5.643
  561SOL    HW113714   0.896   4.830   5.647
  561SOL    HW213715   0.808   4.954   5.587
  562SOL     OW13716   8.669   3.560   0.711
  562SOL    HW113717   8.588   3.510   0.681
  562SOL    HW213718   8.737   3.559   0.637
  563SOL     OW13719   8.684   6.818   5.876
  563SOL    HW113720   8.605   6.788   5.824
  563SOL    HW213721   8.767   6.808   5.820
  564SOL     OW13722   5.668   5.055   1.036
  564SOL    HW113723   5.764   5.072   1.057
  564SOL    HW213724   5.617   5.141   1.044
  565SOL     OW13725   0.221   5.812   0.862
  565SOL    HW113726   0.320   5.802   0.875
  565SOL    HW213727   0.197   5.909   0.863
  566SOL     OW13728   1.034   8.191   0.691
  566SOL    HW113729   1.102   8.118   0.682
  566SOL    HW213730   1.018   8.210   0.788
  567SOL     OW13731   6.809   7.100   5.473
  567SOL    HW113732   6.866   7.055   5.542
  567SOL    HW213733   6.712   7.080   5.492
  568SOL     OW13734   9.523   0.971   6.366
  568SOL    HW113735   9.528   1.032   6.445
  568SOL    HW213736   9.601   0.909   6.366
  569SOL     OW13737   0.734   0.418   0.907
  569SOL    HW113738   0.736   0.485   0.980
  569SOL    HW213739   0.823   0.371   0.902
  570SOL     OW13740   4.519   7.758   0.691
  570SOL    HW113741   4.572   7.729   0.771
  570SOL    HW213742   4.575   7.748   0.609
  571SOL     OW13743   7.208   0.895   6.095
  571SOL    HW113744   7.218   0.990   6.122
  571SOL    HW213745   7.281   0.871   6.030
  572SOL     OW13746   8.805   5.520   5.563
  572SOL    HW113747   8.844   5.538   5.473
  572SOL    HW213748   8.875   5.536   5.633
  573SOL     OW13749   3.010   1.975   2.513
  573SOL    HW113750   3.044   1.903   2.574
  573SOL    HW213751   3.049   2.063   2.541
  574SOL     OW13752   5.699   5.121   5.299
  574SOL    HW113753   5.676   5.029   5.268
  574SOL    HW213754   5.659   5.137   5.389
  575SOL     OW13755   1.146   3.723   0.125
  575SOL    HW113756   1.182   3.732   0.218
  575SOL    HW213757   1.159   3.809   0.075
  576SOL     OW13758   6.372   7.958   5.457
  576SOL    HW113759   6.465   7.973   5.490
  576SOL    HW213760   6.363   7.993   5.364
  577SOL     OW13761   4.051   8.077   6.392
  577SOL    HW113762   4.042   8.035   6.302
  577SOL    HW213763   4.017   8.014   6.462
  578SOL     OW13764   6.550   6.700   0.703
  578SOL    HW113765   6.513   6.611   0.729
  578SOL    HW213766   6.599   6.692   0.617
  579SOL     OW13767   5.985   6.080   1.431
  579SOL    HW113768   6.030   6.166   1.409
  579SOL    HW213769   5.992   6.063   1.530
  580SOL     OW13770   3.313   6.001   5.378
  580SOL    HW113771   3.334   5.903   5.368
  580SOL    HW213772   3.387   6.055   5.339
  581SOL     OW13773   8.262   1.997   5.972
  581SOL    HW113774   8.229   2.054   5.896
  581SOL    HW213775   8.217   1.908   5.969
  582SOL     OW13776   5.040   5.278   6.108
  582SOL    HW113777   5.080   5.289   6.018
  582SOL    HW213778   5.027   5.181   6.127
  583SOL     OW13779   0.808   8.377   5.889
  583SOL    HW113780   0.719   8.345   5.857
  583SOL    HW213781   0.810   8.378   5.989
  584SOL     OW13782   0.529   8.179   6.336
  584SOL    HW113783   0.609   8.160   6.279
  584SOL    HW213784   0.525   8.111   6.410
  585SOL     OW13785   4.547   7.893   1.012
  585SOL    HW113786   4.473   7.825   1.015
  585SOL    HW213787   4.598   7.882   0.927
  586SOL     OW13788   5.217   5.619   0.894
  586SOL    HW113789   5.289   5.645   0.959
  586SOL    HW213790   5.196   5.697   0.835
  587SOL     OW13791   0.267   1.112   5.705
  587SOL    HW113792   0.225   1.085   5.791
  587SOL    HW213793   0.343   1.051   5.683
  588SOL     OW13794   7.433   2.438   0.988
  588SOL    HW113795   7.506   2.474   1.046
  588SOL    HW213796   7.367   2.511   0.968
  589SOL     OW13797   0.682   0.582   1.185
  589SOL    HW113798   0.734   0.650   1.237
  589SOL    HW213799   0.587   0.582   1.216
  590SOL     OW13800   8.009   5.866   0.683
  590SOL    HW113801   7.954   5.949   0.687
  590SOL    HW213802   8.077   5.868   0.757
  591SOL     OW13803   3.744   6.749   0.441
  591SOL    HW113804   3.776   6.703   0.524
  591SOL    HW213805   3.739   6.847   0.457
  592SOL     OW13806   4.115   2.888   0.821
  592SOL    HW113807   4.134   2.947   0.742
  592SOL    HW213808   4.016   2.873   0.828
  593SOL     OW13809   8.476   6.263   5.733
  593SOL    HW113810   8.495   6.197   5.806
  593SOL    HW213811   8.562   6.297   5.695
  594SOL     OW13812   5.055   7.244   0.824
  594SOL    HW113813   5.106   7.325   0.854
  594SOL    HW213814   4.993   7.215   0.896
  595SOL     OW13815   8.616   2.136   6.235
  595SOL    HW113816   8.570   2.156   6.149
  595SOL    HW213817   8.635   2.038   6.241
  596SOL     OW13818   3.686   0.752   0.817
  596SOL    HW113819   3.613   0.701   0.864
  596SOL    HW213820   3.650   0.792   0.733
  597SOL     OW13821   4.541   3.906   0.796
  597SOL    HW113822   4.491   3.880   0.879
  597SOL    HW213823   4.540   3.829   0.732
  598SOL     OW13824   0.586   1.036   0.333
  598SOL    HW113825   0.663   0.972   0.333
  598SOL    HW213826   0.537   1.030   0.246
  599SOL     OW13827   7.194   5.048   5.643
  599SOL    HW113828   7.239   5.020   5.559
  599SOL    HW213829   7.140   4.972   5.679
  600SOL     OW13830   2.234   7.268   0.510
  600SOL    HW113831   2.286   7.227   0.435
  600SOL    HW213832   2.172   7.199   0.549
  601SOL     OW13833   5.294   6.940   1.846
  601SOL    HW113834   5.351   7.022   1.841
  601SOL    HW213835   5.246   6.938   1.934
  602SOL     OW13836   5.224   8.349   5.573
  602SOL    HW113837   5.211   8.405   5.491
  602SOL    HW213838   5.154   8.373   5.641
  603SOL     OW13839   3.734   6.469   6.469
  603SOL    HW113840   3.810   6.405   6.461
  603SOL    HW213841   3.735   6.512   6.560
  604SOL     OW13842   3.188   6.684   6.056
  604SOL    HW113843   3.258   6.720   6.118
  604SOL    HW213844   3.193   6.585   6.054
  605SOL     OW13845   8.032   0.282   6.370
  605SOL    HW113846   8.118   0.333   6.377
  605SOL    HW213847   7.999   0.286   6.276
  606SOL     OW13848   9.221   3.704   0.270
  606SOL    HW113849   9.225   3.643   0.191
  606SOL    HW213850   9.313   3.739   0.290
  607SOL     OW13851   7.468   6.211   5.527
  607SOL    HW113852   7.374   6.246   5.526
  607SOL    HW213853   7.502   6.204   5.434
  608SOL     OW13854   8.876   6.056   6.154
  608SOL    HW113855   8.912   6.144   6.184
  608SOL    HW213856   8.937   6.017   6.084
  609SOL     OW13857   2.414   7.662   1.556
  609SOL    HW113858   2.407   7.566   1.583
  609SOL    HW213859   2.408   7.720   1.637
  610SOL     OW13860   4.549   7.571   6.832
  610SOL    HW113861   4.453   7.573   6.857
  610SOL    HW213862   4.558   7.569   6.732
  611SOL     OW13863   8.621   5.361   0.809
  611SOL    HW113864   8.655   5.268   0.794
  611SOL    HW213865   8.696   5.426   0.794
  612SOL     OW13866   6.274   0.656   5.817
  612SOL    HW113867   6.267   0.756   5.811
  612SOL    HW213868   6.330   0.622   5.742
  613SOL     OW13869   9.032   6.258   5.061
  613SOL    HW113870   9.018   6.227   4.966
  613SOL    HW213871   8.996   6.189   5.124
  614SOL     OW13872   0.655   7.412   5.590
  614SOL    HW113873   0.649   7.327   5.643
  614SOL    HW213874   0.564   7.437   5.557
  615SOL     OW13875   6.156   5.878   6.460
  615SOL    HW113876   6.058   5.890   6.473
  615SOL    HW213877   6.199   5.966   6.440
  616SOL     OW13878   5.877   2.670   6.286
  616SOL    HW113879   5.867   2.618   6.372
  616SOL    HW213880   5.967   2.651   6.247
  617SOL     OW13881   9.362   5.743   6.281
  617SOL    HW113882   9.364   5.816   6.349
  617SOL    HW213883   9.270   5.706   6.273
  618SOL     OW13884   3.426   2.146   6.582
  618SOL    HW113885   3.383   2.110   6.665
  618SOL    HW213886   3.522   2.167   6.600
  619SOL     OW13887   1.924   3.629   0.920
  619SOL    HW113888   1.908   3.547   0.975
  619SOL    HW213889   1.959   3.602   0.830
  620SOL     OW13890   2.051   4.764   4.954
  620SOL    HW113891   2.141   4.733   4.924
  620SOL    HW213892   1.989   4.768   4.876
  621SOL     OW13893   4.702   4.787   0.242
  621SOL    HW113894   4.704   4.794   0.342
  621SOL    HW213895   4.656   4.702   0.216
  622SOL     OW13896   2.746   3.913   6.659
  622SOL    HW113897   2.715   3.906   6.564
  622SOL    HW213898   2.690   3.980   6.707
  623SOL     OW13899   4.942   5.722   6.649
  623SOL    HW113900   4.928   5.630   6.687
  623SOL    HW213901   4.942   5.789   6.724
  624SOL     OW13902   1.833   0.700   0.194
  624SOL    HW113903   1.763   0.769   0.213
  624SOL    HW213904   1.795   0.630   0.134
  625SOL     OW13905   2.601   3.524   6.816
  625SOL    HW113906   2.512   3.517   6.772
  625SOL    HW213907   2.601   3.472   6.901
  626SOL     OW13908   7.041   4.965   0.818
  626SOL    HW113909   6.956   5.014   0.840
  626SOL    HW213910   7.027   4.867   0.830
  627SOL     OW13911   4.572   1.904   6.697
  627SOL    HW113912   4.479   1.869   6.705
  627SOL    HW213913   4.570   2.000   6.669
  628SOL     OW13914   5.096   4.961   0.220
  628SOL    HW113915   5.174   5.011   0.182
  628SOL    HW213916   5.042   4.922   0.146
  629SOL     OW13917   6.454   6.772   6.459
  629SOL    HW113918   6.362   6.807   6.476
  629SOL    HW213919   6.456   6.674   6.478
  630SOL     OW13920   7.658   7.415   0.259
  630SOL    HW113921   7.698   7.332   0.299
  630SOL    HW213922   7.660   7.408   0.159
  631SOL     OW13923   7.756   2.401   0.356
  631SOL    HW113924   7.792   2.359   0.273
  631SOL    HW213925   7.732   2.496   0.337
  632SOL     OW13926   1.069   6.331   6.748
  632SOL    HW113927   1.049   6.274   6.827
  632SOL    HW213928   1.077   6.427   6.777
  633SOL     OW13929   4.354   4.911   0.303
  633SOL    HW113930   4.313   4.829   0.265
  633SOL    HW213931   4.454   4.899   0.310
  634SOL     OW13932   1.482   0.394   1.370
  634SOL    HW113933   1.535   0.477   1.387
  634SOL    HW213934   1.535   0.332   1.312
  635SOL     OW13935   5.941   4.978   5.964
  635SOL    HW113936   5.872   4.906   5.965
  635SOL    HW213937   6.031   4.938   5.950
  636SOL     OW13938   3.558   4.840   1.134
  636SOL    HW113939   3.551   4.902   1.212
  636SOL    HW213940   3.641   4.862   1.082
  637SOL     OW13941   3.444   3.370   1.115
  637SOL    HW113942   3.490   3.309   1.179
  637SOL    HW213943   3.347   3.375   1.138
  638SOL     OW13944   0.376   5.733   5.992
  638SOL    HW113945   0.351   5.769   5.902
  638SOL    HW213946   0.469   5.697   5.988
  639SOL     OW13947   6.831   1.980   1.184
  639SOL    HW113948   6.890   2.055   1.214
  639SOL    HW213949   6.794   2.001   1.094
  640SOL     OW13950   5.868   6.377   1.089
  640SOL    HW113951   5.849   6.314   1.013
  640SOL    HW213952   5.781   6.407   1.129
  641SOL     OW13953   4.042   7.512   4.984
  641SOL    HW113954   4.136   7.488   5.009
  641SOL    HW213955   4.041   7.602   4.941
  642SOL     OW13956   9.248   3.528   6.779
  642SOL    HW113957   9.287   3.455   6.835
  642SOL    HW213958   9.300   3.537   6.695
  643SOL     OW13959   6.042   0.534   5.771
  643SOL    HW113960   6.003   0.606   5.714
  643SOL    HW213961   6.133   0.561   5.802
  644SOL     OW13962   0.468   0.036   4.793
  644SOL    HW113963   0.376   0.010   4.764
  644SOL    HW213964   0.492   0.124   4.753
  645SOL     OW13965   6.367   0.986   1.024
  645SOL    HW113966   6.327   1.024   1.108
  645SOL    HW213967   6.462   1.015   1.017
  646SOL     OW13968   2.975   1.473   1.385
  646SOL    HW113969   2.910   1.480   1.461
  646SOL    HW213970   3.009   1.379   1.379
  647SOL     OW13971   6.637   5.648   5.492
  647SOL    HW113972   6.545   5.660   5.455
  647SOL    HW213973   6.681   5.737   5.500
  648SOL     OW13974   4.931   5.120   1.130
  648SOL    HW113975   4.914   5.163   1.042
  648SOL    HW213976   5.004   5.052   1.121
  649SOL     OW13977   2.559   1.851   6.655
  649SOL    HW113978   2.567   1.946   6.623
  649SOL    HW213979   2.513   1.849   6.743
  650SOL     OW13980   3.650   2.526   1.527
  650SOL    HW113981   3.595   2.453   1.486
  650SOL    HW213982   3.706   2.489   1.601
  651SOL     OW13983   5.345   6.341   0.290
  651SOL    HW113984   5.255   6.313   0.325
  651SOL    HW213985   5.351   6.441   0.289
  652SOL     OW13986   3.655   1.139   1.233
  652SOL    HW113987   3.695   1.128   1.324
  652SOL    HW213988   3.726   1.160   1.167
  653SOL     OW13989   1.713   6.525   4.681
  653SOL    HW113990   1.785   6.457   4.668
  653SOL    HW213991   1.685   6.563   4.593
  654SOL     OW13992   1.926   4.988   5.419
  654SOL    HW113993   1.920   4.940   5.332
  654SOL    HW213994   1.987   5.066   5.411
  655SOL     OW13995   6.664   7.619   1.810
  655SOL    HW113996   6.738   7.552   1.803
  655SOL    HW213997   6.689   7.690   1.877
  656SOL     OW13998   5.675   0.217   5.973
  656SOL    HW113999   5.588   0.219   5.923
  656SOL    HW214000   5.751   0.217   5.908
  657SOL     OW14001   1.972   6.169   0.990
  657SOL    HW114002   1.885   6.137   0.952
  657SOL    HW214003   2.032   6.198   0.915
  658SOL     OW14004   3.988   6.758   0.298
  658SOL    HW114005   3.905   6.743   0.353
  658SOL    HW214006   4.012   6.673   0.251
  659SOL     OW14007   3.853   5.333   0.558
  659SOL    HW114008   3.919   5.404   0.580
  659SOL    HW214009   3.883   5.284   0.475
  660SOL     OW14010   5.200   2.419   1.336
  660SOL    HW114011   5.151   2.392   1.253
  660SOL    HW214012   5.151   2.493   1.381
  661SOL     OW14013   8.071   4.126   1.016
  661SOL    HW114014   8.126   4.044   0.997
  661SOL    HW214015   8.132   4.200   1.043
  662SOL     OW14016   7.151   7.658   6.172
  662SOL    HW114017   7.219   7.615   6.112
  662SOL    HW214018   7.129   7.749   6.136
  663SOL     OW14019   6.564   4.208   0.591
  663SOL    HW114020   6.654   4.166   0.601
  663SOL    HW214021   6.502   4.143   0.546
  664SOL     OW14022   5.722   6.263   0.503
  664SOL    HW114023   5.815   6.233   0.525
  664SOL    HW214024   5.690   6.216   0.421
  665SOL     OW14025   3.530   7.273   1.786
  665SOL    HW114026   3.598   7.255   1.857
  665SOL    HW214027   3.463   7.339   1.821
  666SOL     OW14028   1.824   1.644   5.724
  666SOL    HW114029   1.731   1.672   5.748
  666SOL    HW214030   1.889   1.682   5.789
  667SOL     OW14031   4.838   5.338   1.473
  667SOL    HW114032   4.912   5.287   1.432
  667SOL    HW214033   4.852   5.345   1.572
  668SOL     OW14034   0.737   5.318   5.888
  668SOL    HW114035   0.647   5.276   5.875
  668SOL    HW214036   0.730   5.391   5.956
  669SOL     OW14037   8.344   7.219   0.969
  669SOL    HW114038   8.373   7.216   0.873
  669SOL    HW214039   8.399   7.287   1.018
  670SOL     OW14040   9.312   1.311   6.522
  670SOL    HW114041   9.216   1.305   6.494
  670SOL    HW214042   9.324   1.264   6.609
  671SOL     OW14043   6.685   8.118   6.165
  671SOL    HW114044   6.612   8.076   6.112
  671SOL    HW214045   6.707   8.208   6.127
  672SOL     OW14046   5.948   5.707   1.012
  672SOL    HW114047   5.892   5.750   0.942
  672SOL    HW214048   6.045   5.723   0.992
  673SOL     OW14049   4.103   0.209   0.225
  673SOL    HW114050   4.092   0.113   0.196
  673SOL    HW214051   4.199   0.227   0.244
  674SOL     OW14052   6.998   7.367   1.165
  674SOL    HW114053   7.058   7.395   1.240
  674SOL    HW214054   6.980   7.269   1.172
  675SOL     OW14055   8.593   6.057   5.921
  675SOL    HW114056   8.548   5.989   5.979
  675SOL    HW214057   8.680   6.020   5.888
  676SOL     OW14058   4.207   2.927   1.545
  676SOL    HW114059   4.180   2.902   1.637
  676SOL    HW214060   4.129   2.966   1.496
  677SOL     OW14061   1.845   0.075   6.145
  677SOL    HW114062   1.893   0.041   6.226
  677SOL    HW214063   1.847   0.175   6.144
  678SOL     OW14064   8.096   1.539   6.542
  678SOL    HW114065   8.049   1.456   6.571
  678SOL    HW214066   8.136   1.525   6.451
  679SOL     OW14067   0.250   5.940   0.555
  679SOL    HW114068   0.281   5.924   0.462
  679SOL    HW214069   0.260   5.857   0.609
  680SOL     OW14070   7.448   2.679   6.374
  680SOL    HW114071   7.393   2.716   6.448
  680SOL    HW214072   7.421   2.584   6.355
  681SOL     OW14073   5.013   7.541   1.070
  681SOL    HW114074   4.959   7.605   1.015
  681SOL    HW214075   4.967   7.453   1.072
  682SOL     OW14076   8.758   1.619   6.314
  682SOL    HW114077   8.743   1.521   6.299
  682SOL    HW214078   8.824   1.653   6.246
  683SOL     OW14079   8.130   4.988   0.291
  683SOL    HW114080   8.180   5.046   0.227
  683SOL    HW214081   8.143   5.022   0.384
  684SOL     OW14082   4.690   6.360   1.064
  684SOL    HW114083   4.616   6.305   1.025
  684SOL    HW214084   4.729   6.418   0.992
  685SOL     OW14085   6.973   6.704   0.443
  685SOL    HW114086   6.912   6.706   0.364
  685SOL    HW214087   7.066   6.681   0.412
  686SOL     OW14088   3.738   6.596   5.862
  686SOL    HW114089   3.788   6.585   5.947
  686SOL    HW214090   3.678   6.517   5.848
  687SOL     OW14091   4.493   3.091   1.761
  687SOL    HW114092   4.554   3.159   1.722
  687SOL    HW214093   4.509   3.002   1.718
  688SOL     OW14094   0.144   3.709   1.039
  688SOL    HW114095   0.227   3.678   1.086
  688SOL    HW214096   0.159   3.801   1.003
  689SOL     OW14097   8.149   3.776   0.672
  689SOL    HW114098   8.170   3.863   0.716
  689SOL    HW214099   8.055   3.778   0.638
  690SOL     OW14100   3.087   2.390   0.190
  690SOL    HW114101   3.080   2.293   0.212
  690SOL    HW214102   2.995   2.428   0.179
  691SOL     OW14103   1.908   3.151   5.396
  691SOL    HW114104   1.930   3.101   5.312
  691SOL    HW214105   1.808   3.156   5.406
  692SOL     OW14106   4.093   2.554   0.270
  692SOL    HW114107   3.999   2.520   0.273
  692SOL    HW214108   4.103   2.616   0.192
  693SOL     OW14109   0.173   4.912   6.054
  693SOL    HW114110   0.189   5.001   6.011
  693SOL    HW214111   0.191   4.919   6.153
  694SOL     OW14112   1.772   7.342   5.721
  694SOL    HW114113   1.694   7.376   5.772
  694SOL    HW214114   1.789   7.401   5.642
  695SOL     OW14115   4.695   5.106   6.289
  695SOL    HW114116   4.666   5.189   6.241
  695SOL    HW214117   4.615   5.052   6.313
  696SOL     OW14118   0.869   1.599   6.455
  696SOL    HW114119   0.841   1.647   6.372
  696SOL    HW214120   0.791   1.548   6.492
  697SOL     OW14121   4.646   3.291   1.650
  697SOL    HW114122   4.581   3.363   1.627
  697SOL    HW214123   4.737   3.318   1.620
  698SOL     OW14124   8.424   5.089   5.989
  698SOL    HW114125   8.516   5.102   6.026
  698SOL    HW214126   8.421   5.123   5.895
  699SOL     OW14127   0.193   0.462   0.495
  699SOL    HW114128   0.213   0.365   0.508
  699SOL    HW214129   0.185   0.482   0.398
  700SOL     OW14130   0.281   1.330   6.550
  700SOL    HW114131   0.272   1.424   6.583
  700SOL    HW214132   0.250   1.325   6.455
  701SOL     OW14133   0.744   1.492   5.169
  701SOL    HW114134   0.661   1.543   5.192
  701SOL    HW214135   0.775   1.519   5.078
  702SOL     OW14136   8.861   7.818   0.803
  702SOL    HW114137   8.765   7.847   0.794
  702SOL    HW214138   8.865   7.734   0.857
  703SOL     OW14139   9.131   8.201   5.415
  703SOL    HW114140   9.035   8.204   5.442
  703SOL    HW214141   9.157   8.288   5.372
  704SOL     OW14142   5.666   5.330   6.821
  704SOL    HW114143   5.624   5.409   6.866
  704SOL    HW214144   5.648   5.248   6.876
  705SOL     OW14145   8.719   2.615   6.006
  705SOL    HW114146   8.720   2.689   5.940
  705SOL    HW214147   8.703   2.652   6.098
  706SOL     OW14148   1.571   0.744   0.505
  706SOL    HW114149   1.529   0.795   0.430
  706SOL    HW214150   1.658   0.704   0.474
  707SOL     OW14151   7.111   0.653   0.309
  707SOL    HW114152   7.017   0.669   0.279
  707SOL    HW214153   7.172   0.719   0.264
  708SOL     OW14154   2.671   6.713   1.178
  708SOL    HW114155   2.599   6.741   1.241
  708SOL    HW214156   2.725   6.640   1.219
  709SOL     OW14157   2.327   3.573   6.700
  709SOL    HW114158   2.329   3.516   6.618
  709SOL    HW214159   2.306   3.668   6.675
  710SOL     OW14160   6.280   4.155   5.419
  710SOL    HW114161   6.301   4.198   5.507
  710SOL    HW214162   6.302   4.058   5.423
  711SOL     OW14163   3.930   5.571   6.283
  711SOL    HW114164   3.875   5.495   6.317
  711SOL    HW214165   3.871   5.639   6.239
  712SOL     OW14166   7.782   6.752   6.102
  712SOL    HW114167   7.708   6.772   6.038
  712SOL    HW214168   7.835   6.836   6.119
  713SOL     OW14169   1.843   4.592   5.661
  713SOL    HW114170   1.941   4.598   5.645
  713SOL    HW214171   1.793   4.630   5.583
  714SOL     OW14172   4.698   1.524   5.089
  714SOL    HW114173   4.693   1.440   5.142
  714SOL    HW214174   4.609   1.569   5.087
  715SOL     OW14175   3.661   0.500   0.539
  715SOL    HW114176   3.579   0.470   0.589
  715SOL    HW214177   3.730   0.428   0.541
  716SOL     OW14178   4.192   3.338   5.310
  716SOL    HW114179   4.167   3.242   5.321
  716SOL    HW214180   4.133   3.381   5.242
  717SOL     OW14181   5.308   2.152   1.377
  717SOL    HW114182   5.282   2.109   1.291
  717SOL    HW214183   5.275   2.247   1.379
  718SOL     OW14184   4.208   2.623   0.644
  718SOL    HW114185   4.214   2.640   0.742
  718SOL    HW214186   4.153   2.695   0.601
  719SOL     OW14187   5.445   8.120   1.969
  719SOL    HW114188   5.544   8.130   1.975
  719SOL    HW214189   5.406   8.114   2.060
  720SOL     OW14190   5.769   2.187   1.273
  720SOL    HW114191   5.681   2.214   1.311
  720SOL    HW214192   5.759   2.167   1.175
  721SOL     OW14193   8.305   4.308   6.119
  721SOL    HW114194   8.335   4.394   6.078
  721SOL    HW214195   8.365   4.285   6.196
  722SOL     OW14196   1.949   0.086   5.510
  722SOL    HW114197   1.914   0.000   5.473
  722SOL    HW214198   1.961   0.152   5.436
  723SOL     OW14199   5.701   5.500   1.070
  723SOL    HW114200   5.647   5.580   1.094
  723SOL    HW214201   5.640   5.424   1.044
  724SOL     OW14202   6.441   1.008   1.356
  724SOL    HW114203   6.497   0.935   1.317
  724SOL    HW214204   6.347   0.978   1.365
  725SOL     OW14205   1.544   6.104   5.533
  725SOL    HW114206   1.510   6.042   5.462
  725SOL    HW214207   1.550   6.054   5.620
  726SOL     OW14208   6.890   3.703   1.080
  726SOL    HW114209   6.826   3.627   1.079
  726SOL    HW214210   6.966   3.684   1.018
  727SOL     OW14211   3.919   5.293   6.532
  727SOL    HW114212   3.848   5.316   6.464
  727SOL    HW214213   4.007   5.287   6.486
  728SOL     OW14214   5.912   1.413   1.494
  728SOL    HW114215   5.845   1.454   1.557
  728SOL    HW214216   5.942   1.325   1.530
  729SOL     OW14217   2.428   0.954   0.408
  729SOL    HW114218   2.427   1.006   0.494
  729SOL    HW214219   2.522   0.944   0.377
  730SOL     OW14220   5.876   0.086   5.599
  730SOL    HW114221   5.866   0.023   5.676
  730SOL    HW214222   5.789   0.135   5.584
  731SOL     OW14223   1.010   0.145   5.146
  731SOL    HW114224   1.086   0.207   5.124
  731SOL    HW214225   0.938   0.196   5.192
  732SOL     OW14226   6.460   3.197   1.626
  732SOL    HW114227   6.392   3.269   1.642
  732SOL    HW214228   6.530   3.231   1.563
  733SOL     OW14229   7.188   0.179   1.131
  733SOL    HW114230   7.265   0.182   1.195
  733SOL    HW214231   7.222   0.186   1.038
  734SOL     OW14232   3.043   4.424   6.288
  734SOL    HW114233   3.068   4.490   6.217
  734SOL    HW214234   3.126   4.390   6.332
  735SOL     OW14235   8.997   2.520   6.352
  735SOL    HW114236   9.092   2.492   6.363
  735SOL    HW214237   8.947   2.452   6.299
  736SOL     OW14238   7.289   4.343   6.834
  736SOL    HW114239   7.322   4.391   6.915
  736SOL    HW214240   7.196   4.310   6.850
  737SOL     OW14241   4.667   6.041   1.031
  737SOL    HW114242   4.592   6.060   0.968
  737SOL    HW214243   4.634   6.051   1.126
  738SOL     OW14244   4.800   6.927   0.174
  738SOL    HW114245   4.712   6.920   0.126
  738SOL    HW214246   4.784   6.934   0.272
  739SOL     OW14247   5.061   7.453   6.685
  739SOL    HW114248   5.094   7.395   6.610
  739SOL    HW214249   4.998   7.521   6.648
  740SOL     OW14250   5.230   2.262   6.380
  740SOL    HW114251   5.260   2.338   6.437
  740SOL    HW214252   5.172   2.296   6.306
  741SOL     OW14253   2.723   4.078   6.022
  741SOL    HW114254   2.663   3.998   6.038
  741SOL    HW214255   2.788   4.057   5.949
  742SOL     OW14256   4.452   7.070   1.972
  742SOL    HW114257   4.530   7.111   2.020
  742SOL    HW214258   4.389   7.031   2.039
  743SOL     OW14259   2.908   7.537   6.442
  743SOL    HW114260   2.906   7.560   6.539
  743SOL    HW214261   2.835   7.585   6.394
  744SOL     OW14262   5.559   4.380   0.547
  744SOL    HW114263   5.647   4.347   0.511
  744SOL    HW214264   5.495   4.303   0.550
  745SOL     OW14265   2.522   6.971   1.663
  745SOL    HW114266   2.450   7.038   1.648
  745SOL    HW214267   2.482   6.886   1.697
  746SOL     OW14268   3.220   3.819   6.361
  746SOL    HW114269   3.150   3.854   6.298
  746SOL    HW214270   3.233   3.721   6.346
  747SOL     OW14271   5.181   8.150   0.169
  747SOL    HW114272   5.233   8.122   0.088
  747SOL    HW214273   5.203   8.245   0.191
  748SOL     OW14274   5.116   5.352   6.526
  748SOL    HW114275   5.206   5.392   6.537
  748SOL    HW214276   5.050   5.398   6.586
  749SOL     OW14277   4.026   8.089   2.141
  749SOL    HW114278   3.960   8.092   2.216
  749SOL    HW214279   4.023   7.999   2.098
  750SOL     OW14280   3.975   0.903   6.177
  750SOL    HW114281   3.935   0.887   6.267
  750SOL    HW214282   4.072   0.925   6.187
  751SOL     OW14283   8.234   6.312   5.855
  751SOL    HW114284   8.321   6.285   5.812
  751SOL    HW214285   8.232   6.280   5.949
  752SOL     OW14286   9.043   7.298   0.401
  752SOL    HW114287   9.135   7.289   0.439
  752SOL    HW214288   8.997   7.209   0.404
  753SOL     OW14289   2.307   6.754   0.944
  753SOL    HW114290   2.316   6.801   1.031
  753SOL    HW214291   2.385   6.693   0.930
  754SOL     OW14292   6.352   7.319   6.837
  754SOL    HW114293   6.312   7.284   6.752
  754SOL    HW214294   6.346   7.249   6.908
  755SOL     OW14295   1.715   2.401   0.881
  755SOL    HW114296   1.747   2.496   0.871
  755SOL    HW214297   1.793   2.341   0.898
  756SOL     OW14298   2.838   5.851   1.081
  756SOL    HW114299   2.840   5.763   1.129
  756SOL    HW214300   2.778   5.914   1.130
  757SOL     OW14301   3.237   5.094   0.246
  757SOL    HW114302   3.164   5.140   0.296
  757SOL    HW214303   3.210   5.001   0.223
  758SOL     OW14304   3.514   1.794   1.009
  758SOL    HW114305   3.444   1.787   0.937
  758SOL    HW214306   3.554   1.885   1.008
  759SOL     OW14307   9.530   6.627   6.565
  759SOL    HW114308   9.472   6.706   6.545
  759SOL    HW214309   9.597   6.614   6.491
  760SOL     OW14310   1.710   4.303   0.209
  760SOL    HW114311   1.786   4.261   0.159
  760SOL    HW214312   1.726   4.401   0.219
  761SOL     OW14313   3.893   4.974   6.442
  761SOL    HW114314   3.794   4.967   6.430
  761SOL    HW214315   3.916   5.066   6.475
  762SOL     OW14316   2.788   3.213   6.421
  762SOL    HW114317   2.866   3.266   6.387
  762SOL    HW214318   2.773   3.233   6.518
  763SOL     OW14319   3.551   7.822   5.702
  763SOL    HW114320   3.561   7.763   5.622
  763SOL    HW214321   3.638   7.865   5.723
  764SOL     OW14322   9.182  -0.042   5.354
  764SOL    HW114323   9.084  -0.021   5.348
  764SOL    HW214324   9.233   0.044   5.361
  765SOL     OW14325   7.141   7.575   5.220
  765SOL    HW114326   7.214   7.545   5.157
  765SOL    HW214327   7.061   7.601   5.167
  766SOL     OW14328   6.374   5.728   0.417
  766SOL    HW114329   6.473   5.733   0.431
  766SOL    HW214330   6.351   5.766   0.327
  767SOL     OW14331   8.570   4.074   5.133
  767SOL    HW114332   8.548   4.171   5.134
  767SOL    HW214333   8.624   4.052   5.052
  768SOL     OW14334   7.285   5.759   0.510
  768SOL    HW114335   7.349   5.698   0.557
  768SOL    HW214336   7.193   5.745   0.548
  769SOL     OW14337   4.463   6.502   2.085
  769SOL    HW114338   4.418   6.585   2.053
  769SOL    HW214339   4.562   6.513   2.077
  770SOL     OW14340   4.179   3.419   6.027
  770SOL    HW114341   4.271   3.405   5.991
  770SOL    HW214342   4.122   3.340   6.005
  771SOL     OW14343   3.766   2.127   5.667
  771SOL    HW114344   3.810   2.041   5.643
  771SOL    HW214345   3.687   2.142   5.608
  772SOL     OW14346   0.496   5.188   0.258
  772SOL    HW114347   0.466   5.145   0.343
  772SOL    HW214348   0.557   5.265   0.279
  773SOL     OW14349   2.144   3.416   5.795
  773SOL    HW114350   2.195   3.500   5.780
  773SOL    HW214351   2.077   3.404   5.722
  774SOL     OW14352   0.537   4.780   5.788
  774SOL    HW114353   0.450   4.752   5.830
  774SOL    HW214354   0.534   4.762   5.690
  775SOL     OW14355   4.430   8.126   6.197
  775SOL    HW114356   4.423   8.029   6.172
  775SOL    HW214357   4.525   8.148   6.217
  776SOL     OW14358   1.558   8.272   6.442
  776SOL    HW114359   1.632   8.219   6.399
  776SOL    HW214360   1.470   8.242   6.405
  777SOL     OW14361   6.571   0.263   0.367
  777SOL    HW114362   6.621   0.331   0.421
  777SOL    HW214363   6.635   0.208   0.314
  778SOL     OW14364   5.676   1.045   6.223
  778SOL    HW114365   5.702   1.057   6.127
  778SOL    HW214366   5.734   0.975   6.265
  779SOL     OW14367   7.953   4.742   6.252
  779SOL    HW114368   7.905   4.728   6.165
  779SOL    HW214369   8.051   4.729   6.238
  780SOL     OW14370   4.155   8.185   0.634
  780SOL    HW114371   4.239   8.139   0.663
  780SOL    HW214372   4.129   8.153   0.543
  781SOL     OW14373   3.833   4.238   1.545
  781SOL    HW114374   3.890   4.185   1.608
  781SOL    HW214375   3.764   4.289   1.597
  782SOL     OW14376   0.352   6.724   1.070
  782SOL    HW114377   0.329   6.647   1.130
  782SOL    HW214378   0.393   6.690   0.985
  783SOL     OW14379   7.880   8.426   5.279
  783SOL    HW114380   7.909   8.431   5.184
  783SOL    HW214381   7.792   8.473   5.289
  784SOL     OW14382   3.814   4.207   1.277
  784SOL    HW114383   3.832   4.220   1.375
  784SOL    HW214384   3.760   4.123   1.264
  785SOL     OW14385   4.357   6.782   5.373
  785SOL    HW114386   4.269   6.739   5.392
  785SOL    HW214387   4.347   6.846   5.297
  786SOL     OW14388   9.082   4.515   5.909
  786SOL    HW114389   9.064   4.431   5.961
  786SOL    HW214390   9.130   4.492   5.825
  787SOL     OW14391   4.286   1.429   0.541
  787SOL    HW114392   4.310   1.513   0.590
  787SOL    HW214393   4.207   1.446   0.483
  788SOL     OW14394   3.802   2.075   1.649
  788SOL    HW114395   3.754   2.160   1.627
  788SOL    HW214396   3.896   2.095   1.674
  789SOL     OW14397   6.389   3.886   6.794
  789SOL    HW114398   6.303   3.927   6.826
  789SOL    HW214399   6.428   3.943   6.722
  790SOL     OW14400   5.537   0.798   1.483
  790SOL    HW114401   5.527   0.853   1.400
  790SOL    HW214402   5.613   0.734   1.472
  791SOL     OW14403   8.481   5.317   6.247
  791SOL    HW114404   8.532   5.381   6.305
  791SOL    HW214405   8.544   5.273   6.183
  792SOL     OW14406   4.753   6.940   6.484
  792SOL    HW114407   4.803   7.013   6.531
  792SOL    HW214408   4.719   6.975   6.396
  793SOL     OW14409   4.526   5.088   5.867
  793SOL    HW114410   4.560   5.026   5.796
  793SOL    HW214411   4.602   5.123   5.921
  794SOL     OW14412   7.889   3.730   5.770
  794SOL    HW114413   7.926   3.639   5.790
  794SOL    HW214414   7.817   3.723   5.701
  795SOL     OW14415   1.579   2.302   5.582
  795SOL    HW114416   1.627   2.352   5.510
  795SOL    HW214417   1.486   2.282   5.552
  796SOL     OW14418   7.675   6.015   6.562
  796SOL    HW114419   7.586   6.024   6.516
  796SOL    HW214420   7.714   6.106   6.575
  797SOL     OW14421   7.180   6.487   5.906
  797SOL    HW114422   7.179   6.581   5.871
  797SOL    HW214423   7.235   6.483   5.989
  798SOL     OW14424   2.173   1.095   0.772
  798SOL    HW114425   2.193   1.113   0.868
  798SOL    HW214426   2.074   1.095   0.758
  799SOL     OW14427   8.465   2.296   6.747
  799SOL    HW114428   8.370   2.273   6.768
  799SOL    HW214429   8.505   2.225   6.688
  800SOL     OW14430   3.581   5.942   1.566
  800SOL    HW114431   3.641   5.966   1.642
  800SOL    HW214432   3.636   5.915   1.487
  801SOL     OW14433   3.515   5.194   1.091
  801SOL    HW114434   3.518   5.170   0.993
  801SOL    HW214435   3.475   5.286   1.101
  802SOL     OW14436   4.631   7.637   4.956
  802SOL    HW114437   4.550   7.620   4.901
  802SOL    HW214438   4.713   7.624   4.900
  803SOL     OW14439   6.376   1.096   5.627
  803SOL    HW114440   6.381   1.171   5.561
  803SOL    HW214441   6.439   1.023   5.600
  804SOL     OW14442   7.309   8.297   0.475
  804SOL    HW114443   7.251   8.217   0.463
  804SOL    HW214444   7.253   8.374   0.507
  805SOL     OW14445   7.654   3.997   0.676
  805SOL    HW114446   7.717   4.064   0.638
  805SOL    HW214447   7.560   4.029   0.664
  806SOL     OW14448   3.714   6.194   6.080
  806SOL    HW114449   3.645   6.134   6.040
  806SOL    HW214450   3.777   6.224   6.008
  807SOL     OW14451   5.862   0.379   6.829
  807SOL    HW114452   5.806   0.430   6.764
  807SOL    HW214453   5.810   0.299   6.861
  808SOL     OW14454   6.826   7.886   6.248
  808SOL    HW114455   6.778   7.973   6.239
  808SOL    HW214456   6.763   7.812   6.224
  809SOL     OW14457   6.885   7.417   1.790
  809SOL    HW114458   6.976   7.456   1.778
  809SOL    HW214459   6.893   7.320   1.812
  810SOL     OW14460   1.215   2.994   6.702
  810SOL    HW114461   1.184   3.034   6.788
  810SOL    HW214462   1.136   2.963   6.649
  811SOL     OW14463   1.187   8.102   0.418
  811SOL    HW114464   1.239   8.170   0.469
  811SOL    HW214465   1.249   8.051   0.358
  812SOL     OW14466   7.218   4.945   1.291
  812SOL    HW114467   7.301   4.973   1.340
  812SOL    HW214468   7.237   4.862   1.239
  813SOL     OW14469   2.199   8.372   6.122
  813SOL    HW114470   2.221   8.275   6.125
  813SOL    HW214471   2.265   8.423   6.176
  814SOL     OW14472   0.870   2.435   6.173
  814SOL    HW114473   0.914   2.456   6.261
  814SOL    HW214474   0.774   2.412   6.189
  815SOL     OW14475   8.033   2.400   5.445
  815SOL    HW114476   8.120   2.399   5.494
  815SOL    HW214477   8.050   2.396   5.347
  816SOL     OW14478   7.083   0.713   6.291
  816SOL    HW114479   6.995   0.755   6.310
  816SOL    HW214480   7.141   0.776   6.240
  817SOL     OW14481   4.502   2.655   6.763
  817SOL    HW114482   4.483   2.596   6.684
  817SOL    HW214483   4.597   2.641   6.793
  818SOL     OW14484   2.383   8.389   5.135
  818SOL    HW114485   2.416   8.469   5.085
  818SOL    HW214486   2.429   8.307   5.100
  819SOL     OW14487   4.924   1.585   0.251
  819SOL    HW114488   5.015   1.627   0.256
  819SOL    HW214489   4.857   1.655   0.228
  820SOL     OW14490   0.153   5.564   1.234
  820SOL    HW114491   0.067   5.606   1.204
  820SOL    HW214492   0.223   5.634   1.242
  821SOL     OW14493   4.287   0.127   6.039
  821SOL    HW114494   4.330   0.188   5.972
  821SOL    HW214495   4.212   0.078   5.996
  822SOL     OW14496   6.716   3.127   6.298
  822SOL    HW114497   6.747   3.117   6.203
  822SOL    HW214498   6.729   3.040   6.346
  823SOL     OW14499   8.855   3.835   0.534
  823SOL    HW114500   8.865   3.736   0.529
  823SOL    HW214501   8.777   3.863   0.478
  824SOL     OW14502   1.925  -0.003   6.761
  824SOL    HW114503   1.891  -0.030   6.852
  824SOL    HW214504   2.025   0.002   6.762
  825SOL     OW14505   4.563   0.793   1.816
  825SOL    HW114506   4.523   0.714   1.769
  825SOL    HW214507   4.607   0.763   1.901
  826SOL     OW14508   3.609   5.387   6.601
  826SOL    HW114509   3.584   5.429   6.514
  826SOL    HW214510   3.689   5.434   6.639
  827SOL     OW14511   0.158   2.030   0.570
  827SOL    HW114512   0.128   2.041   0.665
  827SOL    HW214513   0.225   2.101   0.547
  828SOL     OW14514   3.292   1.899   1.578
  828SOL    HW114515   3.290   1.884   1.677
  828SOL    HW214516   3.299   1.996   1.559
  829SOL     OW14517   7.789   6.526   0.953
  829SOL    HW114518   7.780   6.437   0.997
  829SOL    HW214519   7.707   6.581   0.970
  830SOL     OW14520   0.435   7.624   1.509
  830SOL    HW114521   0.396   7.592   1.596
  830SOL    HW214522   0.535   7.618   1.513
  831SOL     OW14523   6.402   4.646   6.581
  831SOL    HW114524   6.359   4.595   6.506
  831SOL    HW214525   6.497   4.665   6.558
  832SOL     OW14526   8.372   1.330   0.670
  832SOL    HW114527   8.470   1.321   0.652
  832SOL    HW214528   8.336   1.408   0.621
  833SOL     OW14529   1.672   1.716   0.629
  833SOL    HW114530   1.667   1.777   0.709
  833SOL    HW214531   1.621   1.632   0.649
  834SOL     OW14532   8.572   1.515   0.409
  834SOL    HW114533   8.625   1.561   0.481
  834SOL    HW214534   8.534   1.584   0.347
  835SOL     OW14535   9.068   3.087   0.833
  835SOL    HW114536   9.088   2.991   0.854
  835SOL    HW214537   9.098   3.107   0.739
  836SOL     OW14538   1.764   3.548   1.217
  836SOL    HW114539   1.757   3.564   1.315
  836SOL    HW214540   1.818   3.466   1.200
  837SOL     OW14541   5.398   0.702   6.836
  837SOL    HW114542   5.408   0.660   6.926
  837SOL    HW214543   5.445   0.645   6.768
  838SOL     OW14544   0.828   6.723   1.719
  838SOL    HW114545   0.875   6.657   1.777
  838SOL    HW214546   0.882   6.808   1.716
  839SOL     OW14547   0.892   7.429   6.806
  839SOL    HW114548   0.951   7.365   6.759
  839SOL    HW214549   0.876   7.398   6.900
  840SOL     OW14550   6.118   8.237   6.490
  840SOL    HW114551   6.092   8.320   6.539
  840SOL    HW214552   6.143   8.166   6.555
  841SOL     OW14553   3.989   2.090   6.364
  841SOL    HW114554   3.954   2.002   6.334
  841SOL    HW214555   4.018   2.084   6.459
  842SOL     OW14556   1.181   1.441   5.736
  842SOL    HW114557   1.224   1.368   5.788
  842SOL    HW214558   1.083   1.420   5.724
  843SOL     OW14559   1.831   1.794   0.145
  843SOL    HW114560   1.875   1.883   0.150
  843SOL    HW214561   1.733   1.806   0.131
  844SOL     OW14562   4.554   1.355   0.850
  844SOL    HW114563   4.575   1.372   0.946
  844SOL    HW214564   4.523   1.261   0.839
  845SOL     OW14565   5.739   7.030   6.207
  845SOL    HW114566   5.700   7.028   6.115
  845SOL    HW214567   5.832   6.992   6.205
  846SOL     OW14568   8.008   1.104   0.752
  846SOL    HW114569   7.947   1.035   0.791
  846SOL    HW214570   8.004   1.100   0.653
  847SOL     OW14571   3.506   0.506   6.458
  847SOL    HW114572   3.550   0.594   6.473
  847SOL    HW214573   3.426   0.497   6.518
  848SOL     OW14574   0.313   5.651   0.580
  848SOL    HW114575   0.222   5.640   0.620
  848SOL    HW214576   0.316   5.603   0.492
  849SOL     OW14577   5.011   1.551   1.018
  849SOL    HW114578   4.949   1.619   1.056
  849SOL    HW214579   5.028   1.571   0.922
  850SOL     OW14580   3.572   2.233   0.521
  850SOL    HW114581   3.478   2.255   0.546
  850SOL    HW214582   3.635   2.291   0.573
  851SOL     OW14583   5.310   1.210   1.756
  851SOL    HW114584   5.341   1.117   1.740
  851SOL    HW214585   5.257   1.215   1.841
  852SOL     OW14586   1.702   2.413   1.196
  852SOL    HW114587   1.619   2.387   1.245
  852SOL    HW214588   1.687   2.403   1.097
  853SOL     OW14589   5.996   6.416   0.797
  853SOL    HW114590   5.943   6.366   0.866
  853SOL    HW214591   5.939   6.485   0.753
  854SOL     OW14592   7.654   6.367   5.681
  854SOL    HW114593   7.622   6.282   5.639
  854SOL    HW214594   7.581   6.434   5.681
  855SOL     OW14595   1.173   0.308   6.736
  855SOL    HW114596   1.238   0.275   6.804
  855SOL    HW214597   1.081   0.307   6.774
  856SOL     OW14598   3.873   3.509   5.881
  856SOL    HW114599   3.937   3.487   5.954
  856SOL    HW214600   3.861   3.430   5.821
  857SOL     OW14601   0.386   8.428   1.326
  857SOL    HW114602   0.338   8.515   1.323
  857SOL    HW214603   0.358   8.377   1.407
  858SOL     OW14604   9.320   6.561   5.802
  858SOL    HW114605   9.388   6.556   5.730
  858SOL    HW214606   9.359   6.606   5.882
  859SOL     OW14607   5.940   6.298   6.054
  859SOL    HW114608   6.006   6.283   6.127
  859SOL    HW214609   5.913   6.211   6.013
  860SOL     OW14610   0.997   7.734   6.516
  860SOL    HW114611   0.975   7.752   6.612
  860SOL    HW214612   0.966   7.642   6.491
  861SOL     OW14613   2.682   1.797   5.601
  861SOL    HW114614   2.749   1.836   5.538
  861SOL    HW214615   2.611   1.749   5.550
  862SOL     OW14616   4.895   3.529   1.404
  862SOL    HW114617   4.831   3.594   1.444
  862SOL    HW214618   4.948   3.574   1.332
  863SOL     OW14619   6.089   6.458   6.585
  863SOL    HW114620   6.033   6.509   6.651
  863SOL    HW214621   6.181   6.447   6.621
  864SOL     OW14622   2.176   0.911   5.806
  864SOL    HW114623   2.151   0.908   5.903
  864SOL    HW214624   2.275   0.901   5.797
  865SOL     OW14625   1.448   1.120   5.626
  865SOL    HW114626   1.481   1.034   5.586
  865SOL    HW214627   1.359   1.143   5.586
  866SOL     OW14628   4.092   3.892   1.005
  866SOL    HW114629   4.087   3.911   0.907
  866SOL    HW214630   4.086   3.978   1.056
  867SOL     OW14631   7.917   8.390   6.574
  867SOL    HW114632   7.879   8.456   6.639
  867SOL    HW214633   7.923   8.300   6.617
  868SOL     OW14634   1.622   0.640   1.145
  868SOL    HW114635   1.716   0.628   1.112
  868SOL    HW214636   1.561   0.576   1.099
  869SOL     OW14637   7.570   5.504   6.312
  869SOL    HW114638   7.597   5.425   6.367
  869SOL    HW214639   7.597   5.588   6.358
  870SOL     OW14640   6.558   6.067   0.909
  870SOL    HW114641   6.486   6.046   0.975
  870SOL    HW214642   6.647   6.054   0.952
  871SOL     OW14643   5.186   1.822   1.677
  871SOL    HW114644   5.149   1.758   1.744
  871SOL    HW214645   5.208   1.908   1.722
  872SOL     OW14646   1.735   5.265   5.475
  872SOL    HW114647   1.738   5.228   5.382
  872SOL    HW214648   1.644   5.252   5.514
  873SOL     OW14649   2.920   2.275   0.928
  873SOL    HW114650   2.987   2.349   0.924
  873SOL    HW214651   2.828   2.313   0.920
  874SOL     OW14652   7.905   0.337   0.324
  874SOL    HW114653   7.965   0.389   0.384
  874SOL    HW214654   7.951   0.253   0.295
  875SOL     OW14655   9.527   6.913   4.821
  875SOL    HW114656   9.617   6.919   4.778
  875SOL    HW214657   9.460   6.959   4.764
  876SOL     OW14658   2.790   3.106   1.449
  876SOL    HW114659   2.733   3.166   1.504
  876SOL    HW214660   2.812   3.024   1.501
  877SOL     OW14661   4.812   0.615   6.019
  877SOL    HW114662   4.909   0.621   5.995
  877SOL    HW214663   4.794   0.671   6.100
  878SOL     OW14664   9.019   4.510   0.444
  878SOL    HW114665   8.944   4.452   0.473
  878SOL    HW214666   9.006   4.603   0.479
  879SOL     OW14667   4.157   4.052   5.911
  879SOL    HW114668   4.062   4.036   5.884
  879SOL    HW214669   4.213   4.063   5.829
  880SOL     OW14670   2.933   5.653   0.637
  880SOL    HW114671   2.868   5.579   0.617
  880SOL    HW214672   3.023   5.614   0.655
  881SOL     OW14673   5.521   4.443   1.545
  881SOL    HW114674   5.491   4.358   1.587
  881SOL    HW214675   5.443   4.504   1.533
  882SOL     OW14676   0.714   6.082   0.382
  882SOL    HW114677   0.801   6.132   0.388
  882SOL    HW214678   0.718   6.020   0.304
  883SOL     OW14679   5.615   5.976   6.186
  883SOL    HW114680   5.561   5.940   6.263
  883SOL    HW214681   5.598   6.074   6.177
  884SOL     OW14682   1.392   7.532   6.327
  884SOL    HW114683   1.370   7.446   6.373
  884SOL    HW214684   1.307   7.578   6.302
  885SOL     OW14685   8.810   5.823   6.731
  885SOL    HW114686   8.753   5.793   6.655
  885SOL    HW214687   8.799   5.921   6.745
  886SOL     OW14688   9.228   4.964   0.782
  886SOL    HW114689   9.253   5.004   0.870
  886SOL    HW214690   9.309   4.924   0.738
  887SOL     OW14691   4.313   0.652   0.154
  887SOL    HW114692   4.236   0.713   0.134
  887SOL    HW214693   4.316   0.578   0.087
  888SOL     OW14694   6.117   5.444   0.785
  888SOL    HW114695   6.164   5.518   0.834
  888SOL    HW214696   6.021   5.442   0.811
  889SOL     OW14697   1.234   1.905   5.045
  889SOL    HW114698   1.330   1.898   5.017
  889SOL    HW214699   1.209   2.001   5.056
  890SOL     OW14700   2.783   0.193   1.269
  890SOL    HW114701   2.687   0.220   1.274
  890SOL    HW214702   2.820   0.215   1.179
  891SOL     OW14703   8.722   6.370   5.711
  891SOL    HW114704   8.772   6.376   5.625
  891SOL    HW214705   8.786   6.376   5.788
  892SOL     OW14706   0.752   6.411   6.313
  892SOL    HW114707   0.678   6.355   6.274
  892SOL    HW214708   0.713   6.487   6.364
  893SOL     OW14709   3.514   5.004   5.380
  893SOL    HW114710   3.566   4.956   5.451
  893SOL    HW214711   3.425   4.959   5.367
  894SOL     OW14712   8.424  -0.001   6.803
  894SOL    HW114713   8.499   0.008   6.868
  894SOL    HW214714   8.373  -0.085   6.823
  895SOL     OW14715   1.227   0.840   1.184
  895SOL    HW114716   1.182   0.784   1.253
  895SOL    HW214717   1.184   0.824   1.095
  896SOL     OW14718   1.140   2.321   0.875
  896SOL    HW114719   1.199   2.354   0.801
  896SOL    HW214720   1.138   2.221   0.875
  897SOL     OW14721   8.395   4.004   0.865
  897SOL    HW114722   8.459   3.930   0.849
  897SOL    HW214723   8.333   3.979   0.940
  898SOL     OW14724   2.250   8.111   6.231
  898SOL    HW114725   2.215   8.142   6.319
  898SOL    HW214726   2.350   8.114   6.232
  899SOL     OW14727   6.514   8.133   1.139
  899SOL    HW114728   6.537   8.154   1.044
  899SOL    HW214729   6.534   8.036   1.158
  900SOL     OW14730   5.216   8.145   1.552
  900SOL    HW114731   5.204   8.085   1.473
  900SOL    HW214732   5.295   8.114   1.606
  901SOL     OW14733   4.908   1.334   0.362
  901SOL    HW114734   4.900   1.423   0.318
  901SOL    HW214735   4.930   1.265   0.293
  902SOL     OW14736   8.392   5.038   6.607
  902SOL    HW114737   8.457   5.056   6.681
  902SOL    HW214738   8.355   5.125   6.574
  903SOL     OW14739   1.993   2.354   0.947
  903SOL    HW114740   1.984   2.261   0.911
  903SOL    HW214741   2.077   2.395   0.913
  904SOL     OW14742   1.940   1.656   0.884
  904SOL    HW114743   1.848   1.646   0.921
  904SOL    HW214744   2.003   1.597   0.935
  905SOL     OW14745   0.901   7.988   0.874
  905SOL    HW114746   0.862   7.907   0.829
  905SOL    HW214747   0.982   7.961   0.927
  906SOL     OW14748   6.301   4.714   0.623
  906SOL    HW114749   6.361   4.635   0.608
  906SOL    HW214750   6.206   4.688   0.607
  907SOL     OW14751   2.316   5.651   0.175
  907SOL    HW114752   2.276   5.637   0.265
  907SOL    HW214753   2.399   5.707   0.183
  908SOL     OW14754   8.832   0.872   5.878
  908SOL    HW114755   8.890   0.953   5.871
  908SOL    HW214756   8.769   0.869   5.800
  909SOL     OW14757   4.703   4.805   0.502
  909SOL    HW114758   4.738   4.850   0.584
  909SOL    HW214759   4.646   4.727   0.527
  910SOL     OW14760   1.252   6.189   5.202
  910SOL    HW114761   1.213   6.228   5.285
  910SOL    HW214762   1.255   6.260   5.131
  911SOL     OW14763   4.273   5.125   6.149
  911SOL    HW114764   4.255   5.105   6.052
  911SOL    HW214765   4.365   5.161   6.159
  912SOL     OW14766   5.220   7.567   0.553
  912SOL    HW114767   5.211   7.470   0.578
  912SOL    HW214768   5.287   7.575   0.479
  913SOL     OW14769   9.455   4.801   5.908
  913SOL    HW114770   9.442   4.870   5.837
  913SOL    HW214771   9.537   4.821   5.961
  914SOL     OW14772   6.951   0.951   0.403
  914SOL    HW114773   6.907   0.870   0.364
  914SOL    HW214774   7.029   0.977   0.346
  915SOL     OW14775   3.640   0.196   5.865
  915SOL    HW114776   3.676   0.212   5.957
  915SOL    HW214777   3.541   0.212   5.864
  916SOL     OW14778   8.306   7.692   6.074
  916SOL    HW114779   8.342   7.622   6.012
  916SOL    HW214780   8.359   7.691   6.159
  917SOL     OW14781   2.449   3.305   5.837
  917SOL    HW114782   2.516   3.257   5.781
  917SOL    HW214783   2.468   3.403   5.836
  918SOL     OW14784   1.017   6.320   5.903
  918SOL    HW114785   0.946   6.363   5.958
  918SOL    HW214786   1.035   6.376   5.822
  919SOL     OW14787   1.955   5.415   1.024
  919SOL    HW114788   2.009   5.344   1.069
  919SOL    HW214789   1.860   5.385   1.015
  920SOL     OW14790   9.392   6.444   0.620
  920SOL    HW114791   9.316   6.499   0.656
  920SOL    HW214792   9.440   6.399   0.695
  921SOL     OW14793   8.742   4.832   5.210
  921SOL    HW114794   8.666   4.873   5.159
  921SOL    HW214795   8.738   4.732   5.201
  922SOL     OW14796   0.398   5.039   0.453
  922SOL    HW114797   0.350   5.037   0.541
  922SOL    HW214798   0.352   4.979   0.389
  923SOL     OW14799   9.274   7.474   6.091
  923SOL    HW114800   9.351   7.417   6.120
  923SOL    HW214801   9.222   7.504   6.171
  924SOL     OW14802   6.928   7.587   1.018
  924SOL    HW114803   6.930   7.498   1.065
  924SOL    HW214804   6.903   7.573   0.922
  925SOL     OW14805   9.387   6.715   4.624
  925SOL    HW114806   9.389   6.812   4.648
  925SOL    HW214807   9.413   6.704   4.528
  926SOL     OW14808   1.782   2.378   0.573
  926SOL    HW114809   1.880   2.394   0.584
  926SOL    HW214810   1.737   2.385   0.662
  927SOL     OW14811   6.093   1.127   0.927
  927SOL    HW114812   6.169   1.102   0.867
  927SOL    HW214813   6.130   1.167   1.011
  928SOL     OW14814   8.821   1.170   6.404
  928SOL    HW114815   8.767   1.108   6.461
  928SOL    HW214816   8.917   1.166   6.432
  929SOL     OW14817   6.195   4.598   6.394
  929SOL    HW114818   6.258   4.609   6.317
  929SOL    HW214819   6.176   4.687   6.434
  930SOL     OW14820   4.421   7.622   5.225
  930SOL    HW114821   4.338   7.677   5.212
  930SOL    HW214822   4.396   7.526   5.233
  931SOL     OW14823   4.297   4.744   1.760
  931SOL    HW114824   4.217   4.801   1.739
  931SOL    HW214825   4.331   4.767   1.851
  932SOL     OW14826   9.071   6.380   5.725
  932SOL    HW114827   9.145   6.442   5.747
  932SOL    HW214828   9.028   6.347   5.810
  933SOL     OW14829   0.631   7.951   5.614
  933SOL    HW114830   0.593   7.880   5.674
  933SOL    HW214831   0.560   7.981   5.550
  934SOL     OW14832   2.922   3.111   1.222
  934SOL    HW114833   2.887   3.125   1.314
  934SOL    HW214834   2.865   3.044   1.174
  935SOL     OW14835   8.933   4.951   0.731
  935SOL    HW114836   8.927   5.004   0.815
  935SOL    HW214837   9.026   4.916   0.721
  936SOL     OW14838   4.875   0.002   5.943
  936SOL    HW114839   4.871  -0.071   6.011
  936SOL    HW214840   4.892   0.089   5.988
  937SOL     OW14841   1.103   1.894   1.685
  937SOL    HW114842   1.091   1.971   1.748
  937SOL    HW214843   1.014   1.869   1.646
  938SOL     OW14844   5.217   7.297   0.616
  938SOL    HW114845   5.154   7.262   0.684
  938SOL    HW214846   5.279   7.224   0.586
  939SOL     OW14847   4.510   7.378   0.418
  939SOL    HW114848   4.561   7.338   0.342
  939SOL    HW214849   4.545   7.469   0.438
  940SOL     OW14850   8.128   5.683   0.179
  940SOL    HW114851   8.197   5.751   0.204
  940SOL    HW214852   8.047   5.730   0.143
  941SOL     OW14853   7.292   5.021   5.397
  941SOL    HW114854   7.245   4.961   5.332
  941SOL    HW214855   7.340   5.093   5.347
  942SOL     OW14856   6.229   4.231   6.815
  942SOL    HW114857   6.179   4.304   6.769
  942SOL    HW214858   6.243   4.256   6.911
  943SOL     OW14859   5.490  -0.026   1.632
  943SOL    HW114860   5.399  -0.006   1.670
  943SOL    HW214861   5.536   0.060   1.611
  944SOL     OW14862   2.585   3.803   5.690
  944SOL    HW114863   2.668   3.851   5.661
  944SOL    HW214864   2.533   3.774   5.609
  945SOL     OW14865   0.410   0.798   0.992
  945SOL    HW114866   0.430   0.749   1.077
  945SOL    HW214867   0.485   0.785   0.927
  946SOL     OW14868   3.884   0.976   5.389
  946SOL    HW114869   3.823   1.026   5.328
  946SOL    HW214870   3.895   1.027   5.475
  947SOL     OW14871   4.781   1.475   6.726
  947SOL    HW114872   4.735   1.390   6.751
  947SOL    HW214873   4.832   1.509   6.805
  948SOL     OW14874   7.246   1.917   1.083
  948SOL    HW114875   7.223   1.960   1.170
  948SOL    HW214876   7.239   1.984   1.009
  949SOL     OW14877   2.156   0.935   6.062
  949SOL    HW114878   2.221   1.011   6.052
  949SOL    HW214879   2.140   0.917   6.159
  950SOL     OW14880   5.787   1.042   5.668
  950SOL    HW114881   5.707   0.982   5.673
  950SOL    HW214882   5.762   1.127   5.622
  951SOL     OW14883   8.513   1.604   0.718
  951SOL    HW114884   8.497   1.671   0.645
  951SOL    HW214885   8.601   1.560   0.702
  952SOL     OW14886   4.448   2.492   6.559
  952SOL    HW114887   4.358   2.483   6.517
  952SOL    HW214888   4.507   2.548   6.500
  953SOL     OW14889   5.605   0.198   0.469
  953SOL    HW114890   5.545   0.278   0.481
  953SOL    HW214891   5.555   0.115   0.495
  954SOL     OW14892   1.506   7.413   5.744
  954SOL    HW114893   1.451   7.414   5.827
  954SOL    HW214894   1.476   7.488   5.683
  955SOL     OW14895   0.177   2.196   1.130
  955SOL    HW114896   0.222   2.118   1.173
  955SOL    HW214897   0.225   2.221   1.046
  956SOL     OW14898   2.167   5.668   5.389
  956SOL    HW114899   2.137   5.599   5.322
  956SOL    HW214900   2.201   5.748   5.340
  957SOL     OW14901   6.802   1.659   0.788
  957SOL    HW114902   6.813   1.641   0.886
  957SOL    HW214903   6.825   1.576   0.737
  958SOL     OW14904   0.252   8.419   4.626
  958SOL    HW114905   0.296   8.330   4.615
  958SOL    HW214906   0.218   8.450   4.538
  959SOL     OW14907   3.024   2.648   0.708
  959SOL    HW114908   3.102   2.638   0.645
  959SOL    HW214909   2.962   2.718   0.672
  960SOL     OW14910   4.303   1.457   1.228
  960SOL    HW114911   4.371   1.427   1.295
  960SOL    HW214912   4.320   1.411   1.141
  961SOL     OW14913   4.622   7.890   1.639
  961SOL    HW114914   4.648   7.972   1.691
  961SOL    HW214915   4.694   7.868   1.574
  962SOL     OW14916   1.456   6.325   6.060
  962SOL    HW114917   1.379   6.389   6.065
  962SOL    HW214918   1.491   6.308   6.152
  963SOL     OW14919   1.049   0.257   5.484
  963SOL    HW114920   1.061   0.262   5.583
  963SOL    HW214921   0.975   0.318   5.456
  964SOL     OW14922   6.531   5.427   5.761
  964SOL    HW114923   6.628   5.409   5.741
  964SOL    HW214924   6.480   5.431   5.675
  965SOL     OW14925   4.447   7.190   1.711
  965SOL    HW114926   4.383   7.137   1.656
  965SOL    HW214927   4.448   7.155   1.805
  966SOL     OW14928   0.468   4.797   1.134
  966SOL    HW114929   0.543   4.797   1.067
  966SOL    HW214930   0.497   4.845   1.216
  967SOL     OW14931   1.085   7.277   6.675
  967SOL    HW114932   1.090   7.207   6.746
  967SOL    HW214933   1.087   7.233   6.585
  968SOL     OW14934   4.760   7.743   5.751
  968SOL    HW114935   4.841   7.801   5.761
  968SOL    HW214936   4.760   7.703   5.659
  969SOL     OW14937   5.612   6.506   1.162
  969SOL    HW114938   5.630   6.581   1.099
  969SOL    HW214939   5.531   6.528   1.218
  970SOL     OW14940   7.116   6.270   1.653
  970SOL    HW114941   7.172   6.236   1.729
  970SOL    HW214942   7.050   6.200   1.626
  971SOL     OW14943   0.834   7.905   4.932
  971SOL    HW114944   0.887   7.989   4.923
  971SOL    HW214945   0.739   7.929   4.953
  972SOL     OW14946   7.336   1.553   1.080
  972SOL    HW114947   7.284   1.538   1.164
  972SOL    HW214948   7.277   1.597   1.012
  973SOL     OW14949   6.017   2.091   1.295
  973SOL    HW114950   5.920   2.110   1.275
  973SOL    HW214951   6.050   2.158   1.362
  974SOL     OW14952   0.435   3.523   5.583
  974SOL    HW114953   0.359   3.492   5.526
  974SOL    HW214954   0.416   3.615   5.618
  975SOL     OW14955   1.073   5.539   5.501
  975SOL    HW114956   1.069   5.547   5.600
  975SOL    HW214957   1.091   5.444   5.476
  976SOL     OW14958   4.036   6.472   0.854
  976SOL    HW114959   3.957   6.416   0.878
  976SOL    HW214960   4.103   6.469   0.927
  977SOL     OW14961   4.426   6.017   1.563
  977SOL    HW114962   4.463   5.941   1.509
  977SOL    HW214963   4.496   6.051   1.625
  978SOL     OW14964   0.946   4.666   6.457
  978SOL    HW114965   0.860   4.714   6.474
  978SOL    HW214966   1.006   4.723   6.401
  979SOL     OW14967   3.753   1.846   5.560
  979SOL    HW114968   3.677   1.818   5.502
  979SOL    HW214969   3.839   1.809   5.525
  980SOL     OW14970   1.479   3.793   0.376
  980SOL    HW114971   1.523   3.821   0.461
  980SOL    HW214972   1.531   3.719   0.334
  981SOL     OW14973   5.240   0.834   1.128
  981SOL    HW114974   5.258   0.788   1.042
  981SOL    HW214975   5.157   0.795   1.170
  982SOL     OW14976   0.496   1.527   6.284
  982SOL    HW114977   0.527   1.540   6.190
  982SOL    HW214978   0.494   1.429   6.305
  983SOL     OW14979   5.415   3.353   1.098
  983SOL    HW114980   5.395   3.288   1.172
  983SOL    HW214981   5.493   3.409   1.124
  984SOL     OW14982   7.592   3.797   0.871
  984SOL    HW114983   7.680   3.802   0.918
  984SOL    HW214984   7.592   3.861   0.794
  985SOL     OW14985   0.950   0.050   0.838
  985SOL    HW114986   0.979   0.005   0.754
  985SOL    HW214987   0.853   0.033   0.854
  986SOL     OW14988   1.344   8.292   6.828
  986SOL    HW114989   1.279   8.272   6.901
  986SOL    HW214990   1.318   8.242   6.745
  987SOL     OW14991   3.432   4.814   0.548
  987SOL    HW114992   3.459   4.907   0.573
  987SOL    HW214993   3.452   4.752   0.623
  988SOL     OW14994   2.656   5.194   0.177
  988SOL    HW114995   2.664   5.287   0.213
  988SOL    HW214996   2.689   5.192   0.083
  989SOL     OW14997   5.729   4.228   6.631
  989SOL    HW114998   5.762   4.311   6.677
  989SOL    HW214999   5.714   4.248   6.534
  990SOL     OW15000   5.985   5.962   4.864
  990SOL    HW115001   6.047   5.888   4.890
  990SOL    HW215002   6.020   6.008   4.783
  991SOL     OW15003   1.568   7.955   0.685
  991SOL    HW115004   1.533   7.956   0.779
  991SOL    HW215005   1.668   7.956   0.687
  992SOL     OW15006   5.083   8.252   1.124
  992SOL    HW115007   5.059   8.219   1.216
  992SOL    HW215008   5.086   8.175   1.061
  993SOL     OW15009   4.109   7.746   0.876
  993SOL    HW115010   4.096   7.837   0.836
  993SOL    HW215011   4.029   7.690   0.859
  994SOL     OW15012   4.397   2.801   1.143
  994SOL    HW115013   4.434   2.731   1.204
  994SOL    HW215014   4.339   2.758   1.074
  995SOL     OW15015   9.094   6.923   6.512
  995SOL    HW115016   9.011   6.947   6.563
  995SOL    HW215017   9.113   6.995   6.445
  996SOL     OW15018   6.991   8.424   6.370
  996SOL    HW115019   7.077   8.405   6.417
  996SOL    HW215020   6.961   8.517   6.391
  997SOL     OW15021   4.013   4.061   0.441
  997SOL    HW115022   3.924   4.074   0.399
  997SOL    HW215023   4.079   4.126   0.402
  998SOL     OW15024   1.451   5.337   6.677
  998SOL    HW115025   1.502   5.423   6.687
  998SOL    HW215026   1.429   5.300   6.767
  999SOL     OW15027   6.368   2.482   5.723
  999SOL    HW115028   6.407   2.422   5.654
  999SOL    HW215029   6.305   2.429   5.780
 1000SOL     OW15030   1.122   7.551   1.261
 1000SOL    HW115031   1.113   7.603   1.346
 1000SOL    HW215032   1.131   7.453   1.282
 1001SOL     OW15033   2.770   0.145   0.810
 1001SOL    HW115034   2.679   0.154   0.851
 1001SOL    HW215035   2.839   0.155   0.882
 1002SOL     OW15036   5.382   8.150   1.252
 1002SOL    HW115037   5.295   8.104   1.271
 1002SOL    HW215038   5.376   8.196   1.164
 1003SOL     OW15039   5.826   7.946   1.818
 1003SOL    HW115040   5.805   8.013   1.747
 1003SOL    HW215041   5.766   7.960   1.896
 1004SOL     OW15042   6.576   6.255   0.699
 1004SOL    HW115043   6.551   6.186   0.767
 1004SOL    HW215044   6.654   6.308   0.733
 1005SOL     OW15045   0.284   5.227   1.554
 1005SOL    HW115046   0.228   5.306   1.529
 1005SOL    HW215047   0.292   5.223   1.654
 1006SOL     OW15048   5.738   4.280   0.869
 1006SOL    HW115049   5.668   4.276   0.797
 1006SOL    HW215050   5.803   4.205   0.856
 1007SOL     OW15051   2.651   0.076   0.175
 1007SOL    HW115052   2.632   0.158   0.228
 1007SOL    HW215053   2.585   0.004   0.198
 1008SOL     OW15054   6.105   6.389   0.205
 1008SOL    HW115055   6.141   6.375   0.298
 1008SOL    HW215056   6.165   6.344   0.139
 1009SOL     OW15057   4.263   3.586   0.867
 1009SOL    HW115058   4.168   3.615   0.876
 1009SOL    HW215059   4.319   3.634   0.935
 1010SOL     OW15060   0.360   8.139   1.220
 1010SOL    HW115061   0.335   8.090   1.304
 1010SOL    HW215062   0.357   8.238   1.238
 1011SOL     OW15063   8.685   4.977   6.349
 1011SOL    HW115064   8.631   4.893   6.347
 1011SOL    HW215065   8.694   5.009   6.444
 1012SOL     OW15066   6.256   0.031   5.886
 1012SOL    HW115067   6.198  -0.008   5.814
 1012SOL    HW215068   6.308  -0.043   5.930
 1013SOL     OW15069   9.197   2.808   6.593
 1013SOL    HW115070   9.173   2.900   6.625
 1013SOL    HW215071   9.117   2.749   6.599
 1014SOL     OW15072   4.491   4.236   0.852
 1014SOL    HW115073   4.583   4.208   0.824
 1014SOL    HW215074   4.425   4.211   0.781
 1015SOL     OW15075   1.500   0.187   6.325
 1015SOL    HW115076   1.484   0.122   6.251
 1015SOL    HW215077   1.559   0.145   6.394
 1016SOL     OW15078   7.227   3.922   6.457
 1016SOL    HW115079   7.243   3.860   6.534
 1016SOL    HW215080   7.308   3.979   6.444
 1017SOL     OW15081   7.105   0.124   5.715
 1017SOL    HW115082   7.057   0.090   5.633
 1017SOL    HW215083   7.086   0.221   5.726
 1018SOL     OW15084   1.365   7.749   1.186
 1018SOL    HW115085   1.366   7.649   1.176
 1018SOL    HW215086   1.458   7.782   1.200
 1019SOL     OW15087   9.375   1.569   6.208
 1019SOL    HW115088   9.310   1.601   6.139
 1019SOL    HW215089   9.421   1.648   6.250
 1020SOL     OW15090   7.569   2.358   6.014
 1020SOL    HW115091   7.601   2.357   5.919
 1020SOL    HW215092   7.648   2.369   6.076
 1021SOL     OW15093   0.844   4.742   5.001
 1021SOL    HW115094   0.855   4.647   5.030
 1021SOL    HW215095   0.926   4.772   4.951
 1022SOL     OW15096   3.495   7.489   2.237
 1022SOL    HW115097   3.576   7.433   2.258
 1022SOL    HW215098   3.514   7.584   2.260
 1023SOL     OW15099   6.351   0.943   6.396
 1023SOL    HW115100   6.388   1.018   6.341
 1023SOL    HW215101   6.290   0.888   6.340
 1024SOL     OW15102   5.317   3.781   1.294
 1024SOL    HW115103   5.325   3.848   1.368
 1024SOL    HW215104   5.287   3.826   1.210
 1025SOL     OW15105   8.708   3.103   6.549
 1025SOL    HW115106   8.629   3.146   6.506
 1025SOL    HW215107   8.686   3.008   6.572
 1026SOL     OW15108   4.075   7.952   6.123
 1026SOL    HW115109   4.109   7.878   6.181
 1026SOL    HW215110   3.976   7.944   6.111
 1027SOL     OW15111   0.985   5.701   0.335
 1027SOL    HW115112   1.003   5.782   0.391
 1027SOL    HW215113   0.971   5.621   0.395
 1028SOL     OW15114   3.858   0.365   0.439
 1028SOL    HW115115   3.925   0.331   0.505
 1028SOL    HW215116   3.895   0.446   0.392
 1029SOL     OW15117   0.883   8.166   1.304
 1029SOL    HW115118   0.845   8.212   1.224
 1029SOL    HW215119   0.933   8.232   1.360
 1030SOL     OW15120   0.337   3.470   0.829
 1030SOL    HW115121   0.240   3.445   0.829
 1030SOL    HW215122   0.382   3.429   0.908
 1031SOL     OW15123   1.570   6.078   6.697
 1031SOL    HW115124   1.514   6.161   6.696
 1031SOL    HW215125   1.620   6.070   6.611
 1032SOL     OW15126   6.861   6.550   6.697
 1032SOL    HW115127   6.899   6.567   6.606
 1032SOL    HW215128   6.764   6.576   6.699
 1033SOL     OW15129   7.521   6.733   0.909
 1033SOL    HW115130   7.457   6.800   0.946
 1033SOL    HW215131   7.558   6.765   0.822
 1034SOL     OW15132   5.429   0.105   1.232
 1034SOL    HW115133   5.413   0.132   1.326
 1034SOL    HW215134   5.502   0.037   1.228
 1035SOL     OW15135   4.992   7.282   5.804
 1035SOL    HW115136   5.019   7.323   5.717
 1035SOL    HW215137   4.912   7.224   5.790
 1036SOL     OW15138   3.316   2.361   0.846
 1036SOL    HW115139   3.232   2.407   0.875
 1036SOL    HW215140   3.301   2.317   0.757
 1037SOL     OW15141   5.404   8.065   0.719
 1037SOL    HW115142   5.384   7.988   0.779
 1037SOL    HW215143   5.320   8.116   0.701
 1038SOL     OW15144   3.966   5.616   1.310
 1038SOL    HW115145   4.020   5.542   1.350
 1038SOL    HW215146   3.972   5.611   1.210
 1039SOL     OW15147   4.483   0.783   6.630
 1039SOL    HW115148   4.493   0.779   6.729
 1039SOL    HW215149   4.431   0.865   6.605
 1040SOL     OW15150   1.296   5.956   5.094
 1040SOL    HW115151   1.254   5.939   5.005
 1040SOL    HW215152   1.282   6.051   5.121
 1041SOL     OW15153   6.992   1.751   1.677
 1041SOL    HW115154   6.892   1.758   1.673
 1041SOL    HW215155   7.031   1.793   1.596
 1042SOL     OW15156   1.187   5.358   6.535
 1042SOL    HW115157   1.187   5.405   6.447
 1042SOL    HW215158   1.275   5.374   6.581
 1043SOL     OW15159   0.555   3.358   5.797
 1043SOL    HW115160   0.527   3.394   5.708
 1043SOL    HW215161   0.653   3.337   5.794
 1044SOL     OW15162   3.750   1.436   0.813
 1044SOL    HW115163   3.817   1.497   0.770
 1044SOL    HW215164   3.692   1.489   0.875
 1045SOL     OW15165   8.662   7.864   1.417
 1045SOL    HW115166   8.565   7.889   1.412
 1045SOL    HW215167   8.674   7.773   1.376
 1046SOL     OW15168   2.654   7.725   0.255
 1046SOL    HW115169   2.659   7.697   0.159
 1046SOL    HW215170   2.737   7.695   0.303
 1047SOL     OW15171   2.952   6.672   5.948
 1047SOL    HW115172   2.918   6.763   5.927
 1047SOL    HW215173   3.049   6.678   5.973
 1048SOL     OW15174   8.273   2.809   1.377
 1048SOL    HW115175   8.178   2.829   1.398
 1048SOL    HW215176   8.300   2.723   1.421
 1049SOL     OW15177   4.404   8.429   5.255
 1049SOL    HW115178   4.308   8.421   5.281
 1049SOL    HW215179   4.414   8.403   5.159
 1050SOL     OW15180   5.092   4.675   1.634
 1050SOL    HW115181   5.085   4.580   1.665
 1050SOL    HW215182   5.041   4.734   1.696
 1051SOL     OW15183   3.769   4.560   0.855
 1051SOL    HW115184   3.729   4.470   0.872
 1051SOL    HW215185   3.829   4.585   0.931
 1052SOL     OW15186   1.962   1.089   5.966
 1052SOL    HW115187   1.915   1.049   5.887
 1052SOL    HW215188   2.027   1.023   6.003
 1053SOL     OW15189   8.911   7.443   0.590
 1053SOL    HW115190   8.949   7.375   0.527
 1053SOL    HW215191   8.843   7.399   0.649
 1054SOL     OW15192   5.720   1.369   1.135
 1054SOL    HW115193   5.758   1.277   1.133
 1054SOL    HW215194   5.642   1.371   1.197
 1055SOL     OW15195   7.183   6.150   6.017
 1055SOL    HW115196   7.251   6.131   5.946
 1055SOL    HW215197   7.193   6.083   6.091
 1056SOL     OW15198   5.083   7.161   6.054
 1056SOL    HW115199   5.083   7.198   5.961
 1056SOL    HW215200   5.146   7.084   6.059
 1057SOL     OW15201   2.613   0.593   5.536
 1057SOL    HW115202   2.519   0.616   5.558
 1057SOL    HW215203   2.619   0.498   5.506
 1058SOL     OW15204   0.894   7.023   1.146
 1058SOL    HW115205   0.952   7.022   1.228
 1058SOL    HW215206   0.861   7.117   1.131
 1059SOL     OW15207   8.607   0.739   1.100
 1059SOL    HW115208   8.661   0.677   1.157
 1059SOL    HW215209   8.666   0.781   1.031
 1060SOL     OW15210   6.377   1.973   6.525
 1060SOL    HW115211   6.427   2.040   6.470
 1060SOL    HW215212   6.361   2.010   6.617
 1061SOL     OW15213   8.048   3.883   5.529
 1061SOL    HW115214   7.968   3.832   5.561
 1061SOL    HW215215   8.069   3.857   5.435
 1062SOL     OW15216   7.896   3.448   1.486
 1062SOL    HW115217   7.937   3.360   1.508
 1062SOL    HW215218   7.963   3.521   1.503
 1063SOL     OW15219   6.161   3.868   6.405
 1063SOL    HW115220   6.127   3.871   6.499
 1063SOL    HW215221   6.225   3.791   6.395
 1064SOL     OW15222   4.506   2.217   1.304
 1064SOL    HW115223   4.574   2.254   1.368
 1064SOL    HW215224   4.543   2.134   1.262
 1065SOL     OW15225   3.699   5.115   1.969
 1065SOL    HW115226   3.649   5.176   2.030
 1065SOL    HW215227   3.761   5.058   2.023
 1066SOL     OW15228   2.056   4.838   5.212
 1066SOL    HW115229   2.065   4.750   5.259
 1066SOL    HW215230   2.053   4.823   5.113
 1067SOL     OW15231   0.625   5.439   5.587
 1067SOL    HW115232   0.573   5.428   5.502
 1067SOL    HW215233   0.705   5.379   5.585
 1068SOL     OW15234   2.600   4.376   0.646
 1068SOL    HW115235   2.672   4.315   0.679
 1068SOL    HW215236   2.612   4.467   0.685
 1069SOL     OW15237   5.030   0.011   6.215
 1069SOL    HW115238   4.960  -0.048   6.256
 1069SOL    HW215239   4.997   0.105   6.213
 1070SOL     OW15240   6.868   5.453   6.127
 1070SOL    HW115241   6.908   5.426   6.039
 1070SOL    HW215242   6.788   5.510   6.111
 1071SOL     OW15243   4.303   4.293   1.037
 1071SOL    HW115244   4.322   4.364   1.105
 1071SOL    HW215245   4.386   4.275   0.985
 1072SOL     OW15246   6.465   4.483   0.574
 1072SOL    HW115247   6.537   4.546   0.547
 1072SOL    HW215248   6.504   4.393   0.591
 1073SOL     OW15249   0.216   5.451   0.944
 1073SOL    HW115250   0.196   5.472   1.040
 1073SOL    HW215251   0.218   5.535   0.891
 1074SOL     OW15252   8.020   2.736   0.290
 1074SOL    HW115253   8.029   2.731   0.389
 1074SOL    HW215254   7.999   2.830   0.262
 1075SOL     OW15255   8.281   8.010   6.205
 1075SOL    HW115256   8.195   8.010   6.257
 1075SOL    HW215257   8.275   7.942   6.131
 1076SOL     OW15258   0.490   7.968   6.802
 1076SOL    HW115259   0.406   7.939   6.848
 1076SOL    HW215260   0.476   7.968   6.703
 1077SOL     OW15261   3.220   0.740   6.813
 1077SOL    HW115262   3.301   0.762   6.867
 1077SOL    HW215263   3.144   0.799   6.841
 1078SOL     OW15264   6.949  -0.026   5.897
 1078SOL    HW115265   7.027   0.035   5.882
 1078SOL    HW215266   6.981  -0.120   5.905
 1079SOL     OW15267   9.531   5.678   0.343
 1079SOL    HW115268   9.477   5.697   0.425
 1079SOL    HW215269   9.539   5.580   0.330
 1080SOL     OW15270   0.759   1.302   0.721
 1080SOL    HW115271   0.734   1.351   0.804
 1080SOL    HW215272   0.738   1.359   0.641
 1081SOL     OW15273   8.341   4.792   5.688
 1081SOL    HW115274   8.321   4.743   5.603
 1081SOL    HW215275   8.387   4.731   5.752
 1082SOL     OW15276   6.760   0.515   0.160
 1082SOL    HW115277   6.799   0.461   0.235
 1082SOL    HW215278   6.784   0.473   0.073
 1083SOL     OW15279   0.185   6.467   4.949
 1083SOL    HW115280   0.098   6.451   4.902
 1083SOL    HW215281   0.260   6.465   4.882
 1084SOL     OW15282   3.696   6.829   5.694
 1084SOL    HW115283   3.666   6.771   5.770
 1084SOL    HW215284   3.617   6.856   5.640
 1085SOL     OW15285   2.010   4.941   5.675
 1085SOL    HW115286   1.995   4.967   5.580
 1085SOL    HW215287   2.044   4.847   5.679
 1086SOL     OW15288   6.009   1.791   0.986
 1086SOL    HW115289   5.974   1.699   1.003
 1086SOL    HW215290   6.055   1.825   1.068
 1087SOL     OW15291   5.192   3.546   1.222
 1087SOL    HW115292   5.217   3.626   1.277
 1087SOL    HW215293   5.242   3.548   1.135
 1088SOL     OW15294   9.241   4.281   0.573
 1088SOL    HW115295   9.270   4.347   0.504
 1088SOL    HW215296   9.262   4.189   0.542
 1089SOL     OW15297   2.106   4.765   0.302
 1089SOL    HW115298   2.097   4.726   0.211
 1089SOL    HW215299   2.191   4.732   0.344
 1090SOL     OW15300   3.341   2.419   2.718
 1090SOL    HW115301   3.364   2.477   2.640
 1090SOL    HW215302   3.394   2.449   2.798
 1091SOL     OW15303   2.366   3.906   6.570
 1091SOL    HW115304   2.315   3.872   6.649
 1091SOL    HW215305   2.394   4.001   6.586
 1092SOL     OW15306   8.800   3.390   6.322
 1092SOL    HW115307   8.771   3.474   6.277
 1092SOL    HW215308   8.772   3.392   6.418
 1093SOL     OW15309   9.220   6.018   6.196
 1093SOL    HW115310   9.210   5.925   6.160
 1093SOL    HW215311   9.284   6.017   6.273
 1094SOL     OW15312   9.484   7.938   1.052
 1094SOL    HW115313   9.447   7.923   0.961
 1094SOL    HW215314   9.483   8.036   1.073
 1095SOL     OW15315   8.694   6.238   0.942
 1095SOL    HW115316   8.661   6.154   0.899
 1095SOL    HW215317   8.754   6.214   1.019
 1096SOL     OW15318   9.495   2.439   0.839
 1096SOL    HW115319   9.595   2.431   0.839
 1096SOL    HW215320   9.469   2.534   0.823
 1097SOL     OW15321   4.778   4.809   5.373
 1097SOL    HW115322   4.861   4.852   5.409
 1097SOL    HW215323   4.728   4.876   5.319
 1098SOL     OW15324   1.298   7.486   6.009
 1098SOL    HW115325   1.217   7.542   5.992
 1098SOL    HW215326   1.306   7.466   6.106
 1099SOL     OW15327   1.655   8.403   4.993
 1099SOL    HW115328   1.745   8.415   4.953
 1099SOL    HW215329   1.603   8.337   4.938
 1100SOL     OW15330   6.942   0.845   0.689
 1100SOL    HW115331   6.912   0.754   0.662
 1100SOL    HW215332   6.955   0.901   0.607
 1101SOL     OW15333   9.423   5.229   5.869
 1101SOL    HW115334   9.431   5.327   5.888
 1101SOL    HW215335   9.410   5.180   5.955
 1102SOL     OW15336   7.824   3.566   6.514
 1102SOL    HW115337   7.784   3.486   6.559
 1102SOL    HW215338   7.888   3.537   6.444
 1103SOL     OW15339   4.834   5.768   0.352
 1103SOL    HW115340   4.764   5.822   0.305
 1103SOL    HW215341   4.903   5.829   0.391
 1104SOL     OW15342   6.727   1.465   0.274
 1104SOL    HW115343   6.668   1.423   0.344
 1104SOL    HW215344   6.769   1.394   0.218
 1105SOL     OW15345   4.513   7.765   5.864
 1105SOL    HW115346   4.598   7.755   5.813
 1105SOL    HW215347   4.464   7.678   5.863
 1106SOL     OW15348   2.592   5.332   5.987
 1106SOL    HW115349   2.562   5.417   6.031
 1106SOL    HW215350   2.688   5.341   5.961
 1107SOL     OW15351   2.837   3.506   6.661
 1107SOL    HW115352   2.756   3.545   6.706
 1107SOL    HW215353   2.842   3.539   6.567
 1108SOL     OW15354   0.864   5.624   6.335
 1108SOL    HW115355   0.962   5.637   6.323
 1108SOL    HW215356   0.848   5.555   6.406
 1109SOL     OW15357   3.147   1.657   1.889
 1109SOL    HW115358   3.121   1.753   1.880
 1109SOL    HW215359   3.234   1.641   1.842
 1110SOL     OW15360   7.182   1.026   0.257
 1110SOL    HW115361   7.237   1.106   0.281
 1110SOL    HW215362   7.241   0.958   0.212
 1111SOL     OW15363   9.524   5.632   0.624
 1111SOL    HW115364   9.511   5.534   0.640
 1111SOL    HW215365   9.450   5.683   0.666
 1112SOL     OW15366   0.751   6.213   5.145
 1112SOL    HW115367   0.808   6.197   5.225
 1112SOL    HW215368   0.803   6.194   5.062
 1113SOL     OW15369   2.521   4.325   1.332
 1113SOL    HW115370   2.605   4.351   1.283
 1113SOL    HW215371   2.542   4.255   1.400
 1114SOL     OW15372   9.026   5.194   6.805
 1114SOL    HW115373   9.003   5.234   6.716
 1114SOL    HW215374   8.957   5.219   6.872
 1115SOL     OW15375   4.848   6.032   6.272
 1115SOL    HW115376   4.882   6.018   6.179
 1115SOL    HW215377   4.821   5.945   6.312
 1116SOL     OW15378   5.750   7.478   0.236
 1116SOL    HW115379   5.697   7.462   0.152
 1116SOL    HW215380   5.688   7.475   0.315
 1117SOL     OW15381   0.630  -0.055   0.530
 1117SOL    HW115382   0.724  -0.065   0.563
 1117SOL    HW215383   0.575  -0.131   0.563
 1118SOL     OW15384   1.297   2.933   5.898
 1118SOL    HW115385   1.356   2.960   5.822
 1118SOL    HW215386   1.232   3.007   5.917
 1119SOL     OW15387   8.853   7.450   6.172
 1119SOL    HW115388   8.843   7.444   6.272
 1119SOL    HW215389   8.906   7.531   6.149
 1120SOL     OW15390   1.640   6.585   5.672
 1120SOL    HW115391   1.603   6.667   5.628
 1120SOL    HW215392   1.633   6.595   5.771
 1121SOL     OW15393   1.054   7.111   6.472
 1121SOL    HW115394   0.964   7.087   6.508
 1121SOL    HW215395   1.063   7.075   6.379
 1122SOL     OW15396   4.671   5.446   0.582
 1122SOL    HW115397   4.690   5.537   0.620
 1122SOL    HW215398   4.734   5.380   0.623
 1123SOL     OW15399   2.107   5.977   6.200
 1123SOL    HW115400   2.022   5.982   6.148
 1123SOL    HW215401   2.128   6.067   6.239
 1124SOL     OW15402   6.147   1.818   5.964
 1124SOL    HW115403   6.148   1.827   5.864
 1124SOL    HW215404   6.228   1.863   6.001
 1125SOL     OW15405   0.837   0.996   5.878
 1125SOL    HW115406   0.845   1.076   5.818
 1125SOL    HW215407   0.909   1.000   5.947
 1126SOL     OW15408   0.472   0.298   6.664
 1126SOL    HW115409   0.540   0.337   6.602
 1126SOL    HW215410   0.515   0.275   6.751
 1127SOL     OW15411   7.400   7.042   6.561
 1127SOL    HW115412   7.415   6.944   6.578
 1127SOL    HW215413   7.301   7.060   6.559
 1128SOL     OW15414   1.550   7.716   6.443
 1128SOL    HW115415   1.497   7.637   6.412
 1128SOL    HW215416   1.596   7.759   6.365
 1129SOL     OW15417   5.523   8.311   6.704
 1129SOL    HW115418   5.548   8.365   6.785
 1129SOL    HW215419   5.522   8.371   6.624
 1130SOL     OW15420   7.186   7.179   0.728
 1130SOL    HW115421   7.167   7.095   0.678
 1130SOL    HW215422   7.128   7.253   0.693
 1131SOL     OW15423   6.668   4.405   6.003
 1131SOL    HW115424   6.753   4.360   6.031
 1131SOL    HW215425   6.681   4.504   6.001
 1132SOL     OW15426   0.618   6.907   5.852
 1132SOL    HW115427   0.627   6.846   5.773
 1132SOL    HW215428   0.679   6.874   5.925
 1133SOL     OW15429   0.640   7.652   0.382
 1133SOL    HW115430   0.739   7.643   0.370
 1133SOL    HW215431   0.613   7.747   0.367
 1134SOL     OW15432   8.733   7.760   0.422
 1134SOL    HW115433   8.695   7.669   0.442
 1134SOL    HW215434   8.832   7.757   0.428
 1135SOL     OW15435   8.427   6.991   1.784
 1135SOL    HW115436   8.339   7.036   1.766
 1135SOL    HW215437   8.459   7.017   1.875
 1136SOL     OW15438   4.731   6.089   1.476
 1136SOL    HW115439   4.695   6.031   1.402
 1136SOL    HW215440   4.716   6.185   1.452
 1137SOL     OW15441   2.581   0.772   6.256
 1137SOL    HW115442   2.579   0.672   6.257
 1137SOL    HW215443   2.649   0.805   6.321
 1138SOL     OW15444   4.056   0.410   6.797
 1138SOL    HW115445   4.072   0.334   6.860
 1138SOL    HW215446   4.138   0.424   6.741
 1139SOL     OW15447   5.354   6.616   1.002
 1139SOL    HW115448   5.323   6.629   1.096
 1139SOL    HW215449   5.318   6.690   0.945
 1140SOL     OW15450   7.714   8.127   0.580
 1140SOL    HW115451   7.804   8.084   0.567
 1140SOL    HW215452   7.727   8.223   0.607
 1141SOL     OW15453   2.309   4.329   1.161
 1141SOL    HW115454   2.233   4.320   1.225
 1141SOL    HW215455   2.395   4.332   1.211
 1142SOL     OW15456   4.003   7.805   0.540
 1142SOL    HW115457   4.038   7.730   0.595
 1142SOL    HW215458   3.922   7.844   0.584
 1143SOL     OW15459   1.229   2.167   6.169
 1143SOL    HW115460   1.287   2.236   6.126
 1143SOL    HW215461   1.134   2.200   6.172
 1144SOL     OW15462   4.286   3.949   2.049
 1144SOL    HW115463   4.293   3.870   2.109
 1144SOL    HW215464   4.375   3.994   2.043
 1145SOL     OW15465   0.146   0.521   0.219
 1145SOL    HW115466   0.125   0.615   0.190
 1145SOL    HW215467   0.177   0.468   0.141
 1146SOL     OW15468   7.859   5.808   5.231
 1146SOL    HW115469   7.929   5.852   5.175
 1146SOL    HW215470   7.788   5.875   5.253
 1147SOL     OW15471   8.766   7.376   1.391
 1147SOL    HW115472   8.819   7.351   1.472
 1147SOL    HW215473   8.673   7.340   1.401
 1148SOL     OW15474   9.173   6.534   0.725
 1148SOL    HW115475   9.084   6.488   0.724
 1148SOL    HW215476   9.160   6.633   0.735
 1149SOL     OW15477   5.150   7.647   1.285
 1149SOL    HW115478   5.091   7.610   1.214
 1149SOL    HW215479   5.211   7.575   1.319
 1150SOL     OW15480   8.618   6.231   4.883
 1150SOL    HW115481   8.555   6.254   4.808
 1150SOL    HW215482   8.702   6.193   4.845
 1151SOL     OW15483   4.740   4.281   0.159
 1151SOL    HW115484   4.838   4.271   0.145
 1151SOL    HW215485   4.714   4.235   0.244
 1152SOL     OW15486   7.642   4.854   1.341
 1152SOL    HW115487   7.697   4.803   1.407
 1152SOL    HW215488   7.703   4.907   1.281
 1153SOL     OW15489   5.836   5.415   0.815
 1153SOL    HW115490   5.750   5.438   0.860
 1153SOL    HW215491   5.871   5.329   0.853
 1154SOL     OW15492   3.522   3.126   0.668
 1154SOL    HW115493   3.449   3.179   0.625
 1154SOL    HW215494   3.551   3.171   0.752
 1155SOL     OW15495   2.693   5.227   5.701
 1155SOL    HW115496   2.789   5.202   5.689
 1155SOL    HW215497   2.661   5.194   5.790
 1156SOL     OW15498   0.187   6.797   4.080
 1156SOL    HW115499   0.148   6.749   4.001
 1156SOL    HW215500   0.117   6.853   4.124
 1157SOL     OW15501   2.433   8.320   1.141
 1157SOL    HW115502   2.394   8.243   1.191
 1157SOL    HW215503   2.512   8.288   1.087
 1158SOL     OW15504   6.813   1.049   1.322
 1158SOL    HW115505   6.836   0.957   1.353
 1158SOL    HW215506   6.887   1.112   1.344
 1159SOL     OW15507   7.819   3.114   1.238
 1159SOL    HW115508   7.893   3.078   1.183
 1159SOL    HW215509   7.822   3.073   1.330
 1160SOL     OW15510   4.634   1.196   6.286
 1160SOL    HW115511   4.656   1.200   6.383
 1160SOL    HW215512   4.718   1.177   6.234
 1161SOL     OW15513   6.880   6.940   6.336
 1161SOL    HW115514   6.864   6.854   6.287
 1161SOL    HW215515   6.921   7.007   6.273
 1162SOL     OW15516   6.926   2.722   6.598
 1162SOL    HW115517   6.992   2.767   6.658
 1162SOL    HW215518   6.919   2.626   6.623
 1163SOL     OW15519   9.108   6.573   0.382
 1163SOL    HW115520   9.061   6.619   0.307
 1163SOL    HW215521   9.205   6.565   0.362
 1164SOL     OW15522   4.281   6.990   1.573
 1164SOL    HW115523   4.337   6.907   1.570
 1164SOL    HW215524   4.225   6.996   1.490
 1165SOL     OW15525   2.959   0.941   1.075
 1165SOL    HW115526   2.920   0.902   0.992
 1165SOL    HW215527   2.894   1.005   1.116
 1166SOL     OW15528   5.524   4.369   5.958
 1166SOL    HW115529   5.484   4.278   5.946
 1166SOL    HW215530   5.540   4.410   5.869
 1167SOL     OW15531   5.286   7.644   0.815
 1167SOL    HW115532   5.248   7.640   0.722
 1167SOL    HW215533   5.362   7.709   0.816
 1168SOL     OW15534   5.700   6.170   1.454
 1168SOL    HW115535   5.637   6.185   1.379
 1168SOL    HW215536   5.786   6.133   1.418
 1169SOL     OW15537   4.899   0.872   1.344
 1169SOL    HW115538   4.817   0.815   1.352
 1169SOL    HW215539   4.976   0.814   1.316
 1170SOL     OW15540   0.197   8.138   6.831
 1170SOL    HW115541   0.119   8.107   6.885
 1170SOL    HW215542   0.270   8.168   6.892
 1171SOL     OW15543   4.616   0.189   6.110
 1171SOL    HW115544   4.630   0.211   6.013
 1171SOL    HW215545   4.572   0.099   6.117
 1172SOL     OW15546   9.290   4.651   5.591
 1172SOL    HW115547   9.295   4.613   5.498
 1172SOL    HW215548   9.382   4.673   5.622
 1173SOL     OW15549   4.776   1.534   2.054
 1173SOL    HW115550   4.816   1.623   2.075
 1173SOL    HW215551   4.848   1.466   2.046
 1174SOL     OW15552   0.691   7.647   5.708
 1174SOL    HW115553   0.701   7.564   5.654
 1174SOL    HW215554   0.606   7.642   5.761
 1175SOL     OW15555   0.222   0.231   0.808
 1175SOL    HW115556   0.283   0.240   0.887
 1175SOL    HW215557   0.277   0.228   0.725
 1176SOL     OW15558   8.596   0.981   5.376
 1176SOL    HW115559   8.648   0.896   5.385
 1176SOL    HW215560   8.553   0.984   5.286
 1177SOL     OW15561   6.878   4.968   5.771
 1177SOL    HW115562   6.900   4.896   5.705
 1177SOL    HW215563   6.918   5.054   5.741
 1178SOL     OW15564   3.026   0.620   1.743
 1178SOL    HW115565   3.016   0.643   1.840
 1178SOL    HW215566   3.116   0.579   1.728
 1179SOL     OW15567   7.382   2.459   6.837
 1179SOL    HW115568   7.407   2.441   6.932
 1179SOL    HW215569   7.424   2.390   6.778
 1180SOL     OW15570   5.264   5.010   6.014
 1180SOL    HW115571   5.238   5.071   5.940
 1180SOL    HW215572   5.364   5.003   6.019
 1181SOL     OW15573   1.336   3.210   0.437
 1181SOL    HW115574   1.369   3.128   0.389
 1181SOL    HW215575   1.412   3.253   0.486
 1182SOL     OW15576   2.489   1.589   6.609
 1182SOL    HW115577   2.415   1.582   6.542
 1182SOL    HW215578   2.526   1.682   6.610
 1183SOL     OW15579   9.013   5.163   5.507
 1183SOL    HW115580   8.949   5.172   5.430
 1183SOL    HW215581   8.962   5.172   5.593
 1184SOL     OW15582   9.237   6.863   5.427
 1184SOL    HW115583   9.329   6.851   5.390
 1184SOL    HW215584   9.219   6.792   5.496
 1185SOL     OW15585   1.865   6.249   0.518
 1185SOL    HW115586   1.936   6.287   0.578
 1185SOL    HW215587   1.908   6.202   0.442
 1186SOL     OW15588   5.710   0.429   4.985
 1186SOL    HW115589   5.772   0.479   4.924
 1186SOL    HW215590   5.644   0.378   4.930
 1187SOL     OW15591   8.757   7.640   1.078
 1187SOL    HW115592   8.735   7.632   1.175
 1187SOL    HW215593   8.674   7.660   1.026
 1188SOL     OW15594   9.303   8.302   5.625
 1188SOL    HW115595   9.272   8.228   5.564
 1188SOL    HW215596   9.231   8.321   5.693
 1189SOL     OW15597   8.456   2.332   6.377
 1189SOL    HW115598   8.495   2.250   6.335
 1189SOL    HW215599   8.377   2.307   6.433
 1190SOL     OW15600   9.289   0.526   6.168
 1190SOL    HW115601   9.337   0.508   6.083
 1190SOL    HW215602   9.354   0.561   6.236
 1191SOL     OW15603   0.731   1.303   1.355
 1191SOL    HW115604   0.668   1.253   1.413
 1191SOL    HW215605   0.680   1.358   1.289
 1192SOL     OW15606   6.186   5.777   0.913
 1192SOL    HW115607   6.273   5.731   0.929
 1192SOL    HW215608   6.204   5.868   0.875
 1193SOL     OW15609   6.356   0.076   0.373
 1193SOL    HW115610   6.279   0.113   0.425
 1193SOL    HW215611   6.438   0.130   0.392
 1194SOL     OW15612   7.687   0.860   6.191
 1194SOL    HW115613   7.703   0.905   6.102
 1194SOL    HW215614   7.600   0.811   6.188
 1195SOL     OW15615   0.124   1.596   0.983
 1195SOL    HW115616   0.216   1.606   1.023
 1195SOL    HW215617   0.120   1.645   0.896
 1196SOL     OW15618   3.954   2.620   1.019
 1196SOL    HW115619   3.927   2.546   1.081
 1196SOL    HW215620   3.889   2.626   0.943
 1197SOL     OW15621   7.953   3.541   0.503
 1197SOL    HW115622   7.881   3.579   0.445
 1197SOL    HW215623   8.024   3.610   0.517
 1198SOL     OW15624   4.818   5.772   6.419
 1198SOL    HW115625   4.885   5.766   6.493
 1198SOL    HW215626   4.733   5.730   6.449
 1199SOL     OW15627   4.164   8.231   1.432
 1199SOL    HW115628   4.195   8.253   1.524
 1199SOL    HW215629   4.093   8.295   1.404
 1200SOL     OW15630   8.550   1.761   5.813
 1200SOL    HW115631   8.560   1.697   5.736
 1200SOL    HW215632   8.459   1.803   5.810
 1201SOL     OW15633   8.405   0.406   5.647
 1201SOL    HW115634   8.478   0.456   5.693
 1201SOL    HW215635   8.413   0.419   5.548
 1202SOL     OW15636   8.178   4.543   5.887
 1202SOL    HW115637   8.193   4.466   5.826
 1202SOL    HW215638   8.253   4.550   5.952
 1203SOL     OW15639   1.928   5.507   5.730
 1203SOL    HW115640   1.895   5.416   5.755
 1203SOL    HW215641   1.919   5.521   5.632
 1204SOL     OW15642   7.492   6.077   1.014
 1204SOL    HW115643   7.480   6.164   1.062
 1204SOL    HW215644   7.403   6.034   1.001
 1205SOL     OW15645   4.472   2.094   1.841
 1205SOL    HW115646   4.516   2.022   1.895
 1205SOL    HW215647   4.541   2.145   1.791
 1206SOL     OW15648   3.710   1.969   2.355
 1206SOL    HW115649   3.671   1.885   2.316
 1206SOL    HW215650   3.748   1.949   2.446
 1207SOL     OW15651   1.406   0.184   5.503
 1207SOL    HW115652   1.361   0.095   5.496
 1207SOL    HW215653   1.345   0.247   5.551
 1208SOL     OW15654   3.399   7.570   1.165
 1208SOL    HW115655   3.491   7.532   1.160
 1208SOL    HW215656   3.349   7.548   1.082
 1209SOL     OW15657   2.092   7.561   0.604
 1209SOL    HW115658   2.123   7.472   0.570
 1209SOL    HW215659   2.101   7.629   0.532
 1210SOL     OW15660   4.881   1.292   1.119
 1210SOL    HW115661   4.957   1.352   1.097
 1210SOL    HW215662   4.885   1.266   1.216
 1211SOL     OW15663   7.882   0.698   6.336
 1211SOL    HW115664   7.808   0.744   6.287
 1211SOL    HW215665   7.910   0.616   6.285
 1212SOL     OW15666   1.875   4.965   1.316
 1212SOL    HW115667   1.857   5.006   1.227
 1212SOL    HW215668   1.863   4.866   1.310
 1213SOL     OW15669   6.075   2.240   1.525
 1213SOL    HW115670   6.138   2.301   1.573
 1213SOL    HW215671   5.986   2.284   1.515
 1214SOL     OW15672   9.231   0.556   0.251
 1214SOL    HW115673   9.280   0.631   0.295
 1214SOL    HW215674   9.295   0.484   0.225
 1215SOL     OW15675   0.709   5.889   6.024
 1215SOL    HW115676   0.655   5.971   6.044
 1215SOL    HW215677   0.649   5.810   6.014
 1216SOL     OW15678   2.546   1.769   0.216
 1216SOL    HW115679   2.623   1.831   0.229
 1216SOL    HW215680   2.577   1.674   0.224
 1217SOL     OW15681   4.503   3.271   6.117
 1217SOL    HW115682   4.511   3.315   6.028
 1217SOL    HW215683   4.438   3.322   6.174
 1218SOL     OW15684   5.983   6.202   6.568
 1218SOL    HW115685   6.033   6.288   6.567
 1218SOL    HW215686   5.961   6.174   6.475
 1219SOL     OW15687   6.303   7.412   1.084
 1219SOL    HW115688   6.211   7.372   1.082
 1219SOL    HW215689   6.343   7.407   0.993
 1220SOL     OW15690   1.306   5.801   0.599
 1220SOL    HW115691   1.319   5.886   0.548
 1220SOL    HW215692   1.253   5.820   0.682
 1221SOL     OW15693   8.417   4.507   5.990
 1221SOL    HW115694   8.462   4.579   6.044
 1221SOL    HW215695   8.487   4.455   5.941
 1222SOL     OW15696   1.628   3.540   6.091
 1222SOL    HW115697   1.585   3.588   6.014
 1222SOL    HW215698   1.726   3.556   6.089
 1223SOL     OW15699   2.583   0.234   1.733
 1223SOL    HW115700   2.636   0.156   1.700
 1223SOL    HW215701   2.519   0.204   1.804
 1224SOL     OW15702   4.166   7.283   6.584
 1224SOL    HW115703   4.109   7.348   6.535
 1224SOL    HW215704   4.193   7.208   6.523
 1225SOL     OW15705   1.400   6.272   6.692
 1225SOL    HW115706   1.331   6.329   6.647
 1225SOL    HW215707   1.396   6.286   6.791
 1226SOL     OW15708   7.088   6.006   5.503
 1226SOL    HW115709   7.152   6.006   5.425
 1226SOL    HW215710   7.007   5.952   5.480
 1227SOL     OW15711   7.476   7.784   6.176
 1227SOL    HW115712   7.518   7.873   6.157
 1227SOL    HW215713   7.434   7.748   6.093
 1228SOL     OW15714   4.662   1.210   5.701
 1228SOL    HW115715   4.642   1.289   5.644
 1228SOL    HW215716   4.580   1.154   5.712
 1229SOL     OW15717   2.317   0.312   2.136
 1229SOL    HW115718   2.249   0.326   2.208
 1229SOL    HW215719   2.320   0.393   2.077
 1230SOL     OW15720   9.346   7.914   0.488
 1230SOL    HW115721   9.404   7.951   0.561
 1230SOL    HW215722   9.377   7.823   0.464
 1231SOL     OW15723   8.408   6.419   1.752
 1231SOL    HW115724   8.325   6.372   1.784
 1231SOL    HW215725   8.473   6.424   1.827
 1232SOL     OW15726   5.994   3.473   6.383
 1232SOL    HW115727   6.085   3.434   6.376
 1232SOL    HW215728   5.938   3.440   6.307
 1233SOL     OW15729   3.010   3.922   6.225
 1233SOL    HW115730   3.089   3.928   6.164
 1233SOL    HW215731   2.964   4.011   6.229
 1234SOL     OW15732   6.400   4.342   1.464
 1234SOL    HW115733   6.316   4.298   1.494
 1234SOL    HW215734   6.458   4.360   1.544
 1235SOL     OW15735   5.465   0.010   6.516
 1235SOL    HW115736   5.481   0.102   6.551
 1235SOL    HW215737   5.417   0.014   6.429
 1236SOL     OW15738   8.563   5.674   6.549
 1236SOL    HW115739   8.541   5.742   6.479
 1236SOL    HW215740   8.530   5.706   6.638
 1237SOL     OW15741   5.845   0.130   1.464
 1237SOL    HW115742   5.878   0.038   1.484
 1237SOL    HW215743   5.912   0.178   1.408
 1238SOL     OW15744   0.389   7.276   0.165
 1238SOL    HW115745   0.436   7.187   0.161
 1238SOL    HW215746   0.375   7.310   0.072
 1239SOL     OW15747   9.363   7.651   0.442
 1239SOL    HW115748   9.418   7.583   0.490
 1239SOL    HW215749   9.320   7.609   0.362
 1240SOL     OW15750   3.953   6.533   6.004
 1240SOL    HW115751   3.931   6.572   6.094
 1240SOL    HW215752   4.046   6.558   5.979
 1241SOL     OW15753   2.578   7.243   5.879
 1241SOL    HW115754   2.506   7.261   5.946
 1241SOL    HW215755   2.588   7.322   5.818
 1242SOL     OW15756   8.183   3.928   6.475
 1242SOL    HW115757   8.235   3.891   6.552
 1242SOL    HW215758   8.088   3.895   6.481
 1243SOL     OW15759   0.850   8.158   5.106
 1243SOL    HW115760   0.805   8.242   5.075
 1243SOL    HW215761   0.782   8.098   5.148
 1244SOL     OW15762   3.432   1.533   6.045
 1244SOL    HW115763   3.489   1.460   6.006
 1244SOL    HW215764   3.412   1.601   5.974
 1245SOL     OW15765   7.923   7.658   0.313
 1245SOL    HW115766   8.018   7.678   0.335
 1245SOL    HW215767   7.888   7.589   0.376
 1246SOL     OW15768   4.751   1.487   0.716
 1246SOL    HW115769   4.681   1.444   0.774
 1246SOL    HW215770   4.832   1.429   0.712
 1247SOL     OW15771   1.986   2.961   0.959
 1247SOL    HW115772   2.015   2.949   1.054
 1247SOL    HW215773   1.913   2.897   0.938
 1248SOL     OW15774   0.301   0.263   1.095
 1248SOL    HW115775   0.260   0.342   1.140
 1248SOL    HW215776   0.251   0.181   1.120
 1249SOL     OW15777   7.307   6.691   6.262
 1249SOL    HW115778   7.239   6.752   6.221
 1249SOL    HW215779   7.289   6.597   6.233
 1250SOL     OW15780   7.656   0.136   1.193
 1250SOL    HW115781   7.661   0.199   1.270
 1250SOL    HW215782   7.740   0.082   1.189
 1251SOL     OW15783   7.284   3.700   1.237
 1251SOL    HW115784   7.187   3.680   1.238
 1251SOL    HW215785   7.311   3.743   1.323
 1252SOL     OW15786   1.128   3.048   6.128
 1252SOL    HW115787   1.059   2.989   6.170
 1252SOL    HW215788   1.144   3.128   6.187
 1253SOL     OW15789   8.697   3.031   5.541
 1253SOL    HW115790   8.628   3.007   5.610
 1253SOL    HW215791   8.674   2.988   5.454
 1254SOL     OW15792   4.189   8.364   1.056
 1254SOL    HW115793   4.120   8.333   1.120
 1254SOL    HW215794   4.145   8.403   0.975
 1255SOL     OW15795   5.252   0.677   0.883
 1255SOL    HW115796   5.190   0.671   0.805
 1255SOL    HW215797   5.342   0.643   0.857
 1256SOL     OW15798   5.029   6.939   6.777
 1256SOL    HW115799   5.095   6.974   6.844
 1256SOL    HW215800   4.938   6.933   6.820
 1257SOL     OW15801   2.869   6.147   6.019
 1257SOL    HW115802   2.790   6.086   6.029
 1257SOL    HW215803   2.841   6.240   6.042
 1258SOL     OW15804   6.439   4.966   6.758
 1258SOL    HW115805   6.355   4.920   6.729
 1258SOL    HW215806   6.451   5.051   6.706
 1259SOL     OW15807   9.307   5.616   6.741
 1259SOL    HW115808   9.218   5.660   6.753
 1259SOL    HW215809   9.380   5.682   6.758
 1260SOL     OW15810   5.133   7.851   6.603
 1260SOL    HW115811   5.189   7.769   6.588
 1260SOL    HW215812   5.188   7.932   6.584
 1261SOL     OW15813   8.015   3.801   0.191
 1261SOL    HW115814   7.955   3.866   0.145
 1261SOL    HW215815   8.064   3.848   0.264
 1262SOL     OW15816   5.196   2.994   0.505
 1262SOL    HW115817   5.114   2.959   0.461
 1262SOL    HW215818   5.269   3.005   0.437
 1263SOL     OW15819   9.260   3.226   1.668
 1263SOL    HW115820   9.322   3.174   1.728
 1263SOL    HW215821   9.217   3.165   1.602
 1264SOL     OW15822   4.960   0.964   6.374
 1264SOL    HW115823   4.976   0.889   6.437
 1264SOL    HW215824   5.034   0.968   6.307
 1265SOL     OW15825   5.858   0.034   2.186
 1265SOL    HW115826   5.908   0.100   2.241
 1265SOL    HW215827   5.863  -0.056   2.229
 1266SOL     OW15828   8.067   4.079   0.532
 1266SOL    HW115829   8.103   4.170   0.515
 1266SOL    HW215830   8.122   4.011   0.484
 1267SOL     OW15831   1.808   8.177   0.920
 1267SOL    HW115832   1.761   8.241   0.859
 1267SOL    HW215833   1.885   8.223   0.963
 1268SOL     OW15834   3.029   5.180   6.378
 1268SOL    HW115835   2.960   5.250   6.364
 1268SOL    HW215836   3.031   5.154   6.475
 1269SOL     OW15837   9.172   1.497   1.378
 1269SOL    HW115838   9.108   1.507   1.301
 1269SOL    HW215839   9.126   1.520   1.463
 1270SOL     OW15840   6.703   2.759   5.829
 1270SOL    HW115841   6.762   2.690   5.872
 1270SOL    HW215842   6.756   2.842   5.814
 1271SOL     OW15843   4.768   6.854   1.997
 1271SOL    HW115844   4.755   6.758   2.020
 1271SOL    HW215845   4.749   6.911   2.077
 1272SOL     OW15846   1.515   3.591   6.705
 1272SOL    HW115847   1.472   3.552   6.786
 1272SOL    HW215848   1.535   3.519   6.639
 1273SOL     OW15849   8.059   1.105   6.838
 1273SOL    HW115850   8.150   1.063   6.828
 1273SOL    HW215851   8.038   1.117   6.935
 1274SOL     OW15852   9.235   1.924   6.117
 1274SOL    HW115853   9.289   1.937   6.200
 1274SOL    HW215854   9.141   1.956   6.133
 1275SOL     OW15855   4.221   6.428   6.339
 1275SOL    HW115856   4.205   6.523   6.363
 1275SOL    HW215857   4.157   6.400   6.267
 1276SOL     OW15858   5.035   4.891   5.542
 1276SOL    HW115859   5.070   4.797   5.539
 1276SOL    HW215860   5.061   4.940   5.459
 1277SOL     OW15861   5.398   7.423   5.852
 1277SOL    HW115862   5.403   7.393   5.757
 1277SOL    HW215863   5.426   7.348   5.912
 1278SOL     OW15864   3.889   1.513   0.175
 1278SOL    HW115865   3.979   1.532   0.136
 1278SOL    HW215866   3.880   1.414   0.190
 1279SOL     OW15867   7.397   6.535   1.630
 1279SOL    HW115868   7.394   6.551   1.729
 1279SOL    HW215869   7.416   6.621   1.583
 1280SOL     OW15870   6.089   3.864   6.668
 1280SOL    HW115871   5.998   3.845   6.630
 1280SOL    HW215872   6.119   3.786   6.722
 1281SOL     OW15873   1.297   6.022   6.594
 1281SOL    HW115874   1.338   6.108   6.624
 1281SOL    HW215875   1.199   6.024   6.612
 1282SOL     OW15876   7.303   5.391   6.322
 1282SOL    HW115877   7.381   5.447   6.294
 1282SOL    HW215878   7.219   5.446   6.317
 1283SOL     OW15879   3.626   3.293   1.611
 1283SOL    HW115880   3.627   3.367   1.677
 1283SOL    HW215881   3.634   3.205   1.659
 1284SOL     OW15882   5.505   0.389   1.336
 1284SOL    HW115883   5.412   0.352   1.344
 1284SOL    HW215884   5.502   0.473   1.281
 1285SOL     OW15885   6.112   5.339   5.417
 1285SOL    HW115886   6.131   5.284   5.499
 1285SOL    HW215887   6.070   5.281   5.348
 1286SOL     OW15888   3.858   3.815   0.745
 1286SOL    HW115889   3.899   3.792   0.656
 1286SOL    HW215890   3.785   3.881   0.731
 1287SOL     OW15891   4.091   7.575   0.306
 1287SOL    HW115892   4.108   7.512   0.382
 1287SOL    HW215893   4.153   7.653   0.314
 1288SOL     OW15894   0.574   1.925   6.007
 1288SOL    HW115895   0.596   2.022   6.019
 1288SOL    HW215896   0.541   1.910   5.913
 1289SOL     OW15897   9.460   2.042   5.927
 1289SOL    HW115898   9.392   1.977   5.961
 1289SOL    HW215899   9.450   2.053   5.828
 1290SOL     OW15900   2.389   6.565   0.525
 1290SOL    HW115901   2.331   6.628   0.473
 1290SOL    HW215902   2.434   6.615   0.599
 1291SOL     OW15903   5.954   6.174   6.821
 1291SOL    HW115904   5.964   6.178   6.722
 1291SOL    HW215905   5.933   6.265   6.856
 1292SOL     OW15906   2.270   4.223   0.306
 1292SOL    HW115907   2.358   4.212   0.260
 1292SOL    HW215908   2.269   4.164   0.387
 1293SOL     OW15909   9.376   1.567   6.552
 1293SOL    HW115910   9.413   1.576   6.644
 1293SOL    HW215911   9.343   1.473   6.538
 1294SOL     OW15912   3.364   4.758   0.162
 1294SOL    HW115913   3.317   4.738   0.248
 1294SOL    HW215914   3.437   4.824   0.179
 1295SOL     OW15915   3.027   5.455   0.870
 1295SOL    HW115916   3.093   5.504   0.925
 1295SOL    HW215917   2.939   5.453   0.918
 1296SOL     OW15918   8.626   1.854   6.262
 1296SOL    HW115919   8.659   1.776   6.315
 1296SOL    HW215920   8.606   1.825   6.168
 1297SOL     OW15921   6.731   2.384   0.448
 1297SOL    HW115922   6.708   2.454   0.515
 1297SOL    HW215923   6.723   2.293   0.490
 1298SOL     OW15924   1.681   3.931   6.782
 1298SOL    HW115925   1.730   3.846   6.762
 1298SOL    HW215926   1.617   3.916   6.857
 1299SOL     OW15927   5.485   0.748   0.771
 1299SOL    HW115928   5.413   0.803   0.728
 1299SOL    HW215929   5.526   0.799   0.846
 1300SOL     OW15930   4.710   6.230   6.778
 1300SOL    HW115931   4.762   6.259   6.858
 1300SOL    HW215932   4.746   6.275   6.697
 1301SOL     OW15933   2.235   1.619   1.274
 1301SOL    HW115934   2.220   1.642   1.370
 1301SOL    HW215935   2.257   1.702   1.223
 1302SOL     OW15936   8.218   5.628   6.403
 1302SOL    HW115937   8.241   5.613   6.307
 1302SOL    HW215938   8.134   5.682   6.410
 1303SOL     OW15939   1.155   5.425   5.808
 1303SOL    HW115940   1.056   5.435   5.796
 1303SOL    HW215941   1.194   5.514   5.833
 1304SOL     OW15942   6.616   4.683   0.488
 1304SOL    HW115943   6.595   4.775   0.523
 1304SOL    HW215944   6.663   4.690   0.400
 1305SOL     OW15945   0.232   2.771   0.393
 1305SOL    HW115946   0.266   2.734   0.306
 1305SOL    HW215947   0.260   2.712   0.468
 1306SOL     OW15948   3.792   1.161   0.958
 1306SOL    HW115949   3.764   1.240   0.904
 1306SOL    HW215950   3.840   1.095   0.899
 1307SOL     OW15951   6.366   6.116   5.847
 1307SOL    HW115952   6.445   6.165   5.883
 1307SOL    HW215953   6.309   6.084   5.922
 1308SOL     OW15954   3.748   2.564   2.118
 1308SOL    HW115955   3.676   2.608   2.171
 1308SOL    HW215956   3.833   2.563   2.171
 1309SOL     OW15957   5.706   6.284   5.259
 1309SOL    HW115958   5.682   6.194   5.296
 1309SOL    HW215959   5.755   6.271   5.172
 1310SOL     OW15960   4.145   1.155   0.391
 1310SOL    HW115961   4.067   1.123   0.337
 1310SOL    HW215962   4.147   1.105   0.478
 1311SOL     OW15963   8.783   1.553   6.587
 1311SOL    HW115964   8.767   1.579   6.492
 1311SOL    HW215965   8.714   1.487   6.616
 1312SOL     OW15966   0.572   7.856   5.963
 1312SOL    HW115967   0.651   7.917   5.956
 1312SOL    HW215968   0.499   7.902   6.015
 1313SOL     OW15969   1.853   3.303   0.700
 1313SOL    HW115970   1.911   3.221   0.706
 1313SOL    HW215971   1.860   3.342   0.608
 1314SOL     OW15972   4.458   0.674   5.834
 1314SOL    HW115973   4.362   0.659   5.812
 1314SOL    HW215974   4.466   0.707   5.929
 1315SOL     OW15975   9.439   2.554   0.286
 1315SOL    HW115976   9.357   2.550   0.343
 1315SOL    HW215977   9.436   2.479   0.219
 1316SOL     OW15978   1.699   3.914   6.305
 1316SOL    HW115979   1.745   3.933   6.218
 1316SOL    HW215980   1.739   3.832   6.347
 1317SOL     OW15981   6.075   0.355   0.450
 1317SOL    HW115982   6.062   0.371   0.352
 1317SOL    HW215983   6.135   0.425   0.488
 1318SOL     OW15984   2.335   5.066   1.603
 1318SOL    HW115985   2.262   4.999   1.617
 1318SOL    HW215986   2.408   5.050   1.669
 1319SOL     OW15987   3.189   6.503   5.246
 1319SOL    HW115988   3.143   6.492   5.158
 1319SOL    HW215989   3.270   6.560   5.235
 1320SOL     OW15990   0.181   0.873   0.797
 1320SOL    HW115991   0.258   0.874   0.860
 1320SOL    HW215992   0.098   0.845   0.846
 1321SOL     OW15993   0.608   7.737   5.067
 1321SOL    HW115994   0.600   7.822   5.016
 1321SOL    HW215995   0.544   7.669   5.030
 1322SOL     OW15996   4.442   5.195   0.347
 1322SOL    HW115997   4.379   5.256   0.300
 1322SOL    HW215998   4.392   5.116   0.383
 1323SOL     OW15999   1.905   5.289   5.208
 1323SOL    HW116000   1.960   5.266   5.288
 1323SOL    HW216001   1.825   5.229   5.203
 1324SOL     OW16002   2.697   6.724   6.637
 1324SOL    HW116003   2.708   6.820   6.661
 1324SOL    HW216004   2.744   6.667   6.704
 1325SOL     OW16005   9.554   8.315   1.347
 1325SOL    HW116006   9.593   8.401   1.313
 1325SOL    HW216007   9.514   8.331   1.437
 1326SOL     OW16008   6.795   5.384   5.738
 1326SOL    HW116009   6.798   5.298   5.687
 1326SOL    HW216010   6.886   5.405   5.773
 1327SOL     OW16011   4.770   5.295   5.537
 1327SOL    HW116012   4.730   5.205   5.556
 1327SOL    HW216013   4.709   5.347   5.477
 1328SOL     OW16014   1.203   5.678   6.116
 1328SOL    HW116015   1.242   5.647   6.029
 1328SOL    HW216016   1.123   5.735   6.098
 1329SOL     OW16017   8.955   5.635   1.108
 1329SOL    HW116018   9.042   5.678   1.133
 1329SOL    HW216019   8.879   5.690   1.143
 1330SOL     OW16020   9.384   1.230   0.222
 1330SOL    HW116021   9.301   1.264   0.265
 1330SOL    HW216022   9.360   1.168   0.148
 1331SOL     OW16023   6.940   3.598   6.031
 1331SOL    HW116024   6.972   3.641   5.946
 1331SOL    HW216025   6.916   3.503   6.012
 1332SOL     OW16026   0.857   3.691   0.436
 1332SOL    HW116027   0.934   3.627   0.437
 1332SOL    HW216028   0.877   3.766   0.374
 1333SOL     OW16029   4.003   1.642   2.411
 1333SOL    HW116030   3.919   1.669   2.459
 1333SOL    HW216031   4.013   1.542   2.415
 1334SOL     OW16032   8.714   4.304   1.740
 1334SOL    HW116033   8.717   4.382   1.677
 1334SOL    HW216034   8.806   4.279   1.766
 1335SOL     OW16035   1.932   0.005   1.762
 1335SOL    HW116036   1.964  -0.089   1.753
 1335SOL    HW216037   2.010   0.066   1.777
 1336SOL     OW16038   2.487   1.690   6.308
 1336SOL    HW116039   2.397   1.669   6.270
 1336SOL    HW216040   2.543   1.734   6.237
 1337SOL     OW16041   1.218   1.006   0.791
 1337SOL    HW116042   1.291   1.067   0.822
 1337SOL    HW216043   1.235   0.978   0.696
 1338SOL     OW16044   5.346   4.021   6.546
 1338SOL    HW116045   5.386   4.048   6.633
 1338SOL    HW216046   5.315   4.102   6.496
 1339SOL     OW16047   4.211   1.170   5.526
 1339SOL    HW116048   4.299   1.125   5.545
 1339SOL    HW216049   4.211   1.261   5.566
 1340SOL     OW16050   1.989   0.355   6.036
 1340SOL    HW116051   1.901   0.350   5.989
 1340SOL    HW216052   2.063   0.351   5.970
 1341SOL     OW16053   8.018   7.048   6.413
 1341SOL    HW116054   8.073   6.965   6.399
 1341SOL    HW216055   8.057   7.101   6.488
 1342SOL     OW16056   8.831   2.904   0.176
 1342SOL    HW116057   8.747   2.942   0.136
 1342SOL    HW216058   8.910   2.936   0.123
 1343SOL     OW16059   0.333   3.448   6.213
 1343SOL    HW116060   0.319   3.502   6.296
 1343SOL    HW216061   0.398   3.494   6.153
 1344SOL     OW16062   6.099   0.403   4.894
 1344SOL    HW116063   6.122   0.495   4.926
 1344SOL    HW216064   6.004   0.401   4.864
 1345SOL     OW16065   7.603   3.354   1.090
 1345SOL    HW116066   7.675   3.394   1.148
 1345SOL    HW216067   7.604   3.254   1.100
 1346SOL     OW16068   3.750   6.710   0.973
 1346SOL    HW116069   3.667   6.688   1.023
 1346SOL    HW216070   3.828   6.665   1.016
 1347SOL     OW16071   7.889   8.049   5.917
 1347SOL    HW116072   7.919   8.000   5.999
 1347SOL    HW216073   7.942   8.133   5.906
 1348SOL     OW16074   3.258   5.156   2.079
 1348SOL    HW116075   3.340   5.106   2.052
 1348SOL    HW216076   3.276   5.254   2.079
 1349SOL     OW16077   2.502   0.516   0.884
 1349SOL    HW116078   2.409   0.483   0.868
 1349SOL    HW216079   2.502   0.616   0.886
 1350SOL     OW16080   3.524   7.657   0.668
 1350SOL    HW116081   3.553   7.742   0.710
 1350SOL    HW216082   3.571   7.580   0.711
 1351SOL     OW16083   5.459   3.091   0.930
 1351SOL    HW116084   5.446   3.176   0.981
 1351SOL    HW216085   5.551   3.055   0.948
 1352SOL     OW16086   7.678   7.314   5.709
 1352SOL    HW116087   7.740   7.331   5.785
 1352SOL    HW216088   7.713   7.238   5.654
 1353SOL     OW16089   1.605   5.566   6.642
 1353SOL    HW116090   1.681   5.536   6.584
 1353SOL    HW216091   1.622   5.660   6.672
 1354SOL     OW16092   2.887   3.944   0.613
 1354SOL    HW116093   2.883   3.927   0.515
 1354SOL    HW216094   2.983   3.942   0.643
 1355SOL     OW16095   6.872   3.886   1.300
 1355SOL    HW116096   6.823   3.973   1.294
 1355SOL    HW216097   6.859   3.835   1.215
 1356SOL     OW16098   6.005   1.494   0.317
 1356SOL    HW116099   5.980   1.413   0.264
 1356SOL    HW216100   5.951   1.572   0.285
 1357SOL     OW16101   8.467   3.677   1.117
 1357SOL    HW116102   8.515   3.740   1.056
 1357SOL    HW216103   8.382   3.647   1.073
 1358SOL     OW16104   0.582   6.591   5.091
 1358SOL    HW116105   0.623   6.556   5.175
 1358SOL    HW216106   0.588   6.521   5.019
 1359SOL     OW16107   8.602   7.811   0.737
 1359SOL    HW116108   8.626   7.782   0.644
 1359SOL    HW216109   8.526   7.875   0.732
 1360SOL     OW16110   0.984   5.170   0.269
 1360SOL    HW116111   1.066   5.221   0.242
 1360SOL    HW216112   0.907   5.198   0.213
 1361SOL     OW16113   4.500   7.379   6.491
 1361SOL    HW116114   4.429   7.345   6.429
 1361SOL    HW216115   4.486   7.477   6.507
 1362SOL     OW16116   7.578   2.721   1.563
 1362SOL    HW116117   7.628   2.797   1.603
 1362SOL    HW216118   7.482   2.726   1.591
 1363SOL     OW16119   5.143   7.424   6.121
 1363SOL    HW116120   5.241   7.435   6.137
 1363SOL    HW216121   5.126   7.334   6.080
 1364SOL     OW16122   0.330   2.586   0.583
 1364SOL    HW116123   0.270   2.510   0.611
 1364SOL    HW216124   0.425   2.555   0.582
 1365SOL     OW16125   4.499   5.464   1.678
 1365SOL    HW116126   4.570   5.499   1.616
 1365SOL    HW216127   4.528   5.477   1.772
 1366SOL     OW16128   6.705   8.097   0.822
 1366SOL    HW116129   6.683   8.102   0.724
 1366SOL    HW216130   6.754   8.012   0.841
 1367SOL     OW16131   8.512   0.850   6.761
 1367SOL    HW116132   8.589   0.859   6.824
 1367SOL    HW216133   8.495   0.753   6.744
 1368SOL     OW16134   4.174   1.695   6.034
 1368SOL    HW116135   4.122   1.716   5.951
 1368SOL    HW216136   4.244   1.627   6.013
 1369SOL     OW16137   3.233   1.788   6.680
 1369SOL    HW116138   3.176   1.750   6.607
 1369SOL    HW216139   3.174   1.825   6.752
 1370SOL     OW16140   3.855   1.231   0.651
 1370SOL    HW116141   3.816   1.308   0.702
 1370SOL    HW216142   3.952   1.221   0.674
 1371SOL     OW16143   3.513   6.136   5.254
 1371SOL    HW116144   3.589   6.179   5.303
 1371SOL    HW216145   3.538   6.126   5.158
 1372SOL     OW16146   9.445   2.169   5.667
 1372SOL    HW116147   9.471   2.178   5.571
 1372SOL    HW216148   9.520   2.201   5.725
 1373SOL     OW16149   5.556   1.635   0.778
 1373SOL    HW116150   5.475   1.587   0.745
 1373SOL    HW216151   5.634   1.612   0.719
 1374SOL     OW16152   0.864   7.781   6.261
 1374SOL    HW116153   0.842   7.753   6.355
 1374SOL    HW216154   0.926   7.859   6.263
 1375SOL     OW16155   5.855   1.346   1.802
 1375SOL    HW116156   5.848   1.278   1.876
 1375SOL    HW216157   5.771   1.347   1.749
 1376SOL     OW16158   0.538   6.244   6.257
 1376SOL    HW116159   0.483   6.260   6.339
 1376SOL    HW216160   0.518   6.153   6.220
 1377SOL     OW16161   5.200   3.457   5.948
 1377SOL    HW116162   5.218   3.518   5.870
 1377SOL    HW216163   5.284   3.409   5.973
 1378SOL     OW16164   1.382   0.790   4.618
 1378SOL    HW116165   1.308   0.852   4.647
 1378SOL    HW216166   1.469   0.839   4.619
 1379SOL     OW16167   4.009   2.788   1.214
 1379SOL    HW116168   4.084   2.852   1.201
 1379SOL    HW216169   3.985   2.746   1.127
 1380SOL     OW16170   7.446   5.400   5.561
 1380SOL    HW116171   7.433   5.333   5.488
 1380SOL    HW216172   7.514   5.468   5.534
 1381SOL     OW16173   5.131   5.752   5.260
 1381SOL    HW116174   5.100   5.709   5.175
 1381SOL    HW216175   5.133   5.851   5.248
 1382SOL     OW16176   6.577   4.870   1.630
 1382SOL    HW116177   6.483   4.848   1.605
 1382SOL    HW216178   6.582   4.893   1.727
 1383SOL     OW16179   8.154   5.588   0.642
 1383SOL    HW116180   8.161   5.551   0.550
 1383SOL    HW216181   8.105   5.675   0.640
 1384SOL     OW16182   2.741   5.104   1.457
 1384SOL    HW116183   2.769   5.076   1.365
 1384SOL    HW216184   2.676   5.038   1.494
 1385SOL     OW16185   2.677   3.863   6.396
 1385SOL    HW116186   2.579   3.859   6.375
 1385SOL    HW216187   2.707   3.958   6.395
 1386SOL     OW16188   5.915   4.875   0.427
 1386SOL    HW116189   5.945   4.851   0.519
 1386SOL    HW216190   5.877   4.967   0.427
 1387SOL     OW16191   0.550   5.452   6.579
 1387SOL    HW116192   0.649   5.434   6.582
 1387SOL    HW216193   0.534   5.545   6.546
 1388SOL     OW16194   4.085   2.654   1.479
 1388SOL    HW116195   4.127   2.710   1.551
 1388SOL    HW216196   4.032   2.713   1.418
 1389SOL     OW16197   4.625   7.348   0.853
 1389SOL    HW116198   4.720   7.337   0.882
 1389SOL    HW216199   4.595   7.265   0.806
 1390SOL     OW16200   4.702   1.818   0.440
 1390SOL    HW116201   4.644   1.890   0.478
 1390SOL    HW216202   4.766   1.786   0.511
 1391SOL     OW16203   3.925   4.422   0.386
 1391SOL    HW116204   3.998   4.407   0.319
 1391SOL    HW216205   3.963   4.467   0.467
 1392SOL     OW16206   4.351   5.780   1.037
 1392SOL    HW116207   4.344   5.861   0.978
 1392SOL    HW216208   4.355   5.698   0.980
 1393SOL     OW16209   5.459   6.639   6.634
 1393SOL    HW116210   5.553   6.626   6.601
 1393SOL    HW216211   5.456   6.623   6.733
 1394SOL     OW16212   4.215   8.327   1.709
 1394SOL    HW116213   4.147   8.373   1.766
 1394SOL    HW216214   4.297   8.308   1.763
 1395SOL     OW16215   3.477   2.619   6.753
 1395SOL    HW116216   3.420   2.537   6.764
 1395SOL    HW216217   3.532   2.632   6.835
 1396SOL     OW16218   9.228   7.074   5.657
 1396SOL    HW116219   9.263   7.038   5.570
 1396SOL    HW216220   9.252   7.171   5.664
 1397SOL     OW16221   4.107   1.585   0.398
 1397SOL    HW116222   4.165   1.569   0.318
 1397SOL    HW216223   4.015   1.609   0.369
 1398SOL     OW16224   3.973   6.433   5.660
 1398SOL    HW116225   4.055   6.439   5.603
 1398SOL    HW216226   3.914   6.359   5.627
 1399SOL     OW16227   5.084   0.598   6.289
 1399SOL    HW116228   5.177   0.631   6.308
 1399SOL    HW216229   5.080   0.561   6.196
 1400SOL     OW16230   1.693   0.331   6.668
 1400SOL    HW116231   1.655   0.419   6.698
 1400SOL    HW216232   1.785   0.321   6.707
 1401SOL     OW16233   5.270   7.664   5.912
 1401SOL    HW116234   5.267   7.660   6.012
 1401SOL    HW216235   5.328   7.590   5.877
 1402SOL     OW16236   6.790   4.504   1.063
 1402SOL    HW116237   6.739   4.419   1.074
 1402SOL    HW216238   6.887   4.488   1.079
 1403SOL     OW16239   6.765   0.721   6.298
 1403SOL    HW116240   6.704   0.675   6.362
 1403SOL    HW216241   6.711   0.769   6.229
 1404SOL     OW16242   1.483   6.828   4.230
 1404SOL    HW116243   1.450   6.761   4.163
 1404SOL    HW216244   1.560   6.879   4.191
 1405SOL     OW16245   7.609   1.130   5.465
 1405SOL    HW116246   7.615   1.196   5.539
 1405SOL    HW216247   7.543   1.162   5.397
 1406SOL     OW16248   0.345   0.807   5.804
 1406SOL    HW116249   0.260   0.755   5.808
 1406SOL    HW216250   0.395   0.795   5.890
 1407SOL     OW16251   8.450   5.039   5.296
 1407SOL    HW116252   8.359   5.072   5.273
 1407SOL    HW216253   8.505   5.033   5.212
 1408SOL     OW16254   0.363   5.721   1.285
 1408SOL    HW116255   0.457   5.722   1.320
 1408SOL    HW216256   0.313   5.799   1.321
 1409SOL     OW16257   5.526   4.556   6.192
 1409SOL    HW116258   5.600   4.593   6.248
 1409SOL    HW216259   5.565   4.501   6.118
 1410SOL     OW16260   3.885   0.255   6.527
 1410SOL    HW116261   3.885   0.155   6.524
 1410SOL    HW216262   3.851   0.286   6.616
 1411SOL     OW16263   4.164   7.033   6.053
 1411SOL    HW116264   4.185   7.018   5.956
 1411SOL    HW216265   4.232   7.095   6.092
 1412SOL     OW16266   5.207   5.716   6.797
 1412SOL    HW116267   5.300   5.706   6.759
 1412SOL    HW216268   5.162   5.627   6.797
 1413SOL     OW16269   2.733   5.362   6.291
 1413SOL    HW116270   2.683   5.398   6.370
 1413SOL    HW216271   2.770   5.437   6.238
 1414SOL     OW16272   2.020   6.949   5.986
 1414SOL    HW116273   1.999   7.035   6.033
 1414SOL    HW216274   2.074   6.967   5.904
 1415SOL     OW16275   3.784   8.039   6.169
 1415SOL    HW116276   3.825   8.129   6.154
 1415SOL    HW216277   3.761   8.028   6.265
 1416SOL     OW16278   6.790   7.104   5.892
 1416SOL    HW116279   6.785   7.014   5.850
 1416SOL    HW216280   6.833   7.168   5.829
 1417SOL     OW16281   6.838   5.329   0.662
 1417SOL    HW116282   6.877   5.239   0.684
 1417SOL    HW216283   6.778   5.321   0.583
 1418SOL     OW16284   4.131   2.400   1.514
 1418SOL    HW116285   4.206   2.395   1.448
 1418SOL    HW216286   4.097   2.494   1.518
 1419SOL     OW16287   0.591   6.548   0.389
 1419SOL    HW116288   0.592   6.478   0.318
 1419SOL    HW216289   0.669   6.609   0.377
 1420SOL     OW16290   7.081   5.461   1.525
 1420SOL    HW116291   7.095   5.514   1.608
 1420SOL    HW216292   7.162   5.406   1.506
 1421SOL     OW16293   1.957   4.259   6.813
 1421SOL    HW116294   2.040   4.215   6.780
 1421SOL    HW216295   1.953   4.353   6.780
 1422SOL     OW16296   0.562   0.616   0.652
 1422SOL    HW116297   0.524   0.602   0.561
 1422SOL    HW216298   0.509   0.566   0.720
 1423SOL     OW16299   4.587   4.559   0.787
 1423SOL    HW116300   4.615   4.466   0.764
 1423SOL    HW216301   4.508   4.585   0.733
 1424SOL     OW16302   5.609   3.830   5.945
 1424SOL    HW116303   5.671   3.773   5.998
 1424SOL    HW216304   5.517   3.827   5.986
 1425SOL     OW16305   4.318   1.129   0.175
 1425SOL    HW116306   4.289   1.165   0.087
 1425SOL    HW216307   4.255   1.160   0.246
 1426SOL     OW16308   3.291   1.499   1.638
 1426SOL    HW116309   3.388   1.474   1.640
 1426SOL    HW216310   3.256   1.489   1.544
 1427SOL     OW16311   0.828   1.821   5.922
 1427SOL    HW116312   0.735   1.851   5.941
 1427SOL    HW216313   0.877   1.893   5.873
 1428SOL     OW16314   8.740   0.586   1.260
 1428SOL    HW116315   8.675   0.530   1.312
 1428SOL    HW216316   8.803   0.631   1.324
 1429SOL     OW16317   6.624   0.210   1.317
 1429SOL    HW116318   6.625   0.273   1.239
 1429SOL    HW216319   6.712   0.213   1.364
 1430SOL     OW16320   8.688   6.502   0.879
 1430SOL    HW116321   8.676   6.545   0.968
 1430SOL    HW216322   8.689   6.403   0.890
 1431SOL     OW16323   1.934   7.746   5.339
 1431SOL    HW116324   1.941   7.823   5.275
 1431SOL    HW216325   1.950   7.661   5.290
 1432SOL     OW16326   8.834   2.320   0.722
 1432SOL    HW116327   8.775   2.319   0.802
 1432SOL    HW216328   8.782   2.292   0.641
 1433SOL     OW16329   8.411   4.726   6.606
 1433SOL    HW116330   8.338   4.666   6.573
 1433SOL    HW216331   8.386   4.821   6.591
 1434SOL     OW16332   2.055   5.308   6.278
 1434SOL    HW116333   2.055   5.347   6.186
 1434SOL    HW216334   2.094   5.373   6.342
 1435SOL     OW16335   1.588   3.334   0.473
 1435SOL    HW116336   1.575   3.419   0.422
 1435SOL    HW216337   1.673   3.290   0.445
 1436SOL     OW16338   0.288   3.693   6.334
 1436SOL    HW116339   0.384   3.712   6.311
 1436SOL    HW216340   0.244   3.778   6.363
 1437SOL     OW16341   5.046   3.273   6.456
 1437SOL    HW116342   5.084   3.328   6.382
 1437SOL    HW216343   5.057   3.323   6.542
 1438SOL     OW16344   6.039   2.322   5.433
 1438SOL    HW116345   5.960   2.378   5.410
 1438SOL    HW216346   6.116   2.381   5.457
 1439SOL     OW16347   3.619   7.406   1.040
 1439SOL    HW116348   3.638   7.400   0.942
 1439SOL    HW216349   3.555   7.333   1.066
 1440SOL     OW16350   6.187   7.338   6.413
 1440SOL    HW116351   6.204   7.415   6.350
 1440SOL    HW216352   6.097   7.348   6.454
 1441SOL     OW16353   7.884   7.610   5.183
 1441SOL    HW116354   7.809   7.662   5.144
 1441SOL    HW216355   7.966   7.668   5.189
 1442SOL     OW16356   2.565   1.214   6.664
 1442SOL    HW116357   2.593   1.238   6.570
 1442SOL    HW216358   2.541   1.297   6.713
 1443SOL     OW16359   1.256   4.094   6.455
 1443SOL    HW116360   1.222   4.183   6.484
 1443SOL    HW216361   1.350   4.102   6.423
 1444SOL     OW16362   9.265   3.847   6.467
 1444SOL    HW116363   9.279   3.933   6.419
 1444SOL    HW216364   9.187   3.855   6.529
 1445SOL     OW16365   4.668   4.140   0.369
 1445SOL    HW116366   4.695   4.120   0.463
 1445SOL    HW216367   4.587   4.087   0.346
 1446SOL     OW16368   2.088   5.199   5.369
 1446SOL    HW116369   2.169   5.150   5.338
 1446SOL    HW216370   2.115   5.277   5.425
 1447SOL     OW16371   2.863   3.774   5.675
 1447SOL    HW116372   2.927   3.847   5.652
 1447SOL    HW216373   2.897   3.687   5.639
 1448SOL     OW16374   2.962   0.347   5.050
 1448SOL    HW116375   2.959   0.281   4.974
 1448SOL    HW216376   2.873   0.392   5.058
 1449SOL     OW16377   1.158   4.913   0.642
 1449SOL    HW116378   1.233   4.875   0.588
 1449SOL    HW216379   1.117   4.990   0.593
 1450SOL     OW16380   6.716   0.092   0.179
 1450SOL    HW116381   6.695  -0.006   0.181
 1450SOL    HW216382   6.726   0.122   0.084
 1451SOL     OW16383   1.151   6.235   1.135
 1451SOL    HW116384   1.197   6.165   1.080
 1451SOL    HW216385   1.094   6.292   1.076
 1452SOL     OW16386   7.477   8.001   0.698
 1452SOL    HW116387   7.568   8.042   0.686
 1452SOL    HW216388   7.459   7.937   0.623
 1453SOL     OW16389   0.167   2.795   0.683
 1453SOL    HW116390   0.236   2.728   0.657
 1453SOL    HW216391   0.209   2.885   0.694
 1454SOL     OW16392   1.240   0.666   0.774
 1454SOL    HW116393   1.173   0.695   0.842
 1454SOL    HW216394   1.223   0.713   0.687
 1455SOL     OW16395   9.034   7.633   5.701
 1455SOL    HW116396   8.973   7.556   5.684
 1455SOL    HW216397   9.071   7.628   5.793
 1456SOL     OW16398   0.666   6.521   5.346
 1456SOL    HW116399   0.573   6.527   5.383
 1456SOL    HW216400   0.720   6.456   5.400
 1457SOL     OW16401   1.126   5.313   6.816
 1457SOL    HW116402   1.150   5.231   6.764
 1457SOL    HW216403   1.111   5.389   6.753
 1458SOL     OW16404   4.557   7.139   5.954
 1458SOL    HW116405   4.530   7.234   5.936
 1458SOL    HW216406   4.588   7.131   6.049
 1459SOL     OW16407   4.537   4.000   1.798
 1459SOL    HW116408   4.560   3.951   1.714
 1459SOL    HW216409   4.618   4.006   1.857
 1460SOL     OW16410   1.434   6.014   6.011
 1460SOL    HW116411   1.464   6.108   6.028
 1460SOL    HW216412   1.349   5.996   6.061
 1461SOL     OW16413   0.804   5.588   0.168
 1461SOL    HW116414   0.865   5.645   0.222
 1461SOL    HW216415   0.710   5.600   0.200
 1462SOL     OW16416   1.235   4.714   5.256
 1462SOL    HW116417   1.276   4.624   5.267
 1462SOL    HW216418   1.216   4.731   5.159
 1463SOL     OW16419   0.654   8.416   4.950
 1463SOL    HW116420   0.586   8.460   4.891
 1463SOL    HW216421   0.612   8.338   4.996
 1464SOL     OW16422   1.005   3.810   5.263
 1464SOL    HW116423   0.926   3.787   5.206
 1464SOL    HW216424   1.089   3.782   5.216
 1465SOL     OW16425   6.173   5.250   1.790
 1465SOL    HW116426   6.265   5.226   1.760
 1465SOL    HW216427   6.177   5.327   1.853
 1466SOL     OW16428   4.939   7.511   0.320
 1466SOL    HW116429   4.991   7.575   0.264
 1466SOL    HW216430   4.922   7.551   0.410
 1467SOL     OW16431   2.068   3.504   0.720
 1467SOL    HW116432   2.086   3.495   0.622
 1467SOL    HW216433   2.026   3.419   0.753
 1468SOL     OW16434   2.541   6.712   6.261
 1468SOL    HW116435   2.509   6.675   6.348
 1468SOL    HW216436   2.638   6.691   6.250
 1469SOL     OW16437   1.480   0.183   6.717
 1469SOL    HW116438   1.546   0.258   6.721
 1469SOL    HW216439   1.501   0.123   6.641
 1470SOL     OW16440   8.348   7.720   1.167
 1470SOL    HW116441   8.249   7.723   1.158
 1470SOL    HW216442   8.374   7.661   1.243
 1471SOL     OW16443   3.429   5.180   0.437
 1471SOL    HW116444   3.363   5.140   0.373
 1471SOL    HW216445   3.381   5.215   0.517
 1472SOL     OW16446   7.464   5.086   4.762
 1472SOL    HW116447   7.527   5.042   4.826
 1472SOL    HW216448   7.457   5.031   4.679
 1473SOL     OW16449   8.707   7.397   0.813
 1473SOL    HW116450   8.652   7.473   0.849
 1473SOL    HW216451   8.791   7.388   0.866
 1474SOL     OW16452   8.964   3.545   6.720
 1474SOL    HW116453   9.048   3.548   6.773
 1474SOL    HW216454   8.966   3.615   6.649
 1475SOL     OW16455   7.487   5.548   5.217
 1475SOL    HW116456   7.543   5.539   5.135
 1475SOL    HW216457   7.423   5.472   5.222
 1476SOL     OW16458   4.567   0.140   0.331
 1476SOL    HW116459   4.521   0.063   0.285
 1476SOL    HW216460   4.524   0.226   0.304
 1477SOL     OW16461   1.487   5.794   4.504
 1477SOL    HW116462   1.418   5.750   4.446
 1477SOL    HW216463   1.484   5.893   4.489
 1478SOL     OW16464   6.386   0.554   0.343
 1478SOL    HW116465   6.382   0.493   0.422
 1478SOL    HW216466   6.459   0.525   0.281
 1479SOL     OW16467   5.429   2.069   1.606
 1479SOL    HW116468   5.375   2.071   1.522
 1479SOL    HW216469   5.368   2.067   1.685
 1480SOL     OW16470   8.986   4.881   5.258
 1480SOL    HW116471   9.024   4.958   5.207
 1480SOL    HW216472   8.887   4.878   5.244
 1481SOL     OW16473   5.765   8.107   1.606
 1481SOL    HW116474   5.701   8.109   1.530
 1481SOL    HW216475   5.804   8.198   1.619
 1482SOL     OW16476   7.229   0.646   6.535
 1482SOL    HW116477   7.162   0.616   6.603
 1482SOL    HW216478   7.183   0.666   6.449
 1483SOL     OW16479   2.183   2.035   6.400
 1483SOL    HW116480   2.099   2.065   6.445
 1483SOL    HW216481   2.223   1.958   6.449
 1484SOL     OW16482   7.716   1.792   0.257
 1484SOL    HW116483   7.719   1.849   0.175
 1484SOL    HW216484   7.792   1.816   0.317
 1485SOL     OW16485   1.629   3.551   0.274
 1485SOL    HW116486   1.562   3.495   0.224
 1485SOL    HW216487   1.718   3.544   0.228
 1486SOL     OW16488   3.342   4.909   6.206
 1486SOL    HW116489   3.298   4.912   6.295
 1486SOL    HW216490   3.273   4.892   6.135
 1487SOL     OW16491   0.565   6.338   6.020
 1487SOL    HW116492   0.565   6.308   6.115
 1487SOL    HW216493   0.484   6.393   6.001
 1488SOL     OW16494   0.635   6.346   0.222
 1488SOL    HW116495   0.688   6.358   0.138
 1488SOL    HW216496   0.657   6.258   0.263
 1489SOL     OW16497   6.616   0.587   1.711
 1489SOL    HW116498   6.634   0.496   1.748
 1489SOL    HW216499   6.692   0.647   1.731
 1490SOL     OW16500   6.016   1.159   1.582
 1490SOL    HW116501   5.921   1.159   1.549
 1490SOL    HW216502   6.019   1.122   1.675
 1491SOL     OW16503   8.615   0.047   0.283
 1491SOL    HW116504   8.679   0.120   0.261
 1491SOL    HW216505   8.666  -0.036   0.305
 1492SOL     OW16506   6.366   8.420   0.804
 1492SOL    HW116507   6.276   8.379   0.795
 1492SOL    HW216508   6.367   8.509   0.759
 1493SOL     OW16509   6.206   1.597   2.109
 1493SOL    HW116510   6.207   1.656   2.028
 1493SOL    HW216511   6.300   1.571   2.132
 1494SOL     OW16512   4.771   3.634   6.837
 1494SOL    HW116513   4.855   3.686   6.854
 1494SOL    HW216514   4.721   3.675   6.761
 1495SOL     OW16515   2.040   1.279   5.027
 1495SOL    HW116516   2.062   1.375   5.040
 1495SOL    HW216517   2.125   1.226   5.023
 1496SOL     OW16518   5.256   1.137   5.803
 1496SOL    HW116519   5.191   1.207   5.771
 1496SOL    HW216520   5.347   1.158   5.768
 1497SOL     OW16521   8.049   7.885   0.991
 1497SOL    HW116522   8.043   7.809   1.056
 1497SOL    HW216523   7.987   7.868   0.914
 1498SOL     OW16524   6.317   7.182   6.589
 1498SOL    HW116525   6.268   7.227   6.514
 1498SOL    HW216526   6.306   7.083   6.581
 1499SOL     OW16527   0.594   2.484   0.559
 1499SOL    HW116528   0.684   2.514   0.528
 1499SOL    HW216529   0.604   2.423   0.637
 1500SOL     OW16530   5.821   1.237   2.184
 1500SOL    HW116531   5.840   1.193   2.096
 1500SOL    HW216532   5.906   1.276   2.220
 1501SOL     OW16533   8.047   0.795   6.036
 1501SOL    HW116534   7.968   0.821   5.981
 1501SOL    HW216535   8.029   0.710   6.084
 1502SOL     OW16536   0.867   7.228   4.815
 1502SOL    HW116537   0.849   7.157   4.882
 1502SOL    HW216538   0.966   7.240   4.804
 1503SOL     OW16539   1.255   3.526   5.201
 1503SOL    HW116540   1.215   3.435   5.189
 1503SOL    HW216541   1.219   3.587   5.130
 1504SOL     OW16542   7.960   3.912   5.940
 1504SOL    HW116543   7.913   3.863   5.867
 1504SOL    HW216544   7.919   3.888   6.028
 1505SOL     OW16545   3.328   7.174   1.317
 1505SOL    HW116546   3.385   7.115   1.260
 1505SOL    HW216547   3.373   7.190   1.405
 1506SOL     OW16548   6.692   5.130   6.377
 1506SOL    HW116549   6.780   5.142   6.331
 1506SOL    HW216550   6.685   5.196   6.452
 1507SOL     OW16551   4.035   6.528   0.156
 1507SOL    HW116552   4.007   6.450   0.211
 1507SOL    HW216553   4.113   6.502   0.099
 1508SOL     OW16554   3.811   7.780   4.910
 1508SOL    HW116555   3.803   7.683   4.931
 1508SOL    HW216556   3.907   7.803   4.893
 1509SOL     OW16557   4.962   1.169   0.147
 1509SOL    HW116558   4.943   1.078   0.110
 1509SOL    HW216559   5.050   1.202   0.112
 1510SOL     OW16560   8.837   0.121   6.282
 1510SOL    HW116561   8.746   0.150   6.251
 1510SOL    HW216562   8.872   0.050   6.222
 1511SOL     OW16563   0.668   7.144   5.722
 1511SOL    HW116564   0.654   7.054   5.763
 1511SOL    HW216565   0.728   7.198   5.781
 1512SOL     OW16566   9.587   6.081   6.514
 1512SOL    HW116567   9.600   6.144   6.437
 1512SOL    HW216568   9.666   6.020   6.521
 1513SOL     OW16569   8.045   1.936   1.070
 1513SOL    HW116570   8.104   1.861   1.041
 1513SOL    HW216571   8.094   2.023   1.057
 1514SOL     OW16572   9.165   0.407   5.866
 1514SOL    HW116573   9.109   0.475   5.915
 1514SOL    HW216574   9.260   0.438   5.864
 1515SOL     OW16575   5.283   0.759   0.523
 1515SOL    HW116576   5.301   0.842   0.575
 1515SOL    HW216577   5.222   0.699   0.575
 1516SOL     OW16578   7.228   3.259   0.843
 1516SOL    HW116579   7.272   3.171   0.858
 1516SOL    HW216580   7.257   3.323   0.914
 1517SOL     OW16581   4.103   2.013   5.482
 1517SOL    HW116582   4.027   2.074   5.459
 1517SOL    HW216583   4.188   2.052   5.450
 1518SOL     OW16584   5.740   6.542   0.518
 1518SOL    HW116585   5.706   6.450   0.541
 1518SOL    HW216586   5.783   6.582   0.599
 1519SOL     OW16587   9.193   7.690   5.919
 1519SOL    HW116588   9.153   7.764   5.974
 1519SOL    HW216589   9.233   7.622   5.980
 1520SOL     OW16590   7.248   5.753   1.861
 1520SOL    HW116591   7.309   5.775   1.785
 1520SOL    HW216592   7.266   5.814   1.938
 1521SOL     OW16593   2.139   1.018   6.338
 1521SOL    HW116594   2.068   1.070   6.385
 1521SOL    HW216595   2.183   0.955   6.402
 1522SOL     OW16596   2.410   4.912   0.851
 1522SOL    HW116597   2.393   4.948   0.942
 1522SOL    HW216598   2.412   4.812   0.854
 1523SOL     OW16599   2.910   7.926   0.361
 1523SOL    HW116600   2.969   7.994   0.404
 1523SOL    HW216601   2.868   7.965   0.279
 1524SOL     OW16602   1.996   1.773   5.896
 1524SOL    HW116603   2.038   1.684   5.916
 1524SOL    HW216604   2.064   1.833   5.855
 1525SOL     OW16605   1.948   0.404   1.282
 1525SOL    HW116606   1.864   0.395   1.336
 1525SOL    HW216607   1.930   0.457   1.199
 1526SOL     OW16608   0.360   7.013   6.487
 1526SOL    HW116609   0.347   7.036   6.584
 1526SOL    HW216610   0.391   7.094   6.438
 1527SOL     OW16611   4.257   6.581   0.689
 1527SOL    HW116612   4.256   6.543   0.596
 1527SOL    HW216613   4.188   6.533   0.744
 1528SOL     OW16614   0.155   6.841   0.739
 1528SOL    HW116615   0.213   6.876   0.665
 1528SOL    HW216616   0.194   6.757   0.775
 1529SOL     OW16617   6.638   5.579   6.829
 1529SOL    HW116618   6.709   5.511   6.847
 1529SOL    HW216619   6.624   5.589   6.731
 1530SOL     OW16620   7.369   2.421   6.283
 1530SOL    HW116621   7.436   2.350   6.264
 1530SOL    HW216622   7.282   2.380   6.310
 1531SOL     OW16623   1.295   0.075   1.153
 1531SOL    HW116624   1.330   0.157   1.108
 1531SOL    HW216625   1.195   0.074   1.148
 1532SOL     OW16626   6.391   5.533   0.206
 1532SOL    HW116627   6.405   5.485   0.293
 1532SOL    HW216628   6.462   5.603   0.196
 1533SOL     OW16629   5.999   2.143   6.466
 1533SOL    HW116630   6.080   2.155   6.408
 1533SOL    HW216631   6.028   2.123   6.560
 1534SOL     OW16632   7.143   4.038   0.201
 1534SOL    HW116633   7.125   3.989   0.115
 1534SOL    HW216634   7.056   4.055   0.248
 1535SOL     OW16635   4.066   2.859   0.293
 1535SOL    HW116636   4.119   2.914   0.357
 1535SOL    HW216637   4.124   2.827   0.219
 1536SOL     OW16638   7.314   3.378   1.068
 1536SOL    HW116639   7.344   3.473   1.058
 1536SOL    HW216640   7.384   3.326   1.117
 1537SOL     OW16641   3.520   0.801   5.258
 1537SOL    HW116642   3.478   0.721   5.216
 1537SOL    HW216643   3.593   0.836   5.199
 1538SOL     OW16644   5.482   2.150   6.790
 1538SOL    HW116645   5.568   2.104   6.812
 1538SOL    HW216646   5.492   2.248   6.803
 1539SOL     OW16647   8.109   5.194   5.845
 1539SOL    HW116648   8.166   5.276   5.852
 1539SOL    HW216649   8.114   5.142   5.930
 1540SOL     OW16650   0.417   2.950   0.661
 1540SOL    HW116651   0.448   3.033   0.708
 1540SOL    HW216652   0.463   2.943   0.573
 1541SOL     OW16653   4.397   2.615   6.166
 1541SOL    HW116654   4.453   2.555   6.108
 1541SOL    HW216655   4.300   2.604   6.142
 1542SOL     OW16656   6.059   7.239   1.676
 1542SOL    HW116657   6.120   7.159   1.673
 1542SOL    HW216658   6.111   7.319   1.704
 1543SOL     OW16659   1.072   1.214   0.252
 1543SOL    HW116660   1.051   1.290   0.313
 1543SOL    HW216661   1.000   1.206   0.183
 1544SOL     OW16662   3.207   5.424   1.307
 1544SOL    HW116663   3.175   5.351   1.366
 1544SOL    HW216664   3.304   5.411   1.286
 1545SOL     OW16665   3.657   3.985   1.266
 1545SOL    HW116666   3.558   3.983   1.253
 1545SOL    HW216667   3.700   3.917   1.206
 1546SOL     OW16668   1.544   2.010   0.383
 1546SOL    HW116669   1.590   2.099   0.385
 1546SOL    HW216670   1.570   1.961   0.299
 1547SOL     OW16671   4.199   8.123   5.935
 1547SOL    HW116672   4.290   8.142   5.972
 1547SOL    HW216673   4.157   8.047   5.986
 1548SOL     OW16674   6.309   7.070   5.721
 1548SOL    HW116675   6.349   6.997   5.666
 1548SOL    HW216676   6.364   7.083   5.804
 1549SOL     OW16677   1.805   2.669   0.909
 1549SOL    HW116678   1.853   2.647   0.994
 1549SOL    HW216679   1.731   2.733   0.929
 1550SOL     OW16680   6.054   6.308   1.327
 1550SOL    HW116681   6.074   6.393   1.376
 1550SOL    HW216682   5.997   6.328   1.247
 1551SOL     OW16683   5.885   7.844   0.328
 1551SOL    HW116684   5.953   7.770   0.325
 1551SOL    HW216685   5.928   7.926   0.366
 1552SOL     OW16686   6.196  -0.018   5.634
 1552SOL    HW116687   6.213   0.054   5.567
 1552SOL    HW216688   6.196  -0.107   5.588
 1553SOL     OW16689   4.308   5.188   1.229
 1553SOL    HW116690   4.295   5.116   1.160
 1553SOL    HW216691   4.228   5.191   1.289
 1554SOL     OW16692   6.897   1.696   5.562
 1554SOL    HW116693   6.952   1.772   5.527
 1554SOL    HW216694   6.944   1.610   5.544
 1555SOL     OW16695   9.437   6.354   4.791
 1555SOL    HW116696   9.346   6.380   4.758
 1555SOL    HW216697   9.495   6.329   4.713
 1556SOL     OW16698   7.975   7.934   0.385
 1556SOL    HW116699   7.919   7.854   0.365
 1556SOL    HW216700   8.060   7.929   0.332
 1557SOL     OW16701   4.543   3.845   1.560
 1557SOL    HW116702   4.546   3.835   1.460
 1557SOL    HW216703   4.474   3.783   1.598
 1558SOL     OW16704   3.539   2.993   5.814
 1558SOL    HW116705   3.592   3.047   5.747
 1558SOL    HW216706   3.444   2.986   5.783
 1559SOL     OW16707   0.987   4.785   1.044
 1559SOL    HW116708   0.918   4.716   1.022
 1559SOL    HW216709   1.006   4.782   1.142
 1560SOL     OW16710   9.251   5.851   5.826
 1560SOL    HW116711   9.329   5.799   5.858
 1560SOL    HW216712   9.271   5.949   5.830
 1561SOL     OW16713   6.807   7.093   6.555
 1561SOL    HW116714   6.830   7.019   6.492
 1561SOL    HW216715   6.885   7.154   6.564
 1562SOL     OW16716   3.346   7.310   6.438
 1562SOL    HW116717   3.265   7.277   6.390
 1562SOL    HW216718   3.419   7.329   6.373
 1563SOL     OW16719   5.167   5.920   0.247
 1563SOL    HW116720   5.146   5.850   0.178
 1563SOL    HW216721   5.242   5.978   0.214
 1564SOL     OW16722   0.518   1.246   0.506
 1564SOL    HW116723   0.548   1.157   0.469
 1564SOL    HW216724   0.558   1.320   0.451
 1565SOL     OW16725   7.675   0.964   6.445
 1565SOL    HW116726   7.602   1.018   6.488
 1565SOL    HW216727   7.647   0.938   6.353
 1566SOL     OW16728   9.142   5.690   0.414
 1566SOL    HW116729   9.164   5.669   0.509
 1566SOL    HW216730   9.133   5.605   0.362
 1567SOL     OW16731   7.341   0.802   0.229
 1567SOL    HW116732   7.372   0.832   0.319
 1567SOL    HW216733   7.387   0.717   0.205
 1568SOL     OW16734   3.959   5.876   1.295
 1568SOL    HW116735   3.998   5.784   1.300
 1568SOL    HW216736   3.860   5.869   1.282
 1569SOL     OW16737   0.356   2.004   1.256
 1569SOL    HW116738   0.427   2.071   1.236
 1569SOL    HW216739   0.392   1.934   1.317
 1570SOL     OW16740   6.947   6.009   5.743
 1570SOL    HW116741   6.892   6.088   5.770
 1570SOL    HW216742   6.993   6.027   5.656
 1571SOL     OW16743   4.317   1.076   1.480
 1571SOL    HW116744   4.400   1.079   1.535
 1571SOL    HW216745   4.328   1.133   1.399
 1572SOL     OW16746   8.195   3.768   6.012
 1572SOL    HW116747   8.105   3.811   6.012
 1572SOL    HW216748   8.266   3.838   6.001
 1573SOL     OW16749   7.078   2.301   6.226
 1573SOL    HW116750   7.042   2.217   6.266
 1573SOL    HW216751   7.028   2.322   6.142
 1574SOL     OW16752   1.327   4.946   5.501
 1574SOL    HW116753   1.366   4.871   5.555
 1574SOL    HW216754   1.374   4.951   5.412
 1575SOL     OW16755   5.277   0.084   0.405
 1575SOL    HW116756   5.260   0.026   0.326
 1575SOL    HW216757   5.227   0.049   0.484
 1576SOL     OW16758   6.535   1.779   0.938
 1576SOL    HW116759   6.458   1.841   0.953
 1576SOL    HW216760   6.620   1.832   0.946
 1577SOL     OW16761   6.717   6.922   0.353
 1577SOL    HW116762   6.746   6.944   0.446
 1577SOL    HW216763   6.790   6.942   0.289
 1578SOL     OW16764   7.770   5.189   6.655
 1578SOL    HW116765   7.807   5.104   6.694
 1578SOL    HW216766   7.808   5.267   6.704
 1579SOL     OW16767   8.752   7.514   5.339
 1579SOL    HW116768   8.784   7.515   5.433
 1579SOL    HW216769   8.750   7.420   5.305
 1580SOL     OW16770   3.773   2.431   1.739
 1580SOL    HW116771   3.861   2.425   1.788
 1580SOL    HW216772   3.701   2.390   1.795
 1581SOL     OW16773   9.098   8.006   0.624
 1581SOL    HW116774   9.091   7.925   0.681
 1581SOL    HW216775   9.173   7.996   0.559
 1582SOL     OW16776   4.276   2.295   6.759
 1582SOL    HW116777   4.281   2.340   6.848
 1582SOL    HW216778   4.281   2.364   6.687
 1583SOL     OW16779   2.680   3.435   0.695
 1583SOL    HW116780   2.748   3.435   0.769
 1583SOL    HW216781   2.666   3.528   0.662
 1584SOL     OW16782   4.080   6.312   6.142
 1584SOL    HW116783   4.082   6.214   6.125
 1584SOL    HW216784   4.002   6.353   6.094
 1585SOL     OW16785   3.336   0.203   6.404
 1585SOL    HW116786   3.411   0.182   6.341
 1585SOL    HW216787   3.368   0.192   6.498
 1586SOL     OW16788   7.909   5.830   0.128
 1586SOL    HW116789   7.826   5.775   0.116
 1586SOL    HW216790   7.883   5.921   0.161
 1587SOL     OW16791   5.904   7.460   0.855
 1587SOL    HW116792   5.836   7.532   0.873
 1587SOL    HW216793   5.987   7.502   0.819
 1588SOL     OW16794   9.382   2.619   6.496
 1588SOL    HW116795   9.415   2.679   6.424
 1588SOL    HW216796   9.306   2.662   6.544
 1589SOL     OW16797   0.902   1.111   5.393
 1589SOL    HW116798   0.856   1.170   5.458
 1589SOL    HW216799   0.871   1.132   5.300
 1590SOL     OW16800   1.106   7.688   1.478
 1590SOL    HW116801   1.063   7.633   1.551
 1590SOL    HW216802   1.107   7.784   1.506
 1591SOL     OW16803   4.363   0.003   0.151
 1591SOL    HW116804   4.365   0.067   0.074
 1591SOL    HW216805   4.425  -0.074   0.132
 1592SOL     OW16806   2.632   5.170   0.971
 1592SOL    HW116807   2.550   5.225   0.992
 1592SOL    HW216808   2.619   5.124   0.884
 1593SOL     OW16809   8.635   5.770   6.172
 1593SOL    HW116810   8.687   5.754   6.256
 1593SOL    HW216811   8.541   5.797   6.195
 1594SOL     OW16812   7.134   7.516   1.621
 1594SOL    HW116813   7.162   7.474   1.707
 1594SOL    HW216814   7.055   7.575   1.636
 1595SOL     OW16815   1.708   0.135   1.423
 1595SOL    HW116816   1.734   0.039   1.429
 1595SOL    HW216817   1.739   0.184   1.504
 1596SOL     OW16818   6.473   0.207   0.732
 1596SOL    HW116819   6.440   0.283   0.676
 1596SOL    HW216820   6.571   0.220   0.749
 1597SOL     OW16821   2.316   0.160   6.269
 1597SOL    HW116822   2.270   0.194   6.188
 1597SOL    HW216823   2.322   0.234   6.337
 1598SOL     OW16824   4.057   1.279   6.818
 1598SOL    HW116825   4.091   1.355   6.872
 1598SOL    HW216826   4.018   1.209   6.878
 1599SOL     OW16827   8.473   2.193   5.988
 1599SOL    HW116828   8.387   2.146   6.010
 1599SOL    HW216829   8.455   2.291   5.979
 1600SOL     OW16830   7.333   1.837   6.723
 1600SOL    HW116831   7.358   1.875   6.634
 1600SOL    HW216832   7.285   1.750   6.709
 1601SOL     OW16833   5.425   4.614   0.361
 1601SOL    HW116834   5.453   4.604   0.266
 1601SOL    HW216835   5.490   4.565   0.420
 1602SOL     OW16836   7.586   1.055   5.880
 1602SOL    HW116837   7.558   1.128   5.817
 1602SOL    HW216838   7.534   1.063   5.965
 1603SOL     OW16839   8.275   4.443   0.300
 1603SOL    HW116840   8.240   4.511   0.237
 1603SOL    HW216841   8.325   4.372   0.250
 1604SOL     OW16842   7.596   7.176   0.552
 1604SOL    HW116843   7.661   7.181   0.476
 1604SOL    HW216844   7.620   7.100   0.612
 1605SOL     OW16845   0.350   1.416   0.684
 1605SOL    HW116846   0.364   1.508   0.648
 1605SOL    HW216847   0.412   1.352   0.638
 1606SOL     OW16848   1.940   3.417   0.458
 1606SOL    HW116849   1.926   3.339   0.397
 1606SOL    HW216850   2.036   3.446   0.453
 1607SOL     OW16851   2.947   5.427   1.195
 1607SOL    HW116852   3.046   5.430   1.203
 1607SOL    HW216853   2.908   5.507   1.240
 1608SOL     OW16854   6.305   3.333   1.025
 1608SOL    HW116855   6.352   3.414   1.057
 1608SOL    HW216856   6.206   3.349   1.025
 1609SOL     OW16857   4.025   1.382   1.108
 1609SOL    HW116858   4.059   1.390   1.202
 1609SOL    HW216859   3.926   1.369   1.110
 1610SOL     OW16860   8.083   2.881   6.714
 1610SOL    HW116861   8.118   2.960   6.764
 1610SOL    HW216862   8.082   2.901   6.616
 1611SOL     OW16863   5.650   7.642   0.653
 1611SOL    HW116864   5.592   7.686   0.722
 1611SOL    HW216865   5.633   7.544   0.654
 1612SOL     OW16866   8.321   2.506   0.701
 1612SOL    HW116867   8.393   2.570   0.729
 1612SOL    HW216868   8.335   2.481   0.605
 1613SOL     OW16869   4.028   5.015   0.708
 1613SOL    HW116870   4.048   5.059   0.620
 1613SOL    HW216871   4.043   5.080   0.782
 1614SOL     OW16872   2.432   3.962   6.310
 1614SOL    HW116873   2.414   3.957   6.409
 1614SOL    HW216874   2.358   4.014   6.266
 1615SOL     OW16875   5.834   6.039   5.067
 1615SOL    HW116876   5.779   6.116   5.037
 1615SOL    HW216877   5.889   6.005   4.990
 1616SOL     OW16878   7.185   7.728   1.090
 1616SOL    HW116879   7.195   7.777   1.177
 1616SOL    HW216880   7.110   7.662   1.098
 1617SOL     OW16881   4.887   7.735   0.929
 1617SOL    HW116882   4.887   7.819   0.875
 1617SOL    HW216883   4.798   7.690   0.921
 1618SOL     OW16884   5.666   7.920   0.998
 1618SOL    HW116885   5.721   8.000   0.973
 1618SOL    HW216886   5.647   7.921   1.096
 1619SOL     OW16887   7.593   6.152   0.545
 1619SOL    HW116888   7.562   6.075   0.599
 1619SOL    HW216889   7.592   6.127   0.448
 1620SOL     OW16890   6.774   6.153   6.512
 1620SOL    HW116891   6.739   6.069   6.470
 1620SOL    HW216892   6.717   6.231   6.484
 1621SOL     OW16893   7.351   1.090   0.650
 1621SOL    HW116894   7.298   1.175   0.651
 1621SOL    HW216895   7.449   1.113   0.648
 1622SOL     OW16896   1.122   7.282   5.939
 1622SOL    HW116897   1.156   7.221   6.010
 1622SOL    HW216898   1.185   7.360   5.929
 1623SOL     OW16899   0.816   7.636   0.881
 1623SOL    HW116900   0.899   7.644   0.936
 1623SOL    HW216901   0.778   7.544   0.891
 1624SOL     OW16902   1.561   2.378   5.843
 1624SOL    HW116903   1.589   2.318   5.769
 1624SOL    HW216904   1.518   2.460   5.806
 1625SOL     OW16905   4.250   6.192   1.186
 1625SOL    HW116906   4.239   6.171   1.284
 1625SOL    HW216907   4.184   6.139   1.133
 1626SOL     OW16908   3.245   6.034   6.167
 1626SOL    HW116909   3.206   6.054   6.077
 1626SOL    HW216910   3.197   6.086   6.237
 1627SOL     OW16911   9.328   1.520   5.454
 1627SOL    HW116912   9.333   1.421   5.465
 1627SOL    HW216913   9.264   1.542   5.380
 1628SOL     OW16914   0.256   7.064   5.237
 1628SOL    HW116915   0.249   6.989   5.303
 1628SOL    HW216916   0.294   7.029   5.152
 1629SOL     OW16917   1.206   0.324   6.217
 1629SOL    HW116918   1.148   0.315   6.297
 1629SOL    HW216919   1.203   0.240   6.162
 1630SOL     OW16920   4.711   0.434   1.839
 1630SOL    HW116921   4.811   0.441   1.829
 1630SOL    HW216922   4.688   0.437   1.936
 1631SOL     OW16923   1.930   0.544   5.402
 1631SOL    HW116924   1.868   0.502   5.469
 1631SOL    HW216925   2.003   0.592   5.449
 1632SOL     OW16926   1.014   0.419   4.832
 1632SOL    HW116927   0.924   0.405   4.792
 1632SOL    HW216928   1.083   0.424   4.759
 1633SOL     OW16929   0.715   0.837   6.641
 1633SOL    HW116930   0.738   0.813   6.547
 1633SOL    HW216931   0.799   0.857   6.692
 1634SOL     OW16932   8.198   1.124   5.769
 1634SOL    HW116933   8.121   1.067   5.739
 1634SOL    HW216934   8.251   1.153   5.689
 1635SOL     OW16935   5.773   2.940   0.458
 1635SOL    HW116936   5.749   2.859   0.511
 1635SOL    HW216937   5.869   2.934   0.429
 1636SOL     OW16938   5.568   0.374   5.244
 1636SOL    HW116939   5.604   0.401   5.155
 1636SOL    HW216940   5.618   0.423   5.316
 1637SOL     OW16941   3.877   5.401   6.010
 1637SOL    HW116942   3.914   5.359   6.093
 1637SOL    HW216943   3.947   5.455   5.965
 1638SOL     OW16944   2.300   1.812   1.111
 1638SOL    HW116945   2.215   1.802   1.058
 1638SOL    HW216946   2.344   1.898   1.086
 1639SOL     OW16947   7.336   2.729   0.141
 1639SOL    HW116948   7.417   2.781   0.169
 1639SOL    HW216949   7.358   2.632   0.136
 1640SOL     OW16950   5.096   2.202   1.123
 1640SOL    HW116951   4.998   2.202   1.143
 1640SOL    HW216952   5.134   2.112   1.144
 1641SOL     OW16953   9.416   4.319   6.602
 1641SOL    HW116954   9.487   4.328   6.532
 1641SOL    HW216955   9.436   4.239   6.659
 1642SOL     OW16956   6.117   1.967   1.548
 1642SOL    HW116957   6.214   1.951   1.563
 1642SOL    HW216958   6.101   2.064   1.531
 1643SOL     OW16959   7.347   1.197   6.079
 1643SOL    HW116960   7.326   1.256   6.157
 1643SOL    HW216961   7.282   1.216   6.005
 1644SOL     OW16962   1.590   1.413   6.593
 1644SOL    HW116963   1.628   1.360   6.669
 1644SOL    HW216964   1.632   1.383   6.508
 1645SOL     OW16965   7.044   1.522   5.855
 1645SOL    HW116966   6.966   1.518   5.917
 1645SOL    HW216967   7.012   1.534   5.761
 1646SOL     OW16968   6.636   3.421   1.747
 1646SOL    HW116969   6.673   3.477   1.820
 1646SOL    HW216970   6.633   3.325   1.776
 1647SOL     OW16971   1.082   4.279   0.826
 1647SOL    HW116972   1.052   4.365   0.866
 1647SOL    HW216973   1.145   4.233   0.889
 1648SOL     OW16974   6.189   6.351   0.470
 1648SOL    HW116975   6.227   6.440   0.493
 1648SOL    HW216976   6.255   6.279   0.492
 1649SOL     OW16977   1.815   0.238   5.728
 1649SOL    HW116978   1.796   0.205   5.636
 1649SOL    HW216979   1.912   0.228   5.748
 1650SOL     OW16980   9.458   0.360   6.586
 1650SOL    HW116981   9.432   0.454   6.610
 1650SOL    HW216982   9.506   0.319   6.664
 1651SOL     OW16983   4.645   3.287   0.844
 1651SOL    HW116984   4.629   3.374   0.798
 1651SOL    HW216985   4.560   3.234   0.844
 1652SOL     OW16986   8.490   4.208   6.285
 1652SOL    HW116987   8.517   4.113   6.300
 1652SOL    HW216988   8.564   4.257   6.238
 1653SOL     OW16989   8.989   2.327   1.707
 1653SOL    HW116990   8.906   2.286   1.670
 1653SOL    HW216991   9.069   2.292   1.657
 1654SOL     OW16992   0.215   6.773   5.917
 1654SOL    HW116993   0.132   6.763   5.972
 1654SOL    HW216994   0.242   6.869   5.913
 1655SOL     OW16995   7.767   2.697   5.959
 1655SOL    HW116996   7.746   2.600   5.967
 1655SOL    HW216997   7.837   2.710   5.889
 1656SOL     OW16998   4.051   5.139   1.341
 1656SOL    HW116999   4.017   5.231   1.355
 1656SOL    HW217000   3.974   5.075   1.336
 1657SOL     OW17001   4.184   5.099   6.819
 1657SOL    HW117002   4.207   5.103   6.722
 1657SOL    HW217003   4.260   5.057   6.870
 1658SOL     OW17004   7.184   7.300   5.972
 1658SOL    HW117005   7.276   7.332   5.951
 1658SOL    HW217006   7.139   7.364   6.034
 1659SOL     OW17007   7.190   2.034   0.806
 1659SOL    HW117008   7.123   1.963   0.783
 1659SOL    HW217009   7.262   2.035   0.737
 1660SOL     OW17010   7.741   8.075   6.393
 1660SOL    HW117011   7.702   8.061   6.484
 1660SOL    HW217012   7.725   7.993   6.337
 1661SOL     OW17013   0.932   2.356   0.621
 1661SOL    HW117014   0.877   2.392   0.696
 1661SOL    HW217015   1.029   2.369   0.641
 1662SOL     OW17016   3.535   5.172   5.083
 1662SOL    HW117017   3.455   5.154   5.026
 1662SOL    HW217018   3.596   5.236   5.035
 1663SOL     OW17019   0.285   5.444   5.488
 1663SOL    HW117020   0.335   5.387   5.423
 1663SOL    HW217021   0.327   5.437   5.579
 1664SOL     OW17022   6.855   3.082   0.518
 1664SOL    HW117023   6.871   3.079   0.617
 1664SOL    HW217024   6.868   3.175   0.485
 1665SOL     OW17025   5.741   5.737   6.731
 1665SOL    HW117026   5.772   5.736   6.826
 1665SOL    HW217027   5.676   5.662   6.716
 1666SOL     OW17028   6.578   4.478   6.798
 1666SOL    HW117029   6.508   4.486   6.728
 1666SOL    HW217030   6.561   4.544   6.871
 1667SOL     OW17031   3.274   5.239   6.755
 1667SOL    HW117032   3.249   5.190   6.838
 1667SOL    HW217033   3.281   5.175   6.679
 1668SOL     OW17034   4.075   4.076   5.566
 1668SOL    HW117035   4.148   4.046   5.628
 1668SOL    HW217036   4.080   4.022   5.481
 1669SOL     OW17037   5.212   1.952   1.197
 1669SOL    HW117038   5.266   1.876   1.162
 1669SOL    HW217039   5.168   1.926   1.282
 1670SOL     OW17040   0.563   7.046   0.433
 1670SOL    HW117041   0.662   7.035   0.447
 1670SOL    HW217042   0.545   7.061   0.336
 1671SOL     OW17043   6.101   0.202   6.821
 1671SOL    HW117044   6.081   0.105   6.836
 1671SOL    HW217045   6.018   0.248   6.789
 1672SOL     OW17046   6.911   8.371   0.664
 1672SOL    HW117047   6.906   8.272   0.683
 1672SOL    HW217048   6.821   8.403   0.634
 1673SOL     OW17049   3.244   1.046   2.439
 1673SOL    HW117050   3.202   1.041   2.348
 1673SOL    HW217051   3.310   1.121   2.441
 1674SOL     OW17052   2.852   4.973   0.412
 1674SOL    HW117053   2.830   5.033   0.489
 1674SOL    HW217054   2.769   4.957   0.358
 1675SOL     OW17055   6.392   4.015   0.862
 1675SOL    HW117056   6.380   4.113   0.845
 1675SOL    HW217057   6.303   3.970   0.866
 1676SOL     OW17058   2.214   2.379   6.585
 1676SOL    HW117059   2.280   2.454   6.588
 1676SOL    HW217060   2.209   2.342   6.493
 1677SOL     OW17061   2.681   4.584   0.827
 1677SOL    HW117062   2.701   4.667   0.774
 1677SOL    HW217063   2.766   4.535   0.844
 1678SOL     OW17064   5.042   4.328   0.144
 1678SOL    HW117065   5.098   4.266   0.090
 1678SOL    HW217066   5.100   4.392   0.193
 1679SOL     OW17067   9.167   4.385   5.676
 1679SOL    HW117068   9.209   4.434   5.599
 1679SOL    HW217069   9.068   4.379   5.661
 1680SOL     OW17070   0.776   0.813   0.365
 1680SOL    HW117071   0.728   0.725   0.367
 1680SOL    HW217072   0.844   0.815   0.438
 1681SOL     OW17073   4.280   0.675   6.125
 1681SOL    HW117074   4.237   0.683   6.215
 1681SOL    HW217075   4.211   0.682   6.053
 1682SOL     OW17076   0.678   1.731   1.145
 1682SOL    HW117077   0.672   1.785   1.229
 1682SOL    HW217078   0.662   1.634   1.167
 1683SOL     OW17079   3.852   4.954   1.277
 1683SOL    HW117080   3.838   4.913   1.187
 1683SOL    HW217081   3.781   4.923   1.340
 1684SOL     OW17082   1.182   0.622   4.562
 1684SOL    HW117083   1.096   0.673   4.566
 1684SOL    HW217084   1.259   0.687   4.559
 1685SOL     OW17085   1.890   6.934   1.257
 1685SOL    HW117086   1.910   7.023   1.217
 1685SOL    HW217087   1.861   6.946   1.352
 1686SOL     OW17088   3.949   4.565   1.263
 1686SOL    HW117089   3.863   4.518   1.241
 1686SOL    HW217090   3.936   4.622   1.343
 1687SOL     OW17091   3.051   7.635   0.765
 1687SOL    HW117092   3.129   7.691   0.734
 1687SOL    HW217093   3.064   7.541   0.734
 1688SOL     OW17094   3.601   3.970   0.921
 1688SOL    HW117095   3.664   3.898   0.948
 1688SOL    HW217096   3.507   3.939   0.934
 1689SOL     OW17097   0.565   1.144   1.486
 1689SOL    HW117098   0.603   1.068   1.434
 1689SOL    HW217099   0.487   1.111   1.540
 1690SOL     OW17100   3.516   3.477   6.680
 1690SOL    HW117101   3.425   3.511   6.702
 1690SOL    HW217102   3.583   3.549   6.697
 1691SOL     OW17103   5.579   2.311   0.902
 1691SOL    HW117104   5.576   2.376   0.826
 1691SOL    HW217105   5.486   2.285   0.928
 1692SOL     OW17106   3.780   7.809   6.024
 1692SOL    HW117107   3.698   7.752   6.019
 1692SOL    HW217108   3.765   7.882   6.091
 1693SOL     OW17109   6.605   7.256   6.673
 1693SOL    HW117110   6.526   7.204   6.643
 1693SOL    HW217111   6.689   7.213   6.639
 1694SOL     OW17112   3.353   4.912   5.914
 1694SOL    HW117113   3.427   4.848   5.895
 1694SOL    HW217114   3.275   4.864   5.954
 1695SOL     OW17115   0.443   2.823   5.592
 1695SOL    HW117116   0.450   2.831   5.493
 1695SOL    HW217117   0.497   2.895   5.635
 1696SOL     OW17118   4.156   3.959   0.734
 1696SOL    HW117119   4.202   3.872   0.713
 1696SOL    HW217120   4.094   3.982   0.660
 1697SOL     OW17121   9.566   6.697   5.094
 1697SOL    HW117122   9.556   6.634   5.171
 1697SOL    HW217123   9.611   6.649   5.018
 1698SOL     OW17124   0.829   8.265   6.559
 1698SOL    HW117125   0.780   8.179   6.541
 1698SOL    HW217126   0.879   8.256   6.645
 1699SOL     OW17127   3.675  -0.033   0.797
 1699SOL    HW117128   3.744   0.034   0.824
 1699SOL    HW217129   3.719  -0.110   0.752
 1700SOL     OW17130   2.040   0.170   0.433
 1700SOL    HW117131   2.023   0.258   0.388
 1700SOL    HW217132   2.117   0.124   0.389
 1701SOL     OW17133   5.670   2.815   1.159
 1701SOL    HW117134   5.642   2.823   1.254
 1701SOL    HW217135   5.738   2.885   1.138
 1702SOL     OW17136   4.761   6.406   0.263
 1702SOL    HW117137   4.778   6.363   0.352
 1702SOL    HW217138   4.820   6.487   0.254
 1703SOL     OW17139   5.851   0.764   1.577
 1703SOL    HW117140   5.943   0.801   1.565
 1703SOL    HW217141   5.854   0.664   1.578
 1704SOL     OW17142   6.843   2.276   6.482
 1704SOL    HW117143   6.834   2.360   6.535
 1704SOL    HW217144   6.870   2.299   6.388
 1705SOL     OW17145   8.937   3.217   6.179
 1705SOL    HW117146   8.879   3.142   6.148
 1705SOL    HW217147   8.887   3.275   6.244
 1706SOL     OW17148   2.272   3.110   6.644
 1706SOL    HW117149   2.274   3.010   6.634
 1706SOL    HW217150   2.349   3.150   6.596
 1707SOL     OW17151   4.228   0.004   6.442
 1707SOL    HW117152   4.137   0.006   6.483
 1707SOL    HW217153   4.236  -0.076   6.383
 1708SOL     OW17154   7.401   3.718   0.526
 1708SOL    HW117155   7.483   3.771   0.503
 1708SOL    HW217156   7.334   3.778   0.571
 1709SOL     OW17157   4.347   6.745   1.395
 1709SOL    HW117158   4.429   6.736   1.338
 1709SOL    HW217159   4.290   6.818   1.359
 1710SOL     OW17160   1.953   2.574   6.542
 1710SOL    HW117161   2.015   2.527   6.604
 1710SOL    HW217162   1.897   2.640   6.593
 1711SOL     OW17163   0.606   7.662   6.157
 1711SOL    HW117164   0.675   7.725   6.194
 1711SOL    HW217165   0.590   7.682   6.061
 1712SOL     OW17166   3.234   7.940   6.380
 1712SOL    HW117167   3.274   7.853   6.408
 1712SOL    HW217168   3.152   7.923   6.326
 1713SOL     OW17169   6.269   8.285   5.448
 1713SOL    HW117170   6.366   8.308   5.463
 1713SOL    HW217171   6.254   8.270   5.350
 1714SOL     OW17172   2.596   2.599   0.534
 1714SOL    HW117173   2.646   2.684   0.517
 1714SOL    HW217174   2.660   2.527   0.559
 1715SOL     OW17175   3.763   0.871   5.721
 1715SOL    HW117176   3.682   0.886   5.665
 1715SOL    HW217177   3.735   0.841   5.812
 1716SOL     OW17178   1.575   5.034   5.993
 1716SOL    HW117179   1.490   5.023   5.941
 1716SOL    HW217180   1.653   5.006   5.937
 1717SOL     OW17181   6.727   2.052   0.928
 1717SOL    HW117182   6.782   2.134   0.916
 1717SOL    HW217183   6.670   2.037   0.847
 1718SOL     OW17184   2.725   1.822   5.858
 1718SOL    HW117185   2.794   1.760   5.894
 1718SOL    HW217186   2.722   1.814   5.759
 1719SOL     OW17187   7.099   6.982   6.497
 1719SOL    HW117188   7.095   7.072   6.542
 1719SOL    HW217189   7.023   6.974   6.433
 1720SOL     OW17190   7.616   0.365   5.858
 1720SOL    HW117191   7.686   0.437   5.866
 1720SOL    HW217192   7.534   0.393   5.908
 1721SOL     OW17193   9.455   7.921   6.725
 1721SOL    HW117194   9.460   7.955   6.819
 1721SOL    HW217195   9.455   7.999   6.662
 1722SOL     OW17196   0.341   0.695   6.116
 1722SOL    HW117197   0.292   0.723   6.198
 1722SOL    HW217198   0.425   0.749   6.107
 1723SOL     OW17199   1.615   2.958   6.097
 1723SOL    HW117200   1.651   3.040   6.053
 1723SOL    HW217201   1.685   2.886   6.094
 1724SOL     OW17202   4.023   8.018   0.809
 1724SOL    HW117203   4.080   8.064   0.740
 1724SOL    HW217204   3.927   8.020   0.779
 1725SOL     OW17205   0.482   5.974   6.208
 1725SOL    HW117206   0.417   5.900   6.193
 1725SOL    HW217207   0.561   5.939   6.259
 1726SOL     OW17208   3.406   5.374   6.077
 1726SOL    HW117209   3.482   5.435   6.058
 1726SOL    HW217210   3.407   5.297   6.013
 1727SOL     OW17211   5.626   4.815   1.768
 1727SOL    HW117212   5.643   4.827   1.866
 1727SOL    HW217213   5.529   4.830   1.748
 1728SOL     OW17214   5.806   8.426   0.643
 1728SOL    HW117215   5.718   8.459   0.608
 1728SOL    HW217216   5.863   8.398   0.566
 1729SOL     OW17217   0.798   6.766   6.296
 1729SOL    HW117218   0.813   6.747   6.199
 1729SOL    HW217219   0.701   6.777   6.314
 1730SOL     OW17220   6.516   5.058   4.839
 1730SOL    HW117221   6.608   5.020   4.842
 1730SOL    HW217222   6.449   4.984   4.835
 1731SOL     OW17223   4.076   1.459   2.097
 1731SOL    HW117224   4.061   1.375   2.045
 1731SOL    HW217225   4.066   1.440   2.194
 1732SOL     OW17226   5.680   8.117   0.665
 1732SOL    HW117227   5.583   8.100   0.683
 1732SOL    HW217228   5.713   8.188   0.728
 1733SOL     OW17229   4.328   6.929   5.128
 1733SOL    HW117230   4.333   7.025   5.101
 1733SOL    HW217231   4.236   6.894   5.110
 1734SOL     OW17232   0.964   7.760   5.770
 1734SOL    HW117233   0.962   7.757   5.870
 1734SOL    HW217234   0.871   7.759   5.734
 1735SOL     OW17235   0.592   3.240   6.761
 1735SOL    HW117236   0.536   3.323   6.770
 1735SOL    HW217237   0.582   3.185   6.844
 1736SOL     OW17238   8.106   7.434   6.286
 1736SOL    HW117239   8.076   7.467   6.196
 1736SOL    HW217240   8.052   7.354   6.311
 1737SOL     OW17241   4.974   2.684   0.959
 1737SOL    HW117242   5.000   2.731   0.875
 1737SOL    HW217243   4.880   2.649   0.950
 1738SOL     OW17244   3.723   6.989   0.151
 1738SOL    HW117245   3.700   6.986   0.248
 1738SOL    HW217246   3.817   7.020   0.139
 1739SOL     OW17247   9.594   4.016   0.998
 1739SOL    HW117248   9.580   4.029   1.096
 1739SOL    HW217249   9.505   4.002   0.954
 1740SOL     OW17250   5.979   1.041   6.401
 1740SOL    HW117251   6.018   1.008   6.487
 1740SOL    HW217252   5.952   1.137   6.411
 1741SOL     OW17253   3.481   0.762   0.170
 1741SOL    HW117254   3.528   0.677   0.190
 1741SOL    HW217255   3.513   0.798   0.082
 1742SOL     OW17256   4.763   8.355   0.727
 1742SOL    HW117257   4.801   8.313   0.810
 1742SOL    HW217258   4.812   8.320   0.647
 1743SOL     OW17259   7.229   8.050   5.340
 1743SOL    HW117260   7.314   8.096   5.314
 1743SOL    HW217261   7.167   8.115   5.382
 1744SOL     OW17262   6.346   6.372   5.552
 1744SOL    HW117263   6.289   6.290   5.557
 1744SOL    HW217264   6.346   6.408   5.459
 1745SOL     OW17265   5.949   1.627   1.734
 1745SOL    HW117266   5.944   1.530   1.757
 1745SOL    HW217267   5.882   1.677   1.789
 1746SOL     OW17268   5.912   0.150   0.376
 1746SOL    HW117269   5.820   0.164   0.413
 1746SOL    HW217270   5.968   0.230   0.398
 1747SOL     OW17271   2.461   3.743   1.110
 1747SOL    HW117272   2.488   3.813   1.175
 1747SOL    HW217273   2.411   3.785   1.034
 1748SOL     OW17274   7.560   6.088   0.279
 1748SOL    HW117275   7.635   6.023   0.283
 1748SOL    HW217276   7.571   6.147   0.199
 1749SOL     OW17277   6.613   1.050   2.090
 1749SOL    HW117278   6.613   0.982   2.164
 1749SOL    HW217279   6.627   1.004   2.002
 1750SOL     OW17280   7.815   6.319   0.375
 1750SOL    HW117281   7.768   6.352   0.457
 1750SOL    HW217282   7.859   6.396   0.328
 1751SOL     OW17283   9.217   0.891   0.240
 1751SOL    HW117284   9.288   0.835   0.282
 1751SOL    HW217285   9.204   0.864   0.145
 1752SOL     OW17286   6.104   0.142   4.965
 1752SOL    HW117287   6.147   0.123   5.053
 1752SOL    HW217288   6.152   0.218   4.921
 1753SOL     OW17289   1.108   7.501   5.737
 1753SOL    HW117290   1.035   7.562   5.770
 1753SOL    HW217291   1.123   7.517   5.640
 1754SOL     OW17292   9.108   4.994   0.275
 1754SOL    HW117293   9.098   5.087   0.240
 1754SOL    HW217294   9.029   4.971   0.332
 1755SOL     OW17295   5.448   3.779   6.490
 1755SOL    HW117296   5.423   3.863   6.540
 1755SOL    HW217297   5.509   3.724   6.547
 1756SOL     OW17298   9.295   4.748   6.696
 1756SOL    HW117299   9.226   4.814   6.670
 1756SOL    HW217300   9.378   4.795   6.725
 1757SOL     OW17301   5.412   2.655   0.582
 1757SOL    HW117302   5.355   2.664   0.501
 1757SOL    HW217303   5.431   2.746   0.620
 1758SOL     OW17304   6.049   1.346   2.133
 1758SOL    HW117305   6.087   1.277   2.071
 1758SOL    HW217306   6.088   1.435   2.109
 1759SOL     OW17307   0.228   6.977   1.406
 1759SOL    HW117308   0.177   6.908   1.458
 1759SOL    HW217309   0.211   6.964   1.309
 1760SOL     OW17310   5.468   2.998   0.362
 1760SOL    HW117311   5.503   3.092   0.360
 1760SOL    HW217312   5.545   2.935   0.365
 1761SOL     OW17313   9.199   4.402   6.262
 1761SOL    HW117314   9.225   4.352   6.180
 1761SOL    HW217315   9.251   4.487   6.267
 1762SOL     OW17316   3.954   6.302   2.420
 1762SOL    HW117317   3.938   6.400   2.432
 1762SOL    HW217318   3.874   6.251   2.451
 1763SOL     OW17319   8.628   2.825   6.594
 1763SOL    HW117320   8.589   2.846   6.683
 1763SOL    HW217321   8.619   2.728   6.575
 1764SOL     OW17322   5.827   2.831   6.036
 1764SOL    HW117323   5.846   2.768   6.111
 1764SOL    HW217324   5.777   2.910   6.072
 1765SOL     OW17325   8.654   1.033   6.597
 1765SOL    HW117326   8.618   0.969   6.664
 1765SOL    HW217327   8.627   1.004   6.505
 1766SOL     OW17328   0.358   0.085   5.902
 1766SOL    HW117329   0.422   0.069   5.978
 1766SOL    HW217330   0.398   0.151   5.839
 1767SOL     OW17331   6.169   2.662   6.175
 1767SOL    HW117332   6.143   2.602   6.099
 1767SOL    HW217333   6.232   2.613   6.236
 1768SOL     OW17334   4.943   5.249   0.895
 1768SOL    HW117335   4.925   5.188   0.818
 1768SOL    HW217336   4.938   5.344   0.863
 1769SOL     OW17337   0.498   5.749   5.492
 1769SOL    HW117338   0.525   5.674   5.432
 1769SOL    HW217339   0.549   5.832   5.468
 1770SOL     OW17340   6.274   1.047   0.670
 1770SOL    HW117341   6.216   1.018   0.594
 1770SOL    HW217342   6.296   1.145   0.660
 1771SOL     OW17343   1.137   5.598   6.355
 1771SOL    HW117344   1.205   5.633   6.420
 1771SOL    HW217345   1.160   5.629   6.263
 1772SOL     OW17346   7.668   1.242   0.970
 1772SOL    HW117347   7.608   1.252   1.050
 1772SOL    HW217348   7.755   1.202   0.998
 1773SOL     OW17349   6.639   4.853   6.547
 1773SOL    HW117350   6.618   4.946   6.517
 1773SOL    HW217351   6.594   4.835   6.634
 1774SOL     OW17352   5.433   1.439   0.399
 1774SOL    HW117353   5.437   1.502   0.322
 1774SOL    HW217354   5.491   1.360   0.381
 1775SOL     OW17355   8.135   6.556   6.512
 1775SOL    HW117356   8.186   6.514   6.437
 1775SOL    HW217357   8.054   6.602   6.475
 1776SOL     OW17358   3.760   7.808   1.049
 1776SOL    HW117359   3.699   7.865   1.103
 1776SOL    HW217360   3.847   7.797   1.097
 1777SOL     OW17361   0.548   3.749   6.229
 1777SOL    HW117362   0.576   3.719   6.138
 1777SOL    HW217363   0.600   3.699   6.298
 1778SOL     OW17364   1.072   6.514   5.724
 1778SOL    HW117365   1.035   6.606   5.739
 1778SOL    HW217366   1.165   6.521   5.687
 1779SOL     OW17367   3.102   6.081   1.208
 1779SOL    HW117368   3.044   6.106   1.286
 1779SOL    HW217369   3.063   6.117   1.124
 1780SOL     OW17370   0.765   2.779   6.537
 1780SOL    HW117371   0.693   2.784   6.607
 1780SOL    HW217372   0.807   2.689   6.539
 1781SOL     OW17373   2.640   6.761   0.612
 1781SOL    HW117374   2.719   6.729   0.666
 1781SOL    HW217375   2.615   6.853   0.641
 1782SOL     OW17376   5.543   1.808   6.617
 1782SOL    HW117377   5.637   1.814   6.583
 1782SOL    HW217378   5.484   1.771   6.545
 1783SOL     OW17379   0.558   5.862   0.334
 1783SOL    HW117380   0.559   5.767   0.301
 1783SOL    HW217381   0.576   5.863   0.432
 1784SOL     OW17382   3.890   1.588   1.466
 1784SOL    HW117383   3.972   1.620   1.419
 1784SOL    HW217384   3.915   1.523   1.538
 1785SOL     OW17385   9.190   8.357   6.732
 1785SOL    HW117386   9.192   8.351   6.831
 1785SOL    HW217387   9.204   8.452   6.703
 1786SOL     OW17388   0.234   7.849   0.132
 1786SOL    HW117389   0.180   7.900   0.065
 1786SOL    HW217390   0.247   7.755   0.101
 1787SOL     OW17391   0.119   1.887   6.605
 1787SOL    HW117392   0.208   1.841   6.599
 1787SOL    HW217393   0.063   1.843   6.676
 1788SOL     OW17394   4.910   1.178   1.373
 1788SOL    HW117395   4.899   1.080   1.355
 1788SOL    HW217396   4.980   1.191   1.443
 1789SOL     OW17397   2.770   3.187   0.593
 1789SOL    HW117398   2.861   3.204   0.556
 1789SOL    HW217399   2.730   3.273   0.625
 1790SOL     OW17400   2.070   1.465   1.042
 1790SOL    HW117401   2.057   1.374   1.004
 1790SOL    HW217402   2.167   1.483   1.055
 1791SOL     OW17403   6.713   8.265   6.415
 1791SOL    HW117404   6.799   8.228   6.449
 1791SOL    HW217405   6.678   8.205   6.342
 1792SOL     OW17406   3.518   3.537   6.415
 1792SOL    HW117407   3.514   3.519   6.513
 1792SOL    HW217408   3.611   3.524   6.383
 1793SOL     OW17409   8.005   5.024   5.406
 1793SOL    HW117410   7.994   5.087   5.483
 1793SOL    HW217411   7.975   4.932   5.433
 1794SOL     OW17412   0.120   6.733   0.332
 1794SOL    HW117413   0.138   6.821   0.377
 1794SOL    HW217414   0.109   6.747   0.234
 1795SOL     OW17415   4.632   4.601   6.043
 1795SOL    HW117416   4.601   4.647   6.127
 1795SOL    HW217417   4.573   4.523   6.025
 1796SOL     OW17418   3.763   1.335   0.399
 1796SOL    HW117419   3.780   1.318   0.496
 1796SOL    HW217420   3.682   1.392   0.388
 1797SOL     OW17421   3.943   7.422   6.849
 1797SOL    HW117422   4.006   7.482   6.899
 1797SOL    HW217423   3.977   7.328   6.853
 1798SOL     OW17424   2.083   0.775   1.124
 1798SOL    HW117425   2.045   0.767   1.032
 1798SOL    HW217426   2.082   0.871   1.152
 1799SOL     OW17427   0.386   6.080   5.711
 1799SOL    HW117428   0.301   6.041   5.747
 1799SOL    HW217429   0.450   6.095   5.786
 1800SOL     OW17430   2.043   5.411   6.696
 1800SOL    HW117431   1.957   5.408   6.645
 1800SOL    HW217432   2.028   5.456   6.784
 1801SOL     OW17433   1.855   5.003   6.776
 1801SOL    HW117434   1.810   5.074   6.723
 1801SOL    HW217435   1.948   5.033   6.799
 1802SOL     OW17436   0.957   6.101   0.144
 1802SOL    HW117437   1.005   6.080   0.059
 1802SOL    HW217438   0.859   6.102   0.127
 1803SOL     OW17439   7.326  -0.045   5.664
 1803SOL    HW117440   7.298  -0.044   5.568
 1803SOL    HW217441   7.272   0.023   5.715
 1804SOL     OW17442   2.693   2.119   1.141
 1804SOL    HW117443   2.766   2.176   1.177
 1804SOL    HW217444   2.722   2.023   1.143
 1805SOL     OW17445   3.550   1.609   0.149
 1805SOL    HW117446   3.549   1.518   0.106
 1805SOL    HW217447   3.585   1.676   0.083
 1806SOL     OW17448   0.872   5.983   0.774
 1806SOL    HW117449   0.929   6.049   0.724
 1806SOL    HW217450   0.909   5.891   0.760
 1807SOL     OW17451   3.688   5.872   1.242
 1807SOL    HW117452   3.606   5.902   1.193
 1807SOL    HW217453   3.700   5.774   1.229
 1808SOL     OW17454   5.441   2.002   5.884
 1808SOL    HW117455   5.529   2.034   5.919
 1808SOL    HW217456   5.409   2.065   5.813
 1809SOL     OW17457   4.265   7.558   6.435
 1809SOL    HW117458   4.278   7.583   6.530
 1809SOL    HW217459   4.186   7.497   6.427
 1810SOL     OW17460   4.290   5.515   5.352
 1810SOL    HW117461   4.222   5.582   5.323
 1810SOL    HW217462   4.335   5.477   5.271
 1811SOL     OW17463   6.514   1.541   0.795
 1811SOL    HW117464   6.533   1.625   0.846
 1811SOL    HW217465   6.530   1.462   0.854
 1812SOL     OW17466   1.392   2.025   0.723
 1812SOL    HW117467   1.433   1.955   0.781
 1812SOL    HW217468   1.358   1.983   0.639
 1813SOL     OW17469   7.530   6.236   1.246
 1813SOL    HW117470   7.554   6.230   1.343
 1813SOL    HW217471   7.439   6.276   1.236
 1814SOL     OW17472   1.484   7.012   6.465
 1814SOL    HW117473   1.584   7.006   6.459
 1814SOL    HW217474   1.459   7.073   6.540
 1815SOL     OW17475   9.540   8.357   0.221
 1815SOL    HW117476   9.466   8.400   0.169
 1815SOL    HW217477   9.626   8.370   0.172
 1816SOL     OW17478   6.355   5.149   0.405
 1816SOL    HW117479   6.433   5.142   0.344
 1816SOL    HW217480   6.275   5.181   0.354
 1817SOL     OW17481   8.003   7.371   5.373
 1817SOL    HW117482   8.077   7.430   5.341
 1817SOL    HW217483   7.929   7.428   5.409
 1818SOL     OW17484   2.617   2.969   0.613
 1818SOL    HW117485   2.647   2.916   0.534
 1818SOL    HW217486   2.680   3.046   0.627
 1819SOL     OW17487   3.566   1.090   0.757
 1819SOL    HW117488   3.637   1.107   0.688
 1819SOL    HW217489   3.609   1.072   0.845
 1820SOL     OW17490   7.873   0.547   4.978
 1820SOL    HW117491   7.808   0.606   4.930
 1820SOL    HW217492   7.966   0.575   4.957
 1821SOL     OW17493   7.137   0.665   5.739
 1821SOL    HW117494   7.136   0.765   5.728
 1821SOL    HW217495   7.231   0.633   5.743
 1822SOL     OW17496   4.235   5.844   6.396
 1822SOL    HW117497   4.266   5.771   6.335
 1822SOL    HW217498   4.302   5.855   6.470
 1823SOL     OW17499   1.039   1.266   0.808
 1823SOL    HW117500   0.951   1.284   0.763
 1823SOL    HW217501   1.045   1.169   0.832
 1824SOL     OW17502   4.204   7.909   2.295
 1824SOL    HW117503   4.162   7.901   2.385
 1824SOL    HW217504   4.153   7.974   2.239
 1825SOL     OW17505   5.542   6.226   1.670
 1825SOL    HW117506   5.573   6.296   1.735
 1825SOL    HW217507   5.603   6.226   1.590
 1826SOL     OW17508   7.088   8.296   5.283
 1826SOL    HW117509   7.012   8.358   5.266
 1826SOL    HW217510   7.110   8.247   5.198
 1827SOL     OW17511   4.661   0.516   0.668
 1827SOL    HW117512   4.628   0.443   0.728
 1827SOL    HW217513   4.668   0.601   0.721
 1828SOL     OW17514   0.705   7.355   0.896
 1828SOL    HW117515   0.740   7.279   0.842
 1828SOL    HW217516   0.606   7.345   0.907
 1829SOL     OW17517   4.698   4.097   6.032
 1829SOL    HW117518   4.695   4.026   6.102
 1829SOL    HW217519   4.613   4.094   5.978
 1830SOL     OW17520   6.070   5.441   1.102
 1830SOL    HW117521   6.001   5.483   1.042
 1830SOL    HW217522   6.042   5.452   1.197
 1831SOL     OW17523   9.420   7.816   5.104
 1831SOL    HW117524   9.370   7.808   5.018
 1831SOL    HW217525   9.480   7.896   5.100
 1832SOL     OW17526   1.230   6.128   5.660
 1832SOL    HW117527   1.190   6.107   5.749
 1832SOL    HW217528   1.303   6.196   5.671
 1833SOL     OW17529   5.907   8.368   0.379
 1833SOL    HW117530   5.908   8.467   0.363
 1833SOL    HW217531   5.932   8.320   0.295
 1834SOL     OW17532   4.934   4.269   6.241
 1834SOL    HW117533   4.980   4.186   6.274
 1834SOL    HW217534   4.844   4.245   6.206
 1835SOL     OW17535   0.564   8.186   0.553
 1835SOL    HW117536   0.609   8.140   0.476
 1835SOL    HW217537   0.607   8.156   0.638
 1836SOL     OW17538   7.947   4.363   6.416
 1836SOL    HW117539   8.002   4.421   6.357
 1836SOL    HW217540   7.851   4.391   6.410
 1837SOL     OW17541   3.821   6.239   0.867
 1837SOL    HW117542   3.741   6.260   0.923
 1837SOL    HW217543   3.878   6.172   0.914
 1838SOL     OW17544   2.315   4.680   0.426
 1838SOL    HW117545   2.270   4.621   0.493
 1838SOL    HW217546   2.407   4.645   0.407
 1839SOL     OW17547   5.344   8.227   0.982
 1839SOL    HW117548   5.277   8.223   0.908
 1839SOL    HW217549   5.427   8.177   0.956
 1840SOL     OW17550   6.815   3.094   6.678
 1840SOL    HW117551   6.735   3.081   6.736
 1840SOL    HW217552   6.898   3.082   6.734
 1841SOL     OW17553   0.653   6.694   4.584
 1841SOL    HW117554   0.734   6.636   4.597
 1841SOL    HW217555   0.575   6.637   4.560
 1842SOL     OW17556   0.945   6.483   0.521
 1842SOL    HW117557   0.887   6.557   0.486
 1842SOL    HW217558   1.025   6.522   0.566
 1843SOL     OW17559   2.974   4.162   0.137
 1843SOL    HW117560   2.905   4.234   0.142
 1843SOL    HW217561   2.980   4.127   0.043
 1844SOL     OW17562   1.361   2.393   6.013
 1844SOL    HW117563   1.340   2.476   6.064
 1844SOL    HW217564   1.446   2.406   5.961
 1845SOL     OW17565   5.672   5.520   6.457
 1845SOL    HW117566   5.683   5.513   6.358
 1845SOL    HW217567   5.658   5.429   6.496
 1846SOL     OW17568   3.390   3.145   0.382
 1846SOL    HW117569   3.487   3.133   0.358
 1846SOL    HW217570   3.335   3.135   0.299
 1847SOL     OW17571   0.290   8.141   0.504
 1847SOL    HW117572   0.311   8.154   0.407
 1847SOL    HW217573   0.225   8.065   0.515
 1848SOL     OW17574   4.899   6.042   6.006
 1848SOL    HW117575   4.886   6.064   5.909
 1848SOL    HW217576   4.972   6.100   6.043
 1849SOL     OW17577   1.475   6.162   1.458
 1849SOL    HW117578   1.399   6.220   1.427
 1849SOL    HW217579   1.473   6.075   1.408
 1850SOL     OW17580   2.778   4.197   0.742
 1850SOL    HW117581   2.772   4.186   0.841
 1850SOL    HW217582   2.790   4.108   0.699
 1851SOL     OW17583   9.124   2.189   5.451
 1851SOL    HW117584   9.119   2.289   5.447
 1851SOL    HW217585   9.146   2.160   5.544
 1852SOL     OW17586   1.589   5.796   0.557
 1852SOL    HW117587   1.618   5.762   0.468
 1852SOL    HW217588   1.495   5.769   0.575
 1853SOL     OW17589   9.435   3.476   1.055
 1853SOL    HW117590   9.363   3.426   1.104
 1853SOL    HW217591   9.413   3.573   1.054
 1854SOL     OW17592   3.750   2.415   6.463
 1854SOL    HW117593   3.768   2.508   6.496
 1854SOL    HW217594   3.826   2.384   6.406
 1855SOL     OW17595   3.267   4.996   0.789
 1855SOL    HW117596   3.287   4.898   0.795
 1855SOL    HW217597   3.184   5.016   0.841
 1856SOL     OW17598   2.885   7.927   6.390
 1856SOL    HW117599   2.810   7.863   6.376
 1856SOL    HW217600   2.880   7.963   6.483
 1857SOL     OW17601   7.899   3.839   0.567
 1857SOL    HW117602   7.913   3.919   0.510
 1857SOL    HW217603   7.801   3.820   0.576
 1858SOL     OW17604   0.391   0.686   6.457
 1858SOL    HW117605   0.432   0.650   6.541
 1858SOL    HW217606   0.459   0.684   6.384
 1859SOL     OW17607   3.608   1.374   6.758
 1859SOL    HW117608   3.694   1.402   6.715
 1859SOL    HW217609   3.616   1.279   6.788
 1860SOL     OW17610   7.670   7.997   6.654
 1860SOL    HW117611   7.643   7.901   6.663
 1860SOL    HW217612   7.609   8.055   6.708
 1861SOL     OW17613   2.657   0.584   0.257
 1861SOL    HW117614   2.703   0.640   0.327
 1861SOL    HW217615   2.725   0.543   0.197
 1862SOL     OW17616   5.246   5.811   6.489
 1862SOL    HW117617   5.212   5.891   6.538
 1862SOL    HW217618   5.192   5.731   6.514
 1863SOL     OW17619   8.670   6.466   5.031
 1863SOL    HW117620   8.665   6.378   4.984
 1863SOL    HW217621   8.614   6.533   4.982
 1864SOL     OW17622   9.432   0.517   5.683
 1864SOL    HW117623   9.504   0.517   5.615
 1864SOL    HW217624   9.343   0.531   5.639
 1865SOL     OW17625   8.621   0.894   0.753
 1865SOL    HW117626   8.691   0.890   0.825
 1865SOL    HW217627   8.540   0.941   0.788
 1866SOL     OW17628   8.490   6.581   0.670
 1866SOL    HW117629   8.560   6.614   0.734
 1866SOL    HW217630   8.422   6.653   0.656
 1867SOL     OW17631   6.966   5.874   6.023
 1867SOL    HW117632   6.985   5.923   5.938
 1867SOL    HW217633   6.867   5.868   6.038
 1868SOL     OW17634   6.596   6.379   1.254
 1868SOL    HW117635   6.539   6.458   1.232
 1868SOL    HW217636   6.581   6.352   1.349
 1869SOL     OW17637   2.677   8.231   6.429
 1869SOL    HW117638   2.616   8.198   6.500
 1869SOL    HW217639   2.768   8.249   6.468
 1870SOL     OW17640   7.762   1.926   6.712
 1870SOL    HW117641   7.803   1.842   6.676
 1870SOL    HW217642   7.819   2.004   6.686
 1871SOL     OW17643   0.805   7.426   5.045
 1871SOL    HW117644   0.743   7.363   5.090
 1871SOL    HW217645   0.849   7.485   5.113
 1872SOL     OW17646   4.293   2.403   0.343
 1872SOL    HW117647   4.207   2.448   0.321
 1872SOL    HW217648   4.352   2.467   0.393
 1873SOL     OW17649   4.662   5.187   0.221
 1873SOL    HW117650   4.579   5.163   0.272
 1873SOL    HW217651   4.682   5.115   0.154
 1874SOL     OW17652   0.430   2.079   6.432
 1874SOL    HW117653   0.408   2.020   6.355
 1874SOL    HW217654   0.519   2.122   6.416
 1875SOL     OW17655   1.128   6.786   0.569
 1875SOL    HW117656   1.133   6.696   0.611
 1875SOL    HW217657   1.204   6.842   0.602
 1876SOL     OW17658   1.603   0.080   0.833
 1876SOL    HW117659   1.635   0.054   0.924
 1876SOL    HW217660   1.682   0.092   0.772
 1877SOL     OW17661   2.582   5.427   0.730
 1877SOL    HW117662   2.669   5.381   0.712
 1877SOL    HW217663   2.533   5.440   0.644
 1878SOL     OW17664   1.371   3.057   5.541
 1878SOL    HW117665   1.392   3.077   5.445
 1878SOL    HW217666   1.431   3.112   5.599
 1879SOL     OW17667   2.980   8.319   6.563
 1879SOL    HW117668   2.899   8.354   6.610
 1879SOL    HW217669   3.022   8.393   6.510
 1880SOL     OW17670   0.378   6.808   6.797
 1880SOL    HW117671   0.392   6.749   6.877
 1880SOL    HW217672   0.280   6.814   6.777
 1881SOL     OW17673   2.759   5.096   6.260
 1881SOL    HW117674   2.674   5.066   6.303
 1881SOL    HW217675   2.761   5.195   6.253
 1882SOL     OW17676   7.714   6.041   5.288
 1882SOL    HW117677   7.649   6.114   5.305
 1882SOL    HW217678   7.773   6.065   5.211
 1883SOL     OW17679   4.282   0.069   1.585
 1883SOL    HW117680   4.249  -0.023   1.566
 1883SOL    HW217681   4.334   0.069   1.670
 1884SOL     OW17682   4.273   5.087   0.916
 1884SOL    HW117683   4.331   5.056   0.841
 1884SOL    HW217684   4.221   5.167   0.886
 1885SOL     OW17685   1.173   3.728   5.034
 1885SOL    HW117686   1.201   3.813   4.988
 1885SOL    HW217687   1.158   3.657   4.965
 1886SOL     OW17688   1.416   5.591   5.400
 1886SOL    HW117689   1.369   5.669   5.440
 1886SOL    HW217690   1.402   5.592   5.300
 1887SOL     OW17691   8.448   1.113   5.582
 1887SOL    HW117692   8.500   1.069   5.509
 1887SOL    HW217693   8.450   1.212   5.570
 1888SOL     OW17694   4.638   4.855   5.756
 1888SOL    HW117695   4.719   4.799   5.737
 1888SOL    HW217696   4.559   4.815   5.709
 1889SOL     OW17697   6.646   6.115   5.977
 1889SOL    HW117698   6.656   6.020   5.947
 1889SOL    HW217699   6.700   6.175   5.918
 1890SOL     OW17700   0.697   8.105   0.760
 1890SOL    HW117701   0.636   8.132   0.835
 1890SOL    HW217702   0.782   8.069   0.798
 1891SOL     OW17703   2.288   0.491   1.498
 1891SOL    HW117704   2.287   0.580   1.543
 1891SOL    HW217705   2.200   0.446   1.510
 1892SOL     OW17706   4.586   4.743   6.632
 1892SOL    HW117707   4.525   4.787   6.566
 1892SOL    HW217708   4.677   4.733   6.592
 1893SOL     OW17709   1.714   4.154   5.621
 1893SOL    HW117710   1.680   4.246   5.642
 1893SOL    HW217711   1.779   4.159   5.545
 1894SOL     OW17712   9.026   3.371   1.671
 1894SOL    HW117713   9.113   3.323   1.683
 1894SOL    HW217714   9.002   3.419   1.756
 1895SOL     OW17715   7.322   6.065   1.373
 1895SOL    HW117716   7.404   6.029   1.330
 1895SOL    HW217717   7.341   6.155   1.411
 1896SOL     OW17718   4.484  -0.060   6.166
 1896SOL    HW117719   4.399  -0.073   6.217
 1896SOL    HW217720   4.485  -0.120   6.086
 1897SOL     OW17721   7.636   5.223   5.101
 1897SOL    HW117722   7.597   5.286   5.034
 1897SOL    HW217723   7.707   5.269   5.154
 1898SOL     OW17724   7.096   3.102   5.589
 1898SOL    HW117725   7.080   3.011   5.550
 1898SOL    HW217726   7.148   3.157   5.524
 1899SOL     OW17727   0.170   3.894   1.468
 1899SOL    HW117728   0.260   3.849   1.474
 1899SOL    HW217729   0.137   3.915   1.559
 1900SOL     OW17730   2.410   5.489   6.152
 1900SOL    HW117731   2.393   5.402   6.198
 1900SOL    HW217732   2.441   5.557   6.219
 1901SOL     OW17733   9.303   3.241   6.176
 1901SOL    HW117734   9.374   3.181   6.213
 1901SOL    HW217735   9.280   3.211   6.083
 1902SOL     OW17736   2.847   4.570   6.779
 1902SOL    HW117737   2.890   4.568   6.689
 1902SOL    HW217738   2.799   4.484   6.795
 1903SOL     OW17739   3.685   4.374   1.937
 1903SOL    HW117740   3.593   4.404   1.961
 1903SOL    HW217741   3.725   4.325   2.014
 1904SOL     OW17742   8.701   3.624   6.208
 1904SOL    HW117743   8.627   3.648   6.145
 1904SOL    HW217744   8.691   3.678   6.292
 1905SOL     OW17745   4.937   1.909   6.281
 1905SOL    HW117746   5.037   1.912   6.272
 1905SOL    HW217747   4.913   1.918   6.378
 1906SOL     OW17748   2.468   4.655   1.003
 1906SOL    HW117749   2.541   4.670   0.937
 1906SOL    HW217750   2.398   4.596   0.963
 1907SOL     OW17751   7.541   1.220   1.257
 1907SOL    HW117752   7.549   1.128   1.217
 1907SOL    HW217753   7.522   1.212   1.355
 1908SOL     OW17754   1.932   2.058   0.198
 1908SOL    HW117755   1.930   2.062   0.298
 1908SOL    HW217756   1.852   2.105   0.161
 1909SOL     OW17757   6.251   7.345   5.439
 1909SOL    HW117758   6.164   7.305   5.466
 1909SOL    HW217759   6.257   7.347   5.339
 1910SOL     OW17760   0.620   1.864   5.306
 1910SOL    HW117761   0.699   1.847   5.248
 1910SOL    HW217762   0.549   1.911   5.254
 1911SOL     OW17763   3.710   7.073   1.432
 1911SOL    HW117764   3.619   7.107   1.455
 1911SOL    HW217765   3.772   7.150   1.419
 1912SOL     OW17766   1.106   3.710   5.923
 1912SOL    HW117767   1.181   3.735   5.984
 1912SOL    HW217768   1.036   3.781   5.926
 1913SOL     OW17769   3.787   6.207   1.814
 1913SOL    HW117770   3.701   6.257   1.814
 1913SOL    HW217771   3.769   6.110   1.797
 1914SOL     OW17772   1.493   6.562   4.990
 1914SOL    HW117773   1.586   6.564   5.027
 1914SOL    HW217774   1.487   6.623   4.911
 1915SOL     OW17775   4.136   1.539   0.892
 1915SOL    HW117776   4.086   1.486   0.960
 1915SOL    HW217777   4.102   1.633   0.891
 1916SOL     OW17778   6.051   4.750   6.122
 1916SOL    HW117779   6.023   4.818   6.189
 1916SOL    HW217780   6.148   4.728   6.134
 1917SOL     OW17781   1.502   8.382   1.203
 1917SOL    HW117782   1.456   8.294   1.191
 1917SOL    HW217783   1.434   8.455   1.211
 1918SOL     OW17784   0.753   0.377   0.615
 1918SOL    HW117785   0.765   0.411   0.708
 1918SOL    HW217786   0.667   0.326   0.609
 1919SOL     OW17787   9.527   1.704   0.748
 1919SOL    HW117788   9.432   1.729   0.728
 1919SOL    HW217789   9.567   1.659   0.668
 1920SOL     OW17790   9.238   2.395   6.441
 1920SOL    HW117791   9.288   2.477   6.470
 1920SOL    HW217792   9.199   2.350   6.522
 1921SOL     OW17793   6.251   7.703   0.976
 1921SOL    HW117794   6.317   7.647   1.027
 1921SOL    HW217795   6.184   7.742   1.039
 1922SOL     OW17796   0.141   1.100   6.595
 1922SOL    HW117797   0.192   1.186   6.586
 1922SOL    HW217798   0.201   1.029   6.631
 1923SOL     OW17799   1.032   5.597   5.215
 1923SOL    HW117800   1.054   5.685   5.174
 1923SOL    HW217801   1.038   5.604   5.315
 1924SOL     OW17802   3.658   3.289   6.813
 1924SOL    HW117803   3.677   3.339   6.898
 1924SOL    HW217804   3.586   3.337   6.762
 1925SOL     OW17805   2.637   6.955   5.092
 1925SOL    HW117806   2.597   6.870   5.059
 1925SOL    HW217807   2.636   7.023   5.018
 1926SOL     OW17808   6.814   5.084   0.901
 1926SOL    HW117809   6.862   5.094   0.988
 1926SOL    HW217810   6.718   5.113   0.912
 1927SOL     OW17811   9.465   3.166   0.251
 1927SOL    HW117812   9.430   3.137   0.340
 1927SOL    HW217813   9.478   3.087   0.192
 1928SOL     OW17814   8.092   6.947   0.338
 1928SOL    HW117815   8.006   6.910   0.303
 1928SOL    HW217816   8.075   7.034   0.384
 1929SOL     OW17817   9.495   2.430   1.198
 1929SOL    HW117818   9.536   2.360   1.139
 1929SOL    HW217819   9.440   2.385   1.268
 1930SOL     OW17820   1.522   7.516   0.569
 1930SOL    HW117821   1.504   7.536   0.473
 1930SOL    HW217822   1.580   7.435   0.576
 1931SOL     OW17823   5.931   4.987   1.002
 1931SOL    HW117824   6.002   5.004   0.934
 1931SOL    HW217825   5.870   4.915   0.969
 1932SOL     OW17826   5.152   0.322   6.111
 1932SOL    HW117827   5.143   0.354   6.206
 1932SOL    HW217828   5.063   0.287   6.080
 1933SOL     OW17829   7.813   3.981   6.741
 1933SOL    HW117830   7.755   3.901   6.759
 1933SOL    HW217831   7.755   4.061   6.723
 1934SOL     OW17832   6.452   5.015   6.049
 1934SOL    HW117833   6.524   5.022   5.980
 1934SOL    HW217834   6.487   4.968   6.129
 1935SOL     OW17835   2.285   4.860   6.121
 1935SOL    HW117836   2.253   4.937   6.066
 1935SOL    HW217837   2.378   4.878   6.153
 1936SOL     OW17838   0.461   5.715   6.753
 1936SOL    HW117839   0.497   5.799   6.714
 1936SOL    HW217840   0.377   5.690   6.706
 1937SOL     OW17841   4.385   6.289   2.232
 1937SOL    HW117842   4.436   6.373   2.215
 1937SOL    HW217843   4.401   6.258   2.325
 1938SOL     OW17844   1.112   5.829   6.588
 1938SOL    HW117845   1.205   5.796   6.574
 1938SOL    HW217846   1.089   5.826   6.685
 1939SOL     OW17847   9.139   3.088   1.144
 1939SOL    HW117848   9.231   3.049   1.144
 1939SOL    HW217849   9.121   3.131   1.055
 1940SOL     OW17850   3.144   1.114   0.341
 1940SOL    HW117851   3.076   1.043   0.360
 1940SOL    HW217852   3.099   1.203   0.337
 1941SOL     OW17853   7.398   8.131   5.830
 1941SOL    HW117854   7.340   8.211   5.848
 1941SOL    HW217855   7.348   8.048   5.853
 1942SOL     OW17856   1.240   2.773   0.860
 1942SOL    HW117857   1.299   2.853   0.869
 1942SOL    HW217858   1.231   2.727   0.948
 1943SOL     OW17859   5.726   2.051   6.370
 1943SOL    HW117860   5.813   2.095   6.390
 1943SOL    HW217861   5.652   2.098   6.418
 1944SOL     OW17862   4.795   0.071   1.148
 1944SOL    HW117863   4.886   0.030   1.137
 1944SOL    HW217864   4.794   0.159   1.100
 1945SOL     OW17865   1.819   8.356   5.413
 1945SOL    HW117866   1.725   8.386   5.393
 1945SOL    HW217867   1.847   8.287   5.347
 1946SOL     OW17868   7.140   4.001   1.291
 1946SOL    HW117869   7.074   3.935   1.328
 1946SOL    HW217870   7.097   4.051   1.215
 1947SOL     OW17871   0.212   5.019   0.261
 1947SOL    HW117872   0.287   5.082   0.239
 1947SOL    HW217873   0.131   5.072   0.285
 1948SOL     OW17874   4.100   4.906   1.049
 1948SOL    HW117875   4.119   4.920   1.146
 1948SOL    HW217876   4.165   4.959   0.994
 1949SOL     OW17877   8.219   3.742   5.712
 1949SOL    HW117878   8.177   3.766   5.625
 1949SOL    HW217879   8.149   3.710   5.775
 1950SOL     OW17880   4.577   1.066   1.899
 1950SOL    HW117881   4.544   1.090   1.991
 1950SOL    HW217882   4.577   0.966   1.889
 1951SOL     OW17883   2.587   2.090   6.532
 1951SOL    HW117884   2.497   2.122   6.561
 1951SOL    HW217885   2.585   2.073   6.433
 1952SOL     OW17886   4.545   7.638   1.248
 1952SOL    HW117887   4.516   7.558   1.300
 1952SOL    HW217888   4.512   7.629   1.153
 1953SOL     OW17889   7.051   2.200   0.620
 1953SOL    HW117890   7.105   2.280   0.593
 1953SOL    HW217891   7.106   2.140   0.677
 1954SOL     OW17892   6.769   6.182   6.817
 1954SOL    HW117893   6.745   6.100   6.871
 1954SOL    HW217894   6.763   6.161   6.720
 1955SOL     OW17895   3.471   1.920   6.745
 1955SOL    HW117896   3.391   1.865   6.721
 1955SOL    HW217897   3.545   1.901   6.681
 1956SOL     OW17898   8.211   0.111   5.911
 1956SOL    HW117899   8.193   0.015   5.934
 1956SOL    HW217900   8.221   0.164   5.995
 1957SOL     OW17901   6.642   8.025   6.736
 1957SOL    HW117902   6.636   7.966   6.655
 1957SOL    HW217903   6.620   7.971   6.818
 1958SOL     OW17904   8.449   4.524   5.667
 1958SOL    HW117905   8.392   4.452   5.706
 1958SOL    HW217906   8.399   4.568   5.592
 1959SOL     OW17907   8.334   4.038   6.066
 1959SOL    HW117908   8.383   4.032   5.979
 1959SOL    HW217909   8.294   4.130   6.075
 1960SOL     OW17910   7.060   5.307   6.719
 1960SOL    HW117911   6.968   5.347   6.722
 1960SOL    HW217912   7.057   5.214   6.754
 1961SOL     OW17913   3.447   4.431   0.310
 1961SOL    HW117914   3.419   4.488   0.233
 1961SOL    HW217915   3.529   4.469   0.352
 1962SOL     OW17916   8.817   6.169   4.488
 1962SOL    HW117917   8.908   6.208   4.501
 1962SOL    HW217918   8.760   6.233   4.437
 1963SOL     OW17919   8.907   3.249   0.340
 1963SOL    HW117920   8.962   3.284   0.264
 1963SOL    HW217921   8.824   3.305   0.350
 1964SOL     OW17922   4.061   8.059   0.409
 1964SOL    HW117923   4.096   8.041   0.317
 1964SOL    HW217924   4.055   7.973   0.459
 1965SOL     OW17925   3.929   1.825   6.443
 1965SOL    HW117926   3.862   1.793   6.376
 1965SOL    HW217927   4.009   1.764   6.442
 1966SOL     OW17928   3.368   3.188   5.546
 1966SOL    HW117929   3.348   3.188   5.448
 1966SOL    HW217930   3.446   3.249   5.564
 1967SOL     OW17931   2.976   3.932   0.303
 1967SOL    HW117932   2.932   3.862   0.247
 1967SOL    HW217933   2.970   4.020   0.257
 1968SOL     OW17934   1.515   7.927   1.499
 1968SOL    HW117935   1.478   8.018   1.480
 1968SOL    HW217936   1.593   7.934   1.561
 1969SOL     OW17937   8.856   5.272   0.575
 1969SOL    HW117938   8.793   5.331   0.525
 1969SOL    HW217939   8.926   5.329   0.619
 1970SOL     OW17940   3.471   7.201   0.632
 1970SOL    HW117941   3.441   7.137   0.702
 1970SOL    HW217942   3.393   7.226   0.574
 1971SOL     OW17943   3.689   5.560   1.347
 1971SOL    HW117944   3.636   5.605   1.420
 1971SOL    HW217945   3.780   5.601   1.341
 1972SOL     OW17946   9.417   7.297   0.212
 1972SOL    HW117947   9.509   7.315   0.246
 1972SOL    HW217948   9.376   7.383   0.181
 1973SOL     OW17949   6.342   5.306   5.906
 1973SOL    HW117950   6.354   5.212   5.874
 1973SOL    HW217951   6.403   5.366   5.853
 1974SOL     OW17952   8.282   0.721   0.245
 1974SOL    HW117953   8.201   0.756   0.292
 1974SOL    HW217954   8.364   0.755   0.292
 1975SOL     OW17955   5.009   3.765   0.189
 1975SOL    HW117956   4.939   3.803   0.250
 1975SOL    HW217957   5.052   3.839   0.138
 1976SOL     OW17958   1.470   2.164   5.187
 1976SOL    HW117959   1.381   2.128   5.158
 1976SOL    HW217960   1.531   2.169   5.108
 1977SOL     OW17961   2.404   7.537   0.454
 1977SOL    HW117962   2.366   7.445   0.456
 1977SOL    HW217963   2.365   7.588   0.377
 1978SOL     OW17964   3.004   5.305   6.698
 1978SOL    HW117965   3.033   5.389   6.652
 1978SOL    HW217966   3.071   5.282   6.769
 1979SOL     OW17967   8.995   4.414   6.826
 1979SOL    HW117968   9.093   4.419   6.806
 1979SOL    HW217969   8.944   4.410   6.741
 1980SOL     OW17970   5.783   0.907   5.920
 1980SOL    HW117971   5.772   0.825   5.864
 1980SOL    HW217972   5.789   0.987   5.861
 1981SOL     OW17973   8.172   1.636   0.598
 1981SOL    HW117974   8.179   1.536   0.589
 1981SOL    HW217975   8.264   1.674   0.610
 1982SOL     OW17976   5.083   3.060   1.436
 1982SOL    HW117977   5.040   2.976   1.471
 1982SOL    HW217978   5.159   3.086   1.496
 1983SOL     OW17979   1.637   3.024   5.323
 1983SOL    HW117980   1.542   3.051   5.309
 1983SOL    HW217981   1.687   3.030   5.236
 1984SOL     OW17982   9.545   6.104   4.392
 1984SOL    HW117983   9.545   6.188   4.446
 1984SOL    HW217984   9.508   6.122   4.301
 1985SOL     OW17985   6.497   7.802   0.551
 1985SOL    HW117986   6.401   7.779   0.534
 1985SOL    HW217987   6.508   7.901   0.548
 1986SOL     OW17988   7.997   4.317   0.215
 1986SOL    HW117989   8.038   4.240   0.166
 1986SOL    HW217990   8.069   4.371   0.259
 1987SOL     OW17991   2.320   7.602   4.934
 1987SOL    HW117992   2.374   7.594   4.850
 1987SOL    HW217993   2.229   7.564   4.919
 1988SOL     OW17994   1.272   2.187   0.162
 1988SOL    HW117995   1.322   2.126   0.100
 1988SOL    HW217996   1.219   2.133   0.227
 1989SOL     OW17997   4.528   1.890   1.576
 1989SOL    HW117998   4.586   1.971   1.586
 1989SOL    HW217999   4.500   1.858   1.666
 1990SOL     OW18000   5.067   2.865   0.695
 1990SOL    HW118001   5.119   2.916   0.627
 1990SOL    HW218002   5.121   2.856   0.779
 1991SOL     OW18003   4.531   2.451   6.000
 1991SOL    HW118004   4.627   2.480   5.991
 1991SOL    HW218005   4.501   2.408   5.915
 1992SOL     OW18006   7.876   2.523   6.314
 1992SOL    HW118007   7.817   2.503   6.392
 1992SOL    HW218008   7.962   2.562   6.346
 1993SOL     OW18009   9.346   7.135   0.447
 1993SOL    HW118010   9.350   7.185   0.361
 1993SOL    HW218011   9.438   7.129   0.486
 1994SOL     OW18012   3.995   7.593   5.618
 1994SOL    HW118013   4.051   7.605   5.537
 1994SOL    HW218014   4.031   7.649   5.693
 1995SOL     OW18015   1.043   5.065   6.428
 1995SOL    HW118016   1.097   5.145   6.453
 1995SOL    HW218017   1.097   5.005   6.369
 1996SOL     OW18018   3.779   0.881   1.154
 1996SOL    HW118019   3.693   0.849   1.193
 1996SOL    HW218020   3.761   0.958   1.093
 1997SOL     OW18021   5.778   0.546   0.626
 1997SOL    HW118022   5.707   0.503   0.682
 1997SOL    HW218023   5.770   0.646   0.634
 1998SOL     OW18024   0.256   6.532   6.378
 1998SOL    HW118025   0.351   6.541   6.347
 1998SOL    HW218026   0.233   6.435   6.385
 1999SOL     OW18027   7.561   5.675   0.261
 1999SOL    HW118028   7.465   5.690   0.239
 1999SOL    HW218029   7.587   5.581   0.239
 2000SOL     OW18030   2.140   1.589   6.852
 2000SOL    HW118031   2.174   1.681   6.832
 2000SOL    HW218032   2.145   1.572   6.951
 2001SOL     OW18033   0.972   4.020   0.673
 2001SOL    HW118034   1.045   4.086   0.693
 2001SOL    HW218035   0.891   4.069   0.642
 2002SOL     OW18036   5.594   0.634   1.227
 2002SOL    HW118037   5.675   0.601   1.179
 2002SOL    HW218038   5.551   0.706   1.174
 2003SOL     OW18039   7.373   6.074   5.080
 2003SOL    HW118040   7.303   6.099   5.012
 2003SOL    HW218041   7.458   6.050   5.032
 2004SOL     OW18042   0.638   3.511   6.380
 2004SOL    HW118043   0.719   3.505   6.437
 2004SOL    HW218044   0.642   3.440   6.309
 2005SOL     OW18045   1.189   3.038   0.599
 2005SOL    HW118046   1.207   3.117   0.540
 2005SOL    HW218047   1.158   2.962   0.543
 2006SOL     OW18048   3.690   2.180   2.208
 2006SOL    HW118049   3.725   2.103   2.261
 2006SOL    HW218050   3.654   2.249   2.270
 2007SOL     OW18051   5.677   3.434   0.505
 2007SOL    HW118052   5.655   3.346   0.547
 2007SOL    HW218053   5.702   3.500   0.576
 2008SOL     OW18054   5.381   1.138   1.426
 2008SOL    HW118055   5.427   1.224   1.448
 2008SOL    HW218056   5.322   1.111   1.503
 2009SOL     OW18057   2.449   2.652   1.443
 2009SOL    HW118058   2.535   2.703   1.437
 2009SOL    HW218059   2.379   2.698   1.389
 2010SOL     OW18060   9.365   4.948   0.353
 2010SOL    HW118061   9.278   4.960   0.306
 2010SOL    HW218062   9.369   4.857   0.393
 2011SOL     OW18063   4.158   0.169   5.603
 2011SOL    HW118064   4.220   0.233   5.649
 2011SOL    HW218065   4.064   0.200   5.613
 2012SOL     OW18066   4.194   6.158   2.071
 2012SOL    HW118067   4.156   6.081   2.124
 2012SOL    HW218068   4.265   6.203   2.125
 2013SOL     OW18069   8.177   2.543   6.082
 2013SOL    HW118070   8.207   2.516   5.990
 2013SOL    HW218071   8.138   2.465   6.129
 2014SOL     OW18072   3.610   6.409   6.730
 2014SOL    HW118073   3.661   6.346   6.788
 2014SOL    HW218074   3.562   6.358   6.658
 2015SOL     OW18075   5.825   6.676   1.501
 2015SOL    HW118076   5.737   6.646   1.538
 2015SOL    HW218077   5.877   6.723   1.572
 2016SOL     OW18078   1.782   3.947   0.341
 2016SOL    HW118079   1.838   3.871   0.376
 2016SOL    HW218080   1.831   4.033   0.354
 2017SOL     OW18081   8.826   2.883   0.922
 2017SOL    HW118082   8.923   2.861   0.915
 2017SOL    HW218083   8.786   2.885   0.830
 2018SOL     OW18084   7.843   6.840   0.296
 2018SOL    HW118085   7.846   6.875   0.390
 2018SOL    HW218086   7.757   6.790   0.282
 2019SOL     OW18087   5.897   5.576   4.945
 2019SOL    HW118088   5.960   5.638   4.898
 2019SOL    HW218089   5.804   5.612   4.940
 2020SOL     OW18090   2.236   5.067   5.963
 2020SOL    HW118091   2.189   5.150   5.935
 2020SOL    HW218092   2.333   5.086   5.979
 2021SOL     OW18093   3.795   3.818   6.112
 2021SOL    HW118094   3.893   3.799   6.122
 2021SOL    HW218095   3.766   3.798   6.019
 2022SOL     OW18096   3.908   5.124   6.762
 2022SOL    HW118097   3.927   5.209   6.713
 2022SOL    HW218098   3.993   5.071   6.771
 2023SOL     OW18099   5.765   3.879   1.446
 2023SOL    HW118100   5.791   3.909   1.538
 2023SOL    HW218101   5.843   3.836   1.401
 2024SOL     OW18102   3.649   7.398   0.753
 2024SOL    HW118103   3.725   7.362   0.699
 2024SOL    HW218104   3.568   7.341   0.739
 2025SOL     OW18105   1.889   6.741   0.866
 2025SOL    HW118106   1.942   6.714   0.947
 2025SOL    HW218107   1.804   6.784   0.894
 2026SOL     OW18108   1.153   7.896   1.000
 2026SOL    HW118109   1.178   7.905   1.096
 2026SOL    HW218110   1.157   7.799   0.973
 2027SOL     OW18111   4.192   3.022   1.091
 2027SOL    HW118112   4.138   3.015   1.007
 2027SOL    HW218113   4.261   2.949   1.093
 2028SOL     OW18114   4.645   2.372   0.355
 2028SOL    HW118115   4.557   2.412   0.329
 2028SOL    HW218116   4.635   2.322   0.441
 2029SOL     OW18117   4.705   6.990   6.226
 2029SOL    HW118118   4.757   6.932   6.164
 2029SOL    HW218119   4.756   7.075   6.242
 2030SOL     OW18120   8.204   5.432   6.191
 2030SOL    HW118121   8.212   5.512   6.131
 2030SOL    HW218122   8.294   5.389   6.202
 2031SOL     OW18123   0.336   7.224   4.809
 2031SOL    HW118124   0.412   7.238   4.872
 2031SOL    HW218125   0.336   7.129   4.777
 2032SOL     OW18126   5.991   5.419   6.224
 2032SOL    HW118127   5.989   5.323   6.252
 2032SOL    HW218128   5.985   5.477   6.305
 2033SOL     OW18129   0.496   6.124   5.173
 2033SOL    HW118130   0.588   6.152   5.149
 2033SOL    HW218131   0.436   6.204   5.174
 2034SOL     OW18132   9.542   8.290   4.933
 2034SOL    HW118133   9.443   8.299   4.924
 2034SOL    HW218134   9.586   8.377   4.909
 2035SOL     OW18135   8.170   6.013   5.921
 2035SOL    HW118136   8.154   6.067   5.838
 2035SOL    HW218137   8.219   6.068   5.988
 2036SOL     OW18138   4.379   1.107   6.595
 2036SOL    HW118139   4.446   1.117   6.669
 2036SOL    HW218140   4.346   1.198   6.569
 2037SOL     OW18141   5.430   3.293   0.728
 2037SOL    HW118142   5.460   3.369   0.786
 2037SOL    HW218143   5.508   3.253   0.680
 2038SOL     OW18144   0.604   0.785   6.280
 2038SOL    HW118145   0.683   0.723   6.278
 2038SOL    HW218146   0.635   0.878   6.263
 2039SOL     OW18147   6.154   1.173   0.419
 2039SOL    HW118148   6.230   1.181   0.355
 2039SOL    HW218149   6.146   1.258   0.472
 2040SOL     OW18150   3.037   5.287   1.480
 2040SOL    HW118151   2.952   5.316   1.437
 2040SOL    HW218152   3.057   5.346   1.558
 2041SOL     OW18153   3.166   5.795   1.189
 2041SOL    HW118154   3.264   5.816   1.199
 2041SOL    HW218155   3.113   5.879   1.197
 2042SOL     OW18156   1.919   6.328   6.414
 2042SOL    HW118157   1.946   6.402   6.354
 2042SOL    HW218158   1.851   6.361   6.480
 2043SOL     OW18159   2.100   8.148   6.822
 2043SOL    HW118160   2.182   8.144   6.879
 2043SOL    HW218161   2.023   8.181   6.877
 2044SOL     OW18162   4.543   6.324   6.355
 2044SOL    HW118163   4.515   6.238   6.313
 2044SOL    HW218164   4.472   6.393   6.342
 2045SOL     OW18165   0.215   1.604   6.149
 2045SOL    HW118166   0.310   1.630   6.165
 2045SOL    HW218167   0.167   1.593   6.236
 2046SOL     OW18168   1.328   3.698   6.513
 2046SOL    HW118169   1.352   3.639   6.590
 2046SOL    HW218170   1.386   3.675   6.434
 2047SOL     OW18171   4.996   5.563   1.072
 2047SOL    HW118172   5.037   5.480   1.111
 2047SOL    HW218173   5.052   5.595   0.996
 2048SOL     OW18174   6.927   5.193   5.604
 2048SOL    HW118175   6.907   5.132   5.527
 2048SOL    HW218176   7.027   5.198   5.617
 2049SOL     OW18177   1.203   4.742   1.924
 2049SOL    HW118178   1.302   4.743   1.936
 2049SOL    HW218179   1.179   4.688   1.844
 2050SOL     OW18180   7.833   8.254   5.591
 2050SOL    HW118181   7.765   8.312   5.635
 2050SOL    HW218182   7.893   8.309   5.534
 2051SOL     OW18183   1.264   2.851   6.299
 2051SOL    HW118184   1.304   2.939   6.272
 2051SOL    HW218185   1.173   2.843   6.258
 2052SOL     OW18186   1.220   3.519   6.074
 2052SOL    HW118187   1.129   3.558   6.087
 2052SOL    HW218188   1.256   3.548   5.985
 2053SOL     OW18189   6.679   8.290   6.817
 2053SOL    HW118190   6.602   8.350   6.796
 2053SOL    HW218191   6.659   8.197   6.785
 2054SOL     OW18192   1.270   7.817   4.940
 2054SOL    HW118193   1.363   7.785   4.919
 2054SOL    HW218194   1.272   7.916   4.954
 2055SOL     OW18195   9.414   3.193   5.747
 2055SOL    HW118196   9.514   3.187   5.751
 2055SOL    HW218197   9.387   3.242   5.664
 2056SOL     OW18198   8.456   2.784   5.930
 2056SOL    HW118199   8.539   2.839   5.919
 2056SOL    HW218200   8.421   2.759   5.839
 2057SOL     OW18201   8.441   1.520   6.485
 2057SOL    HW118202   8.360   1.483   6.440
 2057SOL    HW218203   8.507   1.447   6.499
 2058SOL     OW18204   7.034   1.530   6.239
 2058SOL    HW118205   6.951   1.560   6.193
 2058SOL    HW218206   7.109   1.524   6.172
 2059SOL     OW18207   4.540   1.752   0.920
 2059SOL    HW118208   4.486   1.697   0.856
 2059SOL    HW218209   4.481   1.786   0.993
 2060SOL     OW18210   5.086   0.258   1.335
 2060SOL    HW118211   5.159   0.259   1.404
 2060SOL    HW218212   5.068   0.164   1.307
 2061SOL     OW18213   7.026   5.710   6.535
 2061SOL    HW118214   7.119   5.674   6.527
 2061SOL    HW218215   7.018   5.794   6.482
 2062SOL     OW18216   3.489   7.253   2.106
 2062SOL    HW118217   3.494   7.309   2.189
 2062SOL    HW218218   3.578   7.253   2.060
 2063SOL     OW18219   3.098   4.485   0.124
 2063SOL    HW118220   3.155   4.505   0.044
 2063SOL    HW218221   3.002   4.507   0.103
 2064SOL     OW18222   3.315   1.285   0.885
 2064SOL    HW118223   3.414   1.296   0.894
 2064SOL    HW218224   3.271   1.301   0.973
 2065SOL     OW18225   1.033   5.502   0.936
 2065SOL    HW118226   0.977   5.475   1.014
 2065SOL    HW218227   1.117   5.448   0.935
 2066SOL     OW18228   5.437   3.398   5.645
 2066SOL    HW118229   5.451   3.308   5.687
 2066SOL    HW218230   5.518   3.422   5.592
 2067SOL     OW18231   0.854   3.596   6.572
 2067SOL    HW118232   0.927   3.658   6.542
 2067SOL    HW218233   0.892   3.504   6.586
 2068SOL     OW18234   3.161   5.543   6.017
 2068SOL    HW118235   3.249   5.530   5.971
 2068SOL    HW218236   3.170   5.614   6.087
 2069SOL     OW18237   4.318   6.887   1.052
 2069SOL    HW118238   4.364   6.939   1.123
 2069SOL    HW218239   4.232   6.851   1.087
 2070SOL     OW18240   0.473   2.278   6.759
 2070SOL    HW118241   0.569   2.259   6.736
 2070SOL    HW218242   0.458   2.377   6.759
 2071SOL     OW18243   2.850   6.997   6.121
 2071SOL    HW118244   2.750   7.006   6.126
 2071SOL    HW218245   2.893   7.085   6.140
 2072SOL     OW18246   2.498   2.434   0.297
 2072SOL    HW118247   2.501   2.447   0.397
 2072SOL    HW218248   2.420   2.485   0.260
 2073SOL     OW18249   0.462   6.607   6.158
 2073SOL    HW118250   0.410   6.608   6.073
 2073SOL    HW218251   0.479   6.700   6.188
 2074SOL     OW18252   1.529   2.880   0.665
 2074SOL    HW118253   1.619   2.879   0.619
 2074SOL    HW218254   1.512   2.970   0.704
 2075SOL     OW18255   7.051   5.496   6.298
 2075SOL    HW118256   6.982   5.467   6.232
 2075SOL    HW218257   7.028   5.588   6.332
 2076SOL     OW18258   7.448   2.101   6.004
 2076SOL    HW118259   7.488   2.192   6.015
 2076SOL    HW218260   7.370   2.106   5.942
 2077SOL     OW18261   2.054   2.429   0.653
 2077SOL    HW118262   2.124   2.499   0.663
 2077SOL    HW218263   2.098   2.342   0.629
 2078SOL     OW18264   8.948   5.352   1.106
 2078SOL    HW118265   8.959   5.451   1.107
 2078SOL    HW218266   8.913   5.321   1.195
 2079SOL     OW18267   1.711   5.755   0.284
 2079SOL    HW118268   1.699   5.665   0.325
 2079SOL    HW218269   1.689   5.751   0.187
 2080SOL     OW18270   6.173   5.576   6.757
 2080SOL    HW118271   6.118   5.493   6.752
 2080SOL    HW218272   6.243   5.566   6.828
 2081SOL     OW18273   0.577   7.171   6.682
 2081SOL    HW118274   0.496   7.221   6.652
 2081SOL    HW218275   0.647   7.236   6.713
 2082SOL     OW18276   9.001   1.360   5.907
 2082SOL    HW118277   9.070   1.426   5.876
 2082SOL    HW218278   8.911   1.403   5.906
 2083SOL     OW18279   3.891   6.641   6.242
 2083SOL    HW118280   3.815   6.593   6.286
 2083SOL    HW218281   3.899   6.733   6.279
 2084SOL     OW18282   2.718   0.789   6.688
 2084SOL    HW118283   2.643   0.835   6.737
 2084SOL    HW218284   2.684   0.706   6.645
 2085SOL     OW18285   5.826   0.608   0.320
 2085SOL    HW118286   5.836   0.583   0.416
 2085SOL    HW218287   5.799   0.528   0.267
 2086SOL     OW18288   8.845   4.112   0.411
 2086SOL    HW118289   8.873   4.025   0.451
 2086SOL    HW218290   8.922   4.152   0.361
 2087SOL     OW18291   5.105   7.783   5.331
 2087SOL    HW118292   5.182   7.745   5.279
 2087SOL    HW218293   5.044   7.832   5.269
 2088SOL     OW18294   3.013   8.226   0.779
 2088SOL    HW118295   2.974   8.288   0.712
 2088SOL    HW218296   3.099   8.188   0.744
 2089SOL     OW18297   9.574   7.436   1.848
 2089SOL    HW118298   9.530   7.471   1.930
 2089SOL    HW218299   9.633   7.506   1.808
 2090SOL     OW18300   1.925   7.282   6.758
 2090SOL    HW118301   1.979   7.365   6.772
 2090SOL    HW218302   1.981   7.202   6.778
 2091SOL     OW18303   5.362   7.782   5.200
 2091SOL    HW118304   5.326   7.736   5.119
 2091SOL    HW218305   5.456   7.811   5.183
 2092SOL     OW18306   6.297   0.647   1.582
 2092SOL    HW118307   6.377   0.634   1.640
 2092SOL    HW218308   6.220   0.679   1.638
 2093SOL     OW18309   3.920   7.237   1.463
 2093SOL    HW118310   3.982   7.221   1.540
 2093SOL    HW218311   3.933   7.330   1.429
 2094SOL     OW18312   3.485   7.140   1.529
 2094SOL    HW118313   3.444   7.051   1.546
 2094SOL    HW218314   3.490   7.191   1.615
 2095SOL     OW18315   8.399   5.835   6.352
 2095SOL    HW118316   8.354   5.759   6.399
 2095SOL    HW218317   8.338   5.872   6.282
 2096SOL     OW18318   9.449   8.184   1.130
 2096SOL    HW118319   9.482   8.221   1.217
 2096SOL    HW218320   9.408   8.258   1.076
 2097SOL     OW18321   4.821   3.499   6.564
 2097SOL    HW118322   4.849   3.424   6.624
 2097SOL    HW218323   4.875   3.581   6.585
 2098SOL     OW18324   4.238   5.230   1.673
 2098SOL    HW118325   4.159   5.223   1.735
 2098SOL    HW218326   4.313   5.275   1.721
 2099SOL     OW18327   8.475   1.358   0.163
 2099SOL    HW118328   8.493   1.397   0.253
 2099SOL    HW218329   8.379   1.334   0.155
 2100SOL     OW18330   9.260   4.195   5.812
 2100SOL    HW118331   9.283   4.124   5.746
 2100SOL    HW218332   9.208   4.267   5.766
 2101SOL     OW18333   1.082   4.655   0.695
 2101SOL    HW118334   1.105   4.751   0.676
 2101SOL    HW218335   1.131   4.597   0.630
 2102SOL     OW18336   3.085   7.853   1.106
 2102SOL    HW118337   3.010   7.893   1.052
 2102SOL    HW218338   3.054   7.767   1.146
 2103SOL     OW18339   6.056   8.159   1.401
 2103SOL    HW118340   6.088   8.136   1.493
 2103SOL    HW218341   6.003   8.083   1.364
 2104SOL     OW18342   7.020   7.914   6.038
 2104SOL    HW118343   6.979   7.857   5.967
 2104SOL    HW218344   6.957   7.923   6.115
 2105SOL     OW18345   8.413   7.831   5.732
 2105SOL    HW118346   8.341   7.879   5.782
 2105SOL    HW218347   8.449   7.891   5.660
 2106SOL     OW18348   7.465   0.726   6.152
 2106SOL    HW118349   7.482   0.655   6.220
 2106SOL    HW218350   7.417   0.686   6.074
 2107SOL     OW18351   4.181   2.415   6.490
 2107SOL    HW118352   4.152   2.347   6.423
 2107SOL    HW218353   4.143   2.504   6.466
 2108SOL     OW18354   6.454   1.358   1.143
 2108SOL    HW118355   6.486   1.296   1.214
 2108SOL    HW218356   6.500   1.447   1.153
 2109SOL     OW18357   7.229   2.839   5.629
 2109SOL    HW118358   7.148   2.791   5.594
 2109SOL    HW218359   7.310   2.806   5.581
 2110SOL     OW18360   5.721   3.803   0.978
 2110SOL    HW118361   5.821   3.797   0.975
 2110SOL    HW218362   5.693   3.857   1.057
 2111SOL     OW18363   7.034   5.351   1.231
 2111SOL    HW118364   7.006   5.367   1.325
 2111SOL    HW218365   7.113   5.408   1.209
 2112SOL     OW18366   0.601   5.920   6.568
 2112SOL    HW118367   0.635   6.013   6.552
 2112SOL    HW218368   0.645   5.858   6.504
 2113SOL     OW18369   3.652   3.590   1.381
 2113SOL    HW118370   3.668   3.621   1.475
 2113SOL    HW218371   3.563   3.623   1.350
 2114SOL     OW18372   6.701   3.363   0.783
 2114SOL    HW118373   6.657   3.273   0.792
 2114SOL    HW218374   6.798   3.355   0.806
 2115SOL     OW18375   6.244   7.888   6.243
 2115SOL    HW118376   6.270   7.833   6.322
 2115SOL    HW218377   6.172   7.952   6.269
 2116SOL     OW18378   5.490   5.342   1.004
 2116SOL    HW118379   5.496   5.316   0.907
 2116SOL    HW218380   5.403   5.388   1.021
 2117SOL     OW18381   1.581   7.755   0.384
 2117SOL    HW118382   1.648   7.824   0.410
 2117SOL    HW218383   1.616   7.701   0.307
 2118SOL     OW18384   6.726   0.280   0.723
 2118SOL    HW118385   6.785   0.360   0.711
 2118SOL    HW218386   6.759   0.226   0.801
 2119SOL     OW18387   4.152   4.904   1.540
 2119SOL    HW118388   4.138   5.001   1.520
 2119SOL    HW218389   4.162   4.853   1.454
 2120SOL     OW18390   8.181   0.400   6.710
 2120SOL    HW118391   8.127   0.430   6.631
 2120SOL    HW218392   8.144   0.313   6.744
 2121SOL     OW18393   3.631   1.105   6.831
 2121SOL    HW118394   3.622   1.028   6.768
 2121SOL    HW218395   3.578   1.087   6.914
 2122SOL     OW18396   6.586   3.480   0.152
 2122SOL    HW118397   6.599   3.545   0.226
 2122SOL    HW218398   6.571   3.528   0.066
 2123SOL     OW18399   0.917   2.535   6.470
 2123SOL    HW118400   1.013   2.505   6.472
 2123SOL    HW218401   0.871   2.504   6.553
 2124SOL     OW18402   5.360   4.452   1.052
 2124SOL    HW118403   5.330   4.435   0.958
 2124SOL    HW218404   5.427   4.526   1.053
 2125SOL     OW18405   6.409   0.854   0.408
 2125SOL    HW118406   6.429   0.759   0.385
 2125SOL    HW218407   6.327   0.884   0.359
 2126SOL     OW18408   7.176   1.309   0.655
 2126SOL    HW118409   7.143   1.264   0.572
 2126SOL    HW218410   7.200   1.404   0.634
 2127SOL     OW18411   1.799   1.816   6.049
 2127SOL    HW118412   1.888   1.821   6.003
 2127SOL    HW218413   1.734   1.766   5.991
 2128SOL     OW18414   3.842   2.862   1.649
 2128SOL    HW118415   3.822   2.815   1.563
 2128SOL    HW218416   3.863   2.794   1.720
 2129SOL     OW18417   2.949   6.905   1.434
 2129SOL    HW118418   2.892   6.946   1.506
 2129SOL    HW218419   3.017   6.845   1.477
 2130SOL     OW18420   1.019   2.745   5.431
 2130SOL    HW118421   1.111   2.782   5.437
 2130SOL    HW218422   0.956   2.816   5.401
 2131SOL     OW18423   2.616   1.234   1.507
 2131SOL    HW118424   2.681   1.187   1.568
 2131SOL    HW218425   2.595   1.175   1.429
 2132SOL     OW18426   2.364   2.953   0.467
 2132SOL    HW118427   2.413   2.878   0.513
 2132SOL    HW218428   2.321   2.918   0.384
 2133SOL     OW18429   6.963   3.380   0.855
 2133SOL    HW118430   6.956   3.479   0.867
 2133SOL    HW218431   7.044   3.346   0.903
 2134SOL     OW18432   0.360   5.772   5.719
 2134SOL    HW118433   0.422   5.791   5.643
 2134SOL    HW218434   0.269   5.750   5.684
 2135SOL     OW18435   5.614   2.334   0.341
 2135SOL    HW118436   5.670   2.286   0.274
 2135SOL    HW218437   5.603   2.429   0.315
 2136SOL     OW18438   5.512   2.503   5.742
 2136SOL    HW118439   5.412   2.500   5.740
 2136SOL    HW218440   5.548   2.414   5.769
 2137SOL     OW18441   4.220   1.654   1.670
 2137SOL    HW118442   4.300   1.624   1.618
 2137SOL    HW218443   4.214   1.754   1.667
 2138SOL     OW18444   4.623   4.521   0.186
 2138SOL    HW118445   4.541   4.513   0.129
 2138SOL    HW218446   4.671   4.433   0.186
 2139SOL     OW18447   6.249   4.203   5.141
 2139SOL    HW118448   6.203   4.291   5.132
 2139SOL    HW218449   6.274   4.188   5.237
 2140SOL     OW18450   7.948   0.273   1.251
 2140SOL    HW118451   7.946   0.216   1.334
 2140SOL    HW218452   7.993   0.223   1.177
 2141SOL     OW18453   3.536   0.422   0.886
 2141SOL    HW118454   3.501   0.414   0.793
 2141SOL    HW218455   3.509   0.510   0.925
 2142SOL     OW18456   9.339   8.265   0.502
 2142SOL    HW118457   9.369   8.178   0.542
 2142SOL    HW218458   9.351   8.338   0.568
 2143SOL     OW18459   7.469   8.300   0.706
 2143SOL    HW118460   7.424   8.215   0.733
 2143SOL    HW218461   7.442   8.323   0.612
 2144SOL     OW18462   1.665   4.936   5.561
 2144SOL    HW118463   1.628   4.843   5.550
 2144SOL    HW218464   1.735   4.952   5.492
 2145SOL     OW18465   1.709   7.833   6.642
 2145SOL    HW118466   1.659   7.916   6.666
 2145SOL    HW218467   1.649   7.772   6.590
 2146SOL     OW18468   2.573   7.286   5.466
 2146SOL    HW118469   2.637   7.209   5.456
 2146SOL    HW218470   2.526   7.301   5.379
 2147SOL     OW18471   0.587   0.313   0.224
 2147SOL    HW118472   0.672   0.279   0.262
 2147SOL    HW218473   0.586   0.413   0.229
 2148SOL     OW18474   4.228   5.549   6.267
 2148SOL    HW118475   4.135   5.552   6.305
 2148SOL    HW218476   4.235   5.612   6.191
 2149SOL     OW18477   0.199   4.239   0.652
 2149SOL    HW118478   0.109   4.258   0.690
 2149SOL    HW218479   0.222   4.143   0.668
 2150SOL     OW18480   5.412   4.765   6.083
 2150SOL    HW118481   5.451   4.683   6.123
 2150SOL    HW218482   5.335   4.796   6.138
 2151SOL     OW18483   7.631   3.620   6.200
 2151SOL    HW118484   7.595   3.685   6.134
 2151SOL    HW218485   7.722   3.591   6.171
 2152SOL     OW18486   4.748   7.616   5.517
 2152SOL    HW118487   4.724   7.562   5.437
 2152SOL    HW218488   4.847   7.613   5.530
 2153SOL     OW18489   4.002   1.777   1.077
 2153SOL    HW118490   3.919   1.730   1.047
 2153SOL    HW218491   4.035   1.837   1.004
 2154SOL     OW18492   6.796   6.716   5.107
 2154SOL    HW118493   6.703   6.684   5.122
 2154SOL    HW218494   6.820   6.704   5.010
 2155SOL     OW18495   0.925   7.494   6.459
 2155SOL    HW118496   0.990   7.421   6.436
 2155SOL    HW218497   0.832   7.461   6.446
 2156SOL     OW18498   4.941   6.838   1.790
 2156SOL    HW118499   5.008   6.771   1.820
 2156SOL    HW218500   4.873   6.853   1.862
 2157SOL     OW18501   0.864   2.110   0.962
 2157SOL    HW118502   0.833   2.182   1.024
 2157SOL    HW218503   0.961   2.120   0.944
 2158SOL     OW18504   8.878   8.420   5.283
 2158SOL    HW118505   8.797   8.457   5.237
 2158SOL    HW218506   8.855   8.332   5.324
 2159SOL     OW18507   0.413   6.610   0.602
 2159SOL    HW118508   0.460   6.609   0.514
 2159SOL    HW218509   0.320   6.575   0.591
 2160SOL     OW18510   7.336   0.037   0.271
 2160SOL    HW118511   7.357   0.072   0.363
 2160SOL    HW218512   7.372  -0.056   0.262
 2161SOL     OW18513   3.236   0.707   1.937
 2161SOL    HW118514   3.268   0.802   1.938
 2161SOL    HW218515   3.312   0.647   1.911
 2162SOL     OW18516   6.040   7.116   6.760
 2162SOL    HW118517   6.013   7.046   6.693
 2162SOL    HW218518   6.134   7.098   6.791
 2163SOL     OW18519   1.085   3.224   5.936
 2163SOL    HW118520   1.095   3.137   5.983
 2163SOL    HW218521   1.093   3.299   6.001
 2164SOL     OW18522   0.720   4.207   0.631
 2164SOL    HW118523   0.665   4.158   0.564
 2164SOL    HW218524   0.716   4.305   0.611
 2165SOL     OW18525   2.838   2.462   0.600
 2165SOL    HW118526   2.921   2.517   0.604
 2165SOL    HW218527   2.860   2.372   0.563
 2166SOL     OW18528   3.571   1.315   5.898
 2166SOL    HW118529   3.584   1.226   5.942
 2166SOL    HW218530   3.479   1.319   5.860
 2167SOL     OW18531   4.056   0.221   1.623
 2167SOL    HW118532   3.995   0.227   1.543
 2167SOL    HW218533   4.140   0.173   1.597
 2168SOL     OW18534   2.731   1.959   1.791
 2168SOL    HW118535   2.728   1.909   1.705
 2168SOL    HW218536   2.651   1.936   1.846
 2169SOL     OW18537   5.220   6.746   2.089
 2169SOL    HW118538   5.195   6.842   2.080
 2169SOL    HW218539   5.198   6.697   2.005
 2170SOL     OW18540   1.233   0.378   1.219
 2170SOL    HW118541   1.146   0.421   1.244
 2170SOL    HW218542   1.299   0.392   1.293
 2171SOL     OW18543   4.894   7.434   5.031
 2171SOL    HW118544   4.980   7.482   5.047
 2171SOL    HW218545   4.848   7.473   4.951
 2172SOL     OW18546   4.420   1.347   6.379
 2172SOL    HW118547   4.476   1.283   6.325
 2172SOL    HW218548   4.480   1.412   6.426
 2173SOL     OW18549   1.692   1.346   6.842
 2173SOL    HW118550   1.777   1.377   6.885
 2173SOL    HW218551   1.615   1.394   6.882
 2174SOL     OW18552   7.475  -0.023   6.502
 2174SOL    HW118553   7.538  -0.099   6.484
 2174SOL    HW218554   7.468  -0.010   6.601
 2175SOL     OW18555   2.584   6.961   5.861
 2175SOL    HW118556   2.588   7.060   5.871
 2175SOL    HW218557   2.566   6.919   5.950
 2176SOL     OW18558   7.437   4.593   6.720
 2176SOL    HW118559   7.443   4.663   6.791
 2176SOL    HW218560   7.367   4.526   6.744
 2177SOL     OW18561   5.336   6.722   0.561
 2177SOL    HW118562   5.343   6.649   0.629
 2177SOL    HW218563   5.255   6.777   0.580
 2178SOL     OW18564   6.570   6.326   1.524
 2178SOL    HW118565   6.661   6.288   1.541
 2178SOL    HW218566   6.500   6.257   1.544
 2179SOL     OW18567   2.752   5.812   0.820
 2179SOL    HW118568   2.764   5.713   0.817
 2179SOL    HW218569   2.790   5.848   0.905
 2180SOL     OW18570   2.050   0.792   0.582
 2180SOL    HW118571   2.106   0.724   0.534
 2180SOL    HW218572   2.073   0.884   0.549
 2181SOL     OW18573   1.630   4.404   5.635
 2181SOL    HW118574   1.588   4.401   5.544
 2181SOL    HW218575   1.705   4.469   5.636
 2182SOL     OW18576   4.255   6.198   6.472
 2182SOL    HW118577   4.329   6.211   6.539
 2182SOL    HW218578   4.235   6.285   6.427
 2183SOL     OW18579   1.411   7.994   0.293
 2183SOL    HW118580   1.457   7.906   0.309
 2183SOL    HW218581   1.450   8.062   0.355
 2184SOL     OW18582   0.118   6.512   4.398
 2184SOL    HW118583   0.045   6.578   4.380
 2184SOL    HW218584   0.184   6.515   4.323
 2185SOL     OW18585   6.246   3.427   0.284
 2185SOL    HW118586   6.190   3.439   0.366
 2185SOL    HW218587   6.332   3.383   0.309
 2186SOL     OW18588   8.607   6.974   4.768
 2186SOL    HW118589   8.671   6.929   4.706
 2186SOL    HW218590   8.514   6.941   4.750
 2187SOL     OW18591   9.440   2.741   5.686
 2187SOL    HW118592   9.356   2.782   5.721
 2187SOL    HW218593   9.488   2.808   5.628
 2188SOL     OW18594   5.226   1.306   0.798
 2188SOL    HW118595   5.131   1.305   0.766
 2188SOL    HW218596   5.227   1.300   0.898
 2189SOL     OW18597   5.337   0.980   0.696
 2189SOL    HW118598   5.373   1.067   0.730
 2189SOL    HW218599   5.237   0.985   0.691
 2190SOL     OW18600   3.460   1.417   6.292
 2190SOL    HW118601   3.387   1.430   6.359
 2190SOL    HW218602   3.431   1.454   6.204
 2191SOL     OW18603   5.474   1.194   6.060
 2191SOL    HW118604   5.395   1.251   6.039
 2191SOL    HW218605   5.506   1.214   6.153
 2192SOL     OW18606   8.335   3.036   6.383
 2192SOL    HW118607   8.246   2.997   6.407
 2192SOL    HW218608   8.404   2.963   6.380
 2193SOL     OW18609   3.978   3.786   0.514
 2193SOL    HW118610   3.977   3.883   0.488
 2193SOL    HW218611   4.070   3.760   0.542
 2194SOL     OW18612   5.075   2.584   0.240
 2194SOL    HW118613   4.988   2.558   0.282
 2194SOL    HW218614   5.121   2.502   0.206
 2195SOL     OW18615   8.585   8.238   5.897
 2195SOL    HW118616   8.641   8.321   5.900
 2195SOL    HW218617   8.489   8.263   5.907
 2196SOL     OW18618   8.311   7.879   0.743
 2196SOL    HW118619   8.340   7.951   0.679
 2196SOL    HW218620   8.288   7.919   0.831
 2197SOL     OW18621   8.281   3.602   0.495
 2197SOL    HW118622   8.308   3.511   0.527
 2197SOL    HW218623   8.233   3.649   0.569
 2198SOL     OW18624   0.279   1.595   6.706
 2198SOL    HW118625   0.332   1.518   6.742
 2198SOL    HW218626   0.337   1.677   6.703
 2199SOL     OW18627   6.733   2.050   6.261
 2199SOL    HW118628   6.731   2.011   6.353
 2199SOL    HW218629   6.693   2.141   6.263
 2200SOL     OW18630   3.103   2.485   0.927
 2200SOL    HW118631   3.081   2.549   0.853
 2200SOL    HW218632   3.095   2.531   1.015
 2201SOL     OW18633   4.993   3.423   0.516
 2201SOL    HW118634   5.066   3.464   0.460
 2201SOL    HW218635   5.034   3.376   0.594
 2202SOL     OW18636   9.067   3.157   0.529
 2202SOL    HW118637   9.155   3.203   0.545
 2202SOL    HW218638   9.022   3.199   0.450
 2203SOL     OW18639   1.089   5.828   0.123
 2203SOL    HW118640   1.048   5.752   0.175
 2203SOL    HW218641   1.180   5.847   0.159
 2204SOL     OW18642   9.423   2.170   0.905
 2204SOL    HW118643   9.505   2.115   0.890
 2204SOL    HW218644   9.440   2.263   0.872
 2205SOL     OW18645   3.298   7.653   0.195
 2205SOL    HW118646   3.330   7.600   0.273
 2205SOL    HW218647   3.295   7.750   0.219
 2206SOL     OW18648   6.173   1.913   5.660
 2206SOL    HW118649   6.081   1.884   5.636
 2206SOL    HW218650   6.182   2.012   5.650
 2207SOL     OW18651   3.723   1.823   1.568
 2207SOL    HW118652   3.775   1.908   1.580
 2207SOL    HW218653   3.780   1.756   1.520
 2208SOL     OW18654   7.419   8.154   5.564
 2208SOL    HW118655   7.350   8.226   5.552
 2208SOL    HW218656   7.440   8.144   5.661
 2209SOL     OW18657   1.054   8.074   5.939
 2209SOL    HW118658   1.104   8.144   5.991
 2209SOL    HW218659   1.119   8.016   5.891
 2210SOL     OW18660   9.378   6.815   0.786
 2210SOL    HW118661   9.477   6.816   0.772
 2210SOL    HW218662   9.333   6.778   0.704
 2211SOL     OW18663   2.992   6.140   0.474
 2211SOL    HW118664   2.975   6.086   0.557
 2211SOL    HW218665   2.905   6.174   0.438
 2212SOL     OW18666   0.363   3.448   0.377
 2212SOL    HW118667   0.338   3.523   0.438
 2212SOL    HW218668   0.378   3.365   0.431
 2213SOL     OW18669   8.275   2.640   6.630
 2213SOL    HW118670   8.340   2.564   6.638
 2213SOL    HW218671   8.290   2.705   6.704
 2214SOL     OW18672   7.120   8.244   0.918
 2214SOL    HW118673   7.185   8.167   0.910
 2214SOL    HW218674   7.169   8.330   0.900
 2215SOL     OW18675   4.273   8.425   0.614
 2215SOL    HW118676   4.228   8.336   0.618
 2215SOL    HW218677   4.352   8.425   0.675
 2216SOL     OW18678   6.575   5.160   0.226
 2216SOL    HW118679   6.536   5.207   0.147
 2216SOL    HW218680   6.643   5.093   0.196
 2217SOL     OW18681   1.271   6.679   5.918
 2217SOL    HW118682   1.314   6.685   5.828
 2217SOL    HW218683   1.300   6.595   5.964
 2218SOL     OW18684   0.399   6.699   0.301
 2218SOL    HW118685   0.485   6.649   0.301
 2218SOL    HW218686   0.323   6.635   0.309
 2219SOL     OW18687   3.338   1.281   0.151
 2219SOL    HW118688   3.370   1.203   0.206
 2219SOL    HW218689   3.414   1.346   0.139
 2220SOL     OW18690   9.412   3.618   0.694
 2220SOL    HW118691   9.454   3.706   0.716
 2220SOL    HW218692   9.329   3.606   0.750
 2221SOL     OW18693   3.417   4.000   6.833
 2221SOL    HW118694   3.417   3.918   6.776
 2221SOL    HW218695   3.430   3.975   6.929
 2222SOL     OW18696   2.731   8.291   0.144
 2222SOL    HW118697   2.742   8.385   0.114
 2222SOL    HW218698   2.708   8.289   0.242
 2223SOL     OW18699   1.997   4.009   0.753
 2223SOL    HW118700   1.918   3.963   0.793
 2223SOL    HW218701   1.969   4.057   0.670
 2224SOL     OW18702   2.352   2.507   5.518
 2224SOL    HW118703   2.347   2.503   5.618
 2224SOL    HW218704   2.302   2.430   5.479
 2225SOL     OW18705   3.883   1.895   5.958
 2225SOL    HW118706   3.898   1.808   6.004
 2225SOL    HW218707   3.968   1.925   5.915
 2226SOL     OW18708   1.496   5.327   5.819
 2226SOL    HW118709   1.592   5.310   5.842
 2226SOL    HW218710   1.448   5.239   5.809
 2227SOL     OW18711   6.651   1.073   1.054
 2227SOL    HW118712   6.627   1.018   1.133
 2227SOL    HW218713   6.747   1.059   1.031
 2228SOL     OW18714   0.233   1.753   0.445
 2228SOL    HW118715   0.195   1.828   0.499
 2228SOL    HW218716   0.199   1.758   0.351
 2229SOL     OW18717   6.732   3.297   1.530
 2229SOL    HW118718   6.815   3.340   1.492
 2229SOL    HW218719   6.721   3.326   1.625
 2230SOL     OW18720   5.600   6.572   1.610
 2230SOL    HW118721   5.614   6.508   1.686
 2230SOL    HW218722   5.520   6.544   1.558
 2231SOL     OW18723   4.832   6.766   4.966
 2231SOL    HW118724   4.807   6.748   4.871
 2231SOL    HW218725   4.769   6.833   5.005
 2232SOL     OW18726   7.045   0.099   1.840
 2232SOL    HW118727   6.947   0.080   1.842
 2232SOL    HW218728   7.062   0.187   1.884
 2233SOL     OW18729   2.972   1.340   6.296
 2233SOL    HW118730   3.004   1.400   6.368
 2233SOL    HW218731   3.027   1.354   6.213
 2234SOL     OW18732   4.638   1.918   5.608
 2234SOL    HW118733   4.636   1.819   5.596
 2234SOL    HW218734   4.546   1.951   5.628
 2235SOL     OW18735   6.471  -0.017   1.217
 2235SOL    HW118736   6.519  -0.062   1.142
 2235SOL    HW218737   6.523   0.061   1.249
 2236SOL     OW18738   3.043   8.135   0.471
 2236SOL    HW118739   3.127   8.096   0.509
 2236SOL    HW218740   3.048   8.235   0.475
 2237SOL     OW18741   3.279   1.479   0.606
 2237SOL    HW118742   3.230   1.485   0.519
 2237SOL    HW218743   3.224   1.428   0.672
 2238SOL     OW18744   1.292   2.693   0.616
 2238SOL    HW118745   1.366   2.760   0.607
 2238SOL    HW218746   1.238   2.714   0.697
 2239SOL     OW18747   4.932   0.208   5.420
 2239SOL    HW118748   4.902   0.206   5.324
 2239SOL    HW218749   4.895   0.290   5.465
 2240SOL     OW18750   2.751   1.818   6.417
 2240SOL    HW118751   2.664   1.772   6.398
 2240SOL    HW218752   2.735   1.915   6.433
 2241SOL     OW18753   9.084   2.169   0.719
 2241SOL    HW118754   9.114   2.111   0.795
 2241SOL    HW218755   9.010   2.229   0.750
 2242SOL     OW18756   0.719   4.794   6.475
 2242SOL    HW118757   0.679   4.812   6.385
 2242SOL    HW218758   0.714   4.876   6.531
 2243SOL     OW18759   8.052   7.331   0.697
 2243SOL    HW118760   8.022   7.249   0.745
 2243SOL    HW218761   8.092   7.395   0.763
 2244SOL     OW18762   9.558   4.791   5.442
 2244SOL    HW118763   9.575   4.722   5.371
 2244SOL    HW218764   9.518   4.872   5.399
 2245SOL     OW18765   5.557   6.718   0.403
 2245SOL    HW118766   5.610   6.647   0.449
 2245SOL    HW218767   5.481   6.747   0.462
 2246SOL     OW18768   2.000   8.194   5.783
 2246SOL    HW118769   1.949   8.192   5.869
 2246SOL    HW218770   2.031   8.287   5.766
 2247SOL     OW18771   4.338   7.901   6.524
 2247SOL    HW118772   4.267   7.888   6.594
 2247SOL    HW218773   4.332   7.993   6.488
 2248SOL     OW18774   3.882   1.159   0.246
 2248SOL    HW118775   3.848   1.223   0.315
 2248SOL    HW218776   3.808   1.133   0.185
 2249SOL     OW18777   9.222   2.786   0.265
 2249SOL    HW118778   9.215   2.874   0.314
 2249SOL    HW218779   9.273   2.799   0.181
 2250SOL     OW18780   9.154   5.196   1.316
 2250SOL    HW118781   9.059   5.227   1.318
 2250SOL    HW218782   9.186   5.179   1.409
 2251SOL     OW18783   8.724   2.558   0.370
 2251SOL    HW118784   8.653   2.621   0.403
 2251SOL    HW218785   8.813   2.589   0.405
 2252SOL     OW18786   4.554   0.512   1.626
 2252SOL    HW118787   4.618   0.537   1.553
 2252SOL    HW218788   4.605   0.471   1.701
 2253SOL     OW18789   8.616   3.922   5.593
 2253SOL    HW118790   8.558   3.931   5.512
 2253SOL    HW218791   8.669   4.005   5.606
 2254SOL     OW18792   4.549   2.199   6.639
 2254SOL    HW118793   4.480   2.269   6.620
 2254SOL    HW218794   4.603   2.227   6.719
 2255SOL     OW18795   4.218   2.705   0.969
 2255SOL    HW118796   4.186   2.780   0.911
 2255SOL    HW218797   4.142   2.643   0.989
 2256SOL     OW18798   4.205   6.097   2.467
 2256SOL    HW118799   4.122   6.125   2.514
 2256SOL    HW218800   4.269   6.173   2.463
 2257SOL     OW18801   6.850   3.962   0.358
 2257SOL    HW118802   6.810   3.971   0.450
 2257SOL    HW218803   6.876   3.867   0.343
 2258SOL     OW18804   8.386   4.093   1.221
 2258SOL    HW118805   8.481   4.084   1.248
 2258SOL    HW218806   8.338   4.006   1.234
 2259SOL     OW18807   2.830   0.368   6.761
 2259SOL    HW118808   2.856   0.461   6.784
 2259SOL    HW218809   2.911   0.309   6.765
 2260SOL     OW18810   6.537   3.800   0.705
 2260SOL    HW118811   6.496   3.881   0.747
 2260SOL    HW218812   6.466   3.747   0.659
 2261SOL     OW18813   4.460   6.353   1.591
 2261SOL    HW118814   4.438   6.324   1.684
 2261SOL    HW218815   4.551   6.321   1.566
 2262SOL     OW18816   2.931   5.865   5.374
 2262SOL    HW118817   2.947   5.800   5.300
 2262SOL    HW218818   2.878   5.942   5.340
 2263SOL     OW18819   4.536   0.865   2.323
 2263SOL    HW118820   4.581   0.954   2.335
 2263SOL    HW218821   4.443   0.879   2.291
 2264SOL     OW18822   6.409   5.172   1.702
 2264SOL    HW118823   6.437   5.168   1.606
 2264SOL    HW218824   6.459   5.103   1.754
 2265SOL     OW18825   1.077   4.849   5.547
 2265SOL    HW118826   1.047   4.825   5.455
 2265SOL    HW218827   1.177   4.849   5.551
 2266SOL     OW18828   4.993   6.581   0.309
 2266SOL    HW118829   5.073   6.640   0.303
 2266SOL    HW218830   5.022   6.488   0.333
 2267SOL     OW18831   7.981   3.531   6.288
 2267SOL    HW118832   7.944   3.568   6.203
 2267SOL    HW218833   8.073   3.495   6.272
 2268SOL     OW18834   8.396   2.741   1.125
 2268SOL    HW118835   8.489   2.708   1.141
 2268SOL    HW218836   8.352   2.763   1.212
 2269SOL     OW18837   5.508   7.397   0.832
 2269SOL    HW118838   5.550   7.463   0.894
 2269SOL    HW218839   5.473   7.319   0.884
 2270SOL     OW18840   4.880   6.145   0.891
 2270SOL    HW118841   4.805   6.133   0.956
 2270SOL    HW218842   4.870   6.234   0.845
 2271SOL     OW18843   5.353   5.437   6.554
 2271SOL    HW118844   5.439   5.399   6.522
 2271SOL    HW218845   5.371   5.521   6.606
 2272SOL     OW18846   5.267   1.725   6.092
 2272SOL    HW118847   5.223   1.798   6.142
 2272SOL    HW218848   5.252   1.638   6.139
 2273SOL     OW18849   3.842   6.619   0.699
 2273SOL    HW118850   3.925   6.593   0.749
 2273SOL    HW218851   3.763   6.574   0.741
 2274SOL     OW18852   8.713   2.633   6.332
 2274SOL    HW118853   8.775   2.555   6.325
 2274SOL    HW218854   8.637   2.610   6.393
 2275SOL     OW18855   6.049   7.926   5.962
 2275SOL    HW118856   6.022   7.882   6.048
 2275SOL    HW218857   6.142   7.898   5.939
 2276SOL     OW18858   3.438   8.139   0.802
 2276SOL    HW118859   3.457   8.192   0.885
 2276SOL    HW218860   3.518   8.084   0.779
 2277SOL     OW18861   8.871   7.102   1.209
 2277SOL    HW118862   8.908   7.072   1.297
 2277SOL    HW218863   8.913   7.189   1.183
 2278SOL     OW18864   8.916   2.689   6.585
 2278SOL    HW118865   8.869   2.776   6.567
 2278SOL    HW218866   8.935   2.643   6.499
 2279SOL     OW18867   1.671   5.805   6.750
 2279SOL    HW118868   1.602   5.874   6.728
 2279SOL    HW218869   1.759   5.849   6.766
 2280SOL     OW18870   0.298   0.877   6.685
 2280SOL    HW118871   0.369   0.909   6.748
 2280SOL    HW218872   0.339   0.814   6.619
 2281SOL     OW18873   9.404   0.345   0.260
 2281SOL    HW118874   9.409   0.253   0.220
 2281SOL    HW218875   9.488   0.395   0.239
 2282SOL     OW18876   0.122   7.059   0.935
 2282SOL    HW118877   0.130   7.000   0.854
 2282SOL    HW218878   0.099   7.002   1.015
 2283SOL     OW18879   3.444   0.790   5.815
 2283SOL    HW118880   3.390   0.760   5.894
 2283SOL    HW218881   3.391   0.858   5.763
 2284SOL     OW18882   3.075   5.216   0.411
 2284SOL    HW118883   3.122   5.203   0.499
 2284SOL    HW218884   3.007   5.288   0.420
 2285SOL     OW18885   5.191   6.800   0.870
 2285SOL    HW118886   5.100   6.791   0.829
 2285SOL    HW218887   5.234   6.884   0.835
 2286SOL     OW18888   6.402   7.563   5.161
 2286SOL    HW118889   6.423   7.660   5.158
 2286SOL    HW218890   6.486   7.510   5.148
 2287SOL     OW18891   8.146   3.642   6.668
 2287SOL    HW118892   8.114   3.661   6.761
 2287SOL    HW218893   8.097   3.702   6.603
 2288SOL     OW18894   5.760   0.461   6.582
 2288SOL    HW118895   5.687   0.525   6.603
 2288SOL    HW218896   5.844   0.511   6.563
 2289SOL     OW18897   4.956   4.762   6.809
 2289SOL    HW118898   4.968   4.664   6.794
 2289SOL    HW218899   4.880   4.776   6.873
 2290SOL     OW18900   4.609   4.476   0.483
 2290SOL    HW118901   4.512   4.454   0.493
 2290SOL    HW218902   4.645   4.429   0.402
 2291SOL     OW18903   3.391   5.925   5.733
 2291SOL    HW118904   3.389   5.865   5.814
 2291SOL    HW218905   3.446   5.882   5.662
 2292SOL     OW18906   2.990   0.319   5.665
 2292SOL    HW118907   2.921   0.289   5.730
 2292SOL    HW218908   3.081   0.297   5.701
 2293SOL     OW18909   9.356   3.766   1.072
 2293SOL    HW118910   9.453   3.745   1.058
 2293SOL    HW218911   9.334   3.758   1.169
 2294SOL     OW18912   2.965   1.658   0.295
 2294SOL    HW118913   3.001   1.601   0.369
 2294SOL    HW218914   2.934   1.599   0.220
 2295SOL     OW18915   4.032   7.110   2.588
 2295SOL    HW118916   4.095   7.052   2.537
 2295SOL    HW218917   3.956   7.054   2.622
 2296SOL     OW18918   0.391   7.574   0.293
 2296SOL    HW118919   0.342   7.582   0.380
 2296SOL    HW218920   0.485   7.607   0.305
 2297SOL     OW18921   2.363   6.286   0.604
 2297SOL    HW118922   2.419   6.231   0.666
 2297SOL    HW218923   2.406   6.376   0.592
 2298SOL     OW18924   7.169   5.394   0.339
 2298SOL    HW118925   7.127   5.444   0.414
 2298SOL    HW218926   7.265   5.378   0.360
 2299SOL     OW18927   5.590   6.445   5.636
 2299SOL    HW118928   5.633   6.355   5.629
 2299SOL    HW218929   5.538   6.464   5.552
 2300SOL     OW18930   0.608   2.113   1.286
 2300SOL    HW118931   0.679   2.066   1.340
 2300SOL    HW218932   0.577   2.194   1.335
 2301SOL     OW18933   3.199   0.522   2.240
 2301SOL    HW118934   3.195   0.609   2.289
 2301SOL    HW218935   3.245   0.454   2.298
 2302SOL     OW18936   5.515   3.562   0.315
 2302SOL    HW118937   5.419   3.535   0.314
 2302SOL    HW218938   5.560   3.524   0.396
 2303SOL     OW18939   4.640   2.653   0.776
 2303SOL    HW118940   4.608   2.574   0.828
 2303SOL    HW218941   4.581   2.731   0.794
 2304SOL     OW18942   9.554   1.044   0.526
 2304SOL    HW118943   9.541   1.130   0.575
 2304SOL    HW218944   9.649   1.036   0.496
 2305SOL     OW18945   3.326   7.547   5.608
 2305SOL    HW118946   3.240   7.512   5.571
 2305SOL    HW218947   3.309   7.631   5.659
 2306SOL     OW18948   4.355   4.565   1.555
 2306SOL    HW118949   4.309   4.603   1.476
 2306SOL    HW218950   4.317   4.604   1.639
 2307SOL     OW18951   0.508   4.089   6.461
 2307SOL    HW118952   0.438   4.092   6.532
 2307SOL    HW218953   0.594   4.058   6.501
 2308SOL     OW18954   4.165   0.634   5.168
 2308SOL    HW118955   4.167   0.712   5.230
 2308SOL    HW218956   4.177   0.666   5.074
 2309SOL     OW18957   2.704   1.630   2.399
 2309SOL    HW118958   2.694   1.620   2.300
 2309SOL    HW218959   2.710   1.540   2.442
 2310SOL     OW18960   2.539   6.311   0.167
 2310SOL    HW118961   2.491   6.396   0.144
 2310SOL    HW218962   2.638   6.326   0.162
 2311SOL     OW18963   2.820   7.574   5.502
 2311SOL    HW118964   2.767   7.529   5.574
 2311SOL    HW218965   2.883   7.509   5.462
 2312SOL     OW18966   4.331   5.775   1.307
 2312SOL    HW118967   4.337   5.764   1.208
 2312SOL    HW218968   4.331   5.685   1.351
 2313SOL     OW18969   5.565   7.680   6.354
 2313SOL    HW118970   5.478   7.653   6.396
 2313SOL    HW218971   5.634   7.694   6.425
 2314SOL     OW18972   4.251   5.317   0.225
 2314SOL    HW118973   4.193   5.252   0.175
 2314SOL    HW218974   4.284   5.387   0.162
 2315SOL     OW18975   3.885   5.333   1.161
 2315SOL    HW118976   3.861   5.251   1.109
 2315SOL    HW218977   3.816   5.349   1.232
 2316SOL     OW18978   7.326   6.732   0.127
 2316SOL    HW118979   7.265   6.731   0.048
 2316SOL    HW218980   7.271   6.726   0.211
 2317SOL     OW18981   2.543   4.019   0.373
 2317SOL    HW118982   2.524   3.997   0.468
 2317SOL    HW218983   2.566   3.936   0.323
 2318SOL     OW18984   8.516   7.557   5.664
 2318SOL    HW118985   8.447   7.542   5.735
 2318SOL    HW218986   8.500   7.645   5.620
 2319SOL     OW18987   4.903   6.996   1.059
 2319SOL    HW118988   4.929   6.958   0.970
 2319SOL    HW218989   4.803   7.006   1.063
 2320SOL     OW18990   6.591   5.539   0.713
 2320SOL    HW118991   6.680   5.494   0.725
 2320SOL    HW218992   6.603   5.638   0.718
 2321SOL     OW18993   5.932   3.202   0.197
 2321SOL    HW118994   5.873   3.263   0.146
 2321SOL    HW218995   5.997   3.158   0.135
 2322SOL     OW18996   2.736   0.861   2.060
 2322SOL    HW118997   2.683   0.793   2.010
 2322SOL    HW218998   2.828   0.827   2.077
 2323SOL     OW18999   4.709   2.442   1.046
 2323SOL    HW119000   4.692   2.527   1.097
 2323SOL    HW219001   4.625   2.413   1.001
 2324SOL     OW19002   7.085   3.817   6.758
 2324SOL    HW119003   7.175   3.792   6.723
 2324SOL    HW219004   7.063   3.760   6.838
 2325SOL     OW19005   3.501   6.807   0.729
 2325SOL    HW119006   3.564   6.882   0.751
 2325SOL    HW219007   3.495   6.797   0.630
 2326SOL     OW19008   0.112   5.661   5.607
 2326SOL    HW119009   0.163   5.588   5.561
 2326SOL    HW219010   0.081   5.728   5.540
 2327SOL     OW19011   2.456   0.046   4.944
 2327SOL    HW119012   2.428   0.038   4.848
 2327SOL    HW219013   2.535   0.107   4.951
 2328SOL     OW19014   8.071   7.227   0.434
 2328SOL    HW119015   8.048   7.276   0.517
 2328SOL    HW219016   8.170   7.229   0.420
 2329SOL     OW19017   2.744   2.365   1.584
 2329SOL    HW119018   2.824   2.306   1.596
 2329SOL    HW219019   2.710   2.393   1.673
 2330SOL     OW19020   3.239   0.979   0.941
 2330SOL    HW119021   3.148   0.965   0.981
 2330SOL    HW219022   3.239   1.064   0.888
 2331SOL     OW19023   5.114   2.811   6.757
 2331SOL    HW119024   5.183   2.813   6.685
 2331SOL    HW219025   5.160   2.799   6.846
 2332SOL     OW19026   2.669   5.489   0.182
 2332SOL    HW119027   2.748   5.471   0.241
 2332SOL    HW219028   2.595   5.527   0.237
 2333SOL     OW19029   9.435   0.475   0.943
 2333SOL    HW119030   9.525   0.515   0.928
 2333SOL    HW219031   9.424   0.395   0.883
 2334SOL     OW19032   0.979   2.204   6.095
 2334SOL    HW119033   1.004   2.198   5.999
 2334SOL    HW219034   0.956   2.298   6.118
 2335SOL     OW19035   0.989   5.893   6.028
 2335SOL    HW119036   0.889   5.886   6.032
 2335SOL    HW219037   1.024   5.906   6.121
 2336SOL     OW19038   5.760   4.255   5.833
 2336SOL    HW119039   5.677   4.300   5.865
 2336SOL    HW219040   5.736   4.178   5.775
 2337SOL     OW19041   9.456   6.874   1.157
 2337SOL    HW119042   9.361   6.903   1.140
 2337SOL    HW219043   9.469   6.859   1.255
 2338SOL     OW19044   7.714   3.735   6.777
 2338SOL    HW119045   7.780   3.665   6.807
 2338SOL    HW219046   7.622   3.695   6.776
 2339SOL     OW19047   2.532   0.502   6.274
 2339SOL    HW119048   2.611   0.449   6.243
 2339SOL    HW219049   2.464   0.441   6.314
 2340SOL     OW19050   0.429   4.493   0.354
 2340SOL    HW119051   0.529   4.493   0.350
 2340SOL    HW219052   0.392   4.547   0.278
 2341SOL     OW19053   7.497   2.001   0.846
 2341SOL    HW119054   7.591   1.979   0.819
 2341SOL    HW219055   7.440   2.007   0.764
 2342SOL     OW19056   3.444   0.704   2.185
 2342SOL    HW119057   3.367   0.673   2.129
 2342SOL    HW219058   3.529   0.675   2.142
 2343SOL     OW19059   1.153   8.124   5.521
 2343SOL    HW119060   1.121   8.031   5.533
 2343SOL    HW219061   1.106   8.185   5.585
 2344SOL     OW19062   1.067   5.956   5.456
 2344SOL    HW119063   0.997   5.942   5.526
 2344SOL    HW219064   1.148   5.996   5.497
 2345SOL     OW19065   2.218   1.605   5.622
 2345SOL    HW119066   2.227   1.646   5.531
 2345SOL    HW219067   2.125   1.621   5.656
 2346SOL     OW19068   0.724   3.598   5.612
 2346SOL    HW119069   0.640   3.558   5.576
 2346SOL    HW219070   0.709   3.695   5.632
 2347SOL     OW19071   2.288   7.251   1.343
 2347SOL    HW119072   2.252   7.204   1.263
 2347SOL    HW219073   2.220   7.316   1.377
 2348SOL     OW19074   4.569   2.072   6.401
 2348SOL    HW119075   4.570   2.129   6.318
 2348SOL    HW219076   4.583   2.130   6.481
 2349SOL     OW19077   2.353   3.540   0.896
 2349SOL    HW119078   2.308   3.620   0.935
 2349SOL    HW219079   2.449   3.539   0.924
 2350SOL     OW19080   6.138   5.969   1.923
 2350SOL    HW119081   6.220   5.962   1.866
 2350SOL    HW219082   6.159   6.021   2.006
 2351SOL     OW19083   0.562   5.809   4.742
 2351SOL    HW119084   0.569   5.751   4.823
 2351SOL    HW219085   0.474   5.795   4.697
 2352SOL     OW19086   8.623   3.824   0.800
 2352SOL    HW119087   8.619   3.726   0.783
 2352SOL    HW219088   8.701   3.845   0.859
 2353SOL     OW19089   9.305   0.348   0.540
 2353SOL    HW119090   9.315   0.405   0.458
 2353SOL    HW219091   9.392   0.347   0.590
 2354SOL     OW19092   3.336   3.339   0.547
 2354SOL    HW119093   3.325   3.429   0.506
 2354SOL    HW219094   3.351   3.271   0.475
 2355SOL     OW19095   8.230   7.935   0.238
 2355SOL    HW119096   8.269   7.962   0.149
 2355SOL    HW219097   8.272   7.849   0.267
 2356SOL     OW19098   3.676   3.457   0.282
 2356SOL    HW119099   3.701   3.395   0.357
 2356SOL    HW219100   3.715   3.548   0.300
 2357SOL     OW19101   3.664   0.784   0.511
 2357SOL    HW119102   3.714   0.831   0.438
 2357SOL    HW219103   3.668   0.685   0.496
 2358SOL     OW19104   0.822   0.951   1.560
 2358SOL    HW119105   0.901   0.921   1.614
 2358SOL    HW219106   0.750   0.882   1.566
 2359SOL     OW19107   4.480   2.341   0.943
 2359SOL    HW119108   4.381   2.326   0.954
 2359SOL    HW219109   4.522   2.258   0.906
 2360SOL     OW19110   3.486   2.938   1.270
 2360SOL    HW119111   3.422   2.871   1.232
 2360SOL    HW219112   3.571   2.936   1.219
 2361SOL     OW19113   8.585   1.361   5.998
 2361SOL    HW119114   8.574   1.268   5.964
 2361SOL    HW219115   8.601   1.360   6.096
 2362SOL     OW19116   4.969   8.219   1.391
 2362SOL    HW119117   4.872   8.210   1.415
 2362SOL    HW219118   5.019   8.252   1.470
 2363SOL     OW19119   0.130   6.301   4.569
 2363SOL    HW119120   0.211   6.319   4.626
 2363SOL    HW219121   0.114   6.379   4.509
 2364SOL     OW19122   2.941   3.526   5.539
 2364SOL    HW119123   2.910   3.531   5.445
 2364SOL    HW219124   3.041   3.535   5.542
 2365SOL     OW19125   8.580   5.209   5.513
 2365SOL    HW119126   8.519   5.134   5.488
 2365SOL    HW219127   8.657   5.212   5.449
 2366SOL     OW19128   7.667   0.687   6.547
 2366SOL    HW119129   7.652   0.746   6.468
 2366SOL    HW219130   7.717   0.605   6.519
 2367SOL     OW19131   0.909   6.806   0.131
 2367SOL    HW119132   0.865   6.891   0.158
 2367SOL    HW219133   0.995   6.825   0.085
 2368SOL     OW19134   4.842   4.791   6.017
 2368SOL    HW119135   4.796   4.879   6.023
 2368SOL    HW219136   4.774   4.718   6.012
 2369SOL     OW19137   5.585   0.854   1.042
 2369SOL    HW119138   5.610   0.926   0.978
 2369SOL    HW219139   5.536   0.895   1.120
 2370SOL     OW19140   3.521   5.108   0.816
 2370SOL    HW119141   3.565   5.121   0.727
 2370SOL    HW219142   3.438   5.053   0.805
 2371SOL     OW19143   4.182   7.840   1.390
 2371SOL    HW119144   4.241   7.773   1.435
 2371SOL    HW219145   4.238   7.904   1.336
 2372SOL     OW19146   4.394   3.445   0.155
 2372SOL    HW119147   4.427   3.352   0.136
 2372SOL    HW219148   4.361   3.487   0.070
 2373SOL     OW19149   0.870   0.924   6.848
 2373SOL    HW119150   0.855   0.891   6.941
 2373SOL    HW219151   0.862   1.024   6.846
 2374SOL     OW19152   0.857   2.929   0.374
 2374SOL    HW119153   0.835   3.023   0.398
 2374SOL    HW219154   0.937   2.898   0.426
 2375SOL     OW19155   1.759   6.498   5.061
 2375SOL    HW119156   1.783   6.434   4.988
 2375SOL    HW219157   1.836   6.560   5.077
 2376SOL     OW19158   4.035   5.877   5.680
 2376SOL    HW119159   4.019   5.779   5.692
 2376SOL    HW219160   4.100   5.891   5.605
 2377SOL     OW19161   2.523   1.518   5.943
 2377SOL    HW119162   2.504   1.465   5.860
 2377SOL    HW219163   2.462   1.597   5.948
 2378SOL     OW19164   7.112   1.564   0.532
 2378SOL    HW119165   7.186   1.630   0.520
 2378SOL    HW219166   7.105   1.506   0.451
 2379SOL     OW19167   1.121   0.612   6.414
 2379SOL    HW119168   1.029   0.651   6.414
 2379SOL    HW219169   1.170   0.642   6.332
 2380SOL     OW19170   9.442   6.807   1.511
 2380SOL    HW119171   9.347   6.832   1.527
 2380SOL    HW219172   9.453   6.708   1.522
 2381SOL     OW19173   7.663   4.236   0.200
 2381SOL    HW119174   7.603   4.178   0.145
 2381SOL    HW219175   7.685   4.319   0.149
 2382SOL     OW19176   7.068   5.055   6.803
 2382SOL    HW119177   7.030   4.970   6.841
 2382SOL    HW219178   7.166   5.059   6.823
 2383SOL     OW19179   3.859   3.063   1.341
 2383SOL    HW119180   3.853   2.972   1.384
 2383SOL    HW219181   3.819   3.060   1.250
 2384SOL     OW19182   2.120   2.720   6.072
 2384SOL    HW119183   2.215   2.719   6.103
 2384SOL    HW219184   2.099   2.809   6.033
 2385SOL     OW19185   8.755   2.940   6.175
 2385SOL    HW119186   8.671   2.912   6.221
 2385SOL    HW219187   8.823   2.868   6.183
 2386SOL     OW19188   3.839   3.294   0.455
 2386SOL    HW119189   3.889   3.367   0.409
 2386SOL    HW219190   3.857   3.207   0.409
 2387SOL     OW19191   7.224   1.379   6.512
 2387SOL    HW119192   7.137   1.328   6.512
 2387SOL    HW219193   7.262   1.378   6.420
 2388SOL     OW19194   0.338   0.970   0.609
 2388SOL    HW119195   0.387   1.034   0.668
 2388SOL    HW219196   0.261   0.930   0.660
 2389SOL     OW19197   9.575   0.879   5.004
 2389SOL    HW119198   9.538   0.970   5.018
 2389SOL    HW219199   9.606   0.870   4.909
 2390SOL     OW19200   2.408   2.591   6.595
 2390SOL    HW119201   2.469   2.599   6.673
 2390SOL    HW219202   2.386   2.682   6.561
 2391SOL     OW19203   6.291   7.668   6.408
 2391SOL    HW119204   6.202   7.625   6.424
 2391SOL    HW219205   6.353   7.601   6.366
 2392SOL     OW19206   4.577   7.912   5.113
 2392SOL    HW119207   4.620   7.949   5.031
 2392SOL    HW219208   4.574   7.812   5.107
 2393SOL     OW19209   9.372   8.369   5.169
 2393SOL    HW119210   9.288   8.402   5.212
 2393SOL    HW219211   9.365   8.378   5.070
 2394SOL     OW19212   5.597   0.659   2.271
 2394SOL    HW119213   5.676   0.718   2.286
 2394SOL    HW219214   5.523   0.686   2.333
 2395SOL     OW19215   0.631   7.526   6.409
 2395SOL    HW119216   0.577   7.534   6.493
 2395SOL    HW219217   0.611   7.603   6.349
 2396SOL     OW19218   7.398   0.482   0.262
 2396SOL    HW119219   7.483   0.514   0.219
 2396SOL    HW219220   7.415   0.462   0.359
 2397SOL     OW19221   7.569   5.618   0.530
 2397SOL    HW119222   7.566   5.659   0.439
 2397SOL    HW219223   7.636   5.665   0.586
 2398SOL     OW19224   4.009   5.722   6.855
 2398SOL    HW119225   3.957   5.708   6.939
 2398SOL    HW219226   4.061   5.639   6.834
 2399SOL     OW19227   1.878   6.116   0.225
 2399SOL    HW119228   1.924   6.074   0.146
 2399SOL    HW219229   1.846   6.207   0.201
 2400SOL     OW19230   7.507   6.226   5.269
 2400SOL    HW119231   7.466   6.156   5.210
 2400SOL    HW219232   7.509   6.313   5.220
 2401SOL     OW19233   2.646   1.428   6.431
 2401SOL    HW119234   2.650   1.456   6.335
 2401SOL    HW219235   2.590   1.493   6.482
 2402SOL     OW19236   3.419   1.084   6.292
 2402SOL    HW119237   3.355   1.017   6.331
 2402SOL    HW219238   3.367   1.161   6.255
 2403SOL     OW19239   4.931   5.957   6.805
 2403SOL    HW119240   4.941   5.948   6.904
 2403SOL    HW219241   5.020   5.977   6.763
 2404SOL     OW19242   6.710   6.479   5.628
 2404SOL    HW119243   6.789   6.539   5.614
 2404SOL    HW219244   6.692   6.470   5.726
 2405SOL     OW19245   6.759   4.942   0.298
 2405SOL    HW119246   6.794   5.026   0.340
 2405SOL    HW219247   6.756   4.953   0.199
 2406SOL     OW19248   2.805   4.774   0.649
 2406SOL    HW119249   2.853   4.862   0.645
 2406SOL    HW219250   2.803   4.734   0.557
 2407SOL     OW19251   2.804   5.018   1.163
 2407SOL    HW119252   2.756   5.060   1.086
 2407SOL    HW219253   2.878   5.078   1.193
 2408SOL     OW19254   8.823   2.441   5.110
 2408SOL    HW119255   8.830   2.341   5.109
 2408SOL    HW219256   8.727   2.468   5.112
 2409SOL     OW19257   5.903   2.417   6.085
 2409SOL    HW119258   5.911   2.488   6.015
 2409SOL    HW219259   5.902   2.327   6.042
 2410SOL     OW19260   8.230   8.379   5.012
 2410SOL    HW119261   8.149   8.432   4.989
 2410SOL    HW219262   8.289   8.433   5.073
 2411SOL     OW19263   7.151   0.378   6.012
 2411SOL    HW119264   7.083   0.448   5.989
 2411SOL    HW219265   7.105   0.291   6.030
 2412SOL     OW19266   5.957   6.037   0.758
 2412SOL    HW119267   5.914   5.958   0.714
 2412SOL    HW219268   6.010   6.006   0.837
 2413SOL     OW19269   9.054   6.667   6.409
 2413SOL    HW119270   8.982   6.686   6.342
 2413SOL    HW219271   9.086   6.753   6.450
 2414SOL     OW19272   6.801   4.005   6.813
 2414SOL    HW119273   6.808   3.968   6.906
 2414SOL    HW219274   6.783   4.103   6.817
 2415SOL     OW19275   2.520   5.621   0.927
 2415SOL    HW119276   2.553   5.535   0.889
 2415SOL    HW219277   2.435   5.606   0.978
 2416SOL     OW19278   3.665   1.744   6.665
 2416SOL    HW119279   3.711   1.665   6.624
 2416SOL    HW219280   3.722   1.825   6.655
 2417SOL     OW19281   6.505   1.741   1.336
 2417SOL    HW119282   6.574   1.671   1.317
 2417SOL    HW219283   6.492   1.798   1.255
 2418SOL     OW19284   4.760   7.940   0.793
 2418SOL    HW119285   4.825   7.945   0.717
 2418SOL    HW219286   4.744   8.032   0.829
 2419SOL     OW19287   2.000   0.897   6.852
 2419SOL    HW119288   1.955   0.966   6.908
 2419SOL    HW219289   1.956   0.808   6.867
 2420SOL     OW19290   0.865   7.294   5.875
 2420SOL    HW119291   0.963   7.297   5.893
 2420SOL    HW219292   0.823   7.381   5.902
 2421SOL     OW19293   4.784   6.339   6.527
 2421SOL    HW119294   4.703   6.328   6.468
 2421SOL    HW219295   4.846   6.405   6.486
 2422SOL     OW19296   1.279   8.169   1.205
 2422SOL    HW119297   1.280   8.159   1.305
 2422SOL    HW219298   1.195   8.129   1.168
 2423SOL     OW19299   5.515   6.211   1.056
 2423SOL    HW119300   5.551   6.304   1.051
 2423SOL    HW219301   5.505   6.184   1.152
 2424SOL     OW19302   5.476   0.609   6.081
 2424SOL    HW119303   5.435   0.700   6.084
 2424SOL    HW219304   5.575   0.617   6.089
 2425SOL     OW19305   5.094   0.217   5.650
 2425SOL    HW119306   5.025   0.196   5.581
 2425SOL    HW219307   5.090   0.149   5.723
 2426SOL     OW19308   2.068   1.018   1.240
 2426SOL    HW119309   2.046   1.114   1.260
 2426SOL    HW219310   2.086   0.970   1.326
 2427SOL     OW19311   5.980   4.298   5.990
 2427SOL    HW119312   6.065   4.244   5.993
 2427SOL    HW219313   5.918   4.259   5.923
 2428SOL     OW19314   0.512   7.028   0.168
 2428SOL    HW119315   0.462   6.943   0.156
 2428SOL    HW219316   0.552   7.056   0.080
 2429SOL     OW19317   1.370   0.553   6.113
 2429SOL    HW119318   1.438   0.572   6.185
 2429SOL    HW219319   1.285   0.523   6.155
 2430SOL     OW19320   4.226   0.859   1.846
 2430SOL    HW119321   4.204   0.922   1.920
 2430SOL    HW219322   4.314   0.815   1.865
 2431SOL     OW19323   6.312   4.941   5.579
 2431SOL    HW119324   6.350   4.849   5.572
 2431SOL    HW219325   6.259   4.962   5.498
 2432SOL     OW19326   0.741   1.031   6.211
 2432SOL    HW119327   0.763   1.009   6.116
 2432SOL    HW219328   0.818   1.080   6.252
 2433SOL     OW19329   6.507   0.296   6.337
 2433SOL    HW119330   6.600   0.331   6.341
 2433SOL    HW219331   6.505   0.202   6.369
 2434SOL     OW19332   8.408   4.548   0.515
 2434SOL    HW119333   8.503   4.517   0.516
 2434SOL    HW219334   8.363   4.514   0.433
 2435SOL     OW19335   2.296   3.135   0.687
 2435SOL    HW119336   2.323   3.072   0.615
 2435SOL    HW219337   2.332   3.226   0.667
 2436SOL     OW19338   0.202   5.132   5.884
 2436SOL    HW119339   0.257   5.111   5.804
 2436SOL    HW219340   0.113   5.169   5.855
 2437SOL     OW19341   8.339   3.666   5.248
 2437SOL    HW119342   8.252   3.638   5.290
 2437SOL    HW219343   8.376   3.591   5.195
 2438SOL     OW19344   0.776   3.074   5.190
 2438SOL    HW119345   0.806   3.169   5.185
 2438SOL    HW219346   0.704   3.059   5.122
 2439SOL     OW19347   0.567   0.216   0.951
 2439SOL    HW119348   0.616   0.299   0.925
 2439SOL    HW219349   0.481   0.241   0.996
 2440SOL     OW19350   6.004   0.703   6.054
 2440SOL    HW119351   6.068   0.688   5.979
 2440SOL    HW219352   5.922   0.647   6.040
 2441SOL     OW19353   3.734   2.636   0.512
 2441SOL    HW119354   3.704   2.549   0.551
 2441SOL    HW219355   3.667   2.668   0.445
 2442SOL     OW19356   5.782   6.516   5.980
 2442SOL    HW119357   5.857   6.450   5.979
 2442SOL    HW219358   5.699   6.472   5.945
 2443SOL     OW19359   7.388   0.896   5.566
 2443SOL    HW119360   7.404   0.995   5.559
 2443SOL    HW219361   7.306   0.872   5.514
 2444SOL     OW19362   3.535   5.071   1.342
 2444SOL    HW119363   3.609   5.126   1.382
 2444SOL    HW219364   3.509   5.111   1.254
 2445SOL     OW19365   2.750   6.238   1.064
 2445SOL    HW119366   2.826   6.180   1.035
 2445SOL    HW219367   2.705   6.277   0.984
 2446SOL     OW19368   7.084   6.997   0.509
 2446SOL    HW119369   7.077   6.898   0.500
 2446SOL    HW219370   7.151   7.031   0.442
 2447SOL     OW19371   8.429   7.485   0.501
 2447SOL    HW119372   8.388   7.397   0.477
 2447SOL    HW219373   8.529   7.478   0.494
 2448SOL     OW19374   5.007   2.832   1.175
 2448SOL    HW119375   4.956   2.792   1.251
 2448SOL    HW219376   5.017   2.765   1.102
 2449SOL     OW19377   3.911   5.187   6.168
 2449SOL    HW119378   3.815   5.162   6.178
 2449SOL    HW219379   3.953   5.132   6.096
 2450SOL     OW19380   6.990   7.820   1.342
 2450SOL    HW119381   7.049   7.859   1.413
 2450SOL    HW219382   6.922   7.761   1.385
 2451SOL     OW19383   3.917   6.172   6.690
 2451SOL    HW119384   3.876   6.235   6.756
 2451SOL    HW219385   4.000   6.132   6.730
 2452SOL     OW19386   6.536   4.904   6.276
 2452SOL    HW119387   6.601   4.977   6.293
 2452SOL    HW219388   6.584   4.816   6.276
 2453SOL     OW19389   4.235   8.072   1.229
 2453SOL    HW119390   4.204   8.093   1.136
 2453SOL    HW219391   4.204   8.144   1.291
 2454SOL     OW19392   8.685   7.821   6.748
 2454SOL    HW119393   8.712   7.811   6.652
 2454SOL    HW219394   8.687   7.918   6.773
 2455SOL     OW19395   1.832   7.969   0.364
 2455SOL    HW119396   1.842   8.009   0.455
 2455SOL    HW219397   1.807   8.040   0.298
 2456SOL     OW19398   5.656   1.119   1.872
 2456SOL    HW119399   5.750   1.102   1.902
 2456SOL    HW219400   5.656   1.190   1.801
 2457SOL     OW19401   3.583   0.503   0.259
 2457SOL    HW119402   3.613   0.500   0.355
 2457SOL    HW219403   3.663   0.498   0.199
 2458SOL     OW19404   2.244   6.432   1.551
 2458SOL    HW119405   2.222   6.342   1.588
 2458SOL    HW219406   2.163   6.470   1.507
 2459SOL     OW19407   1.045   7.035   1.400
 2459SOL    HW119408   1.119   7.098   1.377
 2459SOL    HW219409   0.972   7.083   1.448
 2460SOL     OW19410   3.604   0.097   0.226
 2460SOL    HW119411   3.551   0.018   0.259
 2460SOL    HW219412   3.631   0.154   0.303
 2461SOL     OW19413   3.755   2.011   0.584
 2461SOL    HW119414   3.697   2.086   0.553
 2461SOL    HW219415   3.698   1.936   0.619
 2462SOL     OW19416   9.574   4.650   0.819
 2462SOL    HW119417   9.633   4.714   0.869
 2462SOL    HW219418   9.555   4.570   0.876
 2463SOL     OW19419   2.225   5.322   0.220
 2463SOL    HW119420   2.266   5.308   0.130
 2463SOL    HW219421   2.137   5.275   0.225
 2464SOL     OW19422   4.777   2.218   0.672
 2464SOL    HW119423   4.691   2.182   0.635
 2464SOL    HW219424   4.788   2.188   0.767
 2465SOL     OW19425   4.052   4.801   6.611
 2465SOL    HW119426   4.000   4.790   6.696
 2465SOL    HW219427   4.001   4.859   6.548
 2466SOL     OW19428   2.308   7.679   6.441
 2466SOL    HW119429   2.399   7.655   6.407
 2466SOL    HW219430   2.240   7.664   6.369
 2467SOL     OW19431   9.344   6.320   0.137
 2467SOL    HW119432   9.342   6.389   0.209
 2467SOL    HW219433   9.251   6.287   0.121
 2468SOL     OW19434   7.590   3.869   0.362
 2468SOL    HW119435   7.503   3.900   0.324
 2468SOL    HW219436   7.652   3.947   0.371
 2469SOL     OW19437   1.811   6.202   6.163
 2469SOL    HW119438   1.875   6.231   6.092
 2469SOL    HW219439   1.855   6.212   6.253
 2470SOL     OW19440   4.791   1.155   6.515
 2470SOL    HW119441   4.825   1.097   6.440
 2470SOL    HW219442   4.865   1.213   6.549
 2471SOL     OW19443   4.059   4.448   1.520
 2471SOL    HW119444   4.012   4.366   1.553
 2471SOL    HW219445   3.993   4.519   1.499
 2472SOL     OW19446   6.506   2.807   6.186
 2472SOL    HW119447   6.492   2.885   6.125
 2472SOL    HW219448   6.503   2.722   6.133
 2473SOL     OW19449   2.117   3.908   1.794
 2473SOL    HW119450   2.018   3.900   1.782
 2473SOL    HW219451   2.164   3.849   1.729
 2474SOL     OW19452   6.423   4.025   0.421
 2474SOL    HW119453   6.389   3.931   0.423
 2474SOL    HW219454   6.346   4.088   0.409
 2475SOL     OW19455   5.283   0.413   5.683
 2475SOL    HW119456   5.305   0.413   5.780
 2475SOL    HW219457   5.219   0.338   5.663
 2476SOL     OW19458   3.209   6.172   1.507
 2476SOL    HW119459   3.238   6.233   1.580
 2476SOL    HW219460   3.109   6.174   1.499
 2477SOL     OW19461   6.524   8.298   5.512
 2477SOL    HW119462   6.586   8.223   5.490
 2477SOL    HW219463   6.577   8.376   5.545
 2478SOL     OW19464   9.000   1.782   6.240
 2478SOL    HW119465   8.986   1.879   6.255
 2478SOL    HW219466   9.068   1.747   6.304
 2479SOL     OW19467   4.995   3.930   1.693
 2479SOL    HW119468   5.016   3.833   1.680
 2479SOL    HW219469   4.967   3.946   1.787
 2480SOL     OW19470   5.693   2.145   1.630
 2480SOL    HW119471   5.735   2.055   1.636
 2480SOL    HW219472   5.595   2.135   1.611
 2481SOL     OW19473   5.101   0.070   0.891
 2481SOL    HW119474   5.183   0.031   0.931
 2481SOL    HW219475   5.090   0.165   0.922
 2482SOL     OW19476   1.822   4.923   6.223
 2482SOL    HW119477   1.776   5.009   6.246
 2482SOL    HW219478   1.882   4.936   6.144
 2483SOL     OW19479   4.078   6.826   5.068
 2483SOL    HW119480   4.035   6.783   5.147
 2483SOL    HW219481   4.013   6.888   5.024
 2484SOL     OW19482   0.375   1.030   6.057
 2484SOL    HW119483   0.368   1.020   6.157
 2484SOL    HW219484   0.468   1.056   6.033
 2485SOL     OW19485   7.779   3.756   2.085
 2485SOL    HW119486   7.785   3.855   2.086
 2485SOL    HW219487   7.684   3.729   2.065
 2486SOL     OW19488   7.323   7.811   5.161
 2486SOL    HW119489   7.390   7.859   5.104
 2486SOL    HW219490   7.236   7.860   5.160
 2487SOL     OW19491   4.500   4.900   6.118
 2487SOL    HW119492   4.493   4.958   6.037
 2487SOL    HW219493   4.493   4.956   6.200
 2488SOL     OW19494   3.879   2.366   1.435
 2488SOL    HW119495   3.971   2.339   1.465
 2488SOL    HW219496   3.864   2.462   1.461
 2489SOL     OW19497   0.633   4.103   6.827
 2489SOL    HW119498   0.595   4.037   6.892
 2489SOL    HW219499   0.662   4.054   6.744
 2490SOL     OW19500   3.220   4.711   0.397
 2490SOL    HW119501   3.305   4.729   0.448
 2490SOL    HW219502   3.174   4.631   0.437
 2491SOL     OW19503   3.265   1.209   6.076
 2491SOL    HW119504   3.209   1.161   6.009
 2491SOL    HW219505   3.223   1.297   6.098
 2492SOL     OW19506   4.719   5.004   6.768
 2492SOL    HW119507   4.637   5.023   6.715
 2492SOL    HW219508   4.716   4.910   6.802
 2493SOL     OW19509   5.060   5.019   5.810
 2493SOL    HW119510   5.015   4.983   5.728
 2493SOL    HW219511   5.095   4.943   5.865
 2494SOL     OW19512   8.370  -0.047   0.479
 2494SOL    HW119513   8.310   0.030   0.502
 2494SOL    HW219514   8.448  -0.014   0.426
 2495SOL     OW19515   1.240   3.414   6.609
 2495SOL    HW119516   1.204   3.408   6.702
 2495SOL    HW219517   1.296   3.334   6.589
 2496SOL     OW19518   3.953   6.090   1.586
 2496SOL    HW119519   3.932   6.107   1.490
 2496SOL    HW219520   3.895   6.149   1.643
 2497SOL     OW19521   3.084   2.495   5.610
 2497SOL    HW119522   3.059   2.421   5.548
 2497SOL    HW219523   3.001   2.538   5.646
 2498SOL     OW19524   8.228   0.331   6.083
 2498SOL    HW119525   8.305   0.375   6.038
 2498SOL    HW219526   8.214   0.373   6.173
 2499SOL     OW19527   8.925   4.359   6.211
 2499SOL    HW119528   8.965   4.305   6.137
 2499SOL    HW219529   8.997   4.410   6.258
 2500SOL     OW19530   6.245   0.270   5.766
 2500SOL    HW119531   6.162   0.292   5.715
 2500SOL    HW219532   6.232   0.183   5.814
 2501SOL     OW19533   3.797   4.901   0.392
 2501SOL    HW119534   3.783   4.999   0.383
 2501SOL    HW219535   3.814   4.879   0.488
 2502SOL     OW19536   1.850   8.215   0.177
 2502SOL    HW119537   1.842   8.311   0.203
 2502SOL    HW219538   1.779   8.192   0.110
 2503SOL     OW19539   3.928   7.243   5.831
 2503SOL    HW119540   3.923   7.290   5.919
 2503SOL    HW219541   3.971   7.154   5.843
 2504SOL     OW19542   8.204   0.647   6.512
 2504SOL    HW119543   8.134   0.642   6.584
 2504SOL    HW219544   8.170   0.705   6.438
 2505SOL     OW19545   0.988   5.954   5.101
 2505SOL    HW119546   1.030   5.907   5.024
 2505SOL    HW219547   1.055   5.963   5.175
 2506SOL     OW19548   3.223   2.762   6.792
 2506SOL    HW119549   3.188   2.821   6.719
 2506SOL    HW219550   3.244   2.671   6.754
 2507SOL     OW19551   9.039   5.468   6.142
 2507SOL    HW119552   9.123   5.414   6.149
 2507SOL    HW219553   8.988   5.441   6.060
 2508SOL     OW19554   3.278   7.219   0.449
 2508SOL    HW119555   3.197   7.165   0.472
 2508SOL    HW219556   3.301   7.205   0.353
 2509SOL     OW19557   6.355   2.949   1.567
 2509SOL    HW119558   6.347   2.916   1.661
 2509SOL    HW219559   6.374   3.048   1.567
 2510SOL     OW19560   8.636   5.068   0.809
 2510SOL    HW119561   8.698   5.050   0.885
 2510SOL    HW219562   8.649   4.999   0.738
 2511SOL     OW19563   7.184   7.400   1.839
 2511SOL    HW119564   7.284   7.400   1.850
 2511SOL    HW219565   7.144   7.460   1.908
 2512SOL     OW19566   9.204   7.739   0.693
 2512SOL    HW119567   9.245   7.706   0.608
 2512SOL    HW219568   9.177   7.662   0.750
 2513SOL     OW19569   4.727   6.207   0.490
 2513SOL    HW119570   4.809   6.152   0.500
 2513SOL    HW219571   4.646   6.148   0.490
 2514SOL     OW19572   0.539   5.776   0.642
 2514SOL    HW119573   0.616   5.713   0.626
 2514SOL    HW219574   0.454   5.724   0.644
 2515SOL     OW19575   1.806   6.970   6.454
 2515SOL    HW119576   1.855   7.057   6.460
 2515SOL    HW219577   1.795   6.944   6.358
 2516SOL     OW19578   9.428   2.721   0.806
 2516SOL    HW119579   9.508   2.764   0.763
 2516SOL    HW219580   9.358   2.790   0.824
 2517SOL     OW19581   5.101   4.903   1.115
 2517SOL    HW119582   5.090   4.804   1.120
 2517SOL    HW219583   5.161   4.934   1.188
 2518SOL     OW19584   0.967   7.767   4.212
 2518SOL    HW119585   0.868   7.758   4.198
 2518SOL    HW219586   0.985   7.842   4.276
 2519SOL     OW19587   3.590   5.445   0.328
 2519SOL    HW119588   3.567   5.386   0.405
 2519SOL    HW219589   3.510   5.500   0.304
 2520SOL     OW19590   1.416   5.950   5.336
 2520SOL    HW119591   1.382   5.938   5.243
 2520SOL    HW219592   1.349   5.916   5.401
 2521SOL     OW19593   7.706   3.352   6.653
 2521SOL    HW119594   7.735   3.275   6.710
 2521SOL    HW219595   7.606   3.359   6.657
 2522SOL     OW19596   3.647   5.152   6.205
 2522SOL    HW119597   3.575   5.163   6.136
 2522SOL    HW219598   3.608   5.111   6.288
 2523SOL     OW19599   8.357   3.536   6.349
 2523SOL    HW119600   8.335   3.535   6.252
 2523SOL    HW219601   8.440   3.590   6.364
 2524SOL     OW19602   6.525   4.014   6.535
 2524SOL    HW119603   6.612   4.035   6.491
 2524SOL    HW219604   6.465   4.094   6.532
 2525SOL     OW19605   0.423   7.435   5.188
 2525SOL    HW119606   0.420   7.453   5.089
 2525SOL    HW219607   0.334   7.402   5.218
 2526SOL     OW19608   2.437   5.837   0.541
 2526SOL    HW119609   2.386   5.803   0.620
 2526SOL    HW219610   2.374   5.856   0.466
 2527SOL     OW19611   8.535   6.920   5.500
 2527SOL    HW119612   8.559   6.936   5.404
 2527SOL    HW219613   8.435   6.915   5.508
 2528SOL     OW19614   2.966   1.356   1.824
 2528SOL    HW119615   2.973   1.309   1.736
 2528SOL    HW219616   2.948   1.453   1.809
 2529SOL     OW19617   1.164   7.558   1.740
 2529SOL    HW119618   1.176   7.643   1.791
 2529SOL    HW219619   1.075   7.557   1.695
 2530SOL     OW19620   2.083   5.735   5.688
 2530SOL    HW119621   2.142   5.772   5.759
 2530SOL    HW219622   2.010   5.681   5.730
 2531SOL     OW19623   0.690   5.027   0.152
 2531SOL    HW119624   0.613   5.080   0.189
 2531SOL    HW219625   0.769   5.087   0.140
 2532SOL     OW19626   7.176   5.114   6.275
 2532SOL    HW119627   7.250   5.067   6.225
 2532SOL    HW219628   7.213   5.196   6.319
 2533SOL     OW19629   1.207   0.367   4.644
 2533SOL    HW119630   1.143   0.336   4.574
 2533SOL    HW219631   1.234   0.461   4.624
 2534SOL     OW19632   0.412   1.908   6.224
 2534SOL    HW119633   0.321   1.909   6.182
 2534SOL    HW219634   0.482   1.907   6.152
 2535SOL     OW19635   5.070   3.285   1.241
 2535SOL    HW119636   5.114   3.375   1.250
 2535SOL    HW219637   5.100   3.226   1.315
 2536SOL     OW19638   9.253   0.900   6.043
 2536SOL    HW119639   9.346   0.868   6.062
 2536SOL    HW219640   9.233   0.981   6.097
 2537SOL     OW19641   8.463   1.206   6.301
 2537SOL    HW119642   8.518   1.125   6.285
 2537SOL    HW219643   8.395   1.187   6.372
 2538SOL     OW19644   1.616   7.878   5.744
 2538SOL    HW119645   1.545   7.817   5.708
 2538SOL    HW219646   1.702   7.861   5.696
 2539SOL     OW19647   0.649   2.011   0.684
 2539SOL    HW119648   0.652   1.983   0.780
 2539SOL    HW219649   0.618   1.935   0.628
 2540SOL     OW19650   9.331   1.806   5.540
 2540SOL    HW119651   9.411   1.852   5.502
 2540SOL    HW219652   9.350   1.709   5.552
 2541SOL     OW19653   8.494   0.436   5.364
 2541SOL    HW119654   8.505   0.371   5.288
 2541SOL    HW219655   8.583   0.473   5.389
 2542SOL     OW19656   5.473   7.339   1.172
 2542SOL    HW119657   5.492   7.437   1.171
 2542SOL    HW219658   5.387   7.322   1.220
 2543SOL     OW19659   6.835   4.034   0.866
 2543SOL    HW119660   6.860   4.111   0.925
 2543SOL    HW219661   6.918   3.992   0.829
 2544SOL     OW19662   1.948   2.944   6.286
 2544SOL    HW119663   1.901   2.937   6.374
 2544SOL    HW219664   1.907   2.879   6.221
 2545SOL     OW19665   3.527   0.956   6.641
 2545SOL    HW119666   3.573   1.043   6.624
 2545SOL    HW219667   3.431   0.963   6.613
 2546SOL     OW19668   2.599   8.201   0.783
 2546SOL    HW119669   2.658   8.205   0.863
 2546SOL    HW219670   2.638   8.138   0.715
 2547SOL     OW19671   0.517   7.881   0.854
 2547SOL    HW119672   0.512   7.981   0.861
 2547SOL    HW219673   0.600   7.856   0.804
 2548SOL     OW19674   8.914   5.618   5.299
 2548SOL    HW119675   8.856   5.542   5.270
 2548SOL    HW219676   8.985   5.634   5.231
 2549SOL     OW19677   3.082   3.642   6.057
 2549SOL    HW119678   3.128   3.727   6.082
 2549SOL    HW219679   3.071   3.638   5.958
 2550SOL     OW19680   1.616   1.260   0.461
 2550SOL    HW119681   1.580   1.325   0.394
 2550SOL    HW219682   1.595   1.167   0.431
 2551SOL     OW19683   4.974   2.200   0.458
 2551SOL    HW119684   5.009   2.290   0.434
 2551SOL    HW219685   4.906   2.209   0.530
 2552SOL     OW19686   3.254   7.792   0.674
 2552SOL    HW119687   3.296   7.793   0.583
 2552SOL    HW219688   3.326   7.782   0.743
 2553SOL     OW19689   6.206   6.071   4.702
 2553SOL    HW119690   6.295   6.095   4.742
 2553SOL    HW219691   6.221   6.013   4.621
 2554SOL     OW19692   0.389   6.967   4.144
 2554SOL    HW119693   0.311   6.915   4.110
 2554SOL    HW219694   0.448   6.993   4.067
 2555SOL     OW19695   1.624   1.092   6.448
 2555SOL    HW119696   1.670   1.099   6.536
 2555SOL    HW219697   1.615   1.183   6.407
 2556SOL     OW19698   2.913   3.931   5.902
 2556SOL    HW119699   2.882   3.885   5.819
 2556SOL    HW219700   2.944   3.864   5.969
 2557SOL     OW19701   1.632   6.630   4.450
 2557SOL    HW119702   1.535   6.609   4.468
 2557SOL    HW219703   1.638   6.695   4.374
 2558SOL     OW19704   1.292   5.381   0.973
 2558SOL    HW119705   1.375   5.327   0.958
 2558SOL    HW219706   1.285   5.403   1.070
 2559SOL     OW19707   3.676   2.191   6.644
 2559SOL    HW119708   3.721   2.260   6.589
 2559SOL    HW219709   3.733   2.109   6.648
 2560SOL     OW19710   5.614   7.787   6.612
 2560SOL    HW119711   5.595   7.880   6.583
 2560SOL    HW219712   5.691   7.787   6.677
 2561SOL     OW19713   1.075   7.104   0.875
 2561SOL    HW119714   1.019   7.032   0.835
 2561SOL    HW219715   1.085   7.088   0.973
 2562SOL     OW19716   6.118   6.728   5.755
 2562SOL    HW119717   6.190   6.679   5.706
 2562SOL    HW219718   6.051   6.763   5.689
 2563SOL     OW19719   2.058   4.439   5.031
 2563SOL    HW119720   1.994   4.487   4.970
 2563SOL    HW219721   2.110   4.372   4.978
 2564SOL     OW19722   8.172   8.116   6.578
 2564SOL    HW119723   8.186   8.215   6.578
 2564SOL    HW219724   8.092   8.094   6.633
 2565SOL     OW19725   8.728   1.713   6.004
 2565SOL    HW119726   8.650   1.739   5.946
 2565SOL    HW219727   8.769   1.629   5.969
 2566SOL     OW19728   4.327   5.509   6.730
 2566SOL    HW119729   4.423   5.500   6.707
 2566SOL    HW219730   4.300   5.605   6.723
 2567SOL     OW19731   6.993   6.540   6.419
 2567SOL    HW119732   7.030   6.448   6.427
 2567SOL    HW219733   7.048   6.604   6.473
 2568SOL     OW19734   1.097   7.092   0.537
 2568SOL    HW119735   1.071   7.164   0.601
 2568SOL    HW219736   1.174   7.041   0.574
 2569SOL     OW19737   0.974   5.438   0.478
 2569SOL    HW119738   0.906   5.369   0.501
 2569SOL    HW219739   1.056   5.393   0.441
 2570SOL     OW19740   2.932   1.812   2.055
 2570SOL    HW119741   2.836   1.784   2.050
 2570SOL    HW219742   2.960   1.847   1.966
 2571SOL     OW19743   9.300   0.034   0.664
 2571SOL    HW119744   9.367   0.050   0.591
 2571SOL    HW219745   9.209   0.061   0.632
 2572SOL     OW19746   5.800   6.587   5.690
 2572SOL    HW119747   5.844   6.554   5.774
 2572SOL    HW219748   5.721   6.529   5.670
 2573SOL     OW19749   2.654   0.237   4.928
 2573SOL    HW119750   2.712   0.205   4.853
 2573SOL    HW219751   2.667   0.335   4.941
 2574SOL     OW19752   3.724   2.162   1.056
 2574SOL    HW119753   3.754   2.070   1.031
 2574SOL    HW219754   3.637   2.183   1.010
 2575SOL     OW19755   0.901   3.872   5.768
 2575SOL    HW119756   0.926   3.808   5.695
 2575SOL    HW219757   0.973   3.941   5.776
 2576SOL     OW19758   8.206   8.236   0.516
 2576SOL    HW119759   8.126   8.252   0.459
 2576SOL    HW219760   8.259   8.320   0.525
 2577SOL     OW19761   8.436   3.862   5.818
 2577SOL    HW119762   8.503   3.879   5.745
 2577SOL    HW219763   8.350   3.831   5.777
 2578SOL     OW19764   2.675   7.499   6.766
 2578SOL    HW119765   2.684   7.438   6.844
 2578SOL    HW219766   2.765   7.529   6.736
 2579SOL     OW19767   2.803   4.012   1.043
 2579SOL    HW119768   2.740   3.982   0.971
 2579SOL    HW219769   2.791   3.954   1.124
 2580SOL     OW19770   5.633   7.681   1.299
 2580SOL    HW119771   5.728   7.708   1.312
 2580SOL    HW219772   5.592   7.659   1.388
 2581SOL     OW19773   2.998   0.727   2.095
 2581SOL    HW119774   3.062   0.723   2.018
 2581SOL    HW219775   3.043   0.691   2.177
 2582SOL     OW19776   9.397   6.918   6.041
 2582SOL    HW119777   9.309   6.957   6.017
 2582SOL    HW219778   9.466   6.990   6.047
 2583SOL     OW19779   4.289   5.933   5.970
 2583SOL    HW119780   4.378   5.977   5.969
 2583SOL    HW219781   4.217   6.003   5.964
 2584SOL     OW19782   3.685   6.658   6.697
 2584SOL    HW119783   3.621   6.727   6.732
 2584SOL    HW219784   3.664   6.569   6.738
 2585SOL     OW19785   4.669   0.856   0.546
 2585SOL    HW119786   4.603   0.930   0.556
 2585SOL    HW219787   4.639   0.794   0.473
 2586SOL     OW19788   7.217   2.343   0.457
 2586SOL    HW119789   7.301   2.384   0.493
 2586SOL    HW219790   7.238   2.255   0.415
 2587SOL     OW19791   5.709   8.153   6.002
 2587SOL    HW119792   5.776   8.167   6.075
 2587SOL    HW219793   5.737   8.076   5.944
 2588SOL     OW19794   2.648   1.516   0.270
 2588SOL    HW119795   2.613   1.488   0.359
 2588SOL    HW219796   2.739   1.477   0.256
 2589SOL     OW19797   4.255   4.399   5.754
 2589SOL    HW119798   4.163   4.362   5.746
 2589SOL    HW219799   4.268   4.469   5.684
 2590SOL     OW19800   9.388   3.151   6.640
 2590SOL    HW119801   9.422   3.244   6.628
 2590SOL    HW219802   9.450   3.099   6.699
 2591SOL     OW19803   5.445   3.692   0.850
 2591SOL    HW119804   5.348   3.686   0.874
 2591SOL    HW219805   5.480   3.782   0.877
 2592SOL     OW19806   0.138   1.492   5.555
 2592SOL    HW119807   0.191   1.537   5.483
 2592SOL    HW219808   0.041   1.518   5.547
 2593SOL     OW19809   1.271   5.710   4.377
 2593SOL    HW119810   1.214   5.767   4.318
 2593SOL    HW219811   1.248   5.614   4.363
 2594SOL     OW19812   3.264   7.371   6.148
 2594SOL    HW119813   3.193   7.431   6.185
 2594SOL    HW219814   3.247   7.277   6.179
 2595SOL     OW19815   6.876   6.642   5.942
 2595SOL    HW119816   6.797   6.580   5.944
 2595SOL    HW219817   6.960   6.588   5.932
 2596SOL     OW19818   5.993   7.041   1.011
 2596SOL    HW119819   6.090   7.064   1.017
 2596SOL    HW219820   5.976   6.956   1.059
 2597SOL     OW19821   9.038   7.940   6.771
 2597SOL    HW119822   9.130   7.903   6.789
 2597SOL    HW219823   9.024   7.947   6.673
 2598SOL     OW19824   2.829   2.647   5.613
 2598SOL    HW119825   2.847   2.737   5.573
 2598SOL    HW219826   2.739   2.616   5.585
 2599SOL     OW19827   0.448   7.448   4.300
 2599SOL    HW119828   0.506   7.478   4.224
 2599SOL    HW219829   0.420   7.353   4.285
 2600SOL     OW19830   6.585   3.240   5.937
 2600SOL    HW119831   6.580   3.252   5.838
 2600SOL    HW219832   6.629   3.153   5.958
 2601SOL     OW19833   5.238   0.526   6.729
 2601SOL    HW119834   5.261   0.604   6.788
 2601SOL    HW219835   5.143   0.533   6.700
 2602SOL     OW19836   1.624   2.904   0.968
 2602SOL    HW119837   1.527   2.883   0.982
 2602SOL    HW219838   1.655   2.969   1.037
 2603SOL     OW19839   5.837   2.618   0.247
 2603SOL    HW119840   5.820   2.616   0.345
 2603SOL    HW219841   5.928   2.655   0.229
 2604SOL     OW19842   9.382   1.071   6.726
 2604SOL    HW119843   9.476   1.073   6.691
 2604SOL    HW219844   9.329   1.003   6.675
 2605SOL     OW19845   0.340   5.408   6.800
 2605SOL    HW119846   0.424   5.422   6.747
 2605SOL    HW219847   0.362   5.404   6.897
 2606SOL     OW19848   5.695   0.753   1.807
 2606SOL    HW119849   5.596   0.746   1.822
 2606SOL    HW219850   5.713   0.766   1.709
 2607SOL     OW19851   5.716   3.839   6.724
 2607SOL    HW119852   5.654   3.761   6.727
 2607SOL    HW219853   5.802   3.815   6.767
 2608SOL     OW19854   2.761   1.136   0.897
 2608SOL    HW119855   2.745   1.098   0.988
 2608SOL    HW219856   2.819   1.073   0.844
 2609SOL     OW19857   4.120   0.724   0.396
 2609SOL    HW119858   4.109   0.626   0.381
 2609SOL    HW219859   4.030   0.766   0.409
 2610SOL     OW19860   0.880   0.417   1.193
 2610SOL    HW119861   0.892   0.376   1.103
 2610SOL    HW219862   0.804   0.483   1.191
 2611SOL     OW19863   9.140   3.058   6.721
 2611SOL    HW119864   9.081   3.098   6.650
 2611SOL    HW219865   9.233   3.094   6.710
 2612SOL     OW19866   6.082   7.796   6.659
 2612SOL    HW119867   6.119   7.707   6.689
 2612SOL    HW219868   6.119   7.818   6.569
 2613SOL     OW19869   3.665   5.097   0.565
 2613SOL    HW119870   3.733   5.168   0.581
 2613SOL    HW219871   3.586   5.135   0.517
 2614SOL     OW19872   5.176   7.815   2.175
 2614SOL    HW119873   5.216   7.756   2.105
 2614SOL    HW219874   5.161   7.761   2.258
 2615SOL     OW19875   0.331   5.198   0.852
 2615SOL    HW119876   0.257   5.132   0.863
 2615SOL    HW219877   0.295   5.290   0.864
 2616SOL     OW19878   0.576   8.303   1.711
 2616SOL    HW119879   0.538   8.238   1.777
 2616SOL    HW219880   0.598   8.388   1.758
 2617SOL     OW19881   8.315   1.802   0.840
 2617SOL    HW119882   8.382   1.737   0.803
 2617SOL    HW219883   8.269   1.762   0.919
 2618SOL     OW19884   7.316   5.285   1.493
 2618SOL    HW119885   7.246   5.221   1.460
 2618SOL    HW219886   7.376   5.238   1.558
 2619SOL     OW19887   1.726   6.757   4.823
 2619SOL    HW119888   1.746   6.665   4.791
 2619SOL    HW219889   1.690   6.811   4.747
 2620SOL     OW19890   5.142   1.013   6.128
 2620SOL    HW119891   5.106   1.095   6.084
 2620SOL    HW219892   5.167   0.946   6.058
 2621SOL     OW19893   3.606   2.722   0.265
 2621SOL    HW119894   3.641   2.801   0.214
 2621SOL    HW219895   3.518   2.746   0.307
 2622SOL     OW19896   1.657   7.366   6.854
 2622SOL    HW119897   1.633   7.369   6.757
 2622SOL    HW219898   1.748   7.326   6.865
 2623SOL     OW19899   8.665   2.794   1.715
 2623SOL    HW119900   8.695   2.700   1.732
 2623SOL    HW219901   8.680   2.849   1.797
 2624SOL     OW19902   7.060   8.030   5.714
 2624SOL    HW119903   7.139   7.979   5.681
 2624SOL    HW219904   6.976   7.979   5.695
 2625SOL     OW19905   5.274   0.706   1.473
 2625SOL    HW119906   5.282   0.606   1.468
 2625SOL    HW219907   5.363   0.745   1.497
 2626SOL     OW19908   0.650   6.075   4.810
 2626SOL    HW119909   0.617   5.985   4.780
 2626SOL    HW219910   0.742   6.066   4.848
 2627SOL     OW19911   2.570   5.081   0.708
 2627SOL    HW119912   2.524   5.099   0.622
 2627SOL    HW219913   2.516   5.016   0.762
 2628SOL     OW19914   5.749   1.752   1.851
 2628SOL    HW119915   5.660   1.777   1.812
 2628SOL    HW219916   5.736   1.715   1.943
 2629SOL     OW19917   8.981   3.196   6.546
 2629SOL    HW119918   9.003   3.292   6.528
 2629SOL    HW219919   8.882   3.186   6.556
 2630SOL     OW19920   0.834   5.403   6.512
 2630SOL    HW119921   0.825   5.335   6.438
 2630SOL    HW219922   0.904   5.373   6.576
 2631SOL     OW19923   8.703   7.509   0.448
 2631SOL    HW119924   8.774   7.500   0.519
 2631SOL    HW219925   8.716   7.437   0.380
 2632SOL     OW19926   6.071   4.668   0.891
 2632SOL    HW119927   6.167   4.691   0.876
 2632SOL    HW219928   6.053   4.664   0.989
 2633SOL     OW19929   6.951   4.450   1.396
 2633SOL    HW119930   6.989   4.361   1.421
 2633SOL    HW219931   6.989   4.520   1.457
 2634SOL     OW19932   4.818   6.639   1.331
 2634SOL    HW119933   4.846   6.593   1.246
 2634SOL    HW219934   4.864   6.596   1.409
 2635SOL     OW19935   5.676   6.163   6.591
 2635SOL    HW119936   5.610   6.222   6.637
 2635SOL    HW219937   5.758   6.155   6.648
 2636SOL     OW19938   8.286   4.623   5.471
 2636SOL    HW119939   8.209   4.570   5.436
 2636SOL    HW219940   8.334   4.667   5.395
 2637SOL     OW19941   5.226   7.426   0.922
 2637SOL    HW119942   5.158   7.454   0.989
 2637SOL    HW219943   5.258   7.507   0.872
 2638SOL     OW19944   9.042   0.561   6.774
 2638SOL    HW119945   9.075   0.533   6.684
 2638SOL    HW219946   9.109   0.534   6.844
 2639SOL     OW19947   3.538   4.277   1.040
 2639SOL    HW119948   3.528   4.286   0.941
 2639SOL    HW219949   3.560   4.182   1.063
 2640SOL     OW19950   7.159  -0.037   0.618
 2640SOL    HW119951   7.073  -0.080   0.646
 2640SOL    HW219952   7.209  -0.006   0.699
 2641SOL     OW19953   0.880   6.129   5.385
 2641SOL    HW119954   0.953   6.062   5.397
 2641SOL    HW219955   0.792   6.083   5.384
 2642SOL     OW19956   9.361   1.257   5.473
 2642SOL    HW119957   9.408   1.205   5.545
 2642SOL    HW219958   9.399   1.231   5.384
 2643SOL     OW19959   4.996   5.752   6.212
 2643SOL    HW119960   4.932   5.718   6.282
 2643SOL    HW219961   4.958   5.736   6.121
 2644SOL     OW19962   0.752   1.000   0.668
 2644SOL    HW119963   0.725   1.072   0.731
 2644SOL    HW219964   0.822   1.034   0.605
 2645SOL     OW19965   4.185   4.701   0.200
 2645SOL    HW119966   4.090   4.723   0.222
 2645SOL    HW219967   4.189   4.616   0.148
 2646SOL     OW19968   8.919  -0.027   0.677
 2646SOL    HW119969   8.931   0.035   0.599
 2646SOL    HW219970   8.825  -0.063   0.677
 2647SOL     OW19971   0.335   4.228   0.400
 2647SOL    HW119972   0.265   4.232   0.471
 2647SOL    HW219973   0.352   4.319   0.365
 2648SOL     OW19974   2.271   5.402   5.119
 2648SOL    HW119975   2.332   5.473   5.084
 2648SOL    HW219976   2.192   5.443   5.163
 2649SOL     OW19977   0.209   2.341   6.812
 2649SOL    HW119978   0.248   2.345   6.904
 2649SOL    HW219979   0.276   2.300   6.749
 2650SOL     OW19980   0.921   6.029   5.687
 2650SOL    HW119981   0.824   6.008   5.702
 2650SOL    HW219982   0.950   6.100   5.751
 2651SOL     OW19983   7.138   0.097   6.839
 2651SOL    HW119984   7.081   0.025   6.800
 2651SOL    HW219985   7.203   0.056   6.903
 2652SOL     OW19986   7.980   8.362   0.381
 2652SOL    HW119987   8.016   8.455   0.371
 2652SOL    HW219988   7.881   8.367   0.398
 2653SOL     OW19989   1.702   2.997   6.568
 2653SOL    HW119990   1.645   2.992   6.486
 2653SOL    HW219991   1.732   3.091   6.582
 2654SOL     OW19992   7.941   0.448   5.748
 2654SOL    HW119993   7.902   0.498   5.671
 2654SOL    HW219994   7.994   0.370   5.714
 2655SOL     OW19995   0.763   5.588   0.591
 2655SOL    HW119996   0.830   5.527   0.550
 2655SOL    HW219997   0.789   5.607   0.686
 2656SOL     OW19998   0.132   3.872   6.456
 2656SOL    HW119999   0.171   3.920   6.535
 2656SOL    HW220000   0.043   3.910   6.433
 2657SOL     OW20001   7.250   1.243   5.534
 2657SOL    HW120002   7.314   1.273   5.463
 2657SOL    HW220003   7.194   1.168   5.498
 2658SOL     OW20004   5.959   5.162   5.206
 2658SOL    HW120005   5.859   5.151   5.213
 2658SOL    HW220006   5.979   5.240   5.146
 2659SOL     OW20007   0.502   3.853   0.492
 2659SOL    HW120008   0.435   3.781   0.512
 2659SOL    HW220009   0.588   3.832   0.538
 2660SOL     OW20010   5.156   6.280   1.036
 2660SOL    HW120011   5.191   6.294   1.129
 2660SOL    HW220012   5.079   6.216   1.039
 2661SOL     OW20013   9.443   2.651   1.814
 2661SOL    HW120014   9.370   2.718   1.831
 2661SOL    HW220015   9.438   2.580   1.884
 2662SOL     OW20016   1.214   6.487   6.095
 2662SOL    HW120017   1.148   6.427   6.051
 2662SOL    HW220018   1.165   6.555   6.150
 2663SOL     OW20019   4.493   6.044   0.545
 2663SOL    HW120020   4.526   5.950   0.557
 2663SOL    HW220021   4.394   6.046   0.560
 2664SOL     OW20022   5.079   0.452   0.323
 2664SOL    HW120023   4.983   0.434   0.348
 2664SOL    HW220024   5.106   0.391   0.249
 2665SOL     OW20025   0.647   6.573   1.300
 2665SOL    HW120026   0.647   6.673   1.287
 2665SOL    HW220027   0.662   6.553   1.397
 2666SOL     OW20028   2.749   3.879   1.268
 2666SOL    HW120029   2.739   3.788   1.308
 2666SOL    HW220030   2.775   3.945   1.339
 2667SOL     OW20031   1.636   5.428   0.672
 2667SOL    HW120032   1.642   5.523   0.703
 2667SOL    HW220033   1.719   5.405   0.621
 2668SOL     OW20034   0.158   6.527   0.540
 2668SOL    HW120035   0.071   6.531   0.589
 2668SOL    HW220036   0.146   6.562   0.447
 2669SOL     OW20037   8.084   4.118   6.790
 2669SOL    HW120038   8.173   4.080   6.767
 2669SOL    HW220039   8.012   4.053   6.764
 2670SOL     OW20040   3.194   3.855   0.466
 2670SOL    HW120041   3.181   3.933   0.527
 2670SOL    HW220042   3.120   3.852   0.399
 2671SOL     OW20043   6.170   6.718   0.445
 2671SOL    HW120044   6.199   6.760   0.530
 2671SOL    HW220045   6.245   6.717   0.380
 2672SOL     OW20046   1.866   2.826   6.690
 2672SOL    HW120047   1.964   2.835   6.708
 2672SOL    HW220048   1.834   2.908   6.641
 2673SOL     OW20049   6.820   5.439   5.405
 2673SOL    HW120050   6.745   5.489   5.447
 2673SOL    HW220051   6.905   5.458   5.455
 2674SOL     OW20052   4.231   6.764   1.746
 2674SOL    HW120053   4.177   6.846   1.767
 2674SOL    HW220054   4.206   6.730   1.656
 2675SOL     OW20055   9.405   7.564   5.800
 2675SOL    HW120056   9.344   7.641   5.779
 2675SOL    HW220057   9.422   7.562   5.899
 2676SOL     OW20058   5.581   4.598   6.664
 2676SOL    HW120059   5.510   4.669   6.660
 2676SOL    HW220060   5.542   4.510   6.639
 2677SOL     OW20061   0.399   8.217   0.271
 2677SOL    HW120062   0.473   8.178   0.327
 2677SOL    HW220063   0.406   8.317   0.273
 2678SOL     OW20064   6.322   5.021   6.438
 2678SOL    HW120065   6.408   4.972   6.421
 2678SOL    HW220066   6.289   5.061   6.352
 2679SOL     OW20067   6.988   0.227   6.495
 2679SOL    HW120068   6.951   0.283   6.420
 2679SOL    HW220069   6.973   0.273   6.582
 2680SOL     OW20070   0.122   1.023   5.948
 2680SOL    HW120071   0.093   1.118   5.960
 2680SOL    HW220072   0.218   1.013   5.974
 2681SOL     OW20073   9.383   5.093   6.109
 2681SOL    HW120074   9.295   5.054   6.138
 2681SOL    HW220075   9.457   5.048   6.157
 2682SOL     OW20076   9.407   1.384   1.348
 2682SOL    HW120077   9.315   1.423   1.352
 2682SOL    HW220078   9.450   1.391   1.438
 2683SOL     OW20079   5.017   2.433   0.710
 2683SOL    HW120080   4.956   2.355   0.725
 2683SOL    HW220081   4.963   2.513   0.683
 2684SOL     OW20082   9.115   2.586   5.954
 2684SOL    HW120083   9.079   2.652   5.889
 2684SOL    HW220084   9.145   2.504   5.906
 2685SOL     OW20085   1.436   5.756   6.268
 2685SOL    HW120086   1.389   5.708   6.193
 2685SOL    HW220087   1.535   5.746   6.256
 2686SOL     OW20088   6.921   0.323   6.759
 2686SOL    HW120089   6.996   0.286   6.814
 2686SOL    HW220090   6.848   0.255   6.751
 2687SOL     OW20091   7.698   6.466   4.983
 2687SOL    HW120092   7.730   6.544   4.929
 2687SOL    HW220093   7.770   6.398   4.991
 2688SOL     OW20094   4.507   6.700   5.635
 2688SOL    HW120095   4.436   6.631   5.649
 2688SOL    HW220096   4.477   6.764   5.564
 2689SOL     OW20097   5.016   2.579   6.380
 2689SOL    HW120098   5.000   2.633   6.463
 2689SOL    HW220099   4.992   2.484   6.397
 2690SOL     OW20100   7.548   5.682   5.921
 2690SOL    HW120101   7.558   5.583   5.935
 2690SOL    HW220102   7.496   5.721   5.997
 2691SOL     OW20103   7.356   0.875   5.892
 2691SOL    HW120104   7.441   0.902   5.847
 2691SOL    HW220105   7.280   0.888   5.828
 2692SOL     OW20106   1.784   3.693   5.347
 2692SOL    HW120107   1.804   3.736   5.259
 2692SOL    HW220108   1.858   3.629   5.371
 2693SOL     OW20109   5.578   3.617   6.682
 2693SOL    HW120110   5.572   3.534   6.627
 2693SOL    HW220111   5.553   3.597   6.777
 2694SOL     OW20112   9.159   1.692   6.447
 2694SOL    HW120113   9.243   1.719   6.494
 2694SOL    HW220114   9.146   1.593   6.455
 2695SOL     OW20115   0.237   4.699   5.639
 2695SOL    HW120116   0.297   4.651   5.575
 2695SOL    HW220117   0.162   4.742   5.588
 2696SOL     OW20118   4.527   6.534   6.653
 2696SOL    HW120119   4.570   6.447   6.677
 2696SOL    HW220120   4.572   6.572   6.572
 2697SOL     OW20121   6.479   2.573   5.448
 2697SOL    HW120122   6.445   2.646   5.507
 2697SOL    HW220123   6.565   2.601   5.406
 2698SOL     OW20124   2.110   3.004   6.004
 2698SOL    HW120125   2.050   3.072   5.962
 2698SOL    HW220126   2.143   3.038   6.092
 2699SOL     OW20127   2.457   0.781   0.915
 2699SOL    HW120128   2.423   0.844   0.845
 2699SOL    HW220129   2.474   0.832   1.000
 2700SOL     OW20130   8.188   3.596   1.534
 2700SOL    HW120131   8.163   3.645   1.617
 2700SOL    HW220132   8.260   3.530   1.554
 2701SOL     OW20133   5.069   7.711   0.149
 2701SOL    HW120134   5.114   7.641   0.093
 2701SOL    HW220135   5.033   7.783   0.090
 2702SOL     OW20136   0.872   8.351   1.660
 2702SOL    HW120137   0.904   8.362   1.755
 2702SOL    HW220138   0.788   8.297   1.660
 2703SOL     OW20139   4.199   1.443   5.628
 2703SOL    HW120140   4.267   1.509   5.662
 2703SOL    HW220141   4.179   1.464   5.532
 2704SOL     OW20142   8.544   6.210   1.221
 2704SOL    HW120143   8.623   6.153   1.200
 2704SOL    HW220144   8.557   6.253   1.310
 2705SOL     OW20145   5.550   1.266   6.359
 2705SOL    HW120146   5.598   1.180   6.341
 2705SOL    HW220147   5.454   1.246   6.379
 2706SOL     OW20148   1.837   1.585   6.702
 2706SOL    HW120149   1.756   1.631   6.665
 2706SOL    HW220150   1.872   1.636   6.781
 2707SOL     OW20151   3.538   7.978   1.192
 2707SOL    HW120152   3.449   7.989   1.147
 2707SOL    HW220153   3.524   7.970   1.291
 2708SOL     OW20154   5.016   0.715   6.519
 2708SOL    HW120155   4.995   0.646   6.589
 2708SOL    HW220156   5.031   0.670   6.431
 2709SOL     OW20157   1.036   8.349   1.426
 2709SOL    HW120158   1.129   8.383   1.444
 2709SOL    HW220159   0.973   8.384   1.495
 2710SOL     OW20160   2.920   2.658   6.821
 2710SOL    HW120161   2.877   2.584   6.873
 2710SOL    HW220162   3.015   2.669   6.851
 2711SOL     OW20163   5.585   6.840   1.433
 2711SOL    HW120164   5.673   6.795   1.449
 2711SOL    HW220165   5.519   6.774   1.399
 2712SOL     OW20166   4.084   3.598   1.152
 2712SOL    HW120167   4.018   3.616   1.079
 2712SOL    HW220168   4.164   3.656   1.139
 2713SOL     OW20169   2.217   7.002   6.472
 2713SOL    HW120170   2.184   6.910   6.450
 2713SOL    HW220171   2.193   7.024   6.567
 2714SOL     OW20172   0.858   2.622   1.102
 2714SOL    HW120173   0.906   2.710   1.105
 2714SOL    HW220174   0.761   2.637   1.120
 2715SOL     OW20175   1.499   5.939   5.760
 2715SOL    HW120176   1.449   5.975   5.838
 2715SOL    HW220177   1.546   5.854   5.787
 2716SOL     OW20178   6.601   6.832   0.941
 2716SOL    HW120179   6.577   6.927   0.960
 2716SOL    HW220180   6.559   6.803   0.855
 2717SOL     OW20181   2.049   5.659   1.020
 2717SOL    HW120182   2.008   5.726   0.958
 2717SOL    HW220183   2.016   5.568   0.997
 2718SOL     OW20184   4.883   4.702   1.207
 2718SOL    HW120185   4.973   4.660   1.213
 2718SOL    HW220186   4.845   4.712   1.299
 2719SOL     OW20187   3.869   2.985   0.626
 2719SOL    HW120188   3.918   3.068   0.649
 2719SOL    HW220189   3.934   2.911   0.609
 2720SOL     OW20190   9.538   7.615   0.891
 2720SOL    HW120191   9.600   7.629   0.968
 2720SOL    HW220192   9.494   7.526   0.900
 2721SOL     OW20193   1.850   7.184   5.077
 2721SOL    HW120194   1.859   7.273   5.032
 2721SOL    HW220195   1.895   7.114   5.021
 2722SOL     OW20196   3.472   8.247   0.470
 2722SOL    HW120197   3.499   8.267   0.375
 2722SOL    HW220198   3.393   8.302   0.494
 2723SOL     OW20199   3.790   5.457   1.909
 2723SOL    HW120200   3.769   5.554   1.919
 2723SOL    HW220201   3.762   5.408   1.991
 2724SOL     OW20202   7.809   5.994   5.896
 2724SOL    HW120203   7.836   5.916   5.841
 2724SOL    HW220204   7.713   5.985   5.922
 2725SOL     OW20205   5.324   6.795   1.614
 2725SOL    HW120206   5.356   6.855   1.540
 2725SOL    HW220207   5.326   6.845   1.701
 2726SOL     OW20208   5.160   7.999   1.304
 2726SOL    HW120209   5.143   7.973   1.209
 2726SOL    HW220210   5.079   8.042   1.342
 2727SOL     OW20211   6.146   4.913   0.220
 2727SOL    HW120212   6.233   4.908   0.270
 2727SOL    HW220213   6.070   4.904   0.284
 2728SOL     OW20214   7.359   3.762   6.632
 2728SOL    HW120215   7.419   3.733   6.557
 2728SOL    HW220216   7.386   3.712   6.715
 2729SOL     OW20217   1.890   6.638   6.114
 2729SOL    HW120218   1.839   6.707   6.062
 2729SOL    HW220219   1.984   6.669   6.125
 2730SOL     OW20220   7.003   5.801   1.147
 2730SOL    HW120221   7.001   5.768   1.052
 2730SOL    HW220222   7.059   5.739   1.202
 2731SOL     OW20223   5.097   4.794   6.154
 2731SOL    HW120224   5.139   4.873   6.109
 2731SOL    HW220225   5.012   4.770   6.107
 2732SOL     OW20226   4.015   1.167   6.559
 2732SOL    HW120227   4.021   1.199   6.653
 2732SOL    HW220228   3.972   1.238   6.502
 2733SOL     OW20229   5.876   7.985   1.260
 2733SOL    HW120230   5.786   7.962   1.297
 2733SOL    HW220231   5.868   8.063   1.198
 2734SOL     OW20232   1.241   0.539   5.586
 2734SOL    HW120233   1.305   0.474   5.626
 2734SOL    HW220234   1.225   0.516   5.490
 2735SOL     OW20235   0.565   5.360   0.462
 2735SOL    HW120236   0.631   5.300   0.508
 2735SOL    HW220237   0.565   5.450   0.504
 2736SOL     OW20238   4.125   1.654   1.308
 2736SOL    HW120239   4.185   1.578   1.280
 2736SOL    HW220240   4.068   1.681   1.231
 2737SOL     OW20241   1.855   5.533   5.472
 2737SOL    HW120242   1.839   5.435   5.480
 2737SOL    HW220243   1.932   5.548   5.409
 2738SOL     OW20244   7.616   7.588   5.642
 2738SOL    HW120245   7.615   7.495   5.677
 2738SOL    HW220246   7.620   7.586   5.542
 2739SOL     OW20247   5.037   0.008   4.798
 2739SOL    HW120248   5.018  -0.073   4.743
 2739SOL    HW220249   4.983   0.004   4.882
 2740SOL     OW20250   0.853   5.233   6.320
 2740SOL    HW120251   0.928   5.169   6.340
 2740SOL    HW220252   0.777   5.182   6.279
 2741SOL     OW20253   5.616   6.704   0.935
 2741SOL    HW120254   5.597   6.780   0.873
 2741SOL    HW220255   5.533   6.650   0.948
 2742SOL     OW20256   2.429   3.941   0.621
 2742SOL    HW120257   2.399   4.037   0.629
 2742SOL    HW220258   2.357   3.881   0.656
 2743SOL     OW20259   5.684   2.762   6.520
 2743SOL    HW120260   5.699   2.665   6.503
 2743SOL    HW220261   5.653   2.806   6.435
 2744SOL     OW20262   1.230   0.383   0.738
 2744SOL    HW120263   1.240   0.477   0.771
 2744SOL    HW220264   1.162   0.380   0.665
 2745SOL     OW20265   5.001   7.580   5.599
 2745SOL    HW120266   5.042   7.608   5.686
 2745SOL    HW220267   5.051   7.502   5.561
 2746SOL     OW20268   3.798   0.721   5.401
 2746SOL    HW120269   3.851   0.804   5.383
 2746SOL    HW220270   3.703   0.747   5.418
 2747SOL     OW20271   8.031   4.807   5.810
 2747SOL    HW120272   8.088   4.735   5.848
 2747SOL    HW220273   8.037   4.805   5.710
 2748SOL     OW20274   8.117   1.158   1.002
 2748SOL    HW120275   8.087   1.156   0.907
 2748SOL    HW220276   8.037   1.157   1.062
 2749SOL     OW20277   6.843   2.470   6.694
 2749SOL    HW120278   6.755   2.512   6.714
 2749SOL    HW220279   6.840   2.374   6.721
 2750SOL     OW20280   4.979   7.959   0.616
 2750SOL    HW120281   4.908   7.963   0.546
 2750SOL    HW220282   5.047   7.889   0.591
 2751SOL     OW20283   6.100   1.837   6.434
 2751SOL    HW120284   6.116   1.756   6.378
 2751SOL    HW220285   6.177   1.899   6.426
 2752SOL     OW20286   6.266   7.981   5.207
 2752SOL    HW120287   6.181   7.996   5.258
 2752SOL    HW220288   6.249   7.918   5.131
 2753SOL     OW20289   5.930   5.931   1.200
 2753SOL    HW120290   5.951   5.973   1.288
 2753SOL    HW220291   5.961   5.836   1.200
 2754SOL     OW20292   0.502   1.159   0.760
 2754SOL    HW120293   0.493   1.241   0.816
 2754SOL    HW220294   0.523   1.184   0.666
 2755SOL     OW20295   4.400   1.203   1.141
 2755SOL    HW120296   4.455   1.120   1.147
 2755SOL    HW220297   4.344   1.200   1.059
 2756SOL     OW20298   5.984   7.457   1.108
 2756SOL    HW120299   5.968   7.444   1.010
 2756SOL    HW220300   6.024   7.547   1.124
 2757SOL     OW20301   8.134   3.135   6.785
 2757SOL    HW120302   8.148   3.152   6.883
 2757SOL    HW220303   8.040   3.157   6.761
 2758SOL     OW20304   0.171   1.990   0.233
 2758SOL    HW120305   0.127   1.926   0.171
 2758SOL    HW220306   0.118   1.995   0.318
 2759SOL     OW20307   3.839   6.305   0.185
 2759SOL    HW120308   3.826   6.216   0.229
 2759SOL    HW220309   3.834   6.377   0.254
 2760SOL     OW20310   7.384   2.131   6.265
 2760SOL    HW120311   7.390   2.099   6.171
 2760SOL    HW220312   7.291   2.119   6.298
 2761SOL     OW20313   7.065   0.233   0.662
 2761SOL    HW120314   7.002   0.283   0.603
 2761SOL    HW220315   7.102   0.154   0.612
 2762SOL     OW20316   8.608   8.180   6.590
 2762SOL    HW120317   8.613   8.132   6.502
 2762SOL    HW220318   8.528   8.239   6.591
 2763SOL     OW20319   8.815   7.277   5.753
 2763SOL    HW120320   8.908   7.289   5.789
 2763SOL    HW220321   8.793   7.180   5.749
 2764SOL     OW20322   2.162   4.481   6.828
 2764SOL    HW120323   2.150   4.534   6.743
 2764SOL    HW220324   2.258   4.482   6.855
 2765SOL     OW20325   7.885   0.839   6.836
 2765SOL    HW120326   7.940   0.900   6.779
 2765SOL    HW220327   7.795   0.827   6.795
 2766SOL     OW20328   2.455   3.433   6.280
 2766SOL    HW120329   2.473   3.335   6.275
 2766SOL    HW220330   2.542   3.482   6.288
 2767SOL     OW20331   7.715   3.614   0.381
 2767SOL    HW120332   7.688   3.710   0.390
 2767SOL    HW220333   7.639   3.561   0.342
 2768SOL     OW20334   4.198   1.905   0.590
 2768SOL    HW120335   4.109   1.867   0.563
 2768SOL    HW220336   4.207   1.997   0.553
 2769SOL     OW20337   5.431   3.307   6.042
 2769SOL    HW120338   5.499   3.378   6.060
 2769SOL    HW220339   5.403   3.265   6.128
 2770SOL     OW20340   6.547   6.443   0.360
 2770SOL    HW120341   6.560   6.352   0.400
 2770SOL    HW220342   6.593   6.511   0.418
 2771SOL     OW20343   0.814   6.432   6.056
 2771SOL    HW120344   0.805   6.436   6.156
 2771SOL    HW220345   0.723   6.419   6.016
 2772SOL     OW20346   7.069   4.435   1.053
 2772SOL    HW120347   7.149   4.453   1.111
 2772SOL    HW220348   7.056   4.512   0.991
 2773SOL     OW20349   4.088   6.988   5.515
 2773SOL    HW120350   3.992   7.017   5.512
 2773SOL    HW220351   4.124   6.982   5.422
 2774SOL     OW20352   4.700   4.941   0.802
 2774SOL    HW120353   4.721   4.851   0.839
 2774SOL    HW220354   4.687   5.006   0.877
 2775SOL     OW20355   7.926   1.116   0.491
 2775SOL    HW120356   7.871   1.048   0.444
 2775SOL    HW220357   7.914   1.205   0.447
 2776SOL     OW20358   5.072   0.703   0.207
 2776SOL    HW120359   5.094   0.610   0.239
 2776SOL    HW220360   5.021   0.751   0.278
 2777SOL     OW20361   2.730   0.532   1.716
 2777SOL    HW120362   2.703   0.440   1.687
 2777SOL    HW220363   2.829   0.543   1.706
 2778SOL     OW20364   0.376   6.097   4.926
 2778SOL    HW120365   0.458   6.112   4.871
 2778SOL    HW220366   0.400   6.092   5.022
 2779SOL     OW20367   1.190   4.891   6.263
 2779SOL    HW120368   1.108   4.845   6.228
 2779SOL    HW220369   1.246   4.825   6.312
 2780SOL     OW20370   0.448   2.940   6.747
 2780SOL    HW120371   0.475   2.948   6.651
 2780SOL    HW220372   0.441   3.031   6.787
 2781SOL     OW20373   1.281   6.379   4.985
 2781SOL    HW120374   1.255   6.426   4.901
 2781SOL    HW220375   1.372   6.410   5.013
 2782SOL     OW20376   6.458   2.291   5.503
 2782SOL    HW120377   6.475   2.380   5.460
 2782SOL    HW220378   6.539   2.233   5.493
 2783SOL     OW20379   3.795   0.200   6.123
 2783SOL    HW120380   3.822   0.271   6.188
 2783SOL    HW220381   3.870   0.184   6.059
 2784SOL     OW20382   7.489   8.168   5.295
 2784SOL    HW120383   7.548   8.095   5.262
 2784SOL    HW220384   7.504   8.181   5.393
 2785SOL     OW20385   8.906   4.033   0.759
 2785SOL    HW120386   8.897   3.978   0.842
 2785SOL    HW220387   8.829   4.014   0.698
 2786SOL     OW20388   1.620   5.687   4.716
 2786SOL    HW120389   1.586   5.730   4.632
 2786SOL    HW220390   1.598   5.589   4.715
 2787SOL     OW20391   9.477   8.047   5.452
 2787SOL    HW120392   9.497   8.140   5.484
 2787SOL    HW220393   9.426   8.052   5.366
 2788SOL     OW20394   3.296   2.956   5.670
 2788SOL    HW120395   3.199   2.963   5.693
 2788SOL    HW220396   3.323   3.035   5.614
 2789SOL     OW20397   7.784   6.835   5.764
 2789SOL    HW120398   7.764   6.897   5.688
 2789SOL    HW220399   7.879   6.847   5.794
 2790SOL     OW20400   4.212   3.303   1.459
 2790SOL    HW120401   4.125   3.254   1.460
 2790SOL    HW220402   4.214   3.370   1.533
 2791SOL     OW20403   6.868   7.707   6.523
 2791SOL    HW120404   6.781   7.661   6.542
 2791SOL    HW220405   6.853   7.805   6.515
 2792SOL     OW20406   8.860   5.280   1.376
 2792SOL    HW120407   8.773   5.249   1.336
 2792SOL    HW220408   8.841   5.349   1.446
 2793SOL     OW20409   1.656   8.196   6.738
 2793SOL    HW120410   1.575   8.224   6.791
 2793SOL    HW220411   1.650   8.233   6.646
 2794SOL     OW20412   5.338   4.812   1.735
 2794SOL    HW120413   5.272   4.775   1.671
 2794SOL    HW220414   5.306   4.797   1.829
 2795SOL     OW20415   2.311   7.121   1.602
 2795SOL    HW120416   2.305   7.179   1.521
 2795SOL    HW220417   2.290   7.175   1.684
 2796SOL     OW20418   8.673   5.423   0.434
 2796SOL    HW120419   8.674   5.466   0.344
 2796SOL    HW220420   8.670   5.494   0.505
 2797SOL     OW20421   4.947   6.578   6.426
 2797SOL    HW120422   5.032   6.526   6.439
 2797SOL    HW220423   4.960   6.671   6.461
 2798SOL     OW20424   9.210   7.384   0.919
 2798SOL    HW120425   9.231   7.359   0.825
 2798SOL    HW220426   9.258   7.322   0.981
 2799SOL     OW20427   8.954   6.996   4.698
 2799SOL    HW120428   8.971   6.913   4.644
 2799SOL    HW220429   8.941   7.073   4.636
 2800SOL     OW20430   6.706   8.368   1.748
 2800SOL    HW120431   6.659   8.348   1.833
 2800SOL    HW220432   6.743   8.460   1.751
 2801SOL     OW20433   1.568   2.025   6.000
 2801SOL    HW120434   1.564   1.931   6.036
 2801SOL    HW220435   1.582   2.089   6.076
 2802SOL     OW20436   8.555   0.232   5.891
 2802SOL    HW120437   8.563   0.220   5.990
 2802SOL    HW220438   8.459   0.252   5.868
 2803SOL     OW20439   3.293   2.363   6.498
 2803SOL    HW120440   3.333   2.275   6.523
 2803SOL    HW220441   3.193   2.355   6.495
 2804SOL     OW20442   3.341   7.963   5.409
 2804SOL    HW120443   3.294   8.024   5.345
 2804SOL    HW220444   3.436   7.992   5.419
 2805SOL     OW20445   4.032   1.254   5.295
 2805SOL    HW120446   4.021   1.216   5.203
 2805SOL    HW220447   4.084   1.190   5.352
 2806SOL     OW20448   9.271   6.273   6.327
 2806SOL    HW120449   9.225   6.216   6.260
 2806SOL    HW220450   9.211   6.288   6.406
 2807SOL     OW20451   8.888   3.093   5.744
 2807SOL    HW120452   8.896   3.176   5.798
 2807SOL    HW220453   8.818   3.106   5.674
 2808SOL     OW20454   3.874   6.885   0.747
 2808SOL    HW120455   3.924   6.929   0.821
 2808SOL    HW220456   3.851   6.791   0.773
 2809SOL     OW20457   9.329   6.116   5.667
 2809SOL    HW120458   9.367   6.074   5.584
 2809SOL    HW220459   9.241   6.158   5.645
 2810SOL     OW20460   1.024   6.435   6.353
 2810SOL    HW120461   0.928   6.416   6.373
 2810SOL    HW220462   1.034   6.530   6.323
 2811SOL     OW20463   8.392   1.089   1.520
 2811SOL    HW120464   8.437   1.011   1.476
 2811SOL    HW220465   8.440   1.112   1.604
 2812SOL     OW20466   7.787   2.202   0.151
 2812SOL    HW120467   7.876   2.157   0.138
 2812SOL    HW220468   7.715   2.144   0.112
 2813SOL     OW20469   1.482   8.152   5.579
 2813SOL    HW120470   1.400   8.113   5.621
 2813SOL    HW220471   1.554   8.161   5.648
 2814SOL     OW20472   3.165   0.359   1.210
 2814SOL    HW120473   3.097   0.424   1.175
 2814SOL    HW220474   3.203   0.394   1.296
 2815SOL     OW20475   9.503   0.815   6.080
 2815SOL    HW120476   9.561   0.889   6.045
 2815SOL    HW220477   9.535   0.789   6.171
 2816SOL     OW20478   1.357   7.810   0.578
 2816SOL    HW120479   1.446   7.854   0.583
 2816SOL    HW220480   1.356   7.745   0.501
 2817SOL     OW20481   4.516   8.027   0.477
 2817SOL    HW120482   4.571   8.108   0.456
 2817SOL    HW220483   4.478   8.036   0.569
 2818SOL     OW20484   1.597   2.358   6.852
 2818SOL    HW120485   1.499   2.368   6.869
 2818SOL    HW220486   1.631   2.442   6.810
 2819SOL     OW20487   4.296   7.870   5.649
 2819SOL    HW120488   4.359   7.906   5.717
 2819SOL    HW220489   4.346   7.819   5.580
 2820SOL     OW20490   7.978   5.782   6.425
 2820SOL    HW120491   7.943   5.739   6.509
 2820SOL    HW220492   7.963   5.721   6.348
 2821SOL     OW20493   7.528   5.617   0.996
 2821SOL    HW120494   7.535   5.520   0.975
 2821SOL    HW220495   7.554   5.633   1.091
 2822SOL     OW20496   5.913   4.165   1.106
 2822SOL    HW120497   5.823   4.131   1.131
 2822SOL    HW220498   5.983   4.115   1.157
 2823SOL     OW20499   5.162   1.783   6.511
 2823SOL    HW120500   5.235   1.717   6.492
 2823SOL    HW220501   5.202   1.864   6.554
 2824SOL     OW20502   3.076   5.111   1.258
 2824SOL    HW120503   3.155   5.070   1.302
 2824SOL    HW220504   3.034   5.178   1.320
 2825SOL     OW20505   4.264   8.271   6.689
 2825SOL    HW120506   4.321   8.227   6.620
 2825SOL    HW220507   4.282   8.370   6.688
 2826SOL     OW20508   1.099   2.040   0.386
 2826SOL    HW120509   1.036   2.020   0.461
 2826SOL    HW220510   1.084   1.975   0.312
 2827SOL     OW20511   3.262   8.272   5.318
 2827SOL    HW120512   3.273   8.345   5.251
 2827SOL    HW220513   3.224   8.191   5.273
 2828SOL     OW20514   3.191   0.416   6.386
 2828SOL    HW120515   3.264   0.349   6.388
 2828SOL    HW220516   3.187   0.464   6.474
 2829SOL     OW20517   8.378   1.549   5.971
 2829SOL    HW120518   8.316   1.478   5.939
 2829SOL    HW220519   8.472   1.516   5.970
 2830SOL     OW20520   2.830   1.841   6.689
 2830SOL    HW120521   2.883   1.771   6.641
 2830SOL    HW220522   2.733   1.827   6.673
 2831SOL     OW20523   2.191   8.196   6.529
 2831SOL    HW120524   2.196   8.097   6.543
 2831SOL    HW220525   2.148   8.238   6.609
 2832SOL     OW20526   8.739   4.781   0.739
 2832SOL    HW120527   8.827   4.828   0.735
 2832SOL    HW220528   8.735   4.727   0.823
 2833SOL     OW20529   8.542   4.791   0.553
 2833SOL    HW120530   8.486   4.709   0.544
 2833SOL    HW220531   8.608   4.779   0.627
 2834SOL     OW20532   4.180   5.954   2.235
 2834SOL    HW120533   4.149   5.859   2.238
 2834SOL    HW220534   4.196   5.987   2.328
 2835SOL     OW20535   3.840   5.229   5.725
 2835SOL    HW120536   3.924   5.279   5.707
 2835SOL    HW220537   3.764   5.294   5.736
 2836SOL     OW20538   2.461   8.222   5.795
 2836SOL    HW120539   2.560   8.218   5.794
 2836SOL    HW220540   2.428   8.265   5.711
 2837SOL     OW20541   8.609   3.085   0.171
 2837SOL    HW120542   8.662   3.164   0.139
 2837SOL    HW220543   8.515   3.093   0.140
 2838SOL     OW20544   1.899   7.590   6.563
 2838SOL    HW120545   1.844   7.672   6.579
 2838SOL    HW220546   1.944   7.563   6.648
 2839SOL     OW20547   6.623   7.700   6.233
 2839SOL    HW120548   6.603   7.611   6.273
 2839SOL    HW220549   6.552   7.725   6.167
 2840SOL     OW20550   6.488   2.713   5.687
 2840SOL    HW120551   6.440   2.631   5.719
 2840SOL    HW220552   6.572   2.725   5.739
 2841SOL     OW20553   7.944   2.389   5.711
 2841SOL    HW120554   8.026   2.414   5.763
 2841SOL    HW220555   7.964   2.390   5.614
 2842SOL     OW20556   5.184   4.469   0.801
 2842SOL    HW120557   5.279   4.478   0.769
 2842SOL    HW220558   5.143   4.560   0.809
 2843SOL     OW20559   7.768   4.097   0.418
 2843SOL    HW120560   7.724   4.144   0.342
 2843SOL    HW220561   7.857   4.139   0.437
 2844SOL     OW20562   5.793   1.597   0.146
 2844SOL    HW120563   5.719   1.624   0.207
 2844SOL    HW220564   5.759   1.591   0.052
 2845SOL     OW20565   4.640   6.986   5.061
 2845SOL    HW120566   4.696   7.067   5.079
 2845SOL    HW220567   4.552   7.014   5.025
 2846SOL     OW20568   3.092   1.383   0.761
 2846SOL    HW120569   3.172   1.347   0.811
 2846SOL    HW220570   3.042   1.446   0.820
 2847SOL     OW20571   0.865   1.115   4.831
 2847SOL    HW120572   0.783   1.160   4.794
 2847SOL    HW220573   0.938   1.182   4.843
 2848SOL     OW20574   1.931   7.269   1.214
 2848SOL    HW120575   1.998   7.278   1.287
 2848SOL    HW220576   1.840   7.259   1.254
 2849SOL     OW20577   5.211   5.951   5.779
 2849SOL    HW120578   5.111   5.957   5.788
 2849SOL    HW220579   5.237   5.971   5.684
 2850SOL     OW20580   7.939   0.618   0.994
 2850SOL    HW120581   7.867   0.551   1.016
 2850SOL    HW220582   7.909   0.709   1.021
 2851SOL     OW20583   1.144   8.307   6.557
 2851SOL    HW120584   1.129   8.245   6.634
 2851SOL    HW220585   1.167   8.398   6.592
 2852SOL     OW20586   2.953   6.048   0.957
 2852SOL    HW120587   2.995   6.020   0.870
 2852SOL    HW220588   2.914   5.967   1.002
 2853SOL     OW20589   2.160   4.924   1.200
 2853SOL    HW120590   2.251   4.918   1.160
 2853SOL    HW220591   2.092   4.925   1.126
 2854SOL     OW20592   9.247   7.727   6.712
 2854SOL    HW120593   9.182   7.751   6.640
 2854SOL    HW220594   9.315   7.799   6.721
 2855SOL     OW20595   7.677   2.612   6.760
 2855SOL    HW120596   7.727   2.696   6.736
 2855SOL    HW220597   7.636   2.622   6.850
 2856SOL     OW20598   1.108   7.136   0.181
 2856SOL    HW120599   1.027   7.094   0.223
 2856SOL    HW220600   1.190   7.095   0.221
 2857SOL     OW20601   2.095   2.506   5.904
 2857SOL    HW120602   2.108   2.577   5.973
 2857SOL    HW220603   2.001   2.510   5.869
 2858SOL     OW20604   3.198   1.703   6.309
 2858SOL    HW120605   3.173   1.691   6.405
 2858SOL    HW220606   3.115   1.702   6.253
 2859SOL     OW20607   7.986   1.792   0.421
 2859SOL    HW120608   8.026   1.731   0.490
 2859SOL    HW220609   8.008   1.886   0.444
 2860SOL     OW20610   7.081   3.696   0.873
 2860SOL    HW120611   7.051   3.724   0.782
 2860SOL    HW220612   7.170   3.737   0.893
 2861SOL     OW20613   9.316   0.841   1.138
 2861SOL    HW120614   9.359   0.829   1.227
 2861SOL    HW220615   9.219   0.861   1.151
 2862SOL     OW20616   5.336   5.992   1.522
 2862SOL    HW120617   5.335   5.900   1.562
 2862SOL    HW220618   5.286   6.055   1.580
 2863SOL     OW20619   5.203   1.927   6.256
 2863SOL    HW120620   5.217   2.026   6.253
 2863SOL    HW220621   5.276   1.885   6.310
 2864SOL     OW20622   5.497   4.153   0.711
 2864SOL    HW120623   5.545   4.075   0.671
 2864SOL    HW220624   5.420   4.178   0.653
 2865SOL     OW20625   2.972   5.964   5.671
 2865SOL    HW120626   3.020   5.951   5.584
 2865SOL    HW220627   2.997   5.890   5.733
 2866SOL     OW20628   3.609   8.044   6.834
 2866SOL    HW120629   3.532   8.095   6.796
 2866SOL    HW220630   3.643   7.979   6.765
 2867SOL     OW20631   1.269   4.301   0.616
 2867SOL    HW120632   1.183   4.270   0.656
 2867SOL    HW220633   1.256   4.390   0.572
 2868SOL     OW20634   1.062   4.160   6.046
 2868SOL    HW120635   1.102   4.088   6.101
 2868SOL    HW220636   0.972   4.184   6.082
 2869SOL     OW20637   0.310   5.920   6.542
 2869SOL    HW120638   0.293   5.824   6.520
 2869SOL    HW220639   0.408   5.934   6.554
 2870SOL     OW20640   6.855   0.138   0.460
 2870SOL    HW120641   6.889   0.088   0.381
 2870SOL    HW220642   6.765   0.103   0.485
 2871SOL     OW20643   8.220   3.353   1.718
 2871SOL    HW120644   8.145   3.350   1.784
 2871SOL    HW220645   8.300   3.396   1.759
 2872SOL     OW20646   3.283   1.009   1.938
 2872SOL    HW120647   3.368   1.028   1.988
 2872SOL    HW220648   3.272   1.076   1.865
 2873SOL     OW20649   9.561   3.433   0.817
 2873SOL    HW120650   9.528   3.489   0.741
 2873SOL    HW220651   9.499   3.444   0.895
 2874SOL     OW20652   5.604   2.470   0.609
 2874SOL    HW120653   5.536   2.542   0.606
 2874SOL    HW220654   5.578   2.397   0.544
 2875SOL     OW20655   5.894   2.406   6.360
 2875SOL    HW120656   5.897   2.419   6.261
 2875SOL    HW220657   5.925   2.313   6.382
 2876SOL     OW20658   8.981   4.288   0.711
 2876SOL    HW120659   9.077   4.281   0.684
 2876SOL    HW220660   8.943   4.196   0.724
 2877SOL     OW20661   6.193   5.164   6.843
 2877SOL    HW120662   6.195   5.074   6.886
 2877SOL    HW220663   6.100   5.201   6.846
 2878SOL     OW20664   5.733   5.470   6.190
 2878SOL    HW120665   5.826   5.441   6.172
 2878SOL    HW220666   5.674   5.390   6.204
 2879SOL     OW20667   4.255   0.278   5.349
 2879SOL    HW120668   4.254   0.225   5.434
 2879SOL    HW220669   4.209   0.226   5.277
 2880SOL     OW20670   1.022   3.972   6.628
 2880SOL    HW120671   0.934   3.929   6.648
 2880SOL    HW220672   1.007   4.064   6.592
 2881SOL     OW20673   7.446   7.425   6.745
 2881SOL    HW120674   7.372   7.442   6.680
 2881SOL    HW220675   7.502   7.350   6.712
 2882SOL     OW20676   1.805   0.835   5.321
 2882SOL    HW120677   1.850   0.829   5.232
 2882SOL    HW220678   1.770   0.928   5.334
 2883SOL     OW20679   0.505   4.783   6.769
 2883SOL    HW120680   0.574   4.852   6.794
 2883SOL    HW220681   0.550   4.695   6.755
 2884SOL     OW20682   7.106   4.659   5.824
 2884SOL    HW120683   7.073   4.694   5.736
 2884SOL    HW220684   7.163   4.728   5.868
 2885SOL     OW20685   7.719   8.396   0.352
 2885SOL    HW120686   7.703   8.487   0.315
 2885SOL    HW220687   7.648   8.333   0.318
 2886SOL     OW20688   4.647   3.617   0.984
 2886SOL    HW120689   4.590   3.577   0.912
 2886SOL    HW220690   4.740   3.579   0.976
 2887SOL     OW20691   3.423   7.185   0.972
 2887SOL    HW120692   3.462   7.124   0.903
 2887SOL    HW220693   3.329   7.208   0.948
 2888SOL     OW20694   1.110   7.995   6.521
 2888SOL    HW120695   1.197   7.949   6.502
 2888SOL    HW220696   1.110   8.027   6.616
 2889SOL     OW20697   9.577   2.539   5.800
 2889SOL    HW120698   9.542   2.622   5.756
 2889SOL    HW220699   9.542   2.534   5.894
 2890SOL     OW20700   4.222   7.745   6.239
 2890SOL    HW120701   4.295   7.782   6.182
 2890SOL    HW220702   4.261   7.694   6.315
 2891SOL     OW20703   1.422   3.400   0.178
 2891SOL    HW120704   1.324   3.386   0.161
 2891SOL    HW220705   1.468   3.312   0.181
 2892SOL     OW20706   1.972   0.771   0.861
 2892SOL    HW120707   2.031   0.781   0.781
 2892SOL    HW220708   1.877   0.762   0.831
 2893SOL     OW20709   9.147   6.818   5.707
 2893SOL    HW120710   9.195   6.738   5.743
 2893SOL    HW220711   9.201   6.900   5.724
 2894SOL     OW20712   8.937   7.408   0.960
 2894SOL    HW120713   8.938   7.416   1.060
 2894SOL    HW220714   9.030   7.418   0.925
 2895SOL     OW20715   6.889   4.724   6.505
 2895SOL    HW120716   6.805   4.777   6.512
 2895SOL    HW220717   6.914   4.714   6.408
 2896SOL     OW20718   4.737   7.003   0.464
 2896SOL    HW120719   4.781   7.092   0.473
 2896SOL    HW220720   4.651   7.003   0.516
 2897SOL     OW20721   0.427   7.290   0.644
 2897SOL    HW120722   0.465   7.225   0.577
 2897SOL    HW220723   0.402   7.240   0.727
 2898SOL     OW20724   9.280   5.838   5.159
 2898SOL    HW120725   9.206   5.779   5.127
 2898SOL    HW220726   9.354   5.781   5.194
 2899SOL     OW20727   8.270   3.304   0.407
 2899SOL    HW120728   8.265   3.358   0.323
 2899SOL    HW220729   8.233   3.212   0.390
 2900SOL     OW20730   2.283   6.391   5.198
 2900SOL    HW120731   2.264   6.480   5.157
 2900SOL    HW220732   2.381   6.372   5.193
 2901SOL     OW20733   9.080   4.548   0.762
 2901SOL    HW120734   9.100   4.584   0.670
 2901SOL    HW220735   9.042   4.456   0.754
 2902SOL     OW20736   4.429   2.168   5.833
 2902SOL    HW120737   4.374   2.249   5.812
 2902SOL    HW220738   4.526   2.191   5.824
 2903SOL     OW20739   7.769   6.565   6.766
 2903SOL    HW120740   7.718   6.598   6.846
 2903SOL    HW220741   7.834   6.495   6.796
 2904SOL     OW20742   7.420   2.918   0.671
 2904SOL    HW120743   7.462   2.830   0.692
 2904SOL    HW220744   7.414   2.973   0.755
 2905SOL     OW20745   7.070   0.861   1.466
 2905SOL    HW120746   7.128   0.942   1.471
 2905SOL    HW220747   7.126   0.779   1.481
 2906SOL     OW20748   1.521   2.038   6.629
 2906SOL    HW120749   1.497   2.043   6.532
 2906SOL    HW220750   1.472   1.961   6.671
 2907SOL     OW20751   6.444   4.864   0.266
 2907SOL    HW120752   6.521   4.902   0.318
 2907SOL    HW220753   6.441   4.908   0.176
 2908SOL     OW20754   2.340   1.401   0.891
 2908SOL    HW120755   2.357   1.344   0.811
 2908SOL    HW220756   2.425   1.447   0.918
 2909SOL     OW20757   4.242   7.266   0.342
 2909SOL    HW120758   4.247   7.224   0.251
 2909SOL    HW220759   4.314   7.334   0.351
 2910SOL     OW20760   4.110   3.233   0.160
 2910SOL    HW120761   4.167   3.176   0.100
 2910SOL    HW220762   4.162   3.258   0.242
 2911SOL     OW20763   6.345   4.376   0.854
 2911SOL    HW120764   6.280   4.365   0.929
 2911SOL    HW220765   6.311   4.446   0.790
 2912SOL     OW20766   5.058   6.645   5.035
 2912SOL    HW120767   4.982   6.700   5.000
 2912SOL    HW220768   5.144   6.679   4.997
 2913SOL     OW20769   6.370   2.564   6.494
 2913SOL    HW120770   6.305   2.634   6.526
 2913SOL    HW220771   6.453   2.609   6.461
 2914SOL     OW20772   5.549   0.878   5.719
 2914SOL    HW120773   5.620   0.811   5.742
 2914SOL    HW220774   5.541   0.885   5.620
 2915SOL     OW20775   9.416   2.659   1.325
 2915SOL    HW120776   9.459   2.579   1.284
 2915SOL    HW220777   9.487   2.720   1.362
 2916SOL     OW20778   8.984   3.283   5.906
 2916SOL    HW120779   8.976   3.382   5.917
 2916SOL    HW220780   8.965   3.238   5.993
 2917SOL     OW20781   4.978   3.739   1.257
 2917SOL    HW120782   5.033   3.818   1.284
 2917SOL    HW220783   4.881   3.764   1.258
 2918SOL     OW20784   6.315   0.631   6.168
 2918SOL    HW120785   6.258   0.550   6.182
 2918SOL    HW220786   6.257   0.710   6.153
 2919SOL     OW20787   5.370   6.406   1.545
 2919SOL    HW120788   5.310   6.385   1.468
 2919SOL    HW220789   5.418   6.323   1.573
 2920SOL     OW20790   0.628   4.357   0.943
 2920SOL    HW120791   0.594   4.277   0.895
 2920SOL    HW220792   0.561   4.431   0.936
 2921SOL     OW20793   5.666   3.980   0.542
 2921SOL    HW120794   5.579   3.933   0.557
 2921SOL    HW220795   5.711   3.941   0.462
 2922SOL     OW20796   2.660   0.898   0.664
 2922SOL    HW120797   2.561   0.914   0.671
 2922SOL    HW220798   2.675   0.811   0.617
 2923SOL     OW20799   2.919   1.291   5.881
 2923SOL    HW120800   2.963   1.208   5.847
 2923SOL    HW220801   2.844   1.267   5.943
 2924SOL     OW20802   8.282   6.224   0.818
 2924SOL    HW120803   8.284   6.235   0.917
 2924SOL    HW220804   8.364   6.264   0.778
 2925SOL     OW20805   8.752   2.731   1.466
 2925SOL    HW120806   8.831   2.791   1.459
 2925SOL    HW220807   8.705   2.747   1.553
 2926SOL     OW20808   4.924   7.640   6.419
 2926SOL    HW120809   4.875   7.553   6.422
 2926SOL    HW220810   5.016   7.625   6.384
 2927SOL     OW20811   4.637   1.557   1.809
 2927SOL    HW120812   4.685   1.548   1.896
 2927SOL    HW220813   4.576   1.636   1.812
 2928SOL     OW20814   3.947   7.492   1.425
 2928SOL    HW120815   3.874   7.502   1.358
 2928SOL    HW220816   4.030   7.535   1.391
 2929SOL     OW20817   9.331   0.075   1.347
 2929SOL    HW120818   9.237   0.042   1.353
 2929SOL    HW220819   9.386   0.031   1.419
 2930SOL     OW20820   8.642   2.494   0.124
 2930SOL    HW120821   8.583   2.414   0.128
 2930SOL    HW220822   8.678   2.514   0.215
 2931SOL     OW20823   4.992   5.783   1.220
 2931SOL    HW120824   5.021   5.698   1.176
 2931SOL    HW220825   4.892   5.786   1.225
 2932SOL     OW20826   6.019   5.415   1.376
 2932SOL    HW120827   5.938   5.370   1.411
 2932SOL    HW220828   6.091   5.413   1.445
 2933SOL     OW20829   3.417   1.047   0.248
 2933SOL    HW120830   3.333   1.069   0.297
 2933SOL    HW220831   3.432   0.948   0.251
 2934SOL     OW20832   3.077   6.621   6.625
 2934SOL    HW120833   3.080   6.706   6.573
 2934SOL    HW220834   3.161   6.610   6.677
 2935SOL     OW20835   7.008   3.705   0.272
 2935SOL    HW120836   7.027   3.694   0.370
 2935SOL    HW220837   6.957   3.625   0.239
 2936SOL     OW20838   1.577   6.243   6.283
 2936SOL    HW120839   1.660   6.219   6.233
 2936SOL    HW220840   1.532   6.159   6.316
 2937SOL     OW20841   1.165   5.912   6.304
 2937SOL    HW120842   1.250   5.863   6.324
 2937SOL    HW220843   1.128   5.952   6.388
 2938SOL     OW20844   9.339   6.851   6.629
 2938SOL    HW120845   9.379   6.935   6.666
 2938SOL    HW220846   9.246   6.870   6.597
 2939SOL     OW20847   2.024   5.657   4.975
 2939SOL    HW120848   1.946   5.614   4.930
 2939SOL    HW220849   2.104   5.650   4.915
 2940SOL     OW20850   1.910   5.111   0.785
 2940SOL    HW120851   1.852   5.104   0.704
 2940SOL    HW220852   1.947   5.203   0.792
 2941SOL     OW20853   3.654   7.038   5.317
 2941SOL    HW120854   3.585   7.108   5.298
 2941SOL    HW220855   3.731   7.080   5.366
 2942SOL     OW20856   3.623   5.648   1.607
 2942SOL    HW120857   3.562   5.568   1.609
 2942SOL    HW220858   3.618   5.695   1.695
 2943SOL     OW20859   7.786   7.307   0.945
 2943SOL    HW120860   7.857   7.257   0.995
 2943SOL    HW220861   7.805   7.405   0.950
 2944SOL     OW20862   7.741   0.108   5.541
 2944SOL    HW120863   7.694   0.093   5.454
 2944SOL    HW220864   7.710   0.039   5.608
 2945SOL     OW20865   5.020   8.361   5.755
 2945SOL    HW120866   4.955   8.401   5.820
 2945SOL    HW220867   5.002   8.263   5.747
 2946SOL     OW20868   3.980   4.647   1.767
 2946SOL    HW120869   3.985   4.730   1.822
 2946SOL    HW220870   4.064   4.637   1.714
 2947SOL     OW20871   4.028   8.307   1.975
 2947SOL    HW120872   3.954   8.289   1.909
 2947SOL    HW220873   4.026   8.237   2.046
 2948SOL     OW20874   8.838   8.379   0.345
 2948SOL    HW120875   8.888   8.314   0.287
 2948SOL    HW220876   8.902   8.420   0.410
 2949SOL     OW20877   8.537   2.718   0.509
 2949SOL    HW120878   8.480   2.796   0.484
 2949SOL    HW220879   8.528   2.700   0.607
 2950SOL     OW20880   4.385   8.328   5.002
 2950SOL    HW120881   4.355   8.328   4.906
 2950SOL    HW220882   4.326   8.267   5.055
 2951SOL     OW20883   8.500   5.749   1.739
 2951SOL    HW120884   8.432   5.681   1.711
 2951SOL    HW220885   8.591   5.715   1.719
 2952SOL     OW20886   6.437   2.807   6.752
 2952SOL    HW120887   6.367   2.794   6.682
 2952SOL    HW220888   6.457   2.904   6.762
 2953SOL     OW20889   7.407   1.738   6.352
 2953SOL    HW120890   7.430   1.677   6.428
 2953SOL    HW220891   7.432   1.832   6.376
 2954SOL     OW20892   2.256   1.313   0.530
 2954SOL    HW120893   2.220   1.271   0.446
 2954SOL    HW220894   2.198   1.289   0.607
 2955SOL     OW20895   6.050   0.273   6.455
 2955SOL    HW120896   5.972   0.285   6.393
 2955SOL    HW220897   6.134   0.264   6.402
 2956SOL     OW20898   4.358   7.395   0.804
 2956SOL    HW120899   4.450   7.380   0.841
 2956SOL    HW220900   4.307   7.310   0.805
 2957SOL     OW20901   6.945   4.421   6.040
 2957SOL    HW120902   6.954   4.444   6.137
 2957SOL    HW220903   7.030   4.441   5.992
 2958SOL     OW20904   2.971   5.540   6.523
 2958SOL    HW120905   2.985   5.608   6.595
 2958SOL    HW220906   2.890   5.564   6.469
 2959SOL     OW20907   8.762   5.851   5.289
 2959SOL    HW120908   8.674   5.832   5.332
 2959SOL    HW220909   8.820   5.769   5.292
 2960SOL     OW20910   8.428   5.811   0.694
 2960SOL    HW120911   8.372   5.740   0.736
 2960SOL    HW220912   8.386   5.841   0.608
 2961SOL     OW20913   2.447   7.532   5.980
 2961SOL    HW120914   2.382   7.536   5.904
 2961SOL    HW220915   2.409   7.581   6.059
 2962SOL     OW20916   5.085   0.624   5.967
 2962SOL    HW120917   5.116   0.637   5.873
 2962SOL    HW220918   5.140   0.681   6.028
 2963SOL     OW20919   1.898   5.810   0.846
 2963SOL    HW120920   1.950   5.815   0.760
 2963SOL    HW220921   1.827   5.741   0.838
 2964SOL     OW20922   6.680   1.556   1.283
 2964SOL    HW120923   6.723   1.496   1.352
 2964SOL    HW220924   6.750   1.590   1.221
 2965SOL     OW20925   5.347   1.510   0.649
 2965SOL    HW120926   5.287   1.451   0.702
 2965SOL    HW220927   5.376   1.462   0.566
 2966SOL     OW20928   2.220   7.917   6.556
 2966SOL    HW120929   2.122   7.914   6.575
 2966SOL    HW220930   2.253   7.826   6.535
 2967SOL     OW20931   6.888   0.397   0.373
 2967SOL    HW120932   6.864   0.314   0.423
 2967SOL    HW220933   6.979   0.388   0.333
 2968SOL     OW20934   2.623   4.942   0.254
 2968SOL    HW120935   2.544   4.952   0.314
 2968SOL    HW220936   2.640   5.029   0.207
 2969SOL     OW20937   5.007   4.122   0.830
 2969SOL    HW120938   5.065   4.040   0.833
 2969SOL    HW220939   5.031   4.176   0.749
 2970SOL     OW20940   3.263   3.311   0.802
 2970SOL    HW120941   3.298   3.318   0.709
 2970SOL    HW220942   3.264   3.401   0.844
 2971SOL     OW20943   7.901   1.696   6.653
 2971SOL    HW120944   7.930   1.718   6.746
 2971SOL    HW220945   7.969   1.636   6.610
 2972SOL     OW20946   3.957   1.092   5.627
 2972SOL    HW120947   3.948   1.062   5.723
 2972SOL    HW220948   4.052   1.116   5.609
 2973SOL     OW20949   8.100   6.098   6.453
 2973SOL    HW120950   8.096   6.042   6.536
 2973SOL    HW220951   8.011   6.096   6.407
 2974SOL     OW20952   7.005   3.771   1.533
 2974SOL    HW120953   7.033   3.835   1.604
 2974SOL    HW220954   6.962   3.822   1.458
 2975SOL     OW20955   1.208   1.291   6.557
 2975SOL    HW120956   1.272   1.267   6.484
 2975SOL    HW220957   1.242   1.257   6.644
 2976SOL     OW20958   5.355   3.899   6.257
 2976SOL    HW120959   5.371   3.897   6.356
 2976SOL    HW220960   5.357   3.805   6.222
 2977SOL     OW20961   4.106   7.084   0.921
 2977SOL    HW120962   4.120   7.030   1.004
 2977SOL    HW220963   4.182   7.070   0.858
 2978SOL     OW20964   6.766   6.359   0.849
 2978SOL    HW120965   6.829   6.340   0.773
 2978SOL    HW220966   6.767   6.457   0.869
 2979SOL     OW20967   9.015   5.447   0.704
 2979SOL    HW120968   9.050   5.432   0.796
 2979SOL    HW220969   9.090   5.467   0.642
 2980SOL     OW20970   6.703   8.411   6.033
 2980SOL    HW120971   6.779   8.437   5.974
 2980SOL    HW220972   6.694   8.477   6.108
 2981SOL     OW20973   2.935   1.167   2.031
 2981SOL    HW120974   2.929   1.241   1.963
 2981SOL    HW220975   2.929   1.079   1.985
 2982SOL     OW20976   4.077   7.927   6.710
 2982SOL    HW120977   4.096   8.014   6.755
 2982SOL    HW220978   3.983   7.899   6.730
 2983SOL     OW20979   3.999   8.396   0.873
 2983SOL    HW120980   4.018   8.317   0.815
 2983SOL    HW220981   3.985   8.477   0.816
 2984SOL     OW20982   1.805   3.963   6.001
 2984SOL    HW120983   1.822   4.058   6.027
 2984SOL    HW220984   1.846   3.945   5.911
 2985SOL     OW20985   8.379   4.108   6.669
 2985SOL    HW120986   8.333   4.152   6.592
 2985SOL    HW220987   8.476   4.133   6.669
 2986SOL     OW20988   9.072   5.909   0.288
 2986SOL    HW120989   9.006   5.932   0.360
 2986SOL    HW220990   9.105   5.815   0.301
 2987SOL     OW20991   3.616   7.690   5.464
 2987SOL    HW120992   3.539   7.645   5.417
 2987SOL    HW220993   3.701   7.667   5.417
 2988SOL     OW20994   7.768   6.286   1.124
 2988SOL    HW120995   7.813   6.347   1.190
 2988SOL    HW220996   7.688   6.244   1.166
 2989SOL     OW20997   0.900   5.495   5.764
 2989SOL    HW120998   0.853   5.414   5.799
 2989SOL    HW220999   0.834   5.568   5.747
 2990SOL     OW21000   8.657   2.455   1.451
 2990SOL    HW121001   8.635   2.541   1.496
 2990SOL    HW221002   8.652   2.380   1.518
 2991SOL     OW21003   7.887   6.219   5.769
 2991SOL    HW121004   7.873   6.129   5.809
 2991SOL    HW221005   7.802   6.271   5.772
 2992SOL     OW21006   8.672   2.350   0.939
 2992SOL    HW121007   8.629   2.339   1.029
 2992SOL    HW221008   8.711   2.441   0.932
 2993SOL     OW21009   4.662   0.118   0.578
 2993SOL    HW121010   4.633   0.130   0.483
 2993SOL    HW221011   4.700   0.027   0.591
 2994SOL     OW21012   3.436   0.527   5.158
 2994SOL    HW121013   3.356   0.467   5.156
 2994SOL    HW221014   3.500   0.499   5.086
 2995SOL     OW21015   7.415   0.005   1.139
 2995SOL    HW121016   7.506   0.045   1.137
 2995SOL    HW221017   7.388  -0.014   1.233
 2996SOL     OW21018   0.707   0.088   5.459
 2996SOL    HW121019   0.686   0.170   5.404
 2996SOL    HW221020   0.779   0.036   5.413
 2997SOL     OW21021   7.467   1.549   6.515
 2997SOL    HW121022   7.551   1.532   6.568
 2997SOL    HW221023   7.407   1.470   6.522
 2998SOL     OW21024   5.305   3.617   5.763
 2998SOL    HW121025   5.362   3.552   5.713
 2998SOL    HW221026   5.304   3.704   5.714
 2999SOL     OW21027   2.876   3.704   0.190
 2999SOL    HW121028   2.830   3.626   0.234
 2999SOL    HW221029   2.939   3.671   0.120
 3000SOL     OW21030   6.988   3.077   0.793
 3000SOL    HW121031   7.045   3.072   0.711
 3000SOL    HW221032   7.023   3.148   0.854
 3001SOL     OW21033   1.077   5.664   1.606
 3001SOL    HW121034   1.114   5.745   1.651
 3001SOL    HW221035   1.002   5.691   1.545
 3002SOL     OW21036   1.302   7.590   5.132
 3002SOL    HW121037   1.331   7.631   5.046
 3002SOL    HW221038   1.208   7.558   5.124
 3003SOL     OW21039   9.543   4.050   1.265
 3003SOL    HW121040   9.453   4.065   1.306
 3003SOL    HW221041   9.596   3.987   1.323
 3004SOL     OW21042   7.432   4.290   5.948
 3004SOL    HW121043   7.511   4.230   5.962
 3004SOL    HW221044   7.439   4.335   5.859
 3005SOL     OW21045   6.077   5.822   6.805
 3005SOL    HW121046   6.095   5.724   6.800
 3005SOL    HW221047   5.981   5.839   6.785
 3006SOL     OW21048   1.877   6.321   4.878
 3006SOL    HW121049   1.898   6.225   4.856
 3006SOL    HW221050   1.916   6.380   4.808
 3007SOL     OW21051   7.296   4.465   0.346
 3007SOL    HW121052   7.210   4.472   0.396
 3007SOL    HW221053   7.370   4.442   0.409
 3008SOL     OW21054   0.151   0.503   5.496
 3008SOL    HW121055   0.144   0.405   5.511
 3008SOL    HW221056   0.176   0.520   5.400
 3009SOL     OW21057   5.393   2.134   0.349
 3009SOL    HW121058   5.438   2.138   0.259
 3009SOL    HW221059   5.455   2.171   0.418
 3010SOL     OW21060   4.744   5.629   2.160
 3010SOL    HW121061   4.758   5.722   2.195
 3010SOL    HW221062   4.832   5.592   2.130
 3011SOL     OW21063   5.990   3.759   1.371
 3011SOL    HW121064   6.067   3.732   1.429
 3011SOL    HW221065   6.009   3.733   1.276
 3012SOL     OW21066   2.419   4.974   1.145
 3012SOL    HW121067   2.476   5.049   1.114
 3012SOL    HW221068   2.431   4.961   1.243
 3013SOL     OW21069   3.795   4.214   2.121
 3013SOL    HW121070   3.895   4.218   2.116
 3013SOL    HW221071   3.767   4.206   2.216
 3014SOL     OW21072   3.550   5.651   0.988
 3014SOL    HW121073   3.478   5.715   0.958
 3014SOL    HW221074   3.634   5.671   0.939
 3015SOL     OW21075   3.974   6.985   6.620
 3015SOL    HW121076   4.072   7.007   6.625
 3015SOL    HW221077   3.959   6.894   6.659
 3016SOL     OW21078   7.489   1.613   0.843
 3016SOL    HW121079   7.435   1.530   0.825
 3016SOL    HW221080   7.449   1.664   0.919
 3017SOL     OW21081   8.474   4.056   0.431
 3017SOL    HW121082   8.541   4.124   0.404
 3017SOL    HW221083   8.509   3.965   0.411
 3018SOL     OW21084   1.632   0.412   1.910
 3018SOL    HW121085   1.719   0.456   1.930
 3018SOL    HW221086   1.569   0.479   1.870
 3019SOL     OW21087   7.002   6.311   6.788
 3019SOL    HW121088   6.988   6.399   6.743
 3019SOL    HW221089   6.924   6.291   6.847
 3020SOL     OW21090   6.994   2.680   0.571
 3020SOL    HW121091   6.975   2.644   0.480
 3020SOL    HW221092   7.019   2.605   0.632
 3021SOL     OW21093   8.241   3.564   0.818
 3021SOL    HW121094   8.144   3.577   0.836
 3021SOL    HW221095   8.280   3.648   0.780
 3022SOL     OW21096   8.004   6.569   4.948
 3022SOL    HW121097   7.987   6.471   4.957
 3022SOL    HW221098   7.929   6.611   4.898
 3023SOL     OW21099   3.310   5.569   5.756
 3023SOL    HW121100   3.211   5.555   5.751
 3023SOL    HW221101   3.330   5.665   5.776
 3024SOL     OW21102   8.266   0.558   5.014
 3024SOL    HW121103   8.230   0.503   4.939
 3024SOL    HW221104   8.364   0.574   4.999
 3025SOL     OW21105   9.146   0.620   1.475
 3025SOL    HW121106   9.162   0.555   1.550
 3025SOL    HW221107   9.054   0.657   1.481
 3026SOL     OW21108   4.680   8.240   1.417
 3026SOL    HW121109   4.608   8.177   1.388
 3026SOL    HW221110   4.694   8.230   1.515
 3027SOL     OW21111   4.642   1.292   1.746
 3027SOL    HW121112   4.619   1.232   1.823
 3027SOL    HW221113   4.634   1.388   1.775
 3028SOL     OW21114   4.883   2.472   0.391
 3028SOL    HW121115   4.792   2.438   0.368
 3028SOL    HW221116   4.883   2.509   0.484
 3029SOL     OW21117   2.391   5.266   5.330
 3029SOL    HW121118   2.368   5.170   5.314
 3029SOL    HW221119   2.360   5.321   5.253
 3030SOL     OW21120   3.494   1.751   1.455
 3030SOL    HW121121   3.574   1.775   1.511
 3030SOL    HW221122   3.415   1.804   1.486
 3031SOL     OW21123   6.897   6.633   4.869
 3031SOL    HW121124   6.863   6.551   4.822
 3031SOL    HW221125   6.997   6.635   4.865
 3032SOL     OW21126   7.818   0.066   6.736
 3032SOL    HW121127   7.730   0.026   6.762
 3032SOL    HW221128   7.806   0.164   6.722
 3033SOL     OW21129   6.627   1.779   6.322
 3033SOL    HW121130   6.546   1.750   6.373
 3033SOL    HW221131   6.602   1.851   6.258
 3034SOL     OW21132   8.993   7.065   1.444
 3034SOL    HW121133   8.966   6.981   1.492
 3034SOL    HW221134   8.982   7.143   1.505
 3035SOL     OW21135   5.689   0.267   1.169
 3035SOL    HW121136   5.712   0.178   1.209
 3035SOL    HW221137   5.644   0.323   1.238
 3036SOL     OW21138   7.530   3.056   0.447
 3036SOL    HW121139   7.499   2.983   0.508
 3036SOL    HW221140   7.591   3.117   0.497
 3037SOL     OW21141   8.575   6.808   1.651
 3037SOL    HW121142   8.538   6.716   1.638
 3037SOL    HW221143   8.512   6.861   1.708
 3038SOL     OW21144   0.736   2.223   6.682
 3038SOL    HW121145   0.802   2.173   6.737
 3038SOL    HW221146   0.753   2.321   6.690
 3039SOL     OW21147   5.594   0.166   5.623
 3039SOL    HW121148   5.535   0.133   5.696
 3039SOL    HW221149   5.542   0.224   5.561
 3040SOL     OW21150   8.168   5.918   0.904
 3040SOL    HW121151   8.152   5.941   1.000
 3040SOL    HW221152   8.252   5.963   0.873
 3041SOL     OW21153   5.290   2.421   0.681
 3041SOL    HW121154   5.194   2.397   0.667
 3041SOL    HW221155   5.306   2.515   0.651
 3042SOL     OW21156   5.867   2.690   0.962
 3042SOL    HW121157   5.792   2.740   1.005
 3042SOL    HW221158   5.857   2.592   0.981
 3043SOL     OW21159   8.441   5.340   6.835
 3043SOL    HW121160   8.452   5.320   6.737
 3043SOL    HW221161   8.348   5.373   6.853
 3044SOL     OW21162   7.404   7.251   0.896
 3044SOL    HW121163   7.345   7.295   0.964
 3044SOL    HW221164   7.347   7.197   0.833
 3045SOL     OW21165   6.580   1.451   6.591
 3045SOL    HW121166   6.673   1.414   6.591
 3045SOL    HW221167   6.571   1.518   6.665
 3046SOL     OW21168   8.645   7.507   6.787
 3046SOL    HW121169   8.632   7.605   6.800
 3046SOL    HW221170   8.742   7.485   6.798
 3047SOL     OW21171   6.392   8.307   1.458
 3047SOL    HW121172   6.463   8.240   1.480
 3047SOL    HW221173   6.411   8.348   1.369
 3048SOL     OW21174   1.353   1.578   0.854
 3048SOL    HW121175   1.256   1.595   0.870
 3048SOL    HW221176   1.368   1.480   0.839
 3049SOL     OW21177   4.741   2.662   0.157
 3049SOL    HW121178   4.714   2.635   0.249
 3049SOL    HW221179   4.752   2.762   0.153
 3050SOL     OW21180   1.805   0.180   0.627
 3050SOL    HW121181   1.755   0.261   0.596
 3050SOL    HW221182   1.882   0.163   0.566
 3051SOL     OW21183   7.080   5.156   0.593
 3051SOL    HW121184   7.055   5.080   0.653
 3051SOL    HW221185   7.120   5.120   0.509
 3052SOL     OW21186   5.098   3.629   0.777
 3052SOL    HW121187   5.017   3.601   0.829
 3052SOL    HW221188   5.168   3.558   0.784
 3053SOL     OW21189   3.654   6.425   0.726
 3053SOL    HW121190   3.713   6.361   0.775
 3053SOL    HW221191   3.585   6.462   0.789
 3054SOL     OW21192   1.178   2.719   5.983
 3054SOL    HW121193   1.212   2.807   5.951
 3054SOL    HW221194   1.096   2.733   6.037
 3055SOL     OW21195   2.465   1.395   5.382
 3055SOL    HW121196   2.482   1.309   5.430
 3055SOL    HW221197   2.395   1.380   5.311
 3056SOL     OW21198   4.185   8.207   5.168
 3056SOL    HW121199   4.111   8.269   5.145
 3056SOL    HW221200   4.158   8.113   5.146
 3057SOL     OW21201   5.998   6.090   5.534
 3057SOL    HW121202   5.963   6.180   5.557
 3057SOL    HW221203   5.960   6.060   5.446
 3058SOL     OW21204   1.288   5.361   1.272
 3058SOL    HW121205   1.374   5.347   1.321
 3058SOL    HW221206   1.233   5.429   1.319
 3059SOL     OW21207   9.037   7.694   1.379
 3059SOL    HW121208   9.034   7.720   1.282
 3059SOL    HW221209   8.984   7.758   1.433
 3060SOL     OW21210   6.567   3.968   6.005
 3060SOL    HW121211   6.575   3.880   6.050
 3060SOL    HW221212   6.542   3.954   5.909
 3061SOL     OW21213   6.935   3.348   0.504
 3061SOL    HW121214   6.863   3.412   0.476
 3061SOL    HW221215   7.006   3.399   0.552
 3062SOL     OW21216   5.040   6.517   1.162
 3062SOL    HW121217   5.033   6.520   1.063
 3062SOL    HW221218   5.030   6.610   1.198
 3063SOL     OW21219   8.413   3.467   1.309
 3063SOL    HW121220   8.444   3.531   1.379
 3063SOL    HW221221   8.472   3.475   1.228
 3064SOL     OW21222   6.949   2.268   2.013
 3064SOL    HW121223   6.911   2.345   2.065
 3064SOL    HW221224   6.929   2.182   2.061
 3065SOL     OW21225   3.691   4.588   0.357
 3065SOL    HW121226   3.702   4.678   0.400
 3065SOL    HW221227   3.779   4.559   0.319
 3066SOL     OW21228   3.394   3.127   6.739
 3066SOL    HW121229   3.328   3.159   6.807
 3066SOL    HW221230   3.482   3.113   6.784
 3067SOL     OW21231   3.306   8.338   6.203
 3067SOL    HW121232   3.206   8.346   6.199
 3067SOL    HW221233   3.333   8.243   6.186
 3068SOL     OW21234   5.348   2.732   0.302
 3068SOL    HW121235   5.350   2.832   0.303
 3068SOL    HW221236   5.253   2.701   0.299
 3069SOL     OW21237   8.555   8.084   6.313
 3069SOL    HW121238   8.592   7.996   6.285
 3069SOL    HW221239   8.471   8.102   6.262
 3070SOL     OW21240   0.282   6.558   4.179
 3070SOL    HW121241   0.375   6.548   4.144
 3070SOL    HW221242   0.251   6.652   4.164
 3071SOL     OW21243   9.388   2.017   0.457
 3071SOL    HW121244   9.465   1.974   0.504
 3071SOL    HW221245   9.361   2.100   0.506
 3072SOL     OW21246   0.288   6.926   5.007
 3072SOL    HW121247   0.305   6.960   4.915
 3072SOL    HW221248   0.198   6.883   5.010
 3073SOL     OW21249   8.639   7.076   6.236
 3073SOL    HW121250   8.561   7.124   6.196
 3073SOL    HW221251   8.614   6.981   6.254
 3074SOL     OW21252   6.090   2.401   0.667
 3074SOL    HW121253   6.066   2.490   0.707
 3074SOL    HW221254   6.190   2.392   0.663
 3075SOL     OW21255   9.285   2.261   0.573
 3075SOL    HW121256   9.289   2.358   0.596
 3075SOL    HW221257   9.206   2.220   0.618
 3076SOL     OW21258   3.943   7.021   0.520
 3076SOL    HW121259   3.924   6.964   0.600
 3076SOL    HW221260   4.028   6.991   0.477
 3077SOL     OW21261   9.210   7.390   4.943
 3077SOL    HW121262   9.119   7.397   4.983
 3077SOL    HW221263   9.203   7.345   4.854
 3078SOL     OW21264   6.017   2.265   0.912
 3078SOL    HW121265   6.060   2.296   0.827
 3078SOL    HW221266   6.003   2.166   0.908
 3079SOL     OW21267   0.202   7.567   0.491
 3079SOL    HW121268   0.109   7.538   0.512
 3079SOL    HW221269   0.257   7.567   0.574
 3080SOL     OW21270   2.634  -0.033   0.642
 3080SOL    HW121271   2.666   0.034   0.709
 3080SOL    HW221272   2.610  -0.118   0.689
 3081SOL     OW21273   0.444   1.909   1.527
 3081SOL    HW121274   0.478   1.842   1.594
 3081SOL    HW221275   0.503   1.989   1.527
 3082SOL     OW21276   5.346   1.899   5.490
 3082SOL    HW121277   5.310   1.990   5.471
 3082SOL    HW221278   5.431   1.885   5.439
 3083SOL     OW21279   6.883   1.668   0.367
 3083SOL    HW121280   6.823   1.592   0.341
 3083SOL    HW221281   6.977   1.633   0.380
 3084SOL     OW21282   5.270   4.184   6.808
 3084SOL    HW121283   5.335   4.247   6.766
 3084SOL    HW221284   5.318   4.119   6.867
 3085SOL     OW21285   6.777   7.481   1.333
 3085SOL    HW121286   6.696   7.482   1.275
 3085SOL    HW221287   6.855   7.447   1.281
 3086SOL     OW21288   2.579   2.300   6.078
 3086SOL    HW121289   2.566   2.209   6.115
 3086SOL    HW221290   2.528   2.366   6.132
 3087SOL     OW21291   6.322   7.776   1.444
 3087SOL    HW121292   6.359   7.744   1.531
 3087SOL    HW221293   6.395   7.779   1.376
 3088SOL     OW21294   1.067   0.885   1.708
 3088SOL    HW121295   1.146   0.825   1.714
 3088SOL    HW221296   1.073   0.955   1.780
 3089SOL     OW21297   6.347   2.771   0.257
 3089SOL    HW121298   6.397   2.844   0.302
 3089SOL    HW221299   6.391   2.749   0.170
 3090SOL     OW21300   8.093   1.801   5.998
 3090SOL    HW121301   8.082   1.735   5.924
 3090SOL    HW221302   8.007   1.809   6.048
 3091SOL     OW21303   2.301   0.688   6.186
 3091SOL    HW121304   2.322   0.695   6.089
 3091SOL    HW221305   2.382   0.713   6.239
 3092SOL     OW21306   7.496   0.219   0.129
 3092SOL    HW121307   7.446   0.157   0.189
 3092SOL    HW221308   7.488   0.313   0.163
 3093SOL     OW21309   2.485   2.761   6.837
 3093SOL    HW121310   2.567   2.776   6.891
 3093SOL    HW221311   2.409   2.734   6.898
 3094SOL     OW21312   2.820   0.502   1.382
 3094SOL    HW121313   2.794   0.419   1.431
 3094SOL    HW221314   2.763   0.578   1.413
 3095SOL     OW21315   4.294   6.283   6.850
 3095SOL    HW121316   4.360   6.238   6.791
 3095SOL    HW221317   4.341   6.344   6.914
 3096SOL     OW21318   0.259   7.528   5.824
 3096SOL    HW121319   0.307   7.509   5.910
 3096SOL    HW221320   0.305   7.602   5.775
 3097SOL     OW21321   8.490   3.167   0.546
 3097SOL    HW121322   8.423   3.241   0.545
 3097SOL    HW221323   8.578   3.200   0.511
 3098SOL     OW21324   3.043   7.293   6.325
 3098SOL    HW121325   3.032   7.369   6.388
 3098SOL    HW221326   2.963   7.287   6.265
 3099SOL     OW21327   7.565   0.595   0.788
 3099SOL    HW121328   7.520   0.536   0.855
 3099SOL    HW221329   7.551   0.691   0.813
 3100SOL     OW21330   1.614   6.921   0.352
 3100SOL    HW121331   1.673   6.916   0.272
 3100SOL    HW221332   1.576   7.014   0.360
 3101SOL     OW21333   2.870   8.266   5.563
 3101SOL    HW121334   2.927   8.186   5.543
 3101SOL    HW221335   2.858   8.273   5.662
 3102SOL     OW21336   7.774   0.947   0.369
 3102SOL    HW121337   7.727   0.892   0.438
 3102SOL    HW221338   7.779   0.896   0.283
 3103SOL     OW21339   4.127   2.170   0.902
 3103SOL    HW121340   4.164   2.227   0.829
 3103SOL    HW221341   4.122   2.223   0.987
 3104SOL     OW21342   2.679   0.361   5.362
 3104SOL    HW121343   2.759   0.312   5.397
 3104SOL    HW221344   2.696   0.391   5.268
 3105SOL     OW21345   5.794   7.952   5.844
 3105SOL    HW121346   5.864   7.893   5.886
 3105SOL    HW221347   5.834   7.999   5.765
 3106SOL     OW21348   0.146   7.913   6.177
 3106SOL    HW121349   0.106   7.996   6.139
 3106SOL    HW221350   0.112   7.834   6.125
 3107SOL     OW21351   6.665   5.309   0.445
 3107SOL    HW121352   6.651   5.256   0.362
 3107SOL    HW221353   6.577   5.325   0.490
 3108SOL     OW21354   5.423   0.601   0.372
 3108SOL    HW121355   5.413   0.502   0.369
 3108SOL    HW221356   5.375   0.637   0.452
 3109SOL     OW21357   3.977   5.268   2.169
 3109SOL    HW121358   3.988   5.169   2.161
 3109SOL    HW221359   3.887   5.294   2.132
 3110SOL     OW21360   4.881   2.211   6.609
 3110SOL    HW121361   4.875   2.112   6.610
 3110SOL    HW221362   4.812   2.249   6.670
 3111SOL     OW21363   8.518   7.730   4.601
 3111SOL    HW121364   8.556   7.677   4.526
 3111SOL    HW221365   8.421   7.710   4.611
 3112SOL     OW21366   8.837   2.222   5.872
 3112SOL    HW121367   8.743   2.256   5.868
 3112SOL    HW221368   8.839   2.135   5.921
 3113SOL     OW21369   7.785   4.130   6.324
 3113SOL    HW121370   7.695   4.173   6.315
 3113SOL    HW221371   7.854   4.201   6.337
 3114SOL     OW21372   2.806   7.272   6.186
 3114SOL    HW121373   2.717   7.266   6.230
 3114SOL    HW221374   2.805   7.343   6.116
 3115SOL     OW21375   7.675   2.559   1.136
 3115SOL    HW121376   7.751   2.505   1.173
 3115SOL    HW221377   7.673   2.648   1.181
 3116SOL     OW21378   0.949   7.971   0.501
 3116SOL    HW121379   0.895   8.042   0.546
 3116SOL    HW221380   1.032   8.012   0.462
 3117SOL     OW21381   5.489   5.905   6.678
 3117SOL    HW121382   5.560   5.938   6.741
 3117SOL    HW221383   5.523   5.911   6.584
 3118SOL     OW21384   7.576   6.519   1.148
 3118SOL    HW121385   7.500   6.511   1.083
 3118SOL    HW221386   7.587   6.432   1.196
 3119SOL     OW21387   8.359   6.330   0.410
 3119SOL    HW121388   8.425   6.312   0.483
 3119SOL    HW221389   8.295   6.400   0.441
 3120SOL     OW21390   2.855   4.822   1.368
 3120SOL    HW121391   2.865   4.880   1.287
 3120SOL    HW221392   2.800   4.742   1.345
 3121SOL     OW21393   5.399   4.013   0.260
 3121SOL    HW121394   5.483   3.995   0.209
 3121SOL    HW221395   5.349   3.928   0.273
 3122SOL     OW21396   0.891   0.672   1.865
 3122SOL    HW121397   0.802   0.694   1.825
 3122SOL    HW221398   0.921   0.748   1.922
 3123SOL     OW21399   4.063   0.327   0.639
 3123SOL    HW121400   4.095   0.418   0.666
 3123SOL    HW221401   4.137   0.279   0.591
 3124SOL     OW21402   3.765   3.526   6.299
 3124SOL    HW121403   3.823   3.606   6.284
 3124SOL    HW221404   3.813   3.444   6.267
 3125SOL     OW21405   7.860   5.856   5.499
 3125SOL    HW121406   7.794   5.930   5.514
 3125SOL    HW221407   7.848   5.820   5.406
 3126SOL     OW21408   4.350   1.027   0.685
 3126SOL    HW121409   4.338   0.958   0.613
 3126SOL    HW221410   4.415   1.096   0.654
 3127SOL     OW21411   7.596   7.335   4.977
 3127SOL    HW121412   7.510   7.300   4.940
 3127SOL    HW221413   7.595   7.435   4.974
 3128SOL     OW21414   6.408   8.291   0.446
 3128SOL    HW121415   6.335   8.230   0.475
 3128SOL    HW221416   6.371   8.383   0.430
 3129SOL     OW21417   1.621   6.356   5.264
 3129SOL    HW121418   1.592   6.261   5.247
 3129SOL    HW221419   1.673   6.390   5.185
 3130SOL     OW21420   5.160   0.273   0.126
 3130SOL    HW121421   5.201   0.186   0.153
 3130SOL    HW221422   5.220   0.318   0.060
 3131SOL     OW21423   6.988   1.616   6.472
 3131SOL    HW121424   7.013   1.591   6.379
 3131SOL    HW221425   7.065   1.598   6.533
 3132SOL     OW21426   2.232   2.600   0.230
 3132SOL    HW121427   2.204   2.662   0.304
 3132SOL    HW221428   2.152   2.552   0.195
 3133SOL     OW21429   5.844   0.528   4.762
 3133SOL    HW121430   5.757   0.510   4.716
 3133SOL    HW221431   5.875   0.621   4.741
 3134SOL     OW21432   5.829   0.869   0.453
 3134SOL    HW121433   5.839   0.776   0.418
 3134SOL    HW221434   5.733   0.897   0.449
 3135SOL     OW21435   1.672   8.201   1.384
 3135SOL    HW121436   1.578   8.194   1.415
 3135SOL    HW221437   1.688   8.135   1.310
 3136SOL     OW21438   9.280   6.786   0.529
 3136SOL    HW121439   9.193   6.737   0.541
 3136SOL    HW221440   9.265   6.884   0.543
 3137SOL     OW21441   9.438   4.309   0.765
 3137SOL    HW121442   9.356   4.334   0.714
 3137SOL    HW221443   9.445   4.367   0.846
 3138SOL     OW21444   7.017   2.075   6.579
 3138SOL    HW121445   7.024   2.156   6.520
 3138SOL    HW221446   6.924   2.040   6.575
 3139SOL     OW21447   5.242   5.853   6.173
 3139SOL    HW121448   5.148   5.822   6.192
 3139SOL    HW221449   5.291   5.865   6.259
 3140SOL     OW21450   6.809   6.285   1.105
 3140SOL    HW121451   6.800   6.264   1.007
 3140SOL    HW221452   6.718   6.303   1.143
 3141SOL     OW21453   0.466   1.664   0.529
 3141SOL    HW121454   0.372   1.690   0.509
 3141SOL    HW221455   0.495   1.706   0.615
 3142SOL     OW21456   5.798   5.836   0.627
 3142SOL    HW121457   5.854   5.802   0.551
 3142SOL    HW221458   5.789   5.764   0.696
 3143SOL     OW21459   6.871   1.420   0.659
 3143SOL    HW121460   6.875   1.322   0.643
 3143SOL    HW221461   6.953   1.463   0.622
 3144SOL     OW21462   6.086   1.533   6.780
 3144SOL    HW121463   6.076   1.624   6.740
 3144SOL    HW221464   6.036   1.529   6.867
 3145SOL     OW21465   8.482   6.866   6.318
 3145SOL    HW121466   8.529   6.786   6.281
 3145SOL    HW221467   8.450   6.846   6.411
 3146SOL     OW21468   2.072   5.682   6.424
 3146SOL    HW121469   2.106   5.736   6.501
 3146SOL    HW221470   2.113   5.591   6.426
 3147SOL     OW21471   1.713   5.217   1.578
 3147SOL    HW121472   1.648   5.146   1.550
 3147SOL    HW221473   1.806   5.182   1.569
 3148SOL     OW21474   8.856   6.100   6.747
 3148SOL    HW121475   8.805   6.174   6.792
 3148SOL    HW221476   8.947   6.093   6.788
 3149SOL     OW21477   6.963   0.031   5.497
 3149SOL    HW121478   6.983  -0.056   5.541
 3149SOL    HW221479   6.935   0.016   5.402
 3150SOL     OW21480   2.070   7.466   5.482
 3150SOL    HW121481   2.107   7.428   5.397
 3150SOL    HW221482   1.970   7.467   5.476
 3151SOL     OW21483   4.439   2.561   0.506
 3151SOL    HW121484   4.510   2.621   0.542
 3151SOL    HW221485   4.361   2.560   0.568
 3152SOL     OW21486   2.891   6.427   6.126
 3152SOL    HW121487   2.846   6.484   6.194
 3152SOL    HW221488   2.940   6.485   6.061
 3153SOL     OW21489   6.499   3.626   5.942
 3153SOL    HW121490   6.415   3.634   5.887
 3153SOL    HW221491   6.575   3.598   5.883
 3154SOL     OW21492   5.863   1.273   6.405
 3154SOL    HW121493   5.792   1.318   6.350
 3154SOL    HW221494   5.923   1.342   6.446
 3155SOL     OW21495   0.919   0.245   5.931
 3155SOL    HW121496   0.858   0.191   5.873
 3155SOL    HW221497   0.865   0.301   5.994
 3156SOL     OW21498   3.177   1.367   1.120
 3156SOL    HW121499   3.136   1.458   1.115
 3156SOL    HW221500   3.215   1.353   1.211
 3157SOL     OW21501   3.572   4.921   0.228
 3157SOL    HW121502   3.550   5.019   0.229
 3157SOL    HW221503   3.640   4.902   0.299
 3158SOL     OW21504   0.500   2.562   6.608
 3158SOL    HW121505   0.423   2.600   6.660
 3158SOL    HW221506   0.480   2.570   6.510
 3159SOL     OW21507   8.274   2.463   1.056
 3159SOL    HW121508   8.344   2.530   1.083
 3159SOL    HW221509   8.297   2.425   0.966
 3160SOL     OW21510   2.002   1.157   6.553
 3160SOL    HW121511   2.007   1.257   6.560
 3160SOL    HW221512   2.075   1.116   6.608
 3161SOL     OW21513   9.202   3.498   6.132
 3161SOL    HW121514   9.216   3.403   6.158
 3161SOL    HW221515   9.107   3.510   6.102
 3162SOL     OW21516   4.296   5.792   6.735
 3162SOL    HW121517   4.342   5.777   6.823
 3162SOL    HW221518   4.362   5.826   6.668
 3163SOL     OW21519   3.803   3.834   1.054
 3163SOL    HW121520   3.814   3.750   1.108
 3163SOL    HW221521   3.892   3.865   1.021
 3164SOL     OW21522   4.332   2.939   1.974
 3164SOL    HW121523   4.400   2.903   2.037
 3164SOL    HW221524   4.374   3.008   1.914
 3165SOL     OW21525   1.168   0.288   5.745
 3165SOL    HW121526   1.082   0.290   5.796
 3165SOL    HW221527   1.245   0.285   5.809
 3166SOL     OW21528   6.591   6.222   5.588
 3166SOL    HW121529   6.507   6.277   5.595
 3166SOL    HW221530   6.587   6.165   5.506
 3167SOL     OW21531   1.910   6.166   1.258
 3167SOL    HW121532   1.862   6.078   1.253
 3167SOL    HW221533   1.955   6.184   1.171
 3168SOL     OW21534   1.267   5.317   1.609
 3168SOL    HW121535   1.292   5.221   1.598
 3168SOL    HW221536   1.350   5.372   1.617
 3169SOL     OW21537   2.787   2.011   6.138
 3169SOL    HW121538   2.845   2.052   6.068
 3169SOL    HW221539   2.755   1.921   6.108
 3170SOL     OW21540   7.223   6.389   5.519
 3170SOL    HW121541   7.156   6.356   5.585
 3170SOL    HW221542   7.297   6.437   5.566
 3171SOL     OW21543   2.360   1.941   6.132
 3171SOL    HW121544   2.304   1.858   6.132
 3171SOL    HW221545   2.311   2.015   6.087
 3172SOL     OW21546   4.258   4.183   6.546
 3172SOL    HW121547   4.176   4.177   6.489
 3172SOL    HW221548   4.339   4.179   6.487
 3173SOL     OW21549   0.431   5.583   6.306
 3173SOL    HW121550   0.348   5.640   6.305
 3173SOL    HW221551   0.406   5.487   6.292
 3174SOL     OW21552   4.097   1.514   5.342
 3174SOL    HW121553   4.057   1.426   5.318
 3174SOL    HW221554   4.159   1.544   5.269
 3175SOL     OW21555   0.654   2.853   6.292
 3175SOL    HW121556   0.590   2.779   6.273
 3175SOL    HW221557   0.701   2.836   6.379
 3176SOL     OW21558   8.841   2.033   6.579
 3176SOL    HW121559   8.844   1.935   6.598
 3176SOL    HW221560   8.927   2.061   6.536
 3177SOL     OW21561   4.953   6.968   1.317
 3177SOL    HW121562   4.861   6.942   1.346
 3177SOL    HW221563   4.955   6.974   1.217
 3178SOL     OW21564   9.221   6.940   1.007
 3178SOL    HW121565   9.218   7.011   1.077
 3178SOL    HW221566   9.299   6.957   0.946
 3179SOL     OW21567   7.705   2.040   6.276
 3179SOL    HW121568   7.612   2.075   6.283
 3179SOL    HW221569   7.718   1.964   6.340
 3180SOL     OW21570   2.863   4.872   6.773
 3180SOL    HW121571   2.884   4.919   6.858
 3180SOL    HW221572   2.854   4.774   6.790
 3181SOL     OW21573   5.793   2.639   0.521
 3181SOL    HW121574   5.721   2.578   0.554
 3181SOL    HW221575   5.857   2.659   0.595
 3182SOL     OW21576   4.762   7.907   1.206
 3182SOL    HW121577   4.694   7.975   1.179
 3182SOL    HW221578   4.736   7.818   1.170
 3183SOL     OW21579   2.425   3.401   0.657
 3183SOL    HW121580   2.524   3.401   0.643
 3183SOL    HW221581   2.401   3.462   0.732
 3184SOL     OW21582   9.222   2.064   5.681
 3184SOL    HW121583   9.242   1.971   5.714
 3184SOL    HW221584   9.307   2.112   5.664
 3185SOL     OW21585   4.142   7.600   5.376
 3185SOL    HW121586   4.156   7.681   5.320
 3185SOL    HW221587   4.091   7.532   5.324
 3186SOL     OW21588   3.405   5.321   5.685
 3186SOL    HW121589   3.362   5.246   5.734
 3186SOL    HW221590   3.362   5.408   5.711
 3187SOL     OW21591   9.575   6.810   6.804
 3187SOL    HW121592   9.557   6.757   6.721
 3187SOL    HW221593   9.497   6.870   6.822
 3188SOL     OW21594   4.552   0.698   0.338
 3188SOL    HW121595   4.460   0.667   0.315
 3188SOL    HW221596   4.592   0.744   0.259
 3189SOL     OW21597   0.479   1.866   5.751
 3189SOL    HW121598   0.385   1.883   5.719
 3189SOL    HW221599   0.527   1.809   5.684
 3190SOL     OW21600   9.000   2.305   1.181
 3190SOL    HW121601   9.036   2.253   1.103
 3190SOL    HW221602   8.948   2.243   1.240
 3191SOL     OW21603   4.620   1.492   6.057
 3191SOL    HW121604   4.606   1.590   6.072
 3191SOL    HW221605   4.535   1.443   6.071
 3192SOL     OW21606   5.989   1.023   0.281
 3192SOL    HW121607   6.029   1.089   0.344
 3192SOL    HW221608   5.933   0.958   0.332
 3193SOL     OW21609   1.893  -0.043   0.866
 3193SOL    HW121610   1.941  -0.075   0.785
 3193SOL    HW221611   1.959  -0.022   0.938
 3194SOL     OW21612   3.159   1.620   5.813
 3194SOL    HW121613   3.251   1.659   5.812
 3194SOL    HW221614   3.092   1.693   5.822
 3195SOL     OW21615   0.216   6.417   0.276
 3195SOL    HW121616   0.196   6.473   0.196
 3195SOL    HW221617   0.216   6.320   0.251
 3196SOL     OW21618   7.318   1.417   6.258
 3196SOL    HW121619   7.288   1.472   6.179
 3196SOL    HW221620   7.403   1.455   6.294
 3197SOL     OW21621   6.041   8.010   5.336
 3197SOL    HW121622   5.982   8.090   5.349
 3197SOL    HW221623   6.007   7.956   5.259
 3198SOL     OW21624   9.589   6.498   6.787
 3198SOL    HW121625   9.504   6.445   6.793
 3198SOL    HW221626   9.584   6.558   6.707
 3199SOL     OW21627   3.658   0.730   6.544
 3199SOL    HW121628   3.694   0.696   6.631
 3199SOL    HW221629   3.633   0.827   6.554
 3200SOL     OW21630   6.396   1.294   0.310
 3200SOL    HW121631   6.487   1.274   0.346
 3200SOL    HW221632   6.403   1.364   0.239
 3201SOL     OW21633   0.329   0.186   0.266
 3201SOL    HW121634   0.418   0.233   0.267
 3201SOL    HW221635   0.299   0.172   0.361
 3202SOL     OW21636   1.158   0.586   0.380
 3202SOL    HW121637   1.185   0.588   0.284
 3202SOL    HW221638   1.154   0.679   0.416
 3203SOL     OW21639   8.146   4.350   0.520
 3203SOL    HW121640   8.213   4.393   0.460
 3203SOL    HW221641   8.064   4.408   0.526
 3204SOL     OW21642   9.221   8.371   1.054
 3204SOL    HW121643   9.203   8.324   0.968
 3204SOL    HW221644   9.135   8.385   1.103
 3205SOL     OW21645   5.063   5.047   6.497
 3205SOL    HW121646   5.076   5.146   6.502
 3205SOL    HW221647   5.132   5.001   6.552
 3206SOL     OW21648   7.796   4.486   0.202
 3206SOL    HW121649   7.763   4.477   0.296
 3206SOL    HW221650   7.860   4.412   0.181
 3207SOL     OW21651   1.041   0.571   5.814
 3207SOL    HW121652   1.077   0.554   5.722
 3207SOL    HW221653   0.947   0.606   5.806
 3208SOL     OW21654   3.725   7.638   6.287
 3208SOL    HW121655   3.800   7.682   6.336
 3208SOL    HW221656   3.642   7.643   6.343
 3209SOL     OW21657   3.486   5.159   6.510
 3209SOL    HW121658   3.442   5.211   6.437
 3209SOL    HW221659   3.539   5.221   6.567
 3210SOL     OW21660   2.458   5.704   6.306
 3210SOL    HW121661   2.467   5.692   6.405
 3210SOL    HW221662   2.476   5.799   6.282
 3211SOL     OW21663   7.604   6.780   6.308
 3211SOL    HW121664   7.535   6.708   6.300
 3211SOL    HW221665   7.657   6.784   6.223
 3212SOL     OW21666   1.212   5.619   4.915
 3212SOL    HW121667   1.117   5.645   4.932
 3212SOL    HW221668   1.218   5.572   4.827
 3213SOL     OW21669   0.113   1.976   0.836
 3213SOL    HW121670   0.203   1.935   0.846
 3213SOL    HW221671   0.045   1.904   0.822
 3214SOL     OW21672   7.586   4.615   5.881
 3214SOL    HW121673   7.522   4.625   5.957
 3214SOL    HW221674   7.536   4.617   5.795
 3215SOL     OW21675   6.275   6.909   0.644
 3215SOL    HW121676   6.223   6.982   0.688
 3215SOL    HW221677   6.357   6.947   0.601
 3216SOL     OW21678   2.184   1.280   5.904
 3216SOL    HW121679   2.259   1.227   5.942
 3216SOL    HW221680   2.098   1.229   5.915
 3217SOL     OW21681   5.148   4.215   6.412
 3217SOL    HW121682   5.066   4.255   6.452
 3217SOL    HW221683   5.179   4.271   6.335
 3218SOL     OW21684   6.876   4.312   6.410
 3218SOL    HW121685   6.828   4.225   6.393
 3218SOL    HW221686   6.809   4.383   6.430
 3219SOL     OW21687   4.299   0.908   2.188
 3219SOL    HW121688   4.278   0.813   2.211
 3219SOL    HW221689   4.224   0.947   2.134
 3220SOL     OW21690   5.873   0.667   2.019
 3220SOL    HW121691   5.822   0.693   1.937
 3220SOL    HW221692   5.838   0.717   2.097
 3221SOL     OW21693   1.880   4.140   5.418
 3221SOL    HW121694   1.876   4.066   5.351
 3221SOL    HW221695   1.964   4.193   5.403
 3222SOL     OW21696   0.240   6.280   4.192
 3222SOL    HW121697   0.159   6.229   4.163
 3222SOL    HW221698   0.231   6.376   4.164
 3223SOL     OW21699   8.071   3.160   1.594
 3223SOL    HW121700   8.131   3.223   1.644
 3223SOL    HW221701   8.094   3.066   1.617
 3224SOL     OW21702   3.259   7.765   5.760
 3224SOL    HW121703   3.334   7.826   5.736
 3224SOL    HW221704   3.179   7.819   5.785
 3225SOL     OW21705   5.285   0.456   1.596
 3225SOL    HW121706   5.233   0.504   1.666
 3225SOL    HW221707   5.382   0.479   1.605
 3226SOL     OW21708   7.108   1.329   0.378
 3226SOL    HW121709   7.206   1.321   0.361
 3226SOL    HW221710   7.058   1.308   0.294
 3227SOL     OW21711   1.273   5.044   4.697
 3227SOL    HW121712   1.318   5.120   4.744
 3227SOL    HW221713   1.342   4.984   4.657
 3228SOL     OW21714   0.141   1.825   5.456
 3228SOL    HW121715   0.177   1.744   5.410
 3228SOL    HW221716   0.194   1.906   5.428
 3229SOL     OW21717   1.463   0.813   0.918
 3229SOL    HW121718   1.383   0.758   0.895
 3229SOL    HW221719   1.482   0.804   1.016
 3230SOL     OW21720   3.923   2.200   5.391
 3230SOL    HW121721   3.887   2.130   5.330
 3230SOL    HW221722   3.873   2.285   5.376
 3231SOL     OW21723   1.360   3.543   5.826
 3231SOL    HW121724   1.436   3.538   5.761
 3231SOL    HW221725   1.314   3.631   5.817
 3232SOL     OW21726   7.167   3.959   6.173
 3232SOL    HW121727   7.265   3.957   6.149
 3232SOL    HW221728   7.156   3.940   6.270
 3233SOL     OW21729   5.341   7.000   5.789
 3233SOL    HW121730   5.361   6.903   5.776
 3233SOL    HW221731   5.248   7.019   5.756
 3234SOL     OW21732   7.159   2.514   0.742
 3234SOL    HW121733   7.231   2.522   0.673
 3234SOL    HW221734   7.181   2.571   0.821
 3235SOL     OW21735   5.177   8.227   0.747
 3235SOL    HW121736   5.087   8.245   0.787
 3235SOL    HW221737   5.191   8.286   0.668
 3236SOL     OW21738   6.305   5.754   1.203
 3236SOL    HW121739   6.277   5.658   1.198
 3236SOL    HW221740   6.288   5.789   1.295
 3237SOL     OW21741   5.400   6.641   1.308
 3237SOL    HW121742   5.359   6.554   1.336
 3237SOL    HW221743   5.327   6.709   1.297
 3238SOL     OW21744   3.678   3.437   1.869
 3238SOL    HW121745   3.721   3.519   1.908
 3238SOL    HW221746   3.601   3.409   1.925
 3239SOL     OW21747   5.437   6.163   1.327
 3239SOL    HW121748   5.407   6.119   1.411
 3239SOL    HW221749   5.362   6.165   1.261
 3240SOL     OW21750   3.947   0.352   5.582
 3240SOL    HW121751   3.973   0.410   5.505
 3240SOL    HW221752   3.951   0.404   5.667
 3241SOL     OW21753   8.185   1.707   1.041
 3241SOL    HW121754   8.213   1.741   1.130
 3241SOL    HW221755   8.118   1.634   1.052
 3242SOL     OW21756   8.921   5.395   5.897
 3242SOL    HW121757   8.831   5.437   5.905
 3242SOL    HW221758   8.921   5.326   5.825
 3243SOL     OW21759   5.852   5.234   5.805
 3243SOL    HW121760   5.905   5.185   5.875
 3243SOL    HW221761   5.834   5.327   5.836
 3244SOL     OW21762   8.120   5.021   6.068
 3244SOL    HW121763   8.097   4.940   6.014
 3244SOL    HW221764   8.219   5.027   6.078
 3245SOL     OW21765   7.570   3.044   1.163
 3245SOL    HW121766   7.512   2.984   1.218
 3245SOL    HW221767   7.653   3.065   1.214
 3246SOL     OW21768   6.851   4.720   0.646
 3246SOL    HW121769   6.867   4.628   0.683
 3246SOL    HW221770   6.794   4.713   0.564
 3247SOL     OW21771   1.611   8.419   5.280
 3247SOL    HW121772   1.517   8.451   5.264
 3247SOL    HW221773   1.654   8.396   5.193
 3248SOL     OW21774   2.582   5.627   0.437
 3248SOL    HW121775   2.528   5.687   0.496
 3248SOL    HW221776   2.526   5.548   0.412
 3249SOL     OW21777   4.094   2.197   1.746
 3249SOL    HW121778   4.121   2.248   1.665
 3249SOL    HW221779   4.062   2.260   1.816
 3250SOL     OW21780   8.135   6.516   1.099
 3250SOL    HW121781   8.082   6.529   1.183
 3250SOL    HW221782   8.149   6.418   1.082
 3251SOL     OW21783   2.527   7.590   4.746
 3251SOL    HW121784   2.517   7.588   4.646
 3251SOL    HW221785   2.593   7.661   4.771
 3252SOL     OW21786   4.909   0.585   1.079
 3252SOL    HW121787   4.999   0.628   1.075
 3252SOL    HW221788   4.890   0.554   1.173
 3253SOL     OW21789   2.237   2.419   1.854
 3253SOL    HW121790   2.144   2.455   1.839
 3253SOL    HW221791   2.303   2.494   1.847
 3254SOL     OW21792   0.662   1.479   5.547
 3254SOL    HW121793   0.577   1.456   5.500
 3254SOL    HW221794   0.663   1.576   5.570
 3255SOL     OW21795   9.157   3.903   0.707
 3255SOL    HW121796   9.065   3.942   0.718
 3255SOL    HW221797   9.176   3.841   0.783
 3256SOL     OW21798   0.140   7.026   5.574
 3256SOL    HW121799   0.191   6.977   5.503
 3256SOL    HW221800   0.076   7.090   5.531
 3257SOL     OW21801   1.624   6.379   0.563
 3257SOL    HW121802   1.695   6.321   0.524
 3257SOL    HW221803   1.665   6.462   0.600
 3258SOL     OW21804   0.847   1.211   6.830
 3258SOL    HW121805   0.750   1.237   6.840
 3258SOL    HW221806   0.884   1.254   6.749
 3259SOL     OW21807   3.171   8.197   1.131
 3259SOL    HW121808   3.161   8.099   1.113
 3259SOL    HW221809   3.192   8.212   1.228
 3260SOL     OW21810   6.689   3.482   1.067
 3260SOL    HW121811   6.649   3.568   1.035
 3260SOL    HW221812   6.680   3.412   0.996
 3261SOL     OW21813   1.188   0.602   6.675
 3261SOL    HW121814   1.192   0.506   6.705
 3261SOL    HW221815   1.153   0.605   6.581
 3262SOL     OW21816   7.467   6.958   0.288
 3262SOL    HW121817   7.516   6.990   0.370
 3262SOL    HW221818   7.511   6.874   0.255
 3263SOL     OW21819   8.132   4.055   5.734
 3263SOL    HW121820   8.111   4.024   5.827
 3263SOL    HW221821   8.107   3.983   5.669
 3264SOL     OW21822   8.975   5.863   5.934
 3264SOL    HW121823   8.926   5.897   5.854
 3264SOL    HW221824   9.070   5.844   5.909
 3265SOL     OW21825   3.368   7.466   1.928
 3265SOL    HW121826   3.401   7.417   2.009
 3265SOL    HW221827   3.368   7.564   1.947
 3266SOL     OW21828   3.420   6.797   6.211
 3266SOL    HW121829   3.515   6.782   6.181
 3266SOL    HW221830   3.405   6.751   6.298
 3267SOL     OW21831   6.857   6.804   5.381
 3267SOL    HW121832   6.930   6.873   5.378
 3267SOL    HW221833   6.842   6.768   5.289
 3268SOL     OW21834   1.290   5.827   1.206
 3268SOL    HW121835   1.257   5.737   1.234
 3268SOL    HW221836   1.378   5.845   1.251
 3269SOL     OW21837   4.081   0.540   1.526
 3269SOL    HW121838   4.162   0.481   1.528
 3269SOL    HW221839   4.110   0.636   1.518
 3270SOL     OW21840   8.045   2.973   6.454
 3270SOL    HW121841   8.006   3.054   6.499
 3270SOL    HW221842   7.976   2.933   6.393
 3271SOL     OW21843   1.838   7.773   5.599
 3271SOL    HW121844   1.883   7.791   5.512
 3271SOL    HW221845   1.901   7.792   5.674
 3272SOL     OW21846   8.651   5.966   0.850
 3272SOL    HW121847   8.606   5.905   0.785
 3272SOL    HW221848   8.745   5.984   0.819
 3273SOL     OW21849   5.278   8.081   2.178
 3273SOL    HW121850   5.363   8.116   2.216
 3273SOL    HW221851   5.277   7.981   2.185
 3274SOL     OW21852   7.879   0.944   5.851
 3274SOL    HW121853   7.920   0.908   5.768
 3274SOL    HW221854   7.781   0.958   5.837
 3275SOL     OW21855   1.825   2.391   6.368
 3275SOL    HW121856   1.726   2.391   6.354
 3275SOL    HW221857   1.849   2.460   6.436
 3276SOL     OW21858   8.870  -0.063   5.980
 3276SOL    HW121859   8.857  -0.112   6.066
 3276SOL    HW221860   8.927   0.018   5.996
 3277SOL     OW21861   1.868   8.098   0.603
 3277SOL    HW121862   1.844   8.195   0.609
 3277SOL    HW221863   1.854   8.055   0.692
 3278SOL     OW21864   8.701   2.694   1.213
 3278SOL    HW121865   8.740   2.680   1.304
 3278SOL    HW221866   8.775   2.706   1.147
 3279SOL     OW21867   1.621   2.348   5.325
 3279SOL    HW121868   1.576   2.271   5.280
 3279SOL    HW221869   1.701   2.375   5.272
 3280SOL     OW21870   6.586   1.807   5.468
 3280SOL    HW121871   6.622   1.715   5.485
 3280SOL    HW221872   6.487   1.805   5.471
 3281SOL     OW21873   4.497   0.812   1.512
 3281SOL    HW121874   4.401   0.786   1.516
 3281SOL    HW221875   4.508   0.904   1.550
 3282SOL     OW21876   3.630   3.229   0.903
 3282SOL    HW121877   3.587   3.292   0.968
 3282SOL    HW221878   3.684   3.281   0.836
 3283SOL     OW21879   6.250   6.128   5.593
 3283SOL    HW121880   6.295   6.101   5.678
 3283SOL    HW221881   6.157   6.092   5.592
 3284SOL     OW21882   9.443   1.099   5.683
 3284SOL    HW121883   9.379   1.025   5.705
 3284SOL    HW221884   9.535   1.073   5.713
 3285SOL     OW21885   5.362   7.999   0.345
 3285SOL    HW121886   5.450   8.044   0.360
 3285SOL    HW221887   5.314   8.043   0.269
 3286SOL     OW21888   2.565   4.084   6.803
 3286SOL    HW121889   2.501   4.044   6.869
 3286SOL    HW221890   2.514   4.119   6.724
 3287SOL     OW21891   0.808   5.674   5.393
 3287SOL    HW121892   0.886   5.616   5.416
 3287SOL    HW221893   0.744   5.623   5.335
 3288SOL     OW21894   1.345   3.027   1.053
 3288SOL    HW121895   1.384   3.101   1.107
 3288SOL    HW221896   1.290   3.064   0.979
 3289SOL     OW21897   8.382   2.143   0.675
 3289SOL    HW121898   8.389   2.210   0.602
 3289SOL    HW221899   8.466   2.090   0.680
 3290SOL     OW21900   1.321   2.437   0.330
 3290SOL    HW121901   1.301   2.450   0.427
 3290SOL    HW221902   1.285   2.349   0.300
 3291SOL     OW21903   4.668   0.238   5.610
 3291SOL    HW121904   4.728   0.317   5.600
 3291SOL    HW221905   4.635   0.209   5.520
 3292SOL     OW21906   6.773   1.587   1.961
 3292SOL    HW121907   6.765   1.507   2.021
 3292SOL    HW221908   6.693   1.645   1.972
 3293SOL     OW21909   6.794   5.994   1.054
 3293SOL    HW121910   6.826   6.085   1.080
 3293SOL    HW221911   6.860   5.925   1.084
 3294SOL     OW21912   4.196   1.054   6.412
 3294SOL    HW121913   4.284   1.046   6.458
 3294SOL    HW221914   4.129   1.095   6.474
 3295SOL     OW21915   4.402   7.106   1.187
 3295SOL    HW121916   4.338   7.183   1.198
 3295SOL    HW221917   4.474   7.113   1.255
 3296SOL     OW21918   7.360   2.644   1.197
 3296SOL    HW121919   7.435   2.709   1.181
 3296SOL    HW221920   7.306   2.674   1.276
 3297SOL     OW21921   1.118   2.823   0.437
 3297SOL    HW121922   1.168   2.814   0.351
 3297SOL    HW221923   1.136   2.744   0.495
 3298SOL     OW21924   1.655   0.015   1.729
 3298SOL    HW121925   1.594  -0.063   1.742
 3298SOL    HW221926   1.750  -0.014   1.741
 3299SOL     OW21927   5.915   5.667   1.273
 3299SOL    HW121928   5.962   5.585   1.304
 3299SOL    HW221929   5.900   5.662   1.174
 3300SOL     OW21930   5.484   4.791   5.829
 3300SOL    HW121931   5.471   4.799   5.928
 3300SOL    HW221932   5.396   4.803   5.783
 3301SOL     OW21933   5.302   6.804   6.417
 3301SOL    HW121934   5.358   6.754   6.483
 3301SOL    HW221935   5.283   6.746   6.339
 3302SOL     OW21936   6.795   2.230   1.379
 3302SOL    HW121937   6.740   2.146   1.382
 3302SOL    HW221938   6.736   2.308   1.359
 3303SOL     OW21939   2.937   0.998   0.560
 3303SOL    HW121940   2.855   0.941   0.556
 3303SOL    HW221941   3.017   0.939   0.575
 3304SOL     OW21942   8.681   6.678   6.597
 3304SOL    HW121943   8.712   6.766   6.560
 3304SOL    HW221944   8.601   6.693   6.655
 3305SOL     OW21945   7.371   1.281   0.291
 3305SOL    HW121946   7.415   1.331   0.216
 3305SOL    HW221947   7.428   1.286   0.373
 3306SOL     OW21948   4.033   6.908   6.259
 3306SOL    HW121949   4.080   6.928   6.173
 3306SOL    HW221950   3.943   6.952   6.258
 3307SOL     OW21951   4.504   6.911   6.761
 3307SOL    HW121952   4.481   6.844   6.690
 3307SOL    HW221953   4.496   7.003   6.724
 3308SOL     OW21954   2.725   8.062   0.560
 3308SOL    HW121955   2.669   7.995   0.512
 3308SOL    HW221956   2.822   8.041   0.547
 3309SOL     OW21957   4.992   6.160   6.463
 3309SOL    HW121958   4.942   6.089   6.413
 3309SOL    HW221959   4.930   6.210   6.523
 3310SOL     OW21960   5.574   0.472   4.684
 3310SOL    HW121961   5.554   0.406   4.756
 3310SOL    HW221962   5.526   0.445   4.600
 3311SOL     OW21963   0.677   5.748   1.077
 3311SOL    HW121964   0.722   5.837   1.071
 3311SOL    HW221965   0.648   5.731   1.171
 3312SOL     OW21966   7.066   5.652   1.701
 3312SOL    HW121967   6.970   5.667   1.727
 3312SOL    HW221968   7.126   5.683   1.774
 3313SOL     OW21969   0.346   8.030   5.628
 3313SOL    HW121970   0.329   8.111   5.571
 3313SOL    HW221971   0.345   8.055   5.724
 3314SOL     OW21972   2.698   2.208   6.771
 3314SOL    HW121973   2.635   2.199   6.694
 3314SOL    HW221974   2.656   2.167   6.852
 3315SOL     OW21975   8.036   6.880   5.876
 3315SOL    HW121976   8.067   6.787   5.895
 3315SOL    HW221977   8.116   6.938   5.858
 3316SOL     OW21978   6.283   5.182   6.204
 3316SOL    HW121979   6.355   5.127   6.162
 3316SOL    HW221980   6.196   5.165   6.156
 3317SOL     OW21981   4.495   4.114   2.176
 3317SOL    HW121982   4.570   4.051   2.195
 3317SOL    HW221983   4.518   4.172   2.099
 3318SOL     OW21984   4.890   1.349   5.493
 3318SOL    HW121985   4.797   1.314   5.504
 3318SOL    HW221986   4.889   1.428   5.432
 3319SOL     OW21987   4.342   3.199   5.803
 3319SOL    HW121988   4.329   3.224   5.707
 3319SOL    HW221989   4.351   3.282   5.858
 3320SOL     OW21990   8.647   4.248   0.264
 3320SOL    HW121991   8.664   4.346   0.252
 3320SOL    HW221992   8.731   4.204   0.298
 3321SOL     OW21993   4.378   6.085   6.265
 3321SOL    HW121994   4.332   6.106   6.352
 3321SOL    HW221995   4.321   6.023   6.211
 3322SOL     OW21996   6.665   7.070   5.168
 3322SOL    HW121997   6.750   7.056   5.117
 3322SOL    HW221998   6.610   6.986   5.164
 3323SOL     OW21999   1.515   3.714   1.435
 3323SOL    HW122000   1.452   3.677   1.367
 3323SOL    HW222001   1.572   3.640   1.472
 3324SOL     OW22002   5.787   7.318   5.245
 3324SOL    HW122003   5.831   7.408   5.238
 3324SOL    HW222004   5.709   7.314   5.183
 3325SOL     OW22005   8.362   4.422   1.362
 3325SOL    HW122006   8.289   4.356   1.343
 3325SOL    HW222007   8.322   4.513   1.374
 3326SOL     OW22008   0.467   4.879   0.718
 3326SOL    HW122009   0.559   4.861   0.683
 3326SOL    HW222010   0.399   4.858   0.648
 3327SOL     OW22011   2.679   3.907   0.820
 3327SOL    HW122012   2.751   3.889   0.753
 3327SOL    HW222013   2.590   3.892   0.778
 3328SOL     OW22014   5.678   6.533   6.495
 3328SOL    HW122015   5.637   6.454   6.449
 3328SOL    HW222016   5.693   6.606   6.428
 3329SOL     OW22017   7.562   6.278   6.116
 3329SOL    HW122018   7.598   6.352   6.058
 3329SOL    HW222019   7.562   6.192   6.065
 3330SOL     OW22020   1.055   0.526   6.097
 3330SOL    HW122021   1.085   0.531   6.002
 3330SOL    HW222022   1.099   0.449   6.142
 3331SOL     OW22023   5.014   1.329   6.545
 3331SOL    HW122024   5.096   1.304   6.598
 3331SOL    HW222025   4.963   1.400   6.593
 3332SOL     OW22026   6.660   2.450   2.169
 3332SOL    HW122027   6.622   2.492   2.251
 3332SOL    HW222028   6.744   2.498   2.143
 3333SOL     OW22029   2.690   2.789   1.439
 3333SOL    HW122030   2.767   2.852   1.443
 3333SOL    HW222031   2.719   2.703   1.395
 3334SOL     OW22032   8.854   3.559   0.499
 3334SOL    HW122033   8.915   3.481   0.516
 3334SOL    HW222034   8.794   3.536   0.422
 3335SOL     OW22035   6.895   4.643   6.760
 3335SOL    HW122036   6.911   4.683   6.670
 3335SOL    HW222037   6.891   4.543   6.751
 3336SOL     OW22038   1.027   2.642   1.628
 3336SOL    HW122039   0.934   2.635   1.664
 3336SOL    HW222040   1.093   2.615   1.699
 3337SOL     OW22041   4.824   4.048   5.429
 3337SOL    HW122042   4.746   3.988   5.412
 3337SOL    HW222043   4.895   3.999   5.479
 3338SOL     OW22044   4.835   2.340   6.343
 3338SOL    HW122045   4.743   2.317   6.311
 3338SOL    HW222046   4.846   2.310   6.438
 3339SOL     OW22047   8.732   7.267   0.314
 3339SOL    HW122048   8.773   7.284   0.224
 3339SOL    HW222049   8.684   7.179   0.313
 3340SOL     OW22050   7.979   7.212   1.104
 3340SOL    HW122051   7.984   7.287   1.169
 3340SOL    HW222052   8.070   7.195   1.066
 3341SOL     OW22053   7.753   7.448   6.734
 3341SOL    HW122054   7.722   7.539   6.762
 3341SOL    HW222055   7.677   7.399   6.691
 3342SOL     OW22056   5.836   3.291   1.376
 3342SOL    HW122057   5.917   3.320   1.427
 3342SOL    HW222058   5.796   3.211   1.421
 3343SOL     OW22059   2.847   0.253   1.523
 3343SOL    HW122060   2.805   0.229   1.436
 3343SOL    HW222061   2.819   0.187   1.593
 3344SOL     OW22062   8.393   7.683   5.106
 3344SOL    HW122063   8.341   7.757   5.064
 3344SOL    HW222064   8.461   7.720   5.168
 3345SOL     OW22065   1.712   0.384   6.021
 3345SOL    HW122066   1.663   0.428   5.946
 3345SOL    HW222067   1.681   0.422   6.108
 3346SOL     OW22068   4.844   5.415   1.732
 3346SOL    HW122069   4.798   5.355   1.797
 3346SOL    HW222070   4.798   5.504   1.729
 3347SOL     OW22071   9.247   2.674   1.090
 3347SOL    HW122072   9.302   2.701   1.169
 3347SOL    HW222073   9.271   2.581   1.063
 3348SOL     OW22074   5.201   6.830   1.264
 3348SOL    HW122075   5.123   6.870   1.311
 3348SOL    HW222076   5.231   6.891   1.192
 3349SOL     OW22077   4.252   4.741   1.310
 3349SOL    HW122078   4.184   4.673   1.282
 3349SOL    HW222079   4.335   4.730   1.256
 3350SOL     OW22080   6.406   1.514   1.476
 3350SOL    HW122081   6.325   1.481   1.428
 3350SOL    HW222082   6.462   1.568   1.413
 3351SOL     OW22083   3.458   6.109   1.382
 3351SOL    HW122084   3.360   6.121   1.402
 3351SOL    HW222085   3.497   6.041   1.444
 3352SOL     OW22086   8.739   6.080   5.416
 3352SOL    HW122087   8.705   6.055   5.507
 3352SOL    HW222088   8.762   5.997   5.365
 3353SOL     OW22089   4.531   5.993   1.257
 3353SOL    HW122090   4.504   6.077   1.302
 3353SOL    HW222091   4.461   5.923   1.269
 3354SOL     OW22092   4.826   5.162   0.636
 3354SOL    HW122093   4.792   5.211   0.556
 3354SOL    HW222094   4.757   5.095   0.666
 3355SOL     OW22095   6.946   0.243   0.891
 3355SOL    HW122096   6.948   0.167   0.957
 3355SOL    HW222097   6.982   0.211   0.803
 3356SOL     OW22098   7.512   5.937   1.251
 3356SOL    HW122099   7.527   5.999   1.174
 3356SOL    HW222100   7.577   5.958   1.324
 3357SOL     OW22101   8.275   4.252   6.451
 3357SOL    HW122102   8.346   4.224   6.387
 3357SOL    HW222103   8.189   4.266   6.402
 3358SOL     OW22104   0.944   6.718   5.444
 3358SOL    HW122105   0.869   6.757   5.391
 3358SOL    HW222106   1.000   6.792   5.482
 3359SOL     OW22107   7.642   5.600   1.278
 3359SOL    HW122108   7.625   5.551   1.363
 3359SOL    HW222109   7.732   5.643   1.281
 3360SOL     OW22110   5.493   4.850   1.050
 3360SOL    HW122111   5.533   4.761   1.024
 3360SOL    HW222112   5.563   4.921   1.041
 3361SOL     OW22113   4.145   6.656   5.453
 3361SOL    HW122114   4.078   6.701   5.511
 3361SOL    HW222115   4.137   6.557   5.463
 3362SOL     OW22116   4.334   0.196   0.639
 3362SOL    HW122117   4.362   0.181   0.734
 3362SOL    HW222118   4.290   0.114   0.604
 3363SOL     OW22119   0.337   5.441   0.356
 3363SOL    HW122120   0.241   5.412   0.354
 3363SOL    HW222121   0.392   5.369   0.399
 3364SOL     OW22122   0.604   8.418   6.544
 3364SOL    HW122123   0.538   8.346   6.523
 3364SOL    HW222124   0.695   8.378   6.550
 3365SOL     OW22125   2.360   2.491   5.792
 3365SOL    HW122126   2.424   2.550   5.840
 3365SOL    HW222127   2.279   2.477   5.848
 3366SOL     OW22128   5.131  -0.032   0.623
 3366SOL    HW122129   5.120   0.010   0.713
 3366SOL    HW222130   5.041  -0.042   0.581
 3367SOL     OW22131   0.470   5.193   6.541
 3367SOL    HW122132   0.499   5.288   6.555
 3367SOL    HW222133   0.388   5.191   6.485
 3368SOL     OW22134   1.594   4.255   5.895
 3368SOL    HW122135   1.562   4.318   5.966
 3368SOL    HW222136   1.623   4.307   5.815
 3369SOL     OW22137   2.527   4.804   6.539
 3369SOL    HW122138   2.511   4.790   6.637
 3369SOL    HW222139   2.625   4.807   6.521
 3370SOL     OW22140   0.297   4.812   0.909
 3370SOL    HW122141   0.320   4.826   1.005
 3370SOL    HW222142   0.365   4.857   0.851
 3371SOL     OW22143   0.340   0.949   6.374
 3371SOL    HW122144   0.369   0.856   6.397
 3371SOL    HW222145   0.391   1.013   6.432
 3372SOL     OW22146   7.277   7.902   6.383
 3372SOL    HW122147   7.263   7.998   6.360
 3372SOL    HW222148   7.332   7.858   6.312
 3373SOL     OW22149   0.988   2.036   5.818
 3373SOL    HW122150   1.072   2.000   5.860
 3373SOL    HW222151   1.013   2.102   5.747
 3374SOL     OW22152   6.599   4.356   6.436
 3374SOL    HW122153   6.535   4.335   6.510
 3374SOL    HW222154   6.570   4.310   6.353
 3375SOL     OW22155   1.194   5.622   1.352
 3375SOL    HW122156   1.294   5.624   1.350
 3375SOL    HW222157   1.162   5.650   1.443
 3376SOL     OW22158   3.658   4.230   0.792
 3376SOL    HW122159   3.663   4.162   0.866
 3376SOL    HW222160   3.748   4.237   0.748
 3377SOL     OW22161   8.662   0.775   5.678
 3377SOL    HW122162   8.568   0.809   5.678
 3377SOL    HW222163   8.685   0.741   5.586
 3378SOL     OW22164   0.158   5.397   5.179
 3378SOL    HW122165   0.238   5.354   5.137
 3378SOL    HW222166   0.091   5.327   5.203
 3379SOL     OW22167   9.572   0.773   6.847
 3379SOL    HW122168   9.647   0.801   6.787
 3379SOL    HW222169   9.541   0.852   6.899
 3380SOL     OW22170   4.409   7.986   0.216
 3380SOL    HW122171   4.496   7.961   0.174
 3380SOL    HW222172   4.423   8.006   0.313
 3381SOL     OW22173   3.155   6.334   0.401
 3381SOL    HW122174   3.205   6.385   0.471
 3381SOL    HW222175   3.083   6.279   0.444
 3382SOL     OW22176   1.593   6.916   4.597
 3382SOL    HW122177   1.527   6.877   4.533
 3382SOL    HW222178   1.569   7.011   4.617
 3383SOL     OW22179   8.698   2.310   0.481
 3383SOL    HW122180   8.600   2.322   0.500
 3383SOL    HW222181   8.734   2.391   0.436
 3384SOL     OW22182   5.292   2.782   6.559
 3384SOL    HW122183   5.389   2.791   6.539
 3384SOL    HW222184   5.268   2.685   6.567
 3385SOL     OW22185   2.052   1.884   0.998
 3385SOL    HW122186   2.001   1.922   1.075
 3385SOL    HW222187   2.004   1.804   0.963
 3386SOL     OW22188   7.098   4.020   5.518
 3386SOL    HW122189   7.112   3.921   5.516
 3386SOL    HW222190   7.183   4.065   5.543
 3387SOL     OW22191   9.592   3.830   0.584
 3387SOL    HW122192   9.540   3.815   0.501
 3387SOL    HW222193   9.557   3.910   0.632
 3388SOL     OW22194   2.235   4.929   0.620
 3388SOL    HW122195   2.156   4.868   0.631
 3388SOL    HW222196   2.289   4.929   0.705
 3389SOL     OW22197   3.753   6.372   1.532
 3389SOL    HW122198   3.851   6.380   1.550
 3389SOL    HW222199   3.703   6.381   1.618
 3390SOL     OW22200   2.243   1.336   5.258
 3390SOL    HW122201   2.213   1.417   5.207
 3390SOL    HW222202   2.243   1.256   5.198
 3391SOL     OW22203   6.088   7.652   0.325
 3391SOL    HW122204   6.017   7.585   0.304
 3391SOL    HW222205   6.164   7.642   0.260
 3392SOL     OW22206   8.832   7.141   5.338
 3392SOL    HW122207   8.831   7.056   5.285
 3392SOL    HW222208   8.831   7.120   5.436
 3393SOL     OW22209   7.959   7.786   6.547
 3393SOL    HW122210   7.869   7.809   6.508
 3393SOL    HW222211   7.953   7.785   6.647
 3394SOL     OW22212   2.052   2.037   6.699
 3394SOL    HW122213   2.013   1.950   6.667
 3394SOL    HW222214   2.016   2.058   6.789
 3395SOL     OW22215   5.921   7.760   1.046
 3395SOL    HW122216   5.923   7.739   1.143
 3395SOL    HW222217   5.905   7.857   1.033
 3396SOL     OW22218   7.456   0.531   6.368
 3396SOL    HW122219   7.405   0.589   6.432
 3396SOL    HW222220   7.480   0.445   6.412
 3397SOL     OW22221   4.478   0.598   2.390
 3397SOL    HW122222   4.382   0.612   2.414
 3397SOL    HW222223   4.515   0.681   2.349
 3398SOL     OW22224   7.226   2.672   0.960
 3398SOL    HW122225   7.139   2.721   0.966
 3398SOL    HW222226   7.246   2.628   1.048
 3399SOL     OW22227   1.976   7.970   6.629
 3399SOL    HW122228   2.014   8.023   6.705
 3399SOL    HW222229   1.887   7.933   6.656
 3400SOL     OW22230   1.092   7.798   0.644
 3400SOL    HW122231   1.025   7.851   0.591
 3400SOL    HW222232   1.181   7.843   0.638
 3401SOL     OW22233   2.825   3.994   1.548
 3401SOL    HW122234   2.914   4.038   1.538
 3401SOL    HW222235   2.834   3.914   1.608
 3402SOL     OW22236   1.667   3.172   5.813
 3402SOL    HW122237   1.702   3.216   5.896
 3402SOL    HW222238   1.667   3.238   5.737
 3403SOL     OW22239   0.545   0.198   0.644
 3403SOL    HW122240   0.538   0.189   0.743
 3403SOL    HW222241   0.584   0.115   0.606
 3404SOL     OW22242   6.064   6.545   1.492
 3404SOL    HW122243   6.122   6.608   1.440
 3404SOL    HW222244   5.976   6.589   1.511
 3405SOL     OW22245   3.068   5.895   0.718
 3405SOL    HW122246   3.160   5.883   0.681
 3405SOL    HW222247   3.015   5.811   0.701
 3406SOL     OW22248   0.189   4.737   0.296
 3406SOL    HW122249   0.232   4.670   0.235
 3406SOL    HW222250   0.214   4.830   0.266
 3407SOL     OW22251   3.482   0.054   6.218
 3407SOL    HW122252   3.570   0.021   6.252
 3407SOL    HW222253   3.411  -0.014   6.238
 3408SOL     OW22254   4.642   5.503   1.358
 3408SOL    HW122255   4.655   5.495   1.259
 3408SOL    HW222256   4.708   5.443   1.405
 3409SOL     OW22257   7.252   1.008   6.455
 3409SOL    HW122258   7.178   0.943   6.436
 3409SOL    HW222259   7.270   1.011   6.553
 3410SOL     OW22260   4.124   6.246   0.307
 3410SOL    HW122261   4.051   6.187   0.273
 3410SOL    HW222262   4.193   6.259   0.236
 3411SOL     OW22263   2.982   1.672   0.706
 3411SOL    HW122264   3.009   1.669   0.802
 3411SOL    HW222265   3.057   1.709   0.652
 3412SOL     OW22266   1.165   3.815   0.685
 3412SOL    HW122267   1.144   3.728   0.728
 3412SOL    HW222268   1.082   3.870   0.678
 3413SOL     OW22269   7.227   3.278   5.444
 3413SOL    HW122270   7.228   3.373   5.413
 3413SOL    HW222271   7.305   3.230   5.406
 3414SOL     OW22272   1.126   0.092   6.038
 3414SOL    HW122273   1.099   0.033   6.114
 3414SOL    HW222274   1.044   0.120   5.987
 3415SOL     OW22275   5.553   7.354   6.487
 3415SOL    HW122276   5.582   7.324   6.396
 3415SOL    HW222277   5.488   7.288   6.525
 3416SOL     OW22278   8.069   6.576   5.919
 3416SOL    HW122279   8.164   6.560   5.948
 3416SOL    HW222280   8.009   6.512   5.966
 3417SOL     OW22281   8.516   3.704   6.034
 3417SOL    HW122282   8.490   3.764   5.958
 3417SOL    HW222283   8.434   3.678   6.086
 3418SOL     OW22284   8.685   5.118   6.109
 3418SOL    HW122285   8.678   5.056   6.187
 3418SOL    HW222286   8.764   5.093   6.053
 3419SOL     OW22287   4.857   7.919   5.176
 3419SOL    HW122288   4.796   7.936   5.098
 3419SOL    HW222289   4.802   7.898   5.257
 3420SOL     OW22290   5.340   7.711   1.095
 3420SOL    HW122291   5.282   7.680   1.171
 3420SOL    HW222292   5.304   7.674   1.009
 3421SOL     OW22293   8.166   0.476   0.239
 3421SOL    HW122294   8.125   0.482   0.148
 3421SOL    HW222295   8.191   0.568   0.270
 3422SOL     OW22296   2.228   6.001   1.494
 3422SOL    HW122297   2.261   6.068   1.560
 3422SOL    HW222298   2.294   5.926   1.485
 3423SOL     OW22299   0.821   8.385   6.161
 3423SOL    HW122300   0.812   8.286   6.173
 3423SOL    HW222301   0.905   8.415   6.208
 3424SOL     OW22302   5.345   4.923   1.288
 3424SOL    HW122303   5.391   5.011   1.294
 3424SOL    HW222304   5.399   4.861   1.231
 3425SOL     OW22305   2.058   8.086   1.013
 3425SOL    HW122306   2.058   7.995   0.971
 3425SOL    HW222307   2.042   8.078   1.111
 3426SOL     OW22308   4.895   1.473   4.858
 3426SOL    HW122309   4.833   1.452   4.933
 3426SOL    HW222310   4.861   1.553   4.808
 3427SOL     OW22311   1.446   0.502   0.271
 3427SOL    HW122312   1.421   0.409   0.244
 3427SOL    HW222313   1.461   0.505   0.370
 3428SOL     OW22314   6.010   4.437   5.735
 3428SOL    HW122315   5.918   4.443   5.696
 3428SOL    HW222316   6.004   4.401   5.828
 3429SOL     OW22317   3.982   1.767   5.454
 3429SOL    HW122318   3.997   1.852   5.403
 3429SOL    HW222319   4.025   1.691   5.405
 3430SOL     OW22320   6.645   0.278   5.314
 3430SOL    HW122321   6.658   0.317   5.223
 3430SOL    HW222322   6.552   0.241   5.322
 3431SOL     OW22323   4.898   6.767   0.501
 3431SOL    HW122324   4.912   6.690   0.440
 3431SOL    HW222325   4.825   6.826   0.466
 3432SOL     OW22326   2.036   5.826   0.619
 3432SOL    HW122327   1.996   5.850   0.530
 3432SOL    HW222328   2.125   5.872   0.628
 3433SOL     OW22329   4.285   4.124   1.832
 3433SOL    HW122330   4.368   4.090   1.789
 3433SOL    HW222331   4.267   4.072   1.915
 3434SOL     OW22332   8.610   3.839   6.652
 3434SOL    HW122333   8.651   3.797   6.733
 3434SOL    HW222334   8.652   3.928   6.636
 3435SOL     OW22335   4.371   0.333   0.224
 3435SOL    HW122336   4.414   0.362   0.139
 3435SOL    HW222337   4.404   0.390   0.299
 3436SOL     OW22338   5.279   6.298   5.472
 3436SOL    HW122339   5.268   6.261   5.565
 3436SOL    HW222340   5.367   6.346   5.466
 3437SOL     OW22341   5.772   4.428   1.102
 3437SOL    HW122342   5.768   4.357   1.031
 3437SOL    HW222343   5.824   4.394   1.180
 3438SOL     OW22344   7.375   7.832   0.498
 3438SOL    HW122345   7.301   7.803   0.437
 3438SOL    HW222346   7.384   7.765   0.573
 3439SOL     OW22347   6.999   4.357   0.511
 3439SOL    HW122348   7.093   4.326   0.526
 3439SOL    HW222349   6.959   4.305   0.435
 3440SOL     OW22350   2.190   3.338   6.099
 3440SOL    HW122351   2.267   3.391   6.135
 3440SOL    HW222352   2.209   3.313   6.004
 3441SOL     OW22353   0.946   0.413   1.915
 3441SOL    HW122354   0.940   0.513   1.906
 3441SOL    HW222355   1.035   0.389   1.953
 3442SOL     OW22356   4.911   1.638   6.450
 3442SOL    HW122357   4.843   1.703   6.417
 3442SOL    HW222358   4.997   1.686   6.471
 3443SOL     OW22359   1.904   2.123   0.849
 3443SOL    HW122360   1.938   2.139   0.756
 3443SOL    HW222361   1.805   2.110   0.846
 3444SOL     OW22362   4.001   5.667   1.038
 3444SOL    HW122363   4.027   5.757   1.004
 3444SOL    HW222364   3.930   5.628   0.980
 3445SOL     OW22365   1.637   2.252   0.366
 3445SOL    HW122366   1.631   2.296   0.276
 3445SOL    HW222367   1.703   2.301   0.423
 3446SOL     OW22368   5.426   3.357   6.324
 3446SOL    HW122369   5.339   3.408   6.327
 3446SOL    HW222370   5.500   3.420   6.299
 3447SOL     OW22371   5.015   7.983   1.052
 3447SOL    HW122372   5.001   7.889   1.023
 3447SOL    HW222373   4.926   8.029   1.058
 3448SOL     OW22374   5.275   1.410   5.998
 3448SOL    HW122375   5.332   1.473   5.946
 3448SOL    HW222376   5.220   1.355   5.935
 3449SOL     OW22377   6.855   0.948   0.915
 3449SOL    HW122378   6.875   0.917   0.822
 3449SOL    HW222379   6.757   0.944   0.931
 3450SOL     OW22380   5.531   5.998   0.562
 3450SOL    HW122381   5.615   5.958   0.598
 3450SOL    HW222382   5.552   6.054   0.482
 3451SOL     OW22383   2.177   2.222   0.541
 3451SOL    HW122384   2.212   2.225   0.448
 3451SOL    HW222385   2.246   2.180   0.601
 3452SOL     OW22386   0.943   6.217   0.506
 3452SOL    HW122387   1.003   6.189   0.581
 3452SOL    HW222388   0.937   6.317   0.504
 3453SOL     OW22389   6.986   7.435   5.521
 3453SOL    HW122390   6.947   7.399   5.436
 3453SOL    HW222391   7.037   7.518   5.501
 3454SOL     OW22392   3.338   3.645   0.555
 3454SOL    HW122393   3.276   3.717   0.528
 3454SOL    HW222394   3.432   3.670   0.531
 3455SOL     OW22395   8.602   1.328   6.653
 3455SOL    HW122396   8.560   1.317   6.743
 3455SOL    HW222397   8.574   1.252   6.594
 3456SOL     OW22398   3.999   7.432   1.124
 3456SOL    HW122399   3.910   7.461   1.159
 3456SOL    HW222400   3.991   7.413   1.026
 3457SOL     OW22401   0.218   6.883   6.271
 3457SOL    HW122402   0.235   6.944   6.348
 3457SOL    HW222403   0.175   6.799   6.304
 3458SOL     OW22404   4.566   7.185   6.725
 3458SOL    HW122405   4.601   7.247   6.795
 3458SOL    HW222406   4.550   7.237   6.640
 3459SOL     OW22407   3.876   0.008   1.110
 3459SOL    HW122408   3.946   0.078   1.122
 3459SOL    HW222409   3.879  -0.027   1.016
 3460SOL     OW22410   5.841   7.709   1.670
 3460SOL    HW122411   5.821   7.792   1.721
 3460SOL    HW222412   5.940   7.703   1.654
 3461SOL     OW22413   5.720   7.626   6.072
 3461SOL    HW122414   5.663   7.657   5.996
 3461SOL    HW222415   5.662   7.602   6.150
 3462SOL     OW22416   7.720   0.320   6.719
 3462SOL    HW122417   7.649   0.284   6.780
 3462SOL    HW222418   7.678   0.353   6.635
 3463SOL     OW22419   6.169   3.986   0.194
 3463SOL    HW122420   6.117   4.006   0.111
 3463SOL    HW222421   6.174   4.068   0.251
 3464SOL     OW22422   6.137   8.346   4.950
 3464SOL    HW122423   6.107   8.305   4.864
 3464SOL    HW222424   6.141   8.446   4.939
 3465SOL     OW22425   4.526   2.225   6.191
 3465SOL    HW122426   4.545   2.312   6.147
 3465SOL    HW222427   4.432   2.196   6.170
 3466SOL     OW22428   7.203   5.807   0.876
 3466SOL    HW122429   7.194   5.862   0.793
 3466SOL    HW222430   7.202   5.867   0.956
 3467SOL     OW22431   3.293   6.589   6.764
 3467SOL    HW122432   3.363   6.518   6.751
 3467SOL    HW222433   3.253   6.580   6.856
 3468SOL     OW22434   7.438   1.802   0.237
 3468SOL    HW122435   7.403   1.827   0.146
 3468SOL    HW222436   7.538   1.792   0.233
 3469SOL     OW22437   0.862   3.008   5.679
 3469SOL    HW122438   0.819   3.009   5.588
 3469SOL    HW222439   0.961   3.017   5.669
 3470SOL     OW22440   4.192   2.793   6.224
 3470SOL    HW122441   4.291   2.784   6.229
 3470SOL    HW222442   4.167   2.838   6.138
 3471SOL     OW22443   5.080   3.989   6.734
 3471SOL    HW122444   5.155   4.053   6.747
 3471SOL    HW222445   4.999   4.038   6.701
 3472SOL     OW22446   2.837   7.871   5.523
 3472SOL    HW122447   2.770   7.892   5.452
 3472SOL    HW222448   2.873   7.779   5.508
 3473SOL     OW22449   8.910   7.713   6.070
 3473SOL    HW122450   8.963   7.788   6.031
 3473SOL    HW222451   8.827   7.749   6.112
 3474SOL     OW22452   6.745   1.946   6.802
 3474SOL    HW122453   6.701   2.030   6.771
 3474SOL    HW222454   6.789   1.901   6.724
 3475SOL     OW22455   2.884   0.630   6.826
 3475SOL    HW122456   2.846   0.694   6.759
 3475SOL    HW222457   2.954   0.677   6.881
 3476SOL     OW22458   8.480   5.835   5.370
 3476SOL    HW122459   8.496   5.750   5.319
 3476SOL    HW222460   8.409   5.888   5.324
 3477SOL     OW22461   6.026   3.213   2.297
 3477SOL    HW122462   6.079   3.167   2.368
 3477SOL    HW222463   5.944   3.160   2.276
 3478SOL     OW22464   8.402   3.928   6.307
 3478SOL    HW122465   8.367   3.980   6.229
 3478SOL    HW222466   8.332   3.924   6.378
 3479SOL     OW22467   9.337   4.260   6.066
 3479SOL    HW122468   9.309   4.272   5.971
 3479SOL    HW222469   9.383   4.172   6.077
 3480SOL     OW22470   6.957   8.286   5.606
 3480SOL    HW122471   7.000   8.198   5.627
 3480SOL    HW222472   6.869   8.292   5.653
 3481SOL     OW22473   3.821   4.857   0.996
 3481SOL    HW122474   3.789   4.833   0.904
 3481SOL    HW222475   3.906   4.806   1.016
 3482SOL     OW22476   6.923   2.610   0.315
 3482SOL    HW122477   6.936   2.684   0.249
 3482SOL    HW222478   6.903   2.525   0.267
 3483SOL     OW22479   6.159   1.499   1.311
 3483SOL    HW122480   6.098   1.543   1.377
 3483SOL    HW222481   6.155   1.548   1.224
 3484SOL     OW22482   5.125   6.616   1.884
 3484SOL    HW122483   5.134   6.592   1.787
 3484SOL    HW222484   5.047   6.567   1.923
 3485SOL     OW22485   3.241   5.612   6.432
 3485SOL    HW122486   3.255   5.599   6.530
 3485SOL    HW222487   3.167   5.551   6.401
 3486SOL     OW22488   0.641   1.734   5.551
 3486SOL    HW122489   0.666   1.816   5.603
 3486SOL    HW222490   0.615   1.760   5.458
 3487SOL     OW22491   1.032   5.553   6.694
 3487SOL    HW122492   1.016   5.616   6.617
 3487SOL    HW222493   0.953   5.555   6.755
 3488SOL     OW22494   7.249   4.653   5.404
 3488SOL    HW122495   7.201   4.708   5.335
 3488SOL    HW222496   7.344   4.639   5.375
 3489SOL     OW22497   2.525   5.088   5.906
 3489SOL    HW122498   2.551   5.181   5.934
 3489SOL    HW222499   2.583   5.022   5.952
 3490SOL     OW22500   9.338   6.354   5.320
 3490SOL    HW122501   9.328   6.330   5.223
 3490SOL    HW222502   9.369   6.449   5.328
 3491SOL     OW22503   0.417   3.466   6.763
 3491SOL    HW122504   0.349   3.449   6.834
 3491SOL    HW222505   0.374   3.511   6.685
 3492SOL     OW22506   6.790   5.950   0.576
 3492SOL    HW122507   6.868   5.897   0.607
 3492SOL    HW222508   6.821   6.028   0.522
 3493SOL     OW22509   3.809   3.686   0.324
 3493SOL    HW122510   3.874   3.690   0.400
 3493SOL    HW222511   3.841   3.745   0.250
 3494SOL     OW22512   4.400   0.117   1.823
 3494SOL    HW122513   4.492   0.084   1.843
 3494SOL    HW222514   4.383   0.201   1.875
 3495SOL     OW22515   3.277   2.310   0.542
 3495SOL    HW122516   3.251   2.405   0.525
 3495SOL    HW222517   3.200   2.251   0.519
 3496SOL     OW22518   9.385   5.049   0.990
 3496SOL    HW122519   9.359   5.140   1.021
 3496SOL    HW222520   9.455   5.012   1.052
 3497SOL     OW22521   7.383   3.254   0.348
 3497SOL    HW122522   7.452   3.195   0.391
 3497SOL    HW222523   7.292   3.215   0.362
 3498SOL     OW22524   1.559   6.343   1.034
 3498SOL    HW122525   1.594   6.309   1.122
 3498SOL    HW222526   1.509   6.270   0.988
 3499SOL     OW22527   8.894   0.300   0.929
 3499SOL    HW122528   8.831   0.297   1.006
 3499SOL    HW222529   8.935   0.210   0.916
 3500SOL     OW22530   4.273   3.993   6.745
 3500SOL    HW122531   4.258   4.075   6.689
 3500SOL    HW222532   4.299   3.917   6.686
 3501SOL     OW22533   3.177   3.390   5.629
 3501SOL    HW122534   3.084   3.354   5.625
 3501SOL    HW222535   3.242   3.318   5.606
 3502SOL     OW22536   5.677   3.360   6.536
 3502SOL    HW122537   5.767   3.316   6.531
 3502SOL    HW222538   5.605   3.291   6.541
 3503SOL     OW22539   4.364   8.261   5.490
 3503SOL    HW122540   4.421   8.327   5.440
 3503SOL    HW222541   4.377   8.170   5.451
 3504SOL     OW22542   2.986   4.500   0.398
 3504SOL    HW122543   3.035   4.490   0.312
 3504SOL    HW222544   2.918   4.428   0.406
 3505SOL     OW22545   8.443   6.998   5.989
 3505SOL    HW122546   8.506   6.935   6.033
 3505SOL    HW222547   8.482   7.028   5.902
 3506SOL     OW22548   0.821   8.001   1.653
 3506SOL    HW122549   0.731   8.001   1.609
 3506SOL    HW222550   0.810   8.009   1.752
 3507SOL     OW22551   7.483   8.398   5.153
 3507SOL    HW122552   7.504   8.321   5.214
 3507SOL    HW222553   7.447   8.363   5.066
 3508SOL     OW22554   1.358   0.249   0.222
 3508SOL    HW122555   1.410   0.190   0.160
 3508SOL    HW222556   1.374   0.220   0.317
 3509SOL     OW22557   2.228   7.099   1.129
 3509SOL    HW122558   2.129   7.101   1.119
 3509SOL    HW222559   2.257   7.007   1.156
 3510SOL     OW22560   4.075   2.662   6.419
 3510SOL    HW122561   3.978   2.638   6.412
 3510SOL    HW222562   4.103   2.714   6.338
 3511SOL     OW22563   2.157   4.505   0.582
 3511SOL    HW122564   2.079   4.502   0.644
 3511SOL    HW222565   2.130   4.470   0.492
 3512SOL     OW22566   7.085   2.353   1.001
 3512SOL    HW122567   7.154   2.373   0.931
 3512SOL    HW222568   7.005   2.312   0.957
 3513SOL     OW22569   6.195   4.303   6.397
 3513SOL    HW122570   6.223   4.257   6.313
 3513SOL    HW222571   6.201   4.402   6.385
 3514SOL     OW22572   4.890   4.424   6.462
 3514SOL    HW122573   4.890   4.350   6.394
 3514SOL    HW222574   4.919   4.509   6.418
 3515SOL     OW22575   7.268   3.178   1.470
 3515SOL    HW122576   7.356   3.155   1.512
 3515SOL    HW222577   7.209   3.222   1.538
 3516SOL     OW22578   0.158   0.243   5.534
 3516SOL    HW122579   0.081   0.194   5.575
 3516SOL    HW222580   0.230   0.256   5.603
 3517SOL     OW22581   1.694   5.210   6.151
 3517SOL    HW122582   1.648   5.154   6.081
 3517SOL    HW222583   1.645   5.201   6.238
 3518SOL     OW22584   2.459   4.477   0.164
 3518SOL    HW122585   2.470   4.477   0.263
 3518SOL    HW222586   2.479   4.568   0.128
 3519SOL     OW22587   4.691   7.320   1.275
 3519SOL    HW122588   4.674   7.234   1.323
 3519SOL    HW222589   4.695   7.395   1.342
 3520SOL     OW22590   6.919   5.486   0.161
 3520SOL    HW122591   6.942   5.583   0.146
 3520SOL    HW222592   7.004   5.432   0.165
 3521SOL     OW22593   0.820   8.269   1.040
 3521SOL    HW122594   0.880   8.212   0.984
 3521SOL    HW222595   0.792   8.349   0.988
 3522SOL     OW22596   4.934   8.278   0.531
 3522SOL    HW122597   5.027   8.251   0.507
 3522SOL    HW222598   4.870   8.239   0.465
 3523SOL     OW22599   2.843   5.387   0.663
 3523SOL    HW122600   2.911   5.402   0.734
 3523SOL    HW222601   2.834   5.289   0.645
 3524SOL     OW22602   6.523   6.840   0.135
 3524SOL    HW122603   6.572   6.892   0.204
 3524SOL    HW222604   6.538   6.881   0.045
 3525SOL     OW22605   8.644   6.452   6.371
 3525SOL    HW122606   8.664   6.370   6.425
 3525SOL    HW222607   8.633   6.530   6.432
 3526SOL     OW22608   8.343   8.233   0.857
 3526SOL    HW122609   8.442   8.246   0.852
 3526SOL    HW222610   8.324   8.139   0.885
 3527SOL     OW22611   7.612   8.408   5.708
 3527SOL    HW122612   7.523   8.398   5.664
 3527SOL    HW222613   7.600   8.442   5.802
 3528SOL     OW22614   0.793   2.983   6.002
 3528SOL    HW122615   0.694   2.976   5.991
 3528SOL    HW222616   0.837   2.983   5.912
 3529SOL     OW22617   3.576   7.986   0.535
 3529SOL    HW122618   3.569   7.918   0.461
 3529SOL    HW222619   3.519   8.065   0.512
 3530SOL     OW22620   8.895   8.200   5.582
 3530SOL    HW122621   8.820   8.202   5.515
 3530SOL    HW222622   8.865   8.153   5.664
 3531SOL     OW22623   2.315   3.506   0.218
 3531SOL    HW122624   2.295   3.408   0.224
 3531SOL    HW222625   2.291   3.539   0.126
 3532SOL     OW22626   5.390   7.626   6.722
 3532SOL    HW122627   5.402   7.623   6.821
 3532SOL    HW222628   5.462   7.682   6.682
 3533SOL     OW22629   5.414  -0.012   1.999
 3533SOL    HW122630   5.435  -0.008   2.096
 3533SOL    HW222631   5.324   0.028   1.982
 3534SOL     OW22632   5.085   1.838   5.365
 3534SOL    HW122633   5.083   1.881   5.455
 3534SOL    HW222634   5.144   1.890   5.304
 3535SOL     OW22635   4.237   0.609   0.681
 3535SOL    HW122636   4.297   0.578   0.607
 3535SOL    HW222637   4.243   0.545   0.758
 3536SOL     OW22638   2.531   4.539   0.428
 3536SOL    HW122639   2.613   4.593   0.413
 3536SOL    HW222640   2.550   4.468   0.496
 3537SOL     OW22641   1.622   0.699   6.172
 3537SOL    HW122642   1.595   0.683   6.077
 3537SOL    HW222643   1.610   0.796   6.194
 3538SOL     OW22644   1.660   2.842   4.752
 3538SOL    HW122645   1.730   2.892   4.700
 3538SOL    HW222646   1.676   2.856   4.850
 3539SOL     OW22647   2.826   4.476   1.186
 3539SOL    HW122648   2.775   4.558   1.211
 3539SOL    HW222649   2.816   4.459   1.088
 3540SOL     OW22650   4.470   7.722   5.465
 3540SOL    HW122651   4.526   7.656   5.514
 3540SOL    HW222652   4.448   7.686   5.374
 3541SOL     OW22653   4.894   1.891   0.860
 3541SOL    HW122654   4.982   1.915   0.820
 3541SOL    HW222655   4.842   1.835   0.795
 3542SOL     OW22656   8.417   7.973   1.233
 3542SOL    HW122657   8.396   7.877   1.213
 3542SOL    HW222658   8.387   7.994   1.326
 3543SOL     OW22659   8.669   6.479   0.496
 3543SOL    HW122660   8.742   6.453   0.558
 3543SOL    HW222661   8.597   6.526   0.548
 3544SOL     OW22662   1.069   6.953   5.549
 3544SOL    HW122663   1.111   7.024   5.605
 3544SOL    HW222664   1.028   6.994   5.467
 3545SOL     OW22665   9.211   2.132   0.183
 3545SOL    HW122666   9.237   2.053   0.239
 3545SOL    HW222667   9.281   2.203   0.191
 3546SOL     OW22668   6.860   4.008   5.241
 3546SOL    HW122669   6.787   4.001   5.172
 3546SOL    HW222670   6.945   3.971   5.202
 3547SOL     OW22671   6.401   7.449   1.921
 3547SOL    HW122672   6.455   7.499   1.988
 3547SOL    HW222673   6.394   7.353   1.949
 3548SOL     OW22674   7.059   5.809   1.466
 3548SOL    HW122675   7.128   5.815   1.394
 3548SOL    HW222676   7.093   5.754   1.542
 3549SOL     OW22677   7.019   6.392   5.702
 3549SOL    HW122678   6.991   6.475   5.654
 3549SOL    HW222679   7.080   6.417   5.778
 3550SOL     OW22680   0.821   0.771   1.298
 3550SOL    HW122681   0.920   0.763   1.291
 3550SOL    HW222682   0.792   0.756   1.393
 3551SOL     OW22683   2.291   5.271   1.301
 3551SOL    HW122684   2.369   5.333   1.291
 3551SOL    HW222685   2.323   5.181   1.330
 3552SOL     OW22686   5.527   5.793   6.408
 3552SOL    HW122687   5.579   5.713   6.439
 3552SOL    HW222688   5.433   5.787   6.440
 3553SOL     OW22689   1.401   2.550   5.711
 3553SOL    HW122690   1.307   2.577   5.733
 3553SOL    HW222691   1.416   2.561   5.613
 3554SOL     OW22692   7.162   7.649   5.492
 3554SOL    HW122693   7.165   7.641   5.392
 3554SOL    HW222694   7.203   7.736   5.519
 3555SOL     OW22695   5.484   6.383   6.367
 3555SOL    HW122696   5.455   6.379   6.271
 3555SOL    HW222697   5.513   6.293   6.397
 3556SOL     OW22698   4.315   0.136   0.908
 3556SOL    HW122699   4.373   0.090   0.976
 3556SOL    HW222700   4.221   0.142   0.943
 3557SOL     OW22701   8.722   0.907   0.176
 3557SOL    HW122702   8.743   1.004   0.185
 3557SOL    HW222703   8.798   0.861   0.129
 3558SOL     OW22704   8.334   7.084   6.224
 3558SOL    HW122705   8.327   7.061   6.127
 3558SOL    HW222706   8.352   7.001   6.277
 3559SOL     OW22707   1.352   7.057   0.277
 3559SOL    HW122708   1.419   7.120   0.316
 3559SOL    HW222709   1.351   6.972   0.329
 3560SOL     OW22710   5.862   2.985   6.386
 3560SOL    HW122711   5.792   2.990   6.315
 3560SOL    HW222712   5.865   2.892   6.424
 3561SOL     OW22713   5.838   5.152   0.442
 3561SOL    HW122714   5.905   5.225   0.453
 3561SOL    HW222715   5.779   5.148   0.523
 3562SOL     OW22716   3.109   0.814   0.741
 3562SOL    HW122717   3.195   0.837   0.696
 3562SOL    HW222718   3.115   0.722   0.779
 3563SOL     OW22719   1.726   1.906   1.035
 3563SOL    HW122720   1.820   1.940   1.030
 3563SOL    HW222721   1.663   1.980   1.014
 3564SOL     OW22722   4.485   5.283   6.215
 3564SOL    HW122723   4.489   5.336   6.300
 3564SOL    HW222724   4.477   5.346   6.137
 3565SOL     OW22725   5.002   1.415   5.117
 3565SOL    HW122726   4.912   1.386   5.148
 3565SOL    HW222727   4.995   1.452   5.024
 3566SOL     OW22728   9.102   0.103   0.299
 3566SOL    HW122729   9.021   0.109   0.240
 3566SOL    HW222730   9.100   0.177   0.366
 3567SOL     OW22731   3.278   3.593   6.715
 3567SOL    HW122732   3.244   3.678   6.675
 3567SOL    HW222733   3.219   3.517   6.685
 3568SOL     OW22734   7.577   3.123   6.269
 3568SOL    HW122735   7.664   3.166   6.242
 3568SOL    HW222736   7.555   3.149   6.363
 3569SOL     OW22737   2.195   1.927   5.794
 3569SOL    HW122738   2.224   2.015   5.832
 3569SOL    HW222739   2.204   1.929   5.694
 3570SOL     OW22740   3.286   3.797   1.460
 3570SOL    HW122741   3.295   3.698   1.470
 3570SOL    HW222742   3.193   3.818   1.427
 3571SOL     OW22743   4.472   1.414   1.420
 3571SOL    HW122744   4.570   1.414   1.437
 3571SOL    HW222745   4.431   1.496   1.460
 3572SOL     OW22746   4.862   7.200   6.210
 3572SOL    HW122747   4.859   7.287   6.260
 3572SOL    HW222748   4.930   7.207   6.136
 3573SOL     OW22749   3.635   4.402   1.683
 3573SOL    HW122750   3.653   4.399   1.782
 3573SOL    HW222751   3.603   4.494   1.658
 3574SOL     OW22752   0.310   5.639   5.234
 3574SOL    HW122753   0.272   5.728   5.260
 3574SOL    HW222754   0.261   5.567   5.283
 3575SOL     OW22755   1.480   0.887   6.778
 3575SOL    HW122756   1.451   0.979   6.750
 3575SOL    HW222757   1.483   0.827   6.698
 3576SOL     OW22758   4.351   0.348   2.276
 3576SOL    HW122759   4.351   0.254   2.311
 3576SOL    HW222760   4.375   0.411   2.350
 3577SOL     OW22761   3.243   5.756   6.192
 3577SOL    HW122762   3.215   5.718   6.280
 3577SOL    HW222763   3.224   5.854   6.189
 3578SOL     OW22764   6.978   4.369   6.684
 3578SOL    HW122765   7.057   4.428   6.669
 3578SOL    HW222766   6.947   4.331   6.597
 3579SOL     OW22767   4.594  -0.002   5.780
 3579SOL    HW122768   4.644   0.008   5.866
 3579SOL    HW222769   4.619   0.074   5.719
 3580SOL     OW22770   6.154   2.301   1.164
 3580SOL    HW122771   6.119   2.305   1.070
 3580SOL    HW222772   6.159   2.205   1.193
 3581SOL     OW22773   7.310   5.761   6.651
 3581SOL    HW122774   7.290   5.696   6.724
 3581SOL    HW222775   7.347   5.846   6.691
 3582SOL     OW22776   4.611   5.954   0.285
 3582SOL    HW122777   4.569   5.982   0.371
 3582SOL    HW222778   4.599   6.027   0.217
 3583SOL     OW22779   2.530   6.144   0.762
 3583SOL    HW122780   2.570   6.095   0.685
 3583SOL    HW222781   2.522   6.083   0.841
 3584SOL     OW22782   1.344   7.382   0.142
 3584SOL    HW122783   1.431   7.381   0.094
 3584SOL    HW222784   1.314   7.288   0.159
 3585SOL     OW22785   6.233   2.480   0.284
 3585SOL    HW122786   6.316   2.441   0.245
 3585SOL    HW222787   6.252   2.572   0.318
 3586SOL     OW22788   3.276   0.774   0.439
 3586SOL    HW122789   3.287   0.682   0.401
 3586SOL    HW222790   3.351   0.792   0.503
 3587SOL     OW22791   5.055   6.341   0.388
 3587SOL    HW122792   5.039   6.243   0.378
 3587SOL    HW222793   5.078   6.361   0.483
 3588SOL     OW22794   7.646   5.798   6.743
 3588SOL    HW122795   7.616   5.789   6.838
 3588SOL    HW222796   7.626   5.889   6.709
 3589SOL     OW22797   8.297   5.410   5.795
 3589SOL    HW122798   8.274   5.486   5.856
 3589SOL    HW222799   8.389   5.424   5.758
 3590SOL     OW22800   3.603   4.707   0.726
 3590SOL    HW122801   3.653   4.629   0.763
 3590SOL    HW222802   3.668   4.773   0.687
 3591SOL     OW22803   3.885   6.626   5.264
 3591SOL    HW122804   3.904   6.554   5.198
 3591SOL    HW222805   3.963   6.638   5.325
 3592SOL     OW22806   1.929   2.143   0.467
 3592SOL    HW122807   2.026   2.155   0.492
 3592SOL    HW222808   1.876   2.219   0.504
 3593SOL     OW22809   2.521   6.584   5.040
 3593SOL    HW122810   2.507   6.505   4.982
 3593SOL    HW222811   2.575   6.652   4.991
 3594SOL     OW22812   7.978   1.290   6.666
 3594SOL    HW122813   7.946   1.253   6.579
 3594SOL    HW222814   8.006   1.215   6.726
 3595SOL     OW22815   4.933   5.785   1.571
 3595SOL    HW122816   4.951   5.866   1.626
 3595SOL    HW222817   4.856   5.734   1.610
 3596SOL     OW22818   5.716   4.037   1.202
 3596SOL    HW122819   5.762   4.017   1.289
 3596SOL    HW222820   5.659   4.119   1.213
 3597SOL     OW22821   2.473   1.844   1.721
 3597SOL    HW122822   2.470   1.855   1.820
 3597SOL    HW222823   2.384   1.867   1.683
 3598SOL     OW22824   4.753   1.657   1.057
 3598SOL    HW122825   4.707   1.569   1.066
 3598SOL    HW222826   4.699   1.718   0.999
 3599SOL     OW22827   5.082   5.237   2.111
 3599SOL    HW122828   5.137   5.215   2.191
 3599SOL    HW222829   5.045   5.153   2.071
 3600SOL     OW22830   0.526   5.604   0.249
 3600SOL    HW122831   0.494   5.618   0.155
 3600SOL    HW222832   0.462   5.544   0.297
 3601SOL     OW22833   3.902   2.442   6.699
 3601SOL    HW122834   3.828   2.391   6.655
 3601SOL    HW222835   3.865   2.493   6.776
 3602SOL     OW22836   4.414   4.971   0.716
 3602SOL    HW122837   4.498   5.005   0.758
 3602SOL    HW222838   4.419   4.871   0.708
 3603SOL     OW22839   1.330   6.767   5.463
 3603SOL    HW122840   1.393   6.745   5.388
 3603SOL    HW222841   1.271   6.843   5.435
 3604SOL     OW22842   5.621   7.949   1.308
 3604SOL    HW122843   5.537   8.005   1.309
 3604SOL    HW222844   5.598   7.855   1.334
 3605SOL     OW22845   1.548   7.402   6.625
 3605SOL    HW122846   1.579   7.368   6.536
 3605SOL    HW222847   1.476   7.470   6.611
 3606SOL     OW22848   0.791   7.039   6.556
 3606SOL    HW122849   0.762   6.944   6.540
 3606SOL    HW222850   0.719   7.088   6.606
 3607SOL     OW22851   1.657   0.551   1.526
 3607SOL    HW122852   1.735   0.533   1.585
 3607SOL    HW222853   1.573   0.551   1.580
 3608SOL     OW22854   7.469   3.989   6.143
 3608SOL    HW122855   7.533   4.066   6.144
 3608SOL    HW222856   7.483   3.935   6.061
 3609SOL     OW22857   5.702   1.271   6.683
 3609SOL    HW122858   5.606   1.277   6.709
 3609SOL    HW222859   5.710   1.265   6.583
 3610SOL     OW22860   5.875   3.188   6.580
 3610SOL    HW122861   5.867   3.119   6.509
 3610SOL    HW222862   5.917   3.149   6.661
 3611SOL     OW22863   8.927   7.035   0.438
 3611SOL    HW122864   8.943   6.956   0.497
 3611SOL    HW222865   8.839   7.025   0.392
 3612SOL     OW22866   4.401   1.583   0.746
 3612SOL    HW122867   4.311   1.568   0.787
 3612SOL    HW222868   4.461   1.506   0.769
 3613SOL     OW22869   6.832   1.913   0.325
 3613SOL    HW122870   6.842   1.816   0.347
 3613SOL    HW222871   6.825   1.924   0.226
 3614SOL     OW22872   7.561   1.350   6.070
 3614SOL    HW122873   7.490   1.284   6.047
 3614SOL    HW222874   7.583   1.344   6.167
 3615SOL     OW22875   9.442   2.726   6.801
 3615SOL    HW122876   9.470   2.685   6.888
 3615SOL    HW222877   9.400   2.657   6.743
 3616SOL     OW22878   8.043   2.552   6.829
 3616SOL    HW122879   8.079   2.598   6.748
 3616SOL    HW222880   8.026   2.620   6.901
 3617SOL     OW22881   0.764   6.802   2.020
 3617SOL    HW122882   0.761   6.799   2.120
 3617SOL    HW222883   0.854   6.770   1.989
 3618SOL     OW22884   5.532   0.169   6.207
 3618SOL    HW122885   5.597   0.173   6.132
 3618SOL    HW222886   5.472   0.090   6.196
 3619SOL     OW22887   0.671   0.137   5.142
 3619SOL    HW122888   0.692   0.060   5.082
 3619SOL    HW222889   0.705   0.221   5.101
 3620SOL     OW22890   5.437   6.571   0.183
 3620SOL    HW122891   5.353   6.624   0.195
 3620SOL    HW222892   5.508   6.604   0.245
 3621SOL     OW22893   5.357   5.813   1.060
 3621SOL    HW122894   5.308   5.863   1.131
 3621SOL    HW222895   5.345   5.858   0.972
 3622SOL     OW22896   8.722   4.489   0.202
 3622SOL    HW122897   8.808   4.535   0.179
 3622SOL    HW222898   8.656   4.506   0.129
 3623SOL     OW22899   4.395   6.734   1.963
 3623SOL    HW122900   4.383   6.818   2.016
 3623SOL    HW222901   4.347   6.742   1.875
 3624SOL     OW22902   2.070   7.813   5.763
 3624SOL    HW122903   2.125   7.734   5.791
 3624SOL    HW222904   2.122   7.897   5.780
 3625SOL     OW22905   4.450   6.160   6.661
 3625SOL    HW122906   4.531   6.189   6.711
 3625SOL    HW222907   4.463   6.066   6.629
 3626SOL     OW22908   0.289   4.699   5.905
 3626SOL    HW122909   0.282   4.789   5.948
 3626SOL    HW222910   0.266   4.706   5.808
 3627SOL     OW22911   6.081   8.111   0.921
 3627SOL    HW122912   6.138   8.136   0.999
 3627SOL    HW222913   6.131   8.048   0.862
 3628SOL     OW22914   3.775   5.663   0.825
 3628SOL    HW122915   3.729   5.742   0.784
 3628SOL    HW222916   3.858   5.642   0.775
 3629SOL     OW22917   6.082   7.663   1.553
 3629SOL    HW122918   6.169   7.701   1.520
 3629SOL    HW222919   6.100   7.604   1.631
 3630SOL     OW22920   3.161   0.016   5.717
 3630SOL    HW122921   3.225  -0.053   5.749
 3630SOL    HW222922   3.128  -0.009   5.626
 3631SOL     OW22923   1.301   4.224   0.982
 3631SOL    HW122924   1.320   4.231   1.080
 3631SOL    HW222925   1.360   4.287   0.932
 3632SOL     OW22926   1.659   1.679   1.161
 3632SOL    HW122927   1.709   1.759   1.126
 3632SOL    HW222928   1.638   1.617   1.086
 3633SOL     OW22929   2.891   1.191   2.522
 3633SOL    HW122930   2.869   1.128   2.447
 3633SOL    HW222931   2.866   1.148   2.609
 3634SOL     OW22932   3.898   3.309   1.474
 3634SOL    HW122933   3.876   3.257   1.391
 3634SOL    HW222934   3.824   3.298   1.541
 3635SOL     OW22935   1.338   5.675   6.521
 3635SOL    HW122936   1.384   5.696   6.435
 3635SOL    HW222937   1.400   5.624   6.581
 3636SOL     OW22938   2.811   3.704   0.930
 3636SOL    HW122939   2.870   3.754   0.993
 3636SOL    HW222940   2.749   3.767   0.884
 3637SOL     OW22941   8.728   6.437   4.583
 3637SOL    HW122942   8.821   6.403   4.596
 3637SOL    HW222943   8.664   6.379   4.633
 3638SOL     OW22944   9.260   7.338   5.226
 3638SOL    HW122945   9.289   7.362   5.134
 3638SOL    HW222946   9.160   7.336   5.230
 3639SOL     OW22947   8.425   3.416   0.686
 3639SOL    HW122948   8.346   3.461   0.728
 3639SOL    HW222949   8.444   3.330   0.734
 3640SOL     OW22950   9.382   5.156   0.560
 3640SOL    HW122951   9.403   5.069   0.514
 3640SOL    HW222952   9.283   5.169   0.562
 3641SOL     OW22953   3.423   6.918   0.399
 3641SOL    HW122954   3.492   6.985   0.425
 3641SOL    HW222955   3.385   6.942   0.310
 3642SOL     OW22956   4.531   1.075   1.630
 3642SOL    HW122957   4.528   1.040   1.724
 3642SOL    HW222958   4.582   1.161   1.629
 3643SOL     OW22959   4.000   8.324   6.528
 3643SOL    HW122960   4.073   8.332   6.596
 3643SOL    HW222961   3.992   8.228   6.499
 3644SOL     OW22962   4.974   0.508   6.705
 3644SOL    HW122963   4.965   0.413   6.677
 3644SOL    HW222964   4.911   0.526   6.781
 3645SOL     OW22965   7.301   8.338   6.092
 3645SOL    HW122966   7.249   8.319   6.009
 3645SOL    HW222967   7.330   8.252   6.134
 3646SOL     OW22968   6.710   4.233   1.604
 3646SOL    HW122969   6.651   4.191   1.672
 3646SOL    HW222970   6.691   4.332   1.600
 3647SOL     OW22971   7.141   6.182   0.524
 3647SOL    HW122972   7.232   6.151   0.497
 3647SOL    HW222973   7.121   6.150   0.616
 3648SOL     OW22974   6.733   2.106   0.496
 3648SOL    HW122975   6.803   2.052   0.450
 3648SOL    HW222976   6.724   2.073   0.591
 3649SOL     OW22977   7.720   6.457   0.607
 3649SOL    HW122978   7.782   6.522   0.651
 3649SOL    HW222979   7.673   6.403   0.677
 3650SOL     OW22980   2.969   6.476   5.760
 3650SOL    HW122981   2.887   6.420   5.773
 3650SOL    HW222982   2.956   6.565   5.803
 3651SOL     OW22983   7.099   4.849   5.261
 3651SOL    HW122984   7.155   4.832   5.179
 3651SOL    HW222985   7.014   4.894   5.233
 3652SOL     OW22986   6.731   3.973   5.497
 3652SOL    HW122987   6.783   3.994   5.414
 3652SOL    HW222988   6.669   4.048   5.518
 3653SOL     OW22989   7.156   3.012   6.290
 3653SOL    HW122990   7.188   3.096   6.335
 3653SOL    HW222991   7.231   2.946   6.285
 3654SOL     OW22992   6.161   7.731   5.392
 3654SOL    HW122993   6.227   7.805   5.403
 3654SOL    HW222994   6.110   7.745   5.307
 3655SOL     OW22995   6.428   3.304   6.137
 3655SOL    HW122996   6.477   3.242   6.075
 3655SOL    HW222997   6.475   3.392   6.141
 3656SOL     OW22998   5.103   0.305   4.743
 3656SOL    HW122999   5.075   0.218   4.785
 3656SOL    HW223000   5.154   0.287   4.659
 3657SOL     OW23001   1.336   4.473   0.273
 3657SOL    HW123002   1.299   4.471   0.180
 3657SOL    HW223003   1.435   4.460   0.269
 3658SOL     OW23004   6.265   4.171   6.168
 3658SOL    HW123005   6.349   4.225   6.162
 3658SOL    HW223006   6.253   4.119   6.083
 3659SOL     OW23007   8.062   3.735   1.743
 3659SOL    HW123008   8.040   3.698   1.833
 3659SOL    HW223009   7.981   3.729   1.684
 3660SOL     OW23010   3.922   8.309   6.042
 3660SOL    HW123011   3.957   8.391   5.996
 3660SOL    HW223012   3.929   8.231   5.979
 3661SOL     OW23013   0.653   5.959   5.694
 3661SOL    HW123014   0.612   6.019   5.625
 3661SOL    HW223015   0.586   5.940   5.766
 3662SOL     OW23016   1.316   2.602   6.183
 3662SOL    HW123017   1.320   2.680   6.246
 3662SOL    HW223018   1.254   2.623   6.108
 3663SOL     OW23019   7.747   0.347   5.168
 3663SOL    HW123020   7.754   0.411   5.091
 3663SOL    HW223021   7.738   0.399   5.253
 3664SOL     OW23022   8.241   1.420   0.440
 3664SOL    HW123023   8.303   1.483   0.394
 3664SOL    HW223024   8.172   1.387   0.376
 3665SOL     OW23025   8.117   4.460   1.202
 3665SOL    HW123026   8.172   4.413   1.133
 3665SOL    HW223027   8.079   4.393   1.266
 3666SOL     OW23028   1.126   7.319   4.358
 3666SOL    HW123029   1.194   7.322   4.431
 3666SOL    HW223030   1.149   7.389   4.290
 3667SOL     OW23031   4.874   5.492   5.287
 3667SOL    HW123032   4.926   5.428   5.343
 3667SOL    HW223033   4.924   5.510   5.202
 3668SOL     OW23034   6.897   8.164   6.596
 3668SOL    HW123035   6.963   8.105   6.550
 3668SOL    HW223036   6.835   8.109   6.652
 3669SOL     OW23037   6.487   6.638   1.174
 3669SOL    HW123038   6.441   6.654   1.086
 3669SOL    HW223039   6.542   6.717   1.198
 3670SOL     OW23040   1.683   2.068   0.678
 3670SOL    HW123041   1.724   2.105   0.595
 3670SOL    HW223042   1.589   2.039   0.658
 3671SOL     OW23043   6.196   4.065   5.926
 3671SOL    HW123044   6.273   4.032   5.872
 3671SOL    HW223045   6.113   4.017   5.897
 3672SOL     OW23046   2.049   5.024   0.372
 3672SOL    HW123047   2.077   4.934   0.336
 3672SOL    HW223048   2.114   5.052   0.443
 3673SOL     OW23049   6.395   0.332   6.831
 3673SOL    HW123050   6.423   0.310   6.925
 3673SOL    HW223051   6.300   0.303   6.817
 3674SOL     OW23052   7.130   7.582   5.762
 3674SOL    HW123053   7.138   7.627   5.673
 3674SOL    HW223054   7.034   7.556   5.777
 3675SOL     OW23055   2.389   6.742   0.238
 3675SOL    HW123056   2.322   6.756   0.311
 3675SOL    HW223057   2.345   6.752   0.149
 3676SOL     OW23058   8.454   8.321   1.116
 3676SOL    HW123059   8.413   8.274   1.037
 3676SOL    HW223060   8.395   8.309   1.196
 3677SOL     OW23061   8.900   0.945   5.192
 3677SOL    HW123062   8.942   0.951   5.102
 3677SOL    HW223063   8.800   0.949   5.182
 3678SOL     OW23064   6.810   7.047   0.578
 3678SOL    HW123065   6.891   7.055   0.520
 3678SOL    HW223066   6.790   7.135   0.620
 3679SOL     OW23067   9.575   8.368   5.389
 3679SOL    HW123068   9.515   8.336   5.316
 3679SOL    HW223069   9.528   8.438   5.443
 3680SOL     OW23070   8.514   2.731   0.139
 3680SOL    HW123071   8.548   2.638   0.125
 3680SOL    HW223072   8.572   2.778   0.205
 3681SOL     OW23073   4.529   6.686   1.195
 3681SOL    HW123074   4.623   6.687   1.228
 3681SOL    HW223075   4.488   6.596   1.211
 3682SOL     OW23076   4.791   7.207   5.136
 3682SOL    HW123077   4.861   7.172   5.198
 3682SOL    HW223078   4.820   7.294   5.098
 3683SOL     OW23079   8.525   7.664   0.952
 3683SOL    HW123080   8.456   7.708   1.010
 3683SOL    HW223081   8.489   7.652   0.860
 3684SOL     OW23082   2.836   7.728   6.106
 3684SOL    HW123083   2.822   7.762   6.200
 3684SOL    HW223084   2.869   7.633   6.110
 3685SOL     OW23085   5.790   2.481   6.602
 3685SOL    HW123086   5.861   2.543   6.637
 3685SOL    HW223087   5.833   2.402   6.558
 3686SOL     OW23088   6.641   4.482   1.622
 3686SOL    HW123089   6.697   4.532   1.688
 3686SOL    HW223090   6.545   4.502   1.639
 3687SOL     OW23091   9.582   6.218   5.689
 3687SOL    HW123092   9.629   6.131   5.699
 3687SOL    HW223093   9.483   6.204   5.693
 3688SOL     OW23094   0.999   4.705   6.764
 3688SOL    HW123095   1.080   4.763   6.774
 3688SOL    HW223096   0.969   4.706   6.669
 3689SOL     OW23097   7.850   6.613   6.366
 3689SOL    HW123098   7.781   6.673   6.325
 3689SOL    HW223099   7.929   6.606   6.304
 3690SOL     OW23100   6.641   4.257   1.110
 3690SOL    HW123101   6.564   4.290   1.164
 3690SOL    HW223102   6.621   4.270   1.012
 3691SOL     OW23103   7.012   1.840   0.705
 3691SOL    HW123104   6.937   1.774   0.714
 3691SOL    HW223105   7.049   1.835   0.612
 3692SOL     OW23106   8.275   6.250   1.094
 3692SOL    HW123107   8.370   6.253   1.125
 3692SOL    HW223108   8.233   6.165   1.124
 3693SOL     OW23109   9.137   2.278   6.689
 3693SOL    HW123110   9.148   2.232   6.777
 3693SOL    HW223111   9.100   2.370   6.704
 3694SOL     OW23112   5.948   8.379   1.550
 3694SOL    HW123113   6.005   8.305   1.515
 3694SOL    HW223114   5.969   8.393   1.647
 3695SOL     OW23115   7.401   6.007   6.745
 3695SOL    HW123116   7.380   6.065   6.824
 3695SOL    HW223117   7.417   6.065   6.665
 3696SOL     OW23118   7.029   1.226   1.375
 3696SOL    HW123119   7.087   1.195   1.450
 3696SOL    HW223120   6.993   1.317   1.396
 3697SOL     OW23121   6.914   0.068   1.111
 3697SOL    HW123122   7.011   0.085   1.130
 3697SOL    HW223123   6.898  -0.030   1.100
 3698SOL     OW23124   0.876   0.764   6.385
 3698SOL    HW123125   0.876   0.748   6.287
 3698SOL    HW223126   0.949   0.829   6.408
 3699SOL     OW23127   4.783   4.315   5.876
 3699SOL    HW123128   4.717   4.390   5.870
 3699SOL    HW223129   4.744   4.240   5.929
 3700SOL     OW23130   3.321   7.904   0.956
 3700SOL    HW123131   3.241   7.852   0.988
 3700SOL    HW223132   3.290   7.984   0.905
 3701SOL     OW23133   1.522   4.289   1.405
 3701SOL    HW123134   1.545   4.384   1.426
 3701SOL    HW223135   1.602   4.231   1.423
 3702SOL     OW23136   6.818   5.522   6.552
 3702SOL    HW123137   6.736   5.572   6.521
 3702SOL    HW223138   6.894   5.586   6.562
 3703SOL     OW23139   3.668   0.498   1.183
 3703SOL    HW123140   3.585   0.524   1.134
 3703SOL    HW223141   3.737   0.468   1.117
 3704SOL     OW23142   1.535   6.936   5.981
 3704SOL    HW123143   1.484   6.885   5.912
 3704SOL    HW223144   1.480   6.943   6.064
 3705SOL     OW23145   4.724   0.081   6.791
 3705SOL    HW123146   4.652   0.150   6.801
 3705SOL    HW223147   4.685  -0.004   6.757
 3706SOL     OW23148   4.562   0.329   6.770
 3706SOL    HW123149   4.633   0.393   6.800
 3706SOL    HW223150   4.577   0.306   6.673
 3707SOL     OW23151   6.231   8.263   5.203
 3707SOL    HW123152   6.239   8.166   5.178
 3707SOL    HW223153   6.196   8.314   5.124
 3708SOL     OW23154   8.686  -0.001   5.792
 3708SOL    HW123155   8.622   0.067   5.827
 3708SOL    HW223156   8.757  -0.018   5.860
 3709SOL     OW23157   2.502   2.690   5.923
 3709SOL    HW123158   2.527   2.770   5.869
 3709SOL    HW223159   2.466   2.720   6.012
 3710SOL     OW23160   4.493   6.229   1.850
 3710SOL    HW123161   4.504   6.132   1.830
 3710SOL    HW223162   4.466   6.241   1.946
 3711SOL     OW23163   8.847   1.977   6.036
 3711SOL    HW123164   8.814   1.888   6.007
 3711SOL    HW223165   8.858   1.979   6.136
 3712SOL     OW23166   6.282   0.595   1.319
 3712SOL    HW123167   6.378   0.581   1.295
 3712SOL    HW223168   6.276   0.618   1.416
 3713SOL     OW23169   8.929   7.659   6.392
 3713SOL    HW123170   8.849   7.684   6.337
 3713SOL    HW223171   8.907   7.579   6.448
 3714SOL     OW23172   5.120   3.199   5.892
 3714SOL    HW123173   5.050   3.222   5.824
 3714SOL    HW223174   5.183   3.275   5.903
 3715SOL     OW23175   5.545   6.280   0.729
 3715SOL    HW123176   5.581   6.280   0.636
 3715SOL    HW223177   5.488   6.199   0.743
 3716SOL     OW23178   0.831   3.294   6.627
 3716SOL    HW123179   0.861   3.304   6.722
 3716SOL    HW223180   0.734   3.273   6.624
 3717SOL     OW23181   0.496   2.498   0.883
 3717SOL    HW123182   0.591   2.468   0.884
 3717SOL    HW223183   0.492   2.598   0.876
 3718SOL     OW23184   9.231   0.876   5.754
 3718SOL    HW123185   9.257   0.861   5.849
 3718SOL    HW223186   9.185   0.794   5.719
 3719SOL     OW23187   7.306   6.379   1.187
 3719SOL    HW123188   7.317   6.445   1.112
 3719SOL    HW223189   7.213   6.385   1.222
 3720SOL     OW23190   6.208   6.913   6.530
 3720SOL    HW123191   6.146   6.839   6.502
 3720SOL    HW223192   6.223   6.908   6.628
 3721SOL     OW23193   0.801   3.550   0.842
 3721SOL    HW123194   0.775   3.520   0.934
 3721SOL    HW223195   0.835   3.472   0.790
 3722SOL     OW23196   1.998   7.232   0.763
 3722SOL    HW123197   1.913   7.180   0.754
 3722SOL    HW223198   1.980   7.318   0.810
 3723SOL     OW23199   3.748   5.387   6.343
 3723SOL    HW123200   3.667   5.445   6.355
 3723SOL    HW223201   3.724   5.308   6.286
 3724SOL     OW23202   2.438   0.264   5.427
 3724SOL    HW123203   2.382   0.251   5.345
 3724SOL    HW223204   2.524   0.308   5.401
 3725SOL     OW23205   2.086   7.935   6.125
 3725SOL    HW123206   2.160   7.991   6.160
 3725SOL    HW223207   1.998   7.979   6.146
 3726SOL     OW23208   8.412   3.411   0.156
 3726SOL    HW123209   8.411   3.479   0.083
 3726SOL    HW223210   8.406   3.320   0.116
 3727SOL     OW23211   6.110   3.128   6.737
 3727SOL    HW123212   6.116   3.074   6.653
 3727SOL    HW223213   6.196   3.177   6.752
 3728SOL     OW23214   1.571   2.691   5.934
 3728SOL    HW123215   1.593   2.789   5.938
 3728SOL    HW223216   1.499   2.676   5.866
 3729SOL     OW23217   4.109   2.349   1.108
 3729SOL    HW123218   4.011   2.370   1.108
 3729SOL    HW223219   4.148   2.372   1.198
 3730SOL     OW23220   2.138   1.360   1.810
 3730SOL    HW123221   2.196   1.402   1.740
 3730SOL    HW223222   2.123   1.425   1.885
 3731SOL     OW23223   6.116   0.004   6.580
 3731SOL    HW123224   6.214   0.011   6.559
 3731SOL    HW223225   6.075   0.095   6.576
 3732SOL     OW23226   5.678   6.205   5.596
 3732SOL    HW123227   5.769   6.235   5.568
 3732SOL    HW223228   5.651   6.127   5.540
 3733SOL     OW23229   4.950   0.897   6.772
 3733SOL    HW123230   4.978   0.898   6.676
 3733SOL    HW223231   5.005   0.830   6.822
 3734SOL     OW23232   6.782   6.227   5.778
 3734SOL    HW123233   6.708   6.221   5.710
 3734SOL    HW223234   6.845   6.300   5.751
 3735SOL     OW23235   1.190   0.358   5.035
 3735SOL    HW123236   1.116   0.392   4.977
 3735SOL    HW223237   1.266   0.328   4.978
 3736SOL     OW23238   9.421   0.795   5.535
 3736SOL    HW123239   9.361   0.843   5.599
 3736SOL    HW223240   9.516   0.809   5.562
 3737SOL     OW23241   2.591   0.322   0.340
 3737SOL    HW123242   2.599   0.421   0.328
 3737SOL    HW223243   2.536   0.303   0.422
 3738SOL     OW23244   8.032   6.398   0.227
 3738SOL    HW123245   8.106   6.458   0.195
 3738SOL    HW223246   8.060   6.303   0.215
 3739SOL     OW23247   2.081   3.418   1.418
 3739SOL    HW123248   2.101   3.380   1.509
 3739SOL    HW223249   2.016   3.359   1.371
 3740SOL     OW23250   2.935   3.814   5.329
 3740SOL    HW123251   2.895   3.726   5.304
 3740SOL    HW223252   3.015   3.798   5.387
 3741SOL     OW23253   8.136   6.809   1.147
 3741SOL    HW123254   8.152   6.724   1.097
 3741SOL    HW223255   8.156   6.886   1.086
 3742SOL     OW23256   3.007   1.168   1.624
 3742SOL    HW123257   3.044   1.184   1.533
 3742SOL    HW223258   3.063   1.100   1.672
 3743SOL     OW23259   0.646   1.611   6.068
 3743SOL    HW123260   0.693   1.662   6.140
 3743SOL    HW223261   0.579   1.671   6.023
 3744SOL     OW23262   1.430   2.104   5.754
 3744SOL    HW123263   1.473   2.175   5.698
 3744SOL    HW223264   1.476   2.101   5.843
 3745SOL     OW23265   3.983   2.043   0.306
 3745SOL    HW123266   3.969   1.999   0.395
 3745SOL    HW223267   3.915   2.115   0.294
 3746SOL     OW23268   5.865   6.540   6.738
 3746SOL    HW123269   5.791   6.533   6.671
 3746SOL    HW223270   5.841   6.488   6.819
 3747SOL     OW23271   1.282   3.929   6.712
 3747SOL    HW123272   1.351   3.898   6.646
 3747SOL    HW223273   1.209   3.977   6.663
 3748SOL     OW23274   0.426   0.653   1.247
 3748SOL    HW123275   0.427   0.733   1.307
 3748SOL    HW223276   0.352   0.592   1.275
 3749SOL     OW23277   4.038   3.163   0.711
 3749SOL    HW123278   4.125   3.198   0.675
 3749SOL    HW223279   3.973   3.238   0.718
 3750SOL     OW23280   6.497   4.930   0.610
 3750SOL    HW123281   6.459   5.019   0.586
 3750SOL    HW223282   6.425   4.860   0.606
 3751SOL     OW23283   9.361   6.092   5.951
 3751SOL    HW123284   9.311   6.069   6.034
 3751SOL    HW223285   9.337   6.184   5.922
 3752SOL     OW23286   7.335   5.714   1.550
 3752SOL    HW123287   7.282   5.640   1.591
 3752SOL    HW223288   7.313   5.721   1.452
 3753SOL     OW23289   8.562   8.314   5.387
 3753SOL    HW123290   8.637   8.249   5.371
 3753SOL    HW223291   8.577   8.396   5.333
 3754SOL     OW23292   2.917   2.105   6.649
 3754SOL    HW123293   2.859   2.163   6.705
 3754SOL    HW223294   2.891   2.009   6.663
 3755SOL     OW23295   7.227   8.391   6.489
 3755SOL    HW123296   7.231   8.368   6.586
 3755SOL    HW223297   7.299   8.458   6.468
 3756SOL     OW23298   0.581   8.001   0.313
 3756SOL    HW123299   0.504   7.942   0.339
 3756SOL    HW223300   0.574   8.024   0.216
 3757SOL     OW23301   3.462   6.118   0.668
 3757SOL    HW123302   3.542   6.136   0.611
 3757SOL    HW223303   3.386   6.088   0.611
 3758SOL     OW23304   3.906   0.931   0.846
 3758SOL    HW123305   3.844   0.860   0.880
 3758SOL    HW223306   3.991   0.889   0.816
 3759SOL     OW23307   8.945   0.042   6.527
 3759SOL    HW123308   8.885  -0.033   6.554
 3759SOL    HW223309   8.934   0.060   6.430
 3760SOL     OW23310   6.549   4.760   5.871
 3760SOL    HW123311   6.571   4.857   5.865
 3760SOL    HW223312   6.597   4.710   5.799
 3761SOL     OW23313   3.888   3.283   1.054
 3761SOL    HW123314   3.847   3.214   1.112
 3761SOL    HW223315   3.818   3.324   0.995
 3762SOL     OW23316   1.480   2.299   0.749
 3762SOL    HW123317   1.541   2.333   0.821
 3762SOL    HW223318   1.473   2.199   0.755
 3763SOL     OW23319   5.908   3.952   0.350
 3763SOL    HW123320   5.848   3.907   0.284
 3763SOL    HW223321   5.972   4.011   0.301
 3764SOL     OW23322   9.482   1.478   5.780
 3764SOL    HW123323   9.531   1.474   5.693
 3764SOL    HW223324   9.463   1.385   5.811
 3765SOL     OW23325   0.505   3.843   0.133
 3765SOL    HW123326   0.567   3.795   0.071
 3765SOL    HW223327   0.506   3.798   0.222
 3766SOL     OW23328   5.079   5.157   0.535
 3766SOL    HW123329   5.027   5.225   0.587
 3766SOL    HW223330   5.036   5.067   0.546
 3767SOL     OW23331   2.372   2.759   6.165
 3767SOL    HW123332   2.391   2.842   6.218
 3767SOL    HW223333   2.383   2.679   6.223
 3768SOL     OW23334   4.669   5.759   1.062
 3768SOL    HW123335   4.621   5.847   1.052
 3768SOL    HW223336   4.671   5.734   1.159
 3769SOL     OW23337   3.150   0.363   1.999
 3769SOL    HW123338   3.145   0.425   2.077
 3769SOL    HW223339   3.071   0.377   1.940
 3770SOL     OW23340   5.805   1.292   6.086
 3770SOL    HW123341   5.800   1.219   6.154
 3770SOL    HW223342   5.850   1.259   6.003
 3771SOL     OW23343   7.822   0.905   0.837
 3771SOL    HW123344   7.847   0.857   0.921
 3771SOL    HW223345   7.731   0.946   0.848
 3772SOL     OW23346   5.243  -0.057   0.153
 3772SOL    HW123347   5.339  -0.075   0.176
 3772SOL    HW223348   5.233  -0.054   0.053
 3773SOL     OW23349   5.962   8.375   6.068
 3773SOL    HW123350   6.029   8.437   6.109
 3773SOL    HW223351   5.883   8.367   6.128
 3774SOL     OW23352   6.932   3.518   1.482
 3774SOL    HW123353   6.976   3.449   1.540
 3774SOL    HW223354   6.964   3.609   1.510
 3775SOL     OW23355   5.056   8.291   2.117
 3775SOL    HW123356   4.983   8.293   2.185
 3775SOL    HW223357   5.132   8.234   2.150
 3776SOL     OW23358   8.076   7.677   5.851
 3776SOL    HW123359   8.111   7.621   5.776
 3776SOL    HW223360   8.149   7.694   5.917
 3777SOL     OW23361   1.731   6.317   5.644
 3777SOL    HW123362   1.688   6.408   5.647
 3777SOL    HW223363   1.662   6.248   5.623
 3778SOL     OW23364   6.887   2.926   5.741
 3778SOL    HW123365   6.907   2.865   5.664
 3778SOL    HW223366   6.895   3.021   5.712
 3779SOL     OW23367   1.418   6.846   5.700
 3779SOL    HW123368   1.421   6.945   5.683
 3779SOL    HW223369   1.388   6.799   5.617
 3780SOL     OW23370   4.902   0.293   5.112
 3780SOL    HW123371   4.973   0.225   5.094
 3780SOL    HW223372   4.893   0.354   5.033
 3781SOL     OW23373   6.644   1.061   1.586
 3781SOL    HW123374   6.579   1.001   1.539
 3781SOL    HW223375   6.714   1.091   1.521
 3782SOL     OW23376   0.765   4.152   5.292
 3782SOL    HW123377   0.741   4.059   5.263
 3782SOL    HW223378   0.824   4.195   5.223
 3783SOL     OW23379   7.211   6.737   5.837
 3783SOL    HW123380   7.279   6.805   5.865
 3783SOL    HW223381   7.168   6.766   5.752
 3784SOL     OW23382   3.679   1.433   1.605
 3784SOL    HW123383   3.681   1.415   1.704
 3784SOL    HW223384   3.719   1.523   1.588
 3785SOL     OW23385   2.063   1.950   6.147
 3785SOL    HW123386   1.993   1.882   6.170
 3785SOL    HW223387   2.093   1.997   6.230
 3786SOL     OW23388   3.952   6.710   6.693
 3786SOL    HW123389   3.856   6.704   6.718
 3786SOL    HW223390   4.004   6.640   6.742
 3787SOL     OW23391   6.564   5.178   0.948
 3787SOL    HW123392   6.525   5.264   0.915
 3787SOL    HW223393   6.541   5.166   1.044
 3788SOL     OW23394   3.799   7.574   5.314
 3788SOL    HW123395   3.714   7.523   5.301
 3788SOL    HW223396   3.876   7.521   5.279
 3789SOL     OW23397   3.584   5.817   5.532
 3789SOL    HW123398   3.654   5.888   5.538
 3789SOL    HW223399   3.529   5.831   5.449
 3790SOL     OW23400   8.247   1.301   6.102
 3790SOL    HW123401   8.343   1.296   6.127
 3790SOL    HW223402   8.205   1.210   6.112
 3791SOL     OW23403   2.393   7.889   6.762
 3791SOL    HW123404   2.327   7.912   6.690
 3791SOL    HW223405   2.401   7.966   6.825
 3792SOL     OW23406   3.105   8.114   1.689
 3792SOL    HW123407   3.151   8.136   1.775
 3792SOL    HW223408   3.057   8.195   1.655
 3793SOL     OW23409   2.880   8.430   1.261
 3793SOL    HW123410   2.848   8.524   1.251
 3793SOL    HW223411   2.928   8.421   1.349
 3794SOL     OW23412   3.221   3.844   6.616
 3794SOL    HW123413   3.162   3.921   6.640
 3794SOL    HW223414   3.209   3.822   6.519
 3795SOL     OW23415   2.011   3.639   6.831
 3795SOL    HW123416   1.938   3.614   6.768
 3795SOL    HW223417   1.976   3.702   6.900
 3796SOL     OW23418   6.475   0.444   6.607
 3796SOL    HW123419   6.454   0.393   6.691
 3796SOL    HW223420   6.508   0.380   6.537
 3797SOL     OW23421   5.580   5.026   6.009
 3797SOL    HW123422   5.565   5.052   5.914
 3797SOL    HW223423   5.638   4.945   6.013
 3798SOL     OW23424   1.267   4.398   6.754
 3798SOL    HW123425   1.170   4.423   6.754
 3798SOL    HW223426   1.276   4.299   6.763
 3799SOL     OW23427   8.790   1.374   0.276
 3799SOL    HW123428   8.862   1.443   0.287
 3799SOL    HW223429   8.704   1.409   0.313
 3800SOL     OW23430   5.810   6.078   6.005
 3800SOL    HW123431   5.731   6.107   5.950
 3800SOL    HW223432   5.781   6.007   6.069
 3801SOL     OW23433   1.058   1.554   0.865
 3801SOL    HW123434   1.089   1.463   0.895
 3801SOL    HW223435   1.008   1.545   0.779
 3802SOL     OW23436   9.017   1.088   5.874
 3802SOL    HW123437   9.021   1.183   5.905
 3802SOL    HW223438   9.109   1.049   5.875
 3803SOL     OW23439   9.318   1.945   0.768
 3803SOL    HW123440   9.343   2.033   0.807
 3803SOL    HW223441   9.263   1.894   0.834
 3804SOL     OW23442   7.900   3.546   0.187
 3804SOL    HW123443   7.968   3.618   0.197
 3804SOL    HW223444   7.828   3.558   0.255
 3805SOL     OW23445   2.304   0.425   6.014
 3805SOL    HW123446   2.299   0.499   5.948
 3805SOL    HW223447   2.257   0.451   6.099
 3806SOL     OW23448   1.163   7.780   6.839
 3806SOL    HW123449   1.214   7.703   6.801
 3806SOL    HW223450   1.159   7.771   6.938
 3807SOL     OW23451   8.837   6.935   0.978
 3807SOL    HW123452   8.849   6.979   1.068
 3807SOL    HW223453   8.756   6.974   0.934
 3808SOL     OW23454   3.100   0.049   6.466
 3808SOL    HW123455   3.179   0.110   6.460
 3808SOL    HW223456   3.016   0.103   6.456
 3809SOL     OW23457   1.537   7.215   5.971
 3809SOL    HW123458   1.550   7.116   5.977
 3809SOL    HW223459   1.506   7.239   5.879
 3810SOL     OW23460   0.461   2.771   0.877
 3810SOL    HW123461   0.425   2.787   0.969
 3810SOL    HW223462   0.458   2.856   0.824
 3811SOL     OW23463   1.781   1.428   1.464
 3811SOL    HW123464   1.683   1.414   1.476
 3811SOL    HW223465   1.826   1.426   1.554
 3812SOL     OW23466   6.707   4.707   0.218
 3812SOL    HW123467   6.770   4.679   0.145
 3812SOL    HW223468   6.730   4.800   0.248
 3813SOL     OW23469   6.560   2.143   5.951
 3813SOL    HW123470   6.530   2.106   5.863
 3813SOL    HW223471   6.572   2.242   5.943
 3814SOL     OW23472   1.841   2.607   5.818
 3814SOL    HW123473   1.763   2.591   5.879
 3814SOL    HW223474   1.808   2.639   5.730
 3815SOL     OW23475   7.584   3.195   0.173
 3815SOL    HW123476   7.506   3.231   0.225
 3815SOL    HW223477   7.552   3.158   0.086
 3816SOL     OW23478   8.727   3.344   6.803
 3816SOL    HW123479   8.668   3.356   6.723
 3816SOL    HW223480   8.823   3.347   6.774
 3817SOL     OW23481   1.392   6.549   0.683
 3817SOL    HW123482   1.473   6.490   0.688
 3817SOL    HW223483   1.413   6.629   0.626
 3818SOL     OW23484   7.374   4.967   5.082
 3818SOL    HW123485   7.325   4.880   5.073
 3818SOL    HW223486   7.471   4.953   5.059
 3819SOL     OW23487   1.285   5.770   4.668
 3819SOL    HW123488   1.351   5.793   4.596
 3819SOL    HW223489   1.260   5.674   4.659
 3820SOL     OW23490   2.858   6.069   6.564
 3820SOL    HW123491   2.785   6.016   6.607
 3820SOL    HW223492   2.818   6.147   6.516
 3821SOL     OW23493   8.968   6.316   6.562
 3821SOL    HW123494   8.913   6.256   6.620
 3821SOL    HW223495   8.946   6.412   6.583
 3822SOL     OW23496   4.971   7.141   5.367
 3822SOL    HW123497   4.944   7.045   5.376
 3822SOL    HW223498   5.071   7.146   5.357
 3823SOL     OW23499   0.153   3.989   5.969
 3823SOL    HW123500   0.219   3.916   5.985
 3823SOL    HW223501   0.174   4.066   6.029
 3824SOL     OW23502   9.127   6.248   5.469
 3824SOL    HW123503   9.120   6.300   5.553
 3824SOL    HW223504   9.213   6.271   5.423
 3825SOL     OW23505   7.978   6.730   6.814
 3825SOL    HW123506   7.938   6.765   6.898
 3825SOL    HW223507   7.910   6.676   6.765
 3826SOL     OW23508   7.819   7.170   0.340
 3826SOL    HW123509   7.820   7.158   0.241
 3826SOL    HW223510   7.911   7.193   0.371
 3827SOL     OW23511   7.748   2.317   1.842
 3827SOL    HW123512   7.708   2.249   1.903
 3827SOL    HW223513   7.720   2.409   1.870
 3828SOL     OW23514   1.255   7.539   6.665
 3828SOL    HW123515   1.170   7.528   6.614
 3828SOL    HW223516   1.250   7.485   6.749
 3829SOL     OW23517   7.835   5.602   5.982
 3829SOL    HW123518   7.754   5.638   6.027
 3829SOL    HW223519   7.860   5.662   5.906
 3830SOL     OW23520   7.843   7.151   6.797
 3830SOL    HW123521   7.781   7.085   6.754
 3830SOL    HW223522   7.937   7.134   6.766
 3831SOL     OW23523   2.230   5.917   0.333
 3831SOL    HW123524   2.131   5.906   0.346
 3831SOL    HW223525   2.266   5.838   0.283
 3832SOL     OW23526   5.503   2.841   1.376
 3832SOL    HW123527   5.527   2.923   1.427
 3832SOL    HW223528   5.429   2.862   1.311
 3833SOL     OW23529   0.555   8.162   1.023
 3833SOL    HW123530   0.497   8.138   1.101
 3833SOL    HW223531   0.640   8.203   1.056
 3834SOL     OW23532   0.903   7.596   0.464
 3834SOL    HW123533   0.983   7.610   0.522
 3834SOL    HW223534   0.925   7.530   0.392
 3835SOL     OW23535   2.449   7.186   0.290
 3835SOL    HW123536   2.524   7.249   0.272
 3835SOL    HW223537   2.484   7.092   0.291
 3836SOL     OW23538   3.367   0.564   5.426
 3836SOL    HW123539   3.430   0.594   5.498
 3836SOL    HW223540   3.418   0.548   5.341
 3837SOL     OW23541   3.404   1.543   6.602
 3837SOL    HW123542   3.387   1.620   6.663
 3837SOL    HW223543   3.495   1.505   6.621
 3838SOL     OW23544   3.236   5.606   0.604
 3838SOL    HW123545   3.248   5.527   0.664
 3838SOL    HW223546   3.271   5.584   0.513
 3839SOL     OW23547   3.988   2.744   0.542
 3839SOL    HW123548   4.010   2.790   0.456
 3839SOL    HW223549   3.900   2.698   0.533
 3840SOL     OW23550   7.914   4.194   6.020
 3840SOL    HW123551   7.951   4.109   6.058
 3840SOL    HW223552   7.960   4.272   6.062
 3841SOL     OW23553   4.316   2.405   5.809
 3841SOL    HW123554   4.251   2.460   5.861
 3841SOL    HW223555   4.291   2.406   5.712
 3842SOL     OW23556   2.905   5.422   0.397
 3842SOL    HW123557   2.882   5.411   0.493
 3842SOL    HW223558   2.946   5.512   0.383
 3843SOL     OW23559   8.342   0.304   0.338
 3843SOL    HW123560   8.265   0.338   0.283
 3843SOL    HW223561   8.307   0.250   0.414
 3844SOL     OW23562   3.138   7.198   0.930
 3844SOL    HW123563   3.101   7.223   1.020
 3844SOL    HW223564   3.102   7.109   0.902
 3845SOL     OW23565   3.063   3.739   1.083
 3845SOL    HW123566   3.035   3.809   1.148
 3845SOL    HW223567   3.134   3.681   1.124
 3846SOL     OW23568   6.620   3.874   5.711
 3846SOL    HW123569   6.664   3.910   5.629
 3846SOL    HW223570   6.645   3.778   5.724
 3847SOL     OW23571   7.687   7.557   6.118
 3847SOL    HW123572   7.661   7.461   6.127
 3847SOL    HW223573   7.627   7.603   6.052
 3848SOL     OW23574   3.826   3.364   6.611
 3848SOL    HW123575   3.840   3.311   6.527
 3848SOL    HW223576   3.748   3.326   6.660
 3849SOL     OW23577   8.263   6.192   6.103
 3849SOL    HW123578   8.211   6.189   6.188
 3849SOL    HW223579   8.347   6.244   6.117
 3850SOL     OW23580   2.381   3.046   5.954
 3850SOL    HW123581   2.281   3.034   5.952
 3850SOL    HW223582   2.403   3.140   5.930
 3851SOL     OW23583   6.636   0.895   6.082
 3851SOL    HW123584   6.595   0.864   5.996
 3851SOL    HW223585   6.733   0.914   6.067
 3852SOL     OW23586   2.155   2.308   5.494
 3852SOL    HW123587   2.196   2.227   5.454
 3852SOL    HW223588   2.128   2.289   5.588
 3853SOL     OW23589   5.154   1.012   0.344
 3853SOL    HW123590   5.082   1.071   0.380
 3853SOL    HW223591   5.134   0.916   0.367
 3854SOL     OW23592   0.270   5.026   5.633
 3854SOL    HW123593   0.182   4.984   5.654
 3854SOL    HW223594   0.285   5.023   5.534
 3855SOL     OW23595   8.668   3.070   5.179
 3855SOL    HW123596   8.661   3.157   5.227
 3855SOL    HW223597   8.585   3.054   5.125
 3856SOL     OW23598   6.892   1.148   0.604
 3856SOL    HW123599   6.915   1.107   0.516
 3856SOL    HW223600   6.802   1.115   0.634
 3857SOL     OW23601   4.963   3.123   0.782
 3857SOL    HW123602   4.994   3.029   0.769
 3857SOL    HW223603   4.964   3.146   0.879
 3858SOL     OW23604   9.414   0.751   0.377
 3858SOL    HW123605   9.376   0.737   0.469
 3858SOL    HW223606   9.511   0.728   0.377
 3859SOL     OW23607   5.224   6.251   6.800
 3859SOL    HW123608   5.164   6.331   6.797
 3859SOL    HW223609   5.283   6.257   6.880
 3860SOL     OW23610   8.656   3.174   6.115
 3860SOL    HW123611   8.617   3.220   6.195
 3860SOL    HW223612   8.694   3.086   6.141
 3861SOL     OW23613   6.811   4.439   5.554
 3861SOL    HW123614   6.776   4.516   5.607
 3861SOL    HW223615   6.911   4.435   5.564
 3862SOL     OW23616   4.721   2.934   6.301
 3862SOL    HW123617   4.803   2.886   6.269
 3862SOL    HW223618   4.747   3.001   6.371
 3863SOL     OW23619   5.586   6.210   5.850
 3863SOL    HW123620   5.514   6.270   5.885
 3863SOL    HW223621   5.604   6.231   5.754
 3864SOL     OW23622   8.538   0.794   0.353
 3864SOL    HW123623   8.582   0.721   0.404
 3864SOL    HW223624   8.606   0.845   0.300
 3865SOL     OW23625   6.018   0.777   0.642
 3865SOL    HW123626   5.986   0.812   0.730
 3865SOL    HW223627   5.973   0.827   0.568
 3866SOL     OW23628   8.177   7.033   0.957
 3866SOL    HW123629   8.226   7.120   0.960
 3866SOL    HW223630   8.227   6.969   0.899
 3867SOL     OW23631   7.843   2.439   0.621
 3867SOL    HW123632   7.801   2.433   0.531
 3867SOL    HW223633   7.875   2.533   0.637
 3868SOL     OW23634   9.052   7.173   6.762
 3868SOL    HW123635   9.079   7.113   6.837
 3868SOL    HW223636   9.132   7.193   6.705
 3869SOL     OW23637   0.937   4.787   6.160
 3869SOL    HW123638   0.855   4.842   6.142
 3869SOL    HW223639   0.960   4.735   6.077
 3870SOL     OW23640   8.695   6.703   1.072
 3870SOL    HW123641   8.728   6.665   1.158
 3870SOL    HW223642   8.745   6.787   1.051
 3871SOL     OW23643   1.602   3.730   5.860
 3871SOL    HW123644   1.633   3.753   5.768
 3871SOL    HW223645   1.541   3.802   5.894
 3872SOL     OW23646   7.018   0.443   6.278
 3872SOL    HW123647   7.036   0.541   6.284
 3872SOL    HW223648   7.092   0.400   6.226
 3873SOL     OW23649   1.492   1.453   0.307
 3873SOL    HW123650   1.556   1.526   0.283
 3873SOL    HW223651   1.406   1.494   0.337
 3874SOL     OW23652   0.123   0.051   4.850
 3874SOL    HW123653   0.157   0.045   4.756
 3874SOL    HW223654   0.076   0.138   4.863
 3875SOL     OW23655   1.788   8.030   1.189
 3875SOL    HW123656   1.887   8.031   1.202
 3875SOL    HW223657   1.767   8.066   1.099
 3876SOL     OW23658   1.081   2.456   1.086
 3876SOL    HW123659   0.996   2.508   1.098
 3876SOL    HW223660   1.089   2.427   0.990
 3877SOL     OW23661   6.250   3.761   0.335
 3877SOL    HW123662   6.207   3.851   0.322
 3877SOL    HW223663   6.228   3.702   0.258
 3878SOL     OW23664   9.008   1.570   0.313
 3878SOL    HW123665   8.978   1.634   0.242
 3878SOL    HW223666   9.031   1.621   0.395
 3879SOL     OW23667   5.644   4.840   6.851
 3879SOL    HW123668   5.607   4.928   6.883
 3879SOL    HW223669   5.661   4.781   6.930
 3880SOL     OW23670   8.155   6.890   6.681
 3880SOL    HW123671   8.119   6.983   6.674
 3880SOL    HW223672   8.091   6.833   6.732
 3881SOL     OW23673   4.107   4.740   0.720
 3881SOL    HW123674   4.094   4.836   0.696
 3881SOL    HW223675   4.052   4.719   0.802
 3882SOL     OW23676   0.593   0.421   5.344
 3882SOL    HW123677   0.568   0.427   5.247
 3882SOL    HW223678   0.541   0.488   5.397
 3883SOL     OW23679   7.138   6.697   6.568
 3883SOL    HW123680   7.109   6.791   6.586
 3883SOL    HW223681   7.225   6.698   6.517
 3884SOL     OW23682   9.084   4.173   0.295
 3884SOL    HW123683   9.051   4.246   0.235
 3884SOL    HW223684   9.183   4.183   0.308
 3885SOL     OW23685   6.126   2.483   6.712
 3885SOL    HW123686   6.119   2.388   6.684
 3885SOL    HW223687   6.095   2.492   6.807
 3886SOL     OW23688   3.128   2.809   1.249
 3886SOL    HW123689   3.152   2.856   1.334
 3886SOL    HW223690   3.051   2.855   1.205
 3887SOL     OW23691   3.675   4.010   0.627
 3887SOL    HW123692   3.653   4.076   0.698
 3887SOL    HW223693   3.721   4.056   0.551
 3888SOL     OW23694   6.159   1.860   1.230
 3888SOL    HW123695   6.132   1.793   1.299
 3888SOL    HW223696   6.138   1.952   1.264
 3889SOL     OW23697   7.613   5.601   5.483
 3889SOL    HW123698   7.609   5.616   5.384
 3889SOL    HW223699   7.560   5.672   5.529
 3890SOL     OW23700   8.415   4.292   0.142
 3890SOL    HW123701   8.504   4.260   0.175
 3890SOL    HW223702   8.382   4.230   0.071
 3891SOL     OW23703   9.018   5.987   5.541
 3891SOL    HW123704   8.966   5.937   5.472
 3891SOL    HW223705   9.073   6.058   5.497
 3892SOL     OW23706   0.846   0.682   6.069
 3892SOL    HW123707   0.926   0.623   6.079
 3892SOL    HW223708   0.830   0.702   5.973
 3893SOL     OW23709   2.948   5.689   5.151
 3893SOL    HW123710   2.923   5.695   5.055
 3893SOL    HW223711   2.945   5.594   5.181
 3894SOL     OW23712   0.220   4.025   0.250
 3894SOL    HW123713   0.293   4.016   0.182
 3894SOL    HW223714   0.244   4.098   0.314
 3895SOL     OW23715   3.405   4.659   1.899
 3895SOL    HW123716   3.427   4.574   1.947
 3895SOL    HW223717   3.402   4.735   1.964
 3896SOL     OW23718   2.078   5.137   6.713
 3896SOL    HW123719   2.094   5.115   6.617
 3896SOL    HW223720   2.042   5.230   6.721
 3897SOL     OW23721   6.208   4.973   5.840
 3897SOL    HW123722   6.299   4.952   5.876
 3897SOL    HW223723   6.215   4.997   5.743
 3898SOL     OW23724   1.879   1.278   0.527
 3898SOL    HW123725   1.781   1.278   0.508
 3898SOL    HW223726   1.896   1.241   0.618
 3899SOL     OW23727   2.041   0.605   6.385
 3899SOL    HW123728   2.115   0.649   6.335
 3899SOL    HW223729   2.043   0.506   6.367
 3900SOL     OW23730   8.389   5.323   6.512
 3900SOL    HW123731   8.482   5.357   6.503
 3900SOL    HW223732   8.342   5.330   6.424
 3901SOL     OW23733   7.659   7.544   5.328
 3901SOL    HW123734   7.600   7.620   5.298
 3901SOL    HW223735   7.743   7.544   5.274
 3902SOL     OW23736   0.450   8.082   1.844
 3902SOL    HW123737   0.424   7.986   1.830
 3902SOL    HW223738   0.501   8.091   1.929
 3903SOL     OW23739   1.960   3.424   6.216
 3903SOL    HW123740   1.928   3.350   6.276
 3903SOL    HW223741   2.040   3.393   6.165
 3904SOL     OW23742   3.441   4.628   6.683
 3904SOL    HW123743   3.427   4.683   6.600
 3904SOL    HW223744   3.407   4.679   6.762
 3905SOL     OW23745   2.862   1.495   6.588
 3905SOL    HW123746   2.812   1.446   6.517
 3905SOL    HW223747   2.856   1.444   6.674
 3906SOL     OW23748   9.284   4.444   0.370
 3906SOL    HW123749   9.312   4.399   0.285
 3906SOL    HW223750   9.192   4.483   0.358
 3907SOL     OW23751   7.616   2.893   5.828
 3907SOL    HW123752   7.674   2.837   5.886
 3907SOL    HW223753   7.646   2.989   5.834
 3908SOL     OW23754   4.419   0.586   1.055
 3908SOL    HW123755   4.416   0.507   1.116
 3908SOL    HW223756   4.368   0.567   0.972
 3909SOL     OW23757   9.074   6.972   0.202
 3909SOL    HW123758   9.153   6.931   0.247
 3909SOL    HW223759   9.013   7.011   0.272
 3910SOL     OW23760   2.220   6.261   0.848
 3910SOL    HW123761   2.225   6.300   0.756
 3910SOL    HW223762   2.229   6.162   0.843
 3911SOL     OW23763   0.635   1.975   0.986
 3911SOL    HW123764   0.621   1.922   1.070
 3911SOL    HW223765   0.733   1.992   0.973
 3912SOL     OW23766   4.672   6.773   0.975
 3912SOL    HW123767   4.600   6.734   1.032
 3912SOL    HW223768   4.632   6.812   0.892
 3913SOL     OW23769   9.169   1.331   0.354
 3913SOL    HW123770   9.135   1.418   0.317
 3913SOL    HW223771   9.114   1.256   0.318
 3914SOL     OW23772   6.661   0.633   6.576
 3914SOL    HW123773   6.588   0.566   6.585
 3914SOL    HW223774   6.632   0.721   6.615
 3915SOL     OW23775   1.546   3.182   6.845
 3915SOL    HW123776   1.512   3.186   6.751
 3915SOL    HW223777   1.575   3.089   6.865
 3916SOL     OW23778   8.550   3.725   6.410
 3916SOL    HW123779   8.571   3.754   6.503
 3916SOL    HW223780   8.530   3.804   6.353
 3917SOL     OW23781   8.176   6.714   1.402
 3917SOL    HW123782   8.139   6.776   1.471
 3917SOL    HW223783   8.149   6.745   1.311
 3918SOL     OW23784   8.496   5.776   6.822
 3918SOL    HW123785   8.498   5.875   6.836
 3918SOL    HW223786   8.467   5.731   6.906
 3919SOL     OW23787   2.536   1.093   1.295
 3919SOL    HW123788   2.525   1.000   1.259
 3919SOL    HW223789   2.459   1.150   1.266
 3920SOL     OW23790   0.919   5.146   6.651
 3920SOL    HW123791   0.958   5.107   6.567
 3920SOL    HW223792   0.993   5.163   6.717
 3921SOL     OW23793   1.055   4.336   1.347
 3921SOL    HW123794   0.991   4.269   1.384
 3921SOL    HW223795   1.059   4.415   1.408
 3922SOL     OW23796   3.323   2.684   5.713
 3922SOL    HW123797   3.339   2.636   5.627
 3922SOL    HW223798   3.303   2.780   5.694
 3923SOL     OW23799   6.609   7.546   2.107
 3923SOL    HW123800   6.670   7.621   2.081
 3923SOL    HW223801   6.663   7.466   2.132
 3924SOL     OW23802   8.877   5.241   0.288
 3924SOL    HW123803   8.788   5.217   0.251
 3924SOL    HW223804   8.874   5.239   0.388
 3925SOL     OW23805   2.216   6.763   5.791
 3925SOL    HW123806   2.283   6.831   5.760
 3925SOL    HW223807   2.263   6.682   5.824
 3926SOL     OW23808   5.651   2.304   2.070
 3926SOL    HW123809   5.719   2.364   2.112
 3926SOL    HW223810   5.690   2.260   1.989
 3927SOL     OW23811   7.432   3.475   0.656
 3927SOL    HW123812   7.453   3.562   0.613
 3927SOL    HW223813   7.450   3.481   0.754
 3928SOL     OW23814   0.683   4.488   0.586
 3928SOL    HW123815   0.740   4.544   0.646
 3928SOL    HW223816   0.589   4.486   0.621
 3929SOL     OW23817   6.990   2.853   0.998
 3929SOL    HW123818   6.994   2.898   0.909
 3929SOL    HW223819   7.049   2.900   1.062
 3930SOL     OW23820   9.477   5.609   5.139
 3930SOL    HW123821   9.560   5.558   5.163
 3930SOL    HW223822   9.424   5.558   5.072
 3931SOL     OW23823   5.515   3.248   0.199
 3931SOL    HW123824   5.607   3.222   0.226
 3931SOL    HW223825   5.493   3.338   0.237
 3932SOL     OW23826   8.596   6.297   1.462
 3932SOL    HW123827   8.555   6.370   1.517
 3932SOL    HW223828   8.684   6.328   1.425
 3933SOL     OW23829   7.233   5.587   0.154
 3933SOL    HW123830   7.175   5.665   0.178
 3933SOL    HW223831   7.209   5.508   0.210
 3934SOL     OW23832   7.509   3.982   6.414
 3934SOL    HW123833   7.473   3.955   6.324
 3934SOL    HW223834   7.554   3.903   6.457
 3935SOL     OW23835   3.869   7.163   5.447
 3935SOL    HW123836   3.917   7.185   5.362
 3935SOL    HW223837   3.858   7.246   5.502
 3936SOL     OW23838   5.059   2.308   6.153
 3936SOL    HW123839   5.068   2.366   6.072
 3936SOL    HW223840   4.972   2.326   6.198
 3937SOL     OW23841   0.656   3.645   6.739
 3937SOL    HW123842   0.593   3.567   6.748
 3937SOL    HW223843   0.736   3.617   6.686
 3938SOL     OW23844   2.358   4.007   1.273
 3938SOL    HW123845   2.379   4.027   1.178
 3938SOL    HW223846   2.436   4.033   1.331
 3939SOL     OW23847   2.428   2.953   6.314
 3939SOL    HW123848   2.510   3.009   6.318
 3939SOL    HW223849   2.349   3.011   6.295
 3940SOL     OW23850   5.065   5.886   0.688
 3940SOL    HW123851   5.164   5.883   0.701
 3940SOL    HW223852   5.019   5.882   0.777
 3941SOL     OW23853   1.693   0.015   1.071
 3941SOL    HW123854   1.788   0.031   1.098
 3941SOL    HW223855   1.640  -0.014   1.151
 3942SOL     OW23856   7.056   1.453   5.579
 3942SOL    HW123857   6.987   1.385   5.602
 3942SOL    HW223858   7.147   1.412   5.585
 3943SOL     OW23859   1.099   2.332   1.603
 3943SOL    HW123860   1.128   2.420   1.641
 3943SOL    HW223861   1.049   2.280   1.673
 3944SOL     OW23862   5.937   1.514   1.054
 3944SOL    HW123863   5.871   1.459   1.106
 3944SOL    HW223864   5.991   1.454   0.995
 3945SOL     OW23865   8.051   8.025   6.317
 3945SOL    HW123866   8.066   8.022   6.416
 3945SOL    HW223867   7.964   8.070   6.298
 3946SOL     OW23868   7.840   7.507   0.523
 3946SOL    HW123869   7.760   7.520   0.582
 3946SOL    HW223870   7.908   7.451   0.570
 3947SOL     OW23871   6.804   6.371   4.801
 3947SOL    HW123872   6.721   6.382   4.746
 3947SOL    HW223873   6.832   6.275   4.800
 3948SOL     OW23874   7.651   4.151   5.969
 3948SOL    HW123875   7.740   4.161   6.015
 3948SOL    HW223876   7.637   4.055   5.946
 3949SOL     OW23877   1.183   0.434   5.323
 3949SOL    HW123878   1.145   0.366   5.387
 3949SOL    HW223879   1.190   0.393   5.232
 3950SOL     OW23880   3.901   6.557   1.161
 3950SOL    HW123881   3.826   6.592   1.217
 3950SOL    HW223882   3.916   6.460   1.182
 3951SOL     OW23883   8.579   6.999   0.842
 3951SOL    HW123884   8.639   6.970   0.767
 3951SOL    HW223885   8.510   6.929   0.858
 3952SOL     OW23886   1.896   0.269   0.894
 3952SOL    HW123887   1.881   0.194   0.958
 3952SOL    HW223888   1.871   0.240   0.802
 3953SOL     OW23889   6.408   8.024   0.222
 3953SOL    HW123890   6.470   7.952   0.252
 3953SOL    HW223891   6.426   8.108   0.273
 3954SOL     OW23892   9.022   1.188   6.644
 3954SOL    HW123893   8.955   1.179   6.718
 3954SOL    HW223894   9.091   1.116   6.653
 3955SOL     OW23895   1.919   7.690   0.252
 3955SOL    HW123896   1.843   7.662   0.193
 3955SOL    HW223897   1.894   7.773   0.302
 3956SOL     OW23898   3.064   5.431   4.939
 3956SOL    HW123899   3.023   5.370   5.007
 3956SOL    HW223900   2.993   5.489   4.899
 3957SOL     OW23901   6.617  -0.027   0.529
 3957SOL    HW123902   6.531  -0.012   0.480
 3957SOL    HW223903   6.610   0.007   0.622
 3958SOL     OW23904   7.520   4.820   0.198
 3958SOL    HW123905   7.616   4.846   0.201
 3958SOL    HW223906   7.488   4.800   0.291
 3959SOL     OW23907   8.216   6.934   5.308
 3959SOL    HW123908   8.279   7.005   5.276
 3959SOL    HW223909   8.168   6.894   5.230
 3960SOL     OW23910   0.923   7.370   4.194
 3960SOL    HW123911   0.970   7.457   4.180
 3960SOL    HW223912   0.980   7.309   4.249
 3961SOL     OW23913   2.168   3.339   0.957
 3961SOL    HW123914   2.218   3.421   0.929
 3961SOL    HW223915   2.211   3.258   0.916
 3962SOL     OW23916   5.379   4.766   6.428
 3962SOL    HW123917   5.476   4.765   6.403
 3962SOL    HW223918   5.347   4.672   6.440
 3963SOL     OW23919   5.027   1.699   1.864
 3963SOL    HW123920   5.086   1.650   1.927
 3963SOL    HW223921   4.961   1.753   1.915
 3964SOL     OW23922   8.946   1.766   6.645
 3964SOL    HW123923   8.886   1.686   6.637
 3964SOL    HW223924   9.023   1.757   6.582
 3965SOL     OW23925   4.749   7.696   0.243
 3965SOL    HW123926   4.809   7.616   0.243
 3965SOL    HW223927   4.667   7.677   0.188
 3966SOL     OW23928   7.624   1.365   6.343
 3966SOL    HW123929   7.717   1.329   6.348
 3966SOL    HW223930   7.612   1.435   6.413
 3967SOL     OW23931   8.843   5.224   5.293
 3967SOL    HW123932   8.891   5.174   5.221
 3967SOL    HW223933   8.801   5.306   5.255
 3968SOL     OW23934   7.686   2.709   6.464
 3968SOL    HW123935   7.686   2.664   6.554
 3968SOL    HW223936   7.594   2.704   6.425
 3969SOL     OW23937   1.429   6.579   0.986
 3969SOL    HW123938   1.405   6.560   0.891
 3969SOL    HW223939   1.496   6.512   1.017
 3970SOL     OW23940   3.242   2.942   0.589
 3970SOL    HW123941   3.246   2.928   0.688
 3970SOL    HW223942   3.321   2.996   0.560
 3971SOL     OW23943   4.046   1.667   6.700
 3971SOL    HW123944   4.093   1.695   6.617
 3971SOL    HW223945   4.057   1.736   6.771
 3972SOL     OW23946   0.531   6.836   6.303
 3972SOL    HW123947   0.585   6.920   6.309
 3972SOL    HW223948   0.444   6.849   6.350
 3973SOL     OW23949   4.277   3.230   1.823
 3973SOL    HW123950   4.259   3.296   1.749
 3973SOL    HW223951   4.344   3.163   1.792
 3974SOL     OW23952   5.226   2.361   0.371
 3974SOL    HW123953   5.272   2.276   0.344
 3974SOL    HW223954   5.295   2.432   0.387
 3975SOL     OW23955   9.265   2.840   1.841
 3975SOL    HW123956   9.309   2.928   1.856
 3975SOL    HW223957   9.169   2.845   1.870
 3976SOL     OW23958   1.689   8.010   4.273
 3976SOL    HW123959   1.626   8.088   4.267
 3976SOL    HW223960   1.693   7.978   4.368
 3977SOL     OW23961   1.674   2.926   5.616
 3977SOL    HW123962   1.689   3.013   5.662
 3977SOL    HW223963   1.627   2.941   5.529
 3978SOL     OW23964   2.804   6.548   6.356
 3978SOL    HW123965   2.854   6.629   6.327
 3978SOL    HW223966   2.779   6.557   6.452
 3979SOL     OW23967   8.303   8.268   0.172
 3979SOL    HW123968   8.284   8.182   0.124
 3979SOL    HW223969   8.267   8.263   0.265
 3980SOL     OW23970   1.672   3.752   5.572
 3980SOL    HW123971   1.723   3.733   5.488
 3980SOL    HW223972   1.600   3.684   5.584
 3981SOL     OW23973   3.822   0.078   6.774
 3981SOL    HW123974   3.750   0.108   6.837
 3981SOL    HW223975   3.902   0.047   6.827
 3982SOL     OW23976   2.496   1.638   1.492
 3982SOL    HW123977   2.404   1.676   1.500
 3982SOL    HW223978   2.559   1.693   1.547
 3983SOL     OW23979   3.117   8.094   6.596
 3983SOL    HW123980   3.128   8.069   6.500
 3983SOL    HW223981   3.057   8.174   6.602
 3984SOL     OW23982   1.572   3.403   6.504
 3984SOL    HW123983   1.548   3.458   6.424
 3984SOL    HW223984   1.517   3.320   6.505
 3985SOL     OW23985   6.438   4.406   5.849
 3985SOL    HW123986   6.520   4.388   5.903
 3985SOL    HW223987   6.409   4.501   5.862
 3986SOL     OW23988   0.791   1.837   5.106
 3986SOL    HW123989   0.806   1.752   5.056
 3986SOL    HW223990   0.847   1.910   5.065
 3987SOL     OW23991   4.560   0.138   5.366
 3987SOL    HW123992   4.628   0.091   5.311
 3987SOL    HW223993   4.472   0.091   5.358
 3988SOL     OW23994   0.405   4.630   5.422
 3988SOL    HW123995   0.389   4.610   5.326
 3988SOL    HW223996   0.498   4.663   5.435
 3989SOL     OW23997   7.734   2.699   0.875
 3989SOL    HW123998   7.733   2.675   0.972
 3989SOL    HW223999   7.827   2.690   0.839
 3990SOL     OW24000   7.447   5.406   0.389
 3990SOL    HW124001   7.472   5.487   0.443
 3990SOL    HW224002   7.500   5.406   0.304
 3991SOL     OW24003   1.134   6.083   5.908
 3991SOL    HW124004   1.087   6.171   5.916
 3991SOL    HW224005   1.083   6.014   5.959
 3992SOL     OW24006   3.068   8.431   5.458
 3992SOL    HW124007   3.122   8.362   5.410
 3992SOL    HW224008   2.996   8.386   5.511
 3993SOL     OW24009   0.736   5.815   5.175
 3993SOL    HW124010   0.773   5.779   5.260
 3993SOL    HW224011   0.811   5.850   5.118
 3994SOL     OW24012   2.293   0.089   5.647
 3994SOL    HW124013   2.273   0.026   5.572
 3994SOL    HW224014   2.390   0.110   5.649
 3995SOL     OW24015   5.293   6.349   5.783
 3995SOL    HW124016   5.301   6.355   5.883
 3995SOL    HW224017   5.201   6.377   5.756
 3996SOL     OW24018   5.539   0.517   1.620
 3996SOL    HW124019   5.549   0.582   1.695
 3996SOL    HW224020   5.625   0.510   1.570
 3997SOL     OW24021   5.152   3.912   0.825
 3997SOL    HW124022   5.145   3.815   0.801
 3997SOL    HW224023   5.188   3.921   0.918
 3998SOL     OW24024   2.495   0.169   0.919
 3998SOL    HW124025   2.416   0.128   0.964
 3998SOL    HW224026   2.468   0.255   0.875
 3999SOL     OW24027   5.270   5.670   5.467
 3999SOL    HW124028   5.312   5.760   5.482
 3999SOL    HW224029   5.218   5.671   5.382
 4000SOL     OW24030   1.043   4.891   4.780
 4000SOL    HW124031   1.092   4.827   4.841
 4000SOL    HW224032   1.109   4.953   4.737
 4001SOL     OW24033   1.968   3.244   5.919
 4001SOL    HW124034   2.029   3.318   5.889
 4001SOL    HW224035   1.908   3.278   5.991
 4002SOL     OW24036   0.123   0.213   5.825
 4002SOL    HW124037   0.203   0.165   5.860
 4002SOL    HW224038   0.051   0.146   5.805
 4003SOL     OW24039   7.772   8.432   0.607
 4003SOL    HW124040   7.745   8.405   0.514
 4003SOL    HW224041   7.775   8.531   0.613
 4004SOL     OW24042   0.628   0.961   1.280
 4004SOL    HW124043   0.694   0.888   1.262
 4004SOL    HW224044   0.548   0.922   1.326
 4005SOL     OW24045   1.259   1.900   5.822
 4005SOL    HW124046   1.296   1.807   5.823
 4005SOL    HW224047   1.330   1.964   5.791
 4006SOL     OW24048   6.332   5.744   6.609
 4006SOL    HW124049   6.286   5.809   6.549
 4006SOL    HW224050   6.265   5.701   6.669
 4007SOL     OW24051   3.165   6.605   0.259
 4007SOL    HW124052   3.072   6.640   0.272
 4007SOL    HW224053   3.175   6.517   0.307
 4008SOL     OW24054   0.126   5.431   1.485
 4008SOL    HW124055   0.143   5.482   1.401
 4008SOL    HW224056   0.137   5.492   1.564
 4009SOL     OW24057   6.757   0.399   6.394
 4009SOL    HW124058   6.817   0.408   6.315
 4009SOL    HW224059   6.756   0.484   6.446
 4010SOL     OW24060   0.829   6.703   0.368
 4010SOL    HW124061   0.864   6.742   0.282
 4010SOL    HW224062   0.847   6.767   0.443
 4011SOL     OW24063   6.805   2.700   1.105
 4011SOL    HW124064   6.827   2.603   1.122
 4011SOL    HW224065   6.886   2.746   1.068
 4012SOL     OW24066   2.852   0.824   0.849
 4012SOL    HW124067   2.775   0.859   0.794
 4012SOL    HW224068   2.932   0.813   0.791
 4013SOL     OW24069   7.727   1.807   6.447
 4013SOL    HW124070   7.655   1.738   6.440
 4013SOL    HW224071   7.797   1.777   6.511
 4014SOL     OW24072   5.115   1.957   0.724
 4014SOL    HW124073   5.192   2.004   0.770
 4014SOL    HW224074   5.080   2.015   0.651
 4015SOL     OW24075   0.616   6.281   1.335
 4015SOL    HW124076   0.644   6.377   1.332
 4015SOL    HW224077   0.608   6.251   1.430
 4016SOL     OW24078   6.213   6.360   6.137
 4016SOL    HW124079   6.255   6.441   6.177
 4016SOL    HW224080   6.212   6.368   6.038
 4017SOL     OW24081   6.464   0.827   0.681
 4017SOL    HW124082   6.392   0.863   0.740
 4017SOL    HW224083   6.434   0.830   0.585
 4018SOL     OW24084   9.142   5.749   0.691
 4018SOL    HW124085   9.145   5.849   0.692
 4018SOL    HW224086   9.047   5.718   0.702
 4019SOL     OW24087   9.171   7.053   5.102
 4019SOL    HW124088   9.160   7.138   5.154
 4019SOL    HW224089   9.264   7.049   5.065
 4020SOL     OW24090   2.525   4.911   6.230
 4020SOL    HW124091   2.590   4.868   6.167
 4020SOL    HW224092   2.503   4.847   6.303
 4021SOL     OW24093   9.365   8.144   6.562
 4021SOL    HW124094   9.290   8.203   6.592
 4021SOL    HW224095   9.354   8.122   6.465
 4022SOL     OW24096   5.546   1.157   5.798
 4022SOL    HW124097   5.548   1.199   5.888
 4022SOL    HW224098   5.553   1.058   5.807
 4023SOL     OW24099   2.677   8.124   5.967
 4023SOL    HW124100   2.704   8.055   5.899
 4023SOL    HW224101   2.750   8.191   5.978
 4024SOL     OW24102   0.946   3.246   5.037
 4024SOL    HW124103   0.904   3.337   5.031
 4024SOL    HW224104   1.019   3.248   5.106
 4025SOL     OW24105   8.133   6.510   5.638
 4025SOL    HW124106   8.231   6.490   5.642
 4025SOL    HW224107   8.088   6.476   5.720
 4026SOL     OW24108   8.471   0.654   6.452
 4026SOL    HW124109   8.459   0.595   6.533
 4026SOL    HW224110   8.423   0.740   6.467
 4027SOL     OW24111   1.373   7.213   6.267
 4027SOL    HW124112   1.438   7.177   6.335
 4027SOL    HW224113   1.417   7.216   6.177
 4028SOL     OW24114   1.338   6.964   0.642
 4028SOL    HW124115   1.343   7.016   0.727
 4028SOL    HW224116   1.421   6.910   0.631
 4029SOL     OW24117   0.607   1.359   5.843
 4029SOL    HW124118   0.634   1.455   5.836
 4029SOL    HW224119   0.530   1.342   5.781
 4030SOL     OW24120   2.116   3.279   5.535
 4030SOL    HW124121   2.047   3.228   5.483
 4030SOL    HW224122   2.193   3.218   5.557
 4031SOL     OW24123   7.842   4.677   5.995
 4031SOL    HW124124   7.762   4.629   5.959
 4031SOL    HW224125   7.892   4.720   5.920
 4032SOL     OW24126   0.209   4.646   6.478
 4032SOL    HW124127   0.287   4.709   6.474
 4032SOL    HW224128   0.130   4.693   6.518
 4033SOL     OW24129   7.413   3.983   0.178
 4033SOL    HW124130   7.456   4.044   0.111
 4033SOL    HW224131   7.316   4.005   0.185
 4034SOL     OW24132   4.006   0.800   6.658
 4034SOL    HW124133   4.088   0.840   6.698
 4034SOL    HW224134   3.991   0.841   6.567
 4035SOL     OW24135   2.135   4.268   5.331
 4035SOL    HW124136   2.216   4.327   5.329
 4035SOL    HW224137   2.097   4.260   5.239
 4036SOL     OW24138   8.478   0.924   1.290
 4036SOL    HW124139   8.519   0.856   1.230
 4036SOL    HW224140   8.527   1.010   1.282
 4037SOL     OW24141   5.926   8.111   0.531
 4037SOL    HW124142   5.906   8.177   0.459
 4037SOL    HW224143   5.850   8.109   0.596
 4038SOL     OW24144   3.511   6.125   1.949
 4038SOL    HW124145   3.573   6.047   1.958
 4038SOL    HW224146   3.432   6.111   2.009
 4039SOL     OW24147   6.720   7.407   6.018
 4039SOL    HW124148   6.727   7.309   6.001
 4039SOL    HW224149   6.724   7.425   6.116
 4040SOL     OW24150   5.472   8.234   5.901
 4040SOL    HW124151   5.485   8.286   5.817
 4040SOL    HW224152   5.560   8.208   5.938
 4041SOL     OW24153   4.425   0.436   0.509
 4041SOL    HW124154   4.518   0.466   0.530
 4041SOL    HW224155   4.405   0.352   0.560
 4042SOL     OW24156   2.609   0.678   1.496
 4042SOL    HW124157   2.531   0.736   1.474
 4042SOL    HW224158   2.584   0.613   1.567
 4043SOL     OW24159   6.756   1.257   6.207
 4043SOL    HW124160   6.841   1.280   6.160
 4043SOL    HW224161   6.764   1.166   6.248
 4044SOL     OW24162   6.445   5.478   0.495
 4044SOL    HW124163   6.511   5.487   0.570
 4044SOL    HW224164   6.385   5.559   0.494
 4045SOL     OW24165   7.467   3.516   0.318
 4045SOL    HW124166   7.437   3.580   0.389
 4045SOL    HW224167   7.413   3.432   0.324
 4046SOL     OW24168   4.867   5.776   5.927
 4046SOL    HW124169   4.913   5.721   5.858
 4046SOL    HW224170   4.892   5.872   5.915
 4047SOL     OW24171   9.138   4.197   6.450
 4047SOL    HW124172   9.153   4.275   6.389
 4047SOL    HW224173   9.045   4.199   6.486
 4048SOL     OW24174   3.646   1.772   0.616
 4048SOL    HW124175   3.704   1.694   0.640
 4048SOL    HW224176   3.616   1.764   0.522
 4049SOL     OW24177   3.588   0.691   6.144
 4049SOL    HW124178   3.588   0.757   6.219
 4049SOL    HW224179   3.668   0.632   6.151
 4050SOL     OW24180   5.289   5.394   1.278
 4050SOL    HW124181   5.341   5.311   1.299
 4050SOL    HW224182   5.345   5.474   1.299
 4051SOL     OW24183   2.858   4.062   5.383
 4051SOL    HW124184   2.881   3.965   5.373
 4051SOL    HW224185   2.771   4.071   5.430
 4052SOL     OW24186   0.937   5.133   6.002
 4052SOL    HW124187   0.892   5.094   6.082
 4052SOL    HW224188   0.877   5.204   5.962
 4053SOL     OW24189   0.924   0.293   6.816
 4053SOL    HW124190   0.851   0.261   6.756
 4053SOL    HW224191   0.892   0.290   6.911
 4054SOL     OW24192   8.161   3.567   1.206
 4054SOL    HW124193   8.231   3.553   1.276
 4054SOL    HW224194   8.107   3.483   1.196
 4055SOL     OW24195   8.438   7.587   6.589
 4055SOL    HW124196   8.342   7.607   6.572
 4055SOL    HW224197   8.447   7.528   6.669
 4056SOL     OW24198   9.543   7.351   0.840
 4056SOL    HW124199   9.508   7.266   0.880
 4056SOL    HW224200   9.642   7.357   0.856
 4057SOL     OW24201   1.919   2.541   0.204
 4057SOL    HW124202   1.945   2.466   0.142
 4057SOL    HW224203   1.829   2.575   0.178
 4058SOL     OW24204   5.059   6.428   5.673
 4058SOL    HW124205   4.979   6.393   5.721
 4058SOL    HW224206   5.042   6.427   5.575
 4059SOL     OW24207   5.344   6.096   6.015
 4059SOL    HW124208   5.348   6.053   5.925
 4059SOL    HW224209   5.335   6.026   6.086
 4060SOL     OW24210   0.678  -0.013   1.870
 4060SOL    HW124211   0.764  -0.056   1.899
 4060SOL    HW224212   0.685   0.086   1.883
 4061SOL     OW24213   6.119   0.723   6.771
 4061SOL    HW124214   6.119   0.628   6.801
 4061SOL    HW224215   6.118   0.727   6.672
 4062SOL     OW24216   6.136   3.891   0.860
 4062SOL    HW124217   6.177   3.814   0.810
 4062SOL    HW224218   6.087   3.950   0.796
 4063SOL     OW24219   3.938   7.779   6.404
 4063SOL    HW124220   4.019   7.744   6.358
 4063SOL    HW224221   3.938   7.748   6.499
 4064SOL     OW24222   6.268   7.949   0.788
 4064SOL    HW124223   6.315   7.884   0.847
 4064SOL    HW224224   6.263   7.913   0.695
 4065SOL     OW24225   5.780   4.810   0.877
 4065SOL    HW124226   5.722   4.735   0.907
 4065SOL    HW224227   5.788   4.807   0.777
 4066SOL     OW24228   1.943   1.538   0.574
 4066SOL    HW124229   1.910   1.447   0.552
 4066SOL    HW224230   1.873   1.586   0.628
 4067SOL     OW24231   8.720   5.080   6.608
 4067SOL    HW124232   8.781   5.154   6.583
 4067SOL    HW224233   8.711   5.075   6.707
 4068SOL     OW24234   9.162   3.488   5.414
 4068SOL    HW124235   9.078   3.453   5.372
 4068SOL    HW224236   9.235   3.490   5.346
 4069SOL     OW24237   4.499   6.310   5.474
 4069SOL    HW124238   4.423   6.253   5.446
 4069SOL    HW224239   4.581   6.285   5.422
 4070SOL     OW24240   7.366   3.876   1.426
 4070SOL    HW124241   7.359   3.893   1.524
 4070SOL    HW224242   7.342   3.959   1.376
 4071SOL     OW24243   6.635   0.028   6.368
 4071SOL    HW124244   6.706   0.086   6.328
 4071SOL    HW224245   6.672  -0.065   6.379
 4072SOL     OW24246   2.229   7.087   6.729
 4072SOL    HW124247   2.175   7.052   6.806
 4072SOL    HW224248   2.267   7.176   6.752
 4073SOL     OW24249   8.190   5.435   6.811
 4073SOL    HW124250   8.184   5.421   6.712
 4073SOL    HW224251   8.166   5.529   6.833
 4074SOL     OW24252   5.723   0.662   5.771
 4074SOL    HW124253   5.712   0.616   5.859
 4074SOL    HW224254   5.753   0.595   5.702
 4075SOL     OW24255   8.666   2.926   0.693
 4075SOL    HW124256   8.581   2.978   0.704
 4075SOL    HW224257   8.716   2.960   0.614
 4076SOL     OW24258   6.141   0.687   0.387
 4076SOL    HW124259   6.147   0.787   0.378
 4076SOL    HW224260   6.224   0.645   0.352
 4077SOL     OW24261   8.796   0.819   0.560
 4077SOL    HW124262   8.718   0.845   0.616
 4077SOL    HW224263   8.765   0.800   0.466
 4078SOL     OW24264   0.183   0.600   1.025
 4078SOL    HW124265   0.281   0.620   1.028
 4078SOL    HW224266   0.157   0.552   1.109
 4079SOL     OW24267   3.505   1.073   2.074
 4079SOL    HW124268   3.526   1.011   2.150
 4079SOL    HW224269   3.590   1.098   2.028
 4080SOL     OW24270   7.451   1.192   6.500
 4080SOL    HW124271   7.485   1.241   6.421
 4080SOL    HW224272   7.375   1.132   6.472
 4081SOL     OW24273   6.588   2.316   6.233
 4081SOL    HW124274   6.666   2.378   6.238
 4081SOL    HW224275   6.564   2.300   6.137
 4082SOL     OW24276   5.450   0.906   6.146
 4082SOL    HW124277   5.390   0.966   6.094
 4082SOL    HW224278   5.535   0.953   6.167
 4083SOL     OW24279   2.430   7.432   1.698
 4083SOL    HW124280   2.502   7.452   1.764
 4083SOL    HW224281   2.359   7.377   1.741
 4084SOL     OW24282   9.230   2.451   5.731
 4084SOL    HW124283   9.324   2.482   5.719
 4084SOL    HW224284   9.182   2.457   5.643
 4085SOL     OW24285   3.783   2.534   0.189
 4085SOL    HW124286   3.755   2.439   0.204
 4085SOL    HW224287   3.725   2.595   0.243
 4086SOL     OW24288   8.149   3.863   0.989
 4086SOL    HW124289   8.092   3.782   0.979
 4086SOL    HW224290   8.179   3.871   1.084
 4087SOL     OW24291   8.905   3.750   6.435
 4087SOL    HW124292   8.963   3.767   6.514
 4087SOL    HW224293   8.915   3.825   6.370
 4088SOL     OW24294   8.851   7.150   4.921
 4088SOL    HW124295   8.891   7.107   4.841
 4088SOL    HW224296   8.890   7.241   4.934
 4089SOL     OW24297   3.137   3.410   0.212
 4089SOL    HW124298   3.229   3.445   0.230
 4089SOL    HW224299   3.117   3.420   0.114
 4090SOL     OW24300   5.877   5.949   5.335
 4090SOL    HW124301   5.791   5.923   5.380
 4090SOL    HW224302   5.857   5.999   5.251
 4091SOL     OW24303   8.484   4.392   0.827
 4091SOL    HW124304   8.490   4.316   0.762
 4091SOL    HW224305   8.575   4.427   0.846
 4092SOL     OW24306   0.524   3.012   5.759
 4092SOL    HW124307   0.472   3.072   5.698
 4092SOL    HW224308   0.511   3.041   5.853
 4093SOL     OW24309   1.132   0.879   6.736
 4093SOL    HW124310   1.158   0.783   6.722
 4093SOL    HW224311   1.055   0.883   6.799
 4094SOL     OW24312   2.033   6.383   6.103
 4094SOL    HW124313   1.977   6.464   6.083
 4094SOL    HW224314   2.089   6.361   6.023
 4095SOL     OW24315   4.885   0.428   4.866
 4095SOL    HW124316   4.952   0.387   4.804
 4095SOL    HW224317   4.896   0.528   4.864
 4096SOL     OW24318   5.813   4.723   1.199
 4096SOL    HW124319   5.740   4.727   1.267
 4096SOL    HW224320   5.773   4.715   1.108
 4097SOL     OW24321   8.883   1.920   0.794
 4097SOL    HW124322   8.902   1.934   0.697
 4097SOL    HW224323   8.838   2.002   0.831
 4098SOL     OW24324   3.856   7.661   0.832
 4098SOL    HW124325   3.790   7.591   0.801
 4098SOL    HW224326   3.814   7.715   0.905
 4099SOL     OW24327   8.764   4.417   0.794
 4099SOL    HW124328   8.845   4.402   0.737
 4099SOL    HW224329   8.745   4.335   0.848
 4100SOL     OW24330   7.459   2.464   0.530
 4100SOL    HW124331   7.513   2.503   0.455
 4100SOL    HW224332   7.461   2.526   0.608
 4101SOL     OW24333   6.713   4.719   0.913
 4101SOL    HW124334   6.743   4.641   0.968
 4101SOL    HW224335   6.766   4.722   0.828
 4102SOL     OW24336   6.245   0.728   0.914
 4102SOL    HW124337   6.195   0.707   0.830
 4102SOL    HW224338   6.269   0.825   0.916
 4103SOL     OW24339   0.954   1.661   1.112
 4103SOL    HW124340   0.858   1.689   1.114
 4103SOL    HW224341   0.980   1.636   1.019
 4104SOL     OW24342   2.074   2.263   5.775
 4104SOL    HW124343   2.033   2.205   5.845
 4104SOL    HW224344   2.088   2.355   5.812
 4105SOL     OW24345   1.742   3.249   6.071
 4105SOL    HW124346   1.752   3.248   6.170
 4105SOL    HW224347   1.673   3.317   6.045
 4106SOL     OW24348   5.540   6.466   5.355
 4106SOL    HW124349   5.612   6.406   5.320
 4106SOL    HW224350   5.468   6.476   5.286
 4107SOL     OW24351   5.139   0.128   5.101
 4107SOL    HW124352   5.230   0.116   5.060
 4107SOL    HW224353   5.072   0.075   5.050
 4108SOL     OW24354   1.666   0.092   5.920
 4108SOL    HW124355   1.712   0.141   5.846
 4108SOL    HW224356   1.726   0.085   5.999
 4109SOL     OW24357   1.785   7.480   5.484
 4109SOL    HW124358   1.803   7.577   5.500
 4109SOL    HW224359   1.706   7.470   5.424
 4110SOL     OW24360   3.555   2.959   5.429
 4110SOL    HW124361   3.597   3.002   5.508
 4110SOL    HW224362   3.455   2.966   5.436
 4111SOL     OW24363   2.921   2.264   6.183
 4111SOL    HW124364   2.898   2.167   6.194
 4111SOL    HW224365   2.852   2.320   6.228
 4112SOL     OW24366   0.764   8.122   6.176
 4112SOL    HW124367   0.848   8.083   6.216
 4112SOL    HW224368   0.754   8.089   6.082
 4113SOL     OW24369   3.850   5.138   0.964
 4113SOL    HW124370   3.861   5.042   0.939
 4113SOL    HW224371   3.754   5.163   0.962
 4114SOL     OW24372   7.401   6.704   1.277
 4114SOL    HW124373   7.389   6.725   1.374
 4114SOL    HW224374   7.470   6.633   1.266
 4115SOL     OW24375   7.532   1.298   5.691
 4115SOL    HW124376   7.440   1.270   5.664
 4115SOL    HW224377   7.533   1.396   5.709
 4116SOL     OW24378   5.629   4.818   6.334
 4116SOL    HW124379   5.716   4.861   6.357
 4116SOL    HW224380   5.602   4.845   6.242
 4117SOL     OW24381   3.090   0.040   5.983
 4117SOL    HW124382   3.122   0.030   5.888
 4117SOL    HW224383   3.015   0.105   5.986
 4118SOL     OW24384   3.238   5.215   0.644
 4118SOL    HW124385   3.263   5.293   0.701
 4118SOL    HW224386   3.238   5.131   0.698
 4119SOL     OW24387   8.360   6.881   4.771
 4119SOL    HW124388   8.294   6.955   4.762
 4119SOL    HW224389   8.322   6.797   4.733
 4120SOL     OW24390   0.794   8.138   4.688
 4120SOL    HW124391   0.738   8.056   4.678
 4120SOL    HW224392   0.749   8.214   4.641
 4121SOL     OW24393   0.668   5.038   6.579
 4121SOL    HW124394   0.585   5.092   6.572
 4121SOL    HW224395   0.745   5.097   6.605
 4122SOL     OW24396   4.593   6.877   5.891
 4122SOL    HW124397   4.518   6.834   5.841
 4122SOL    HW224398   4.561   6.964   5.930
 4123SOL     OW24399   1.942   5.996   5.965
 4123SOL    HW124400   1.929   6.081   5.914
 4123SOL    HW224401   1.852   5.961   5.995
 4124SOL     OW24402   3.055   3.968   5.644
 4124SOL    HW124403   3.050   3.982   5.743
 4124SOL    HW224404   3.100   4.046   5.602
 4125SOL     OW24405   8.700   6.836   5.248
 4125SOL    HW124406   8.792   6.799   5.234
 4125SOL    HW224407   8.675   6.894   5.171
 4126SOL     OW24408   4.106   0.160   4.902
 4126SOL    HW124409   4.026   0.174   4.844
 4126SOL    HW224410   4.185   0.137   4.845
 4127SOL     OW24411   5.332   6.129   0.882
 4127SOL    HW124412   5.253   6.186   0.904
 4127SOL    HW224413   5.411   6.159   0.936
 4128SOL     OW24414   6.263   5.689   1.730
 4128SOL    HW124415   6.283   5.787   1.731
 4128SOL    HW224416   6.221   5.662   1.816
 4129SOL     OW24417   2.747   5.187   6.649
 4129SOL    HW124418   2.706   5.243   6.577
 4129SOL    HW224419   2.838   5.224   6.671
 4130SOL     OW24420   3.623   5.180   1.704
 4130SOL    HW124421   3.529   5.182   1.739
 4130SOL    HW224422   3.681   5.127   1.765
 4131SOL     OW24423   1.038   2.857   6.544
 4131SOL    HW124424   0.939   2.844   6.553
 4131SOL    HW224425   1.079   2.772   6.511
 4132SOL     OW24426   2.487   0.578   6.785
 4132SOL    HW124427   2.397   0.612   6.811
 4132SOL    HW224428   2.546   0.576   6.866
 4133SOL     OW24429   4.345   4.426   0.394
 4133SOL    HW124430   4.321   4.503   0.334
 4133SOL    HW224431   4.367   4.346   0.338
 4134SOL     OW24432   3.007   2.573   1.182
 4134SOL    HW124433   2.922   2.576   1.235
 4134SOL    HW224434   3.063   2.653   1.205
 4135SOL     OW24435   8.280   8.007   0.984
 4135SOL    HW124436   8.325   8.023   1.072
 4135SOL    HW224437   8.193   7.959   0.998
 4136SOL     OW24438   6.684   2.058   5.511
 4136SOL    HW124439   6.764   2.087   5.458
 4136SOL    HW224440   6.656   1.967   5.481
 4137SOL     OW24441   8.257   7.185   0.139
 4137SOL    HW124442   8.315   7.266   0.129
 4137SOL    HW224443   8.279   7.139   0.225
 4138SOL     OW24444   5.791   0.370   6.306
 4138SOL    HW124445   5.788   0.435   6.381
 4138SOL    HW224446   5.749   0.284   6.335
 4139SOL     OW24447   1.638   6.576   5.939
 4139SOL    HW124448   1.705   6.504   5.957
 4139SOL    HW224449   1.577   6.585   6.017
 4140SOL     OW24450   6.084   8.094   6.271
 4140SOL    HW124451   6.035   8.146   6.201
 4140SOL    HW224452   6.091   8.150   6.354
 4141SOL     OW24453   7.755   2.718   0.567
 4141SOL    HW124454   7.799   2.807   0.552
 4141SOL    HW224455   7.746   2.702   0.665
 4142SOL     OW24456   1.430   7.982   0.942
 4142SOL    HW124457   1.380   7.902   0.976
 4142SOL    HW224458   1.480   8.025   1.017
 4143SOL     OW24459   7.388   6.470   5.728
 4143SOL    HW124460   7.427   6.562   5.742
 4143SOL    HW224461   7.322   6.451   5.800
 4144SOL     OW24462   4.149   6.392   5.427
 4144SOL    HW124463   4.128   6.405   5.330
 4144SOL    HW224464   4.207   6.311   5.437
 4145SOL     OW24465   6.466   7.062   0.486
 4145SOL    HW124466   6.514   7.118   0.554
 4145SOL    HW224467   6.532   7.030   0.418
 4146SOL     OW24468   1.460   5.369   5.542
 4146SOL    HW124469   1.439   5.389   5.638
 4146SOL    HW224470   1.461   5.455   5.490
 4147SOL     OW24471   2.658   7.330   0.253
 4147SOL    HW124472   2.694   7.361   0.340
 4147SOL    HW224473   2.695   7.240   0.232
 4148SOL     OW24474   2.864   7.158   2.173
 4148SOL    HW124475   2.846   7.206   2.259
 4148SOL    HW224476   2.835   7.215   2.096
 4149SOL     OW24477   5.960   0.792   6.302
 4149SOL    HW124478   5.977   0.886   6.333
 4149SOL    HW224479   6.002   0.778   6.213
 4150SOL     OW24480   5.187   0.009   5.365
 4150SOL    HW124481   5.275   0.055   5.356
 4150SOL    HW224482   5.118   0.058   5.311
 4151SOL     OW24483   1.414   4.731   5.629
 4151SOL    HW124484   1.476   4.738   5.707
 4151SOL    HW224485   1.422   4.640   5.588
 4152SOL     OW24486   1.759   5.886   5.042
 4152SOL    HW124487   1.745   5.788   5.033
 4152SOL    HW224488   1.809   5.920   4.963
 4153SOL     OW24489   8.468   8.226   5.622
 4153SOL    HW124490   8.522   8.228   5.706
 4153SOL    HW224491   8.513   8.283   5.553
 4154SOL     OW24492   4.437   8.285   5.834
 4154SOL    HW124493   4.363   8.272   5.767
 4154SOL    HW224494   4.492   8.365   5.808
 4155SOL     OW24495   7.249   4.725   5.079
 4155SOL    HW124496   7.319   4.668   5.121
 4155SOL    HW224497   7.192   4.669   5.018
 4156SOL     OW24498   8.268   4.532   6.478
 4156SOL    HW124499   8.290   4.438   6.454
 4156SOL    HW224500   8.205   4.533   6.556
 4157SOL     OW24501   4.558   5.365   6.699
 4157SOL    HW124502   4.589   5.299   6.768
 4157SOL    HW224503   4.627   5.371   6.626
 4158SOL     OW24504   2.422   2.182   0.720
 4158SOL    HW124505   2.488   2.108   0.728
 4158SOL    HW224506   2.333   2.150   0.753
 4159SOL     OW24507   2.033   1.503   5.892
 4159SOL    HW124508   1.966   1.431   5.910
 4159SOL    HW224509   2.123   1.462   5.882
 4160SOL     OW24510   5.657   6.248   6.172
 4160SOL    HW124511   5.621   6.331   6.129
 4160SOL    HW224512   5.750   6.231   6.141
 4161SOL     OW24513   7.382   8.192   4.969
 4161SOL    HW124514   7.431   8.105   4.979
 4161SOL    HW224515   7.291   8.184   5.010
 4162SOL     OW24516   2.414   8.398   0.198
 4162SOL    HW124517   2.341   8.404   0.130
 4162SOL    HW224518   2.376   8.414   0.289
 4163SOL     OW24519   8.273   1.176   6.496
 4163SOL    HW124520   8.270   1.133   6.587
 4163SOL    HW224521   8.194   1.145   6.443
 4164SOL     OW24522   0.870   0.450   5.384
 4164SOL    HW124523   0.776   0.434   5.356
 4164SOL    HW224524   0.877   0.541   5.427
 4165SOL     OW24525   4.429   4.455   6.328
 4165SOL    HW124526   4.374   4.446   6.245
 4165SOL    HW224527   4.372   4.493   6.401
 4166SOL     OW24528   2.658   3.025   5.989
 4166SOL    HW124529   2.682   2.938   6.033
 4166SOL    HW224530   2.563   3.022   5.958
 4167SOL     OW24531   3.686   3.059   1.739
 4167SOL    HW124532   3.745   2.994   1.692
 4167SOL    HW224533   3.664   3.025   1.830
 4168SOL     OW24534   4.942   2.082   6.050
 4168SOL    HW124535   4.996   2.163   6.073
 4168SOL    HW224536   4.922   2.030   6.134
 4169SOL     OW24537   8.768   3.940   6.104
 4169SOL    HW124538   8.778   3.872   6.031
 4169SOL    HW224539   8.679   3.930   6.147
 4170SOL     OW24540   1.939   6.206   5.777
 4170SOL    HW124541   1.891   6.266   5.713
 4170SOL    HW224542   2.031   6.188   5.742
 4171SOL     OW24543   6.198   6.297   0.943
 4171SOL    HW124544   6.129   6.341   0.886
 4171SOL    HW224545   6.171   6.203   0.962
 4172SOL     OW24546   8.002   2.404   2.115
 4172SOL    HW124547   7.937   2.413   2.190
 4172SOL    HW224548   8.095   2.413   2.150
 4173SOL     OW24549   3.203   2.870   0.882
 4173SOL    HW124550   3.124   2.931   0.878
 4173SOL    HW224551   3.200   2.816   0.966
 4174SOL     OW24552   6.217   6.359   5.849
 4174SOL    HW124553   6.277   6.374   5.770
 4174SOL    HW224554   6.161   6.277   5.834
 4175SOL     OW24555   4.408   5.410   0.859
 4175SOL    HW124556   4.318   5.415   0.902
 4175SOL    HW224557   4.401   5.362   0.771
 4176SOL     OW24558   1.968   5.205   5.705
 4176SOL    HW124559   1.925   5.229   5.619
 4176SOL    HW224560   1.998   5.109   5.703
 4177SOL     OW24561   0.856   5.676   0.829
 4177SOL    HW124562   0.929   5.629   0.879
 4177SOL    HW224563   0.781   5.697   0.891
 4178SOL     OW24564   8.569   5.936   5.599
 4178SOL    HW124565   8.473   5.934   5.625
 4178SOL    HW224566   8.589   5.859   5.538
 4179SOL     OW24567   2.693   1.193   0.393
 4179SOL    HW124568   2.614   1.245   0.424
 4179SOL    HW224569   2.772   1.215   0.450
 4180SOL     OW24570   8.910   2.696   5.194
 4180SOL    HW124571   9.005   2.683   5.221
 4180SOL    HW224572   8.874   2.612   5.155
 4181SOL     OW24573   5.500   8.377   5.663
 4181SOL    HW124574   5.401   8.383   5.651
 4181SOL    HW224575   5.545   8.450   5.612
 4182SOL     OW24576   0.306   3.647   0.574
 4182SOL    HW124577   0.221   3.700   0.576
 4182SOL    HW224578   0.320   3.604   0.663
 4183SOL     OW24579   1.583   6.712   5.328
 4183SOL    HW124580   1.613   6.623   5.362
 4183SOL    HW224581   1.639   6.738   5.249
 4184SOL     OW24582   2.421   4.381   1.624
 4184SOL    HW124583   2.442   4.461   1.568
 4184SOL    HW224584   2.492   4.311   1.611
 4185SOL     OW24585   5.487   3.185   6.504
 4185SOL    HW124586   5.464   3.251   6.433
 4185SOL    HW224587   5.403   3.142   6.537
 4186SOL     OW24588   1.040   4.644   5.933
 4186SOL    HW124589   1.049   4.586   5.852
 4186SOL    HW224590   1.124   4.698   5.945
 4187SOL     OW24591   4.366   2.119   5.363
 4187SOL    HW124592   4.451   2.133   5.312
 4187SOL    HW224593   4.386   2.112   5.460
 4188SOL     OW24594   5.006   2.996   6.352
 4188SOL    HW124595   5.079   2.953   6.300
 4188SOL    HW224596   5.035   3.087   6.382
 4189SOL     OW24597   2.433   2.048   1.051
 4189SOL    HW124598   2.519   2.050   1.101
 4189SOL    HW224599   2.415   2.138   1.011
 4190SOL     OW24600   4.304   7.613   0.630
 4190SOL    HW124601   4.318   7.537   0.694
 4190SOL    HW224602   4.381   7.676   0.637
 4191SOL     OW24603   7.572   0.714   5.691
 4191SOL    HW124604   7.509   0.761   5.629
 4191SOL    HW224605   7.665   0.748   5.675
 4192SOL     OW24606   8.499   0.234   6.631
 4192SOL    HW124607   8.400   0.249   6.621
 4192SOL    HW224608   8.515   0.147   6.677
 4193SOL     OW24609   3.131   4.790   6.026
 4193SOL    HW124610   3.080   4.857   6.081
 4193SOL    HW224611   3.072   4.758   5.951
 4194SOL     OW24612   4.935   2.157   5.778
 4194SOL    HW124613   4.951   2.111   5.866
 4194SOL    HW224614   4.979   2.247   5.780
 4195SOL     OW24615   2.175   5.869   1.129
 4195SOL    HW124616   2.115   5.792   1.106
 4195SOL    HW224617   2.256   5.835   1.176
 4196SOL     OW24618   2.336   0.439   1.252
 4196SOL    HW124619   2.318   0.466   1.347
 4196SOL    HW224620   2.341   0.521   1.195
 4197SOL     OW24621   3.504   3.247   1.366
 4197SOL    HW124622   3.546   3.241   1.457
 4197SOL    HW224623   3.522   3.163   1.316
 4198SOL     OW24624   4.936   7.630   6.071
 4198SOL    HW124625   4.973   7.714   6.112
 4198SOL    HW224626   4.989   7.552   6.103
 4199SOL     OW24627   5.611   8.360   1.845
 4199SOL    HW124628   5.587   8.370   1.749
 4199SOL    HW224629   5.531   8.379   1.902
 4200SOL     OW24630   3.289   6.721   4.957
 4200SOL    HW124631   3.336   6.717   5.045
 4200SOL    HW224632   3.316   6.804   4.909
 4201SOL     OW24633   3.883   0.885   0.327
 4201SOL    HW124634   3.836   0.854   0.245
 4201SOL    HW224635   3.883   0.985   0.329
 4202SOL     OW24636   2.235   8.041   5.823
 4202SOL    HW124637   2.304   8.112   5.838
 4202SOL    HW224638   2.144   8.083   5.823
 4203SOL     OW24639   1.710   2.655   0.397
 4203SOL    HW124640   1.746   2.745   0.421
 4203SOL    HW224641   1.773   2.585   0.429
 4204SOL     OW24642   2.306   7.475   1.124
 4204SOL    HW124643   2.234   7.409   1.103
 4204SOL    HW224644   2.334   7.523   1.041
 4205SOL     OW24645   4.682   3.758   1.214
 4205SOL    HW124646   4.641   3.708   1.290
 4205SOL    HW224647   4.689   3.698   1.135
 4206SOL     OW24648   5.878   4.609   6.375
 4206SOL    HW124649   5.976   4.593   6.362
 4206SOL    HW224650   5.864   4.686   6.436
 4207SOL     OW24651   3.841   5.513   1.642
 4207SOL    HW124652   3.772   5.575   1.603
 4207SOL    HW224653   3.814   5.487   1.734
 4208SOL     OW24654   1.875   8.337   6.553
 4208SOL    HW124655   1.931   8.372   6.478
 4208SOL    HW224656   1.882   8.398   6.631
 4209SOL     OW24657   3.781  -0.006   1.742
 4209SOL    HW124658   3.799   0.006   1.644
 4209SOL    HW224659   3.786  -0.103   1.765
 4210SOL     OW24660   4.751   5.554   6.816
 4210SOL    HW124661   4.840   5.509   6.826
 4210SOL    HW224662   4.685   5.488   6.779
 4211SOL     OW24663   6.938   0.835   6.534
 4211SOL    HW124664   6.846   0.870   6.517
 4211SOL    HW224665   6.933   0.757   6.596
 4212SOL     OW24666   8.554   7.070   5.738
 4212SOL    HW124667   8.505   7.143   5.690
 4212SOL    HW224668   8.590   7.005   5.672
 4213SOL     OW24669   7.192   3.927   0.458
 4213SOL    HW124670   7.165   3.837   0.493
 4213SOL    HW224671   7.177   3.931   0.360
 4214SOL     OW24672   4.312   4.850   6.728
 4214SOL    HW124673   4.269   4.811   6.810
 4214SOL    HW224674   4.260   4.823   6.647
 4215SOL     OW24675   0.370   3.256   5.987
 4215SOL    HW124676   0.345   3.316   6.063
 4215SOL    HW224677   0.450   3.292   5.940
 4216SOL     OW24678   2.534   0.269   5.808
 4216SOL    HW124679   2.632   0.275   5.829
 4216SOL    HW224680   2.487   0.220   5.882
 4217SOL     OW24681   7.529   6.613   0.468
 4217SOL    HW124682   7.466   6.655   0.532
 4217SOL    HW224683   7.602   6.566   0.518
 4218SOL     OW24684   5.481   5.266   0.753
 4218SOL    HW124685   5.461   5.322   0.673
 4218SOL    HW224686   5.417   5.189   0.758
 4219SOL     OW24687   8.388   0.837   5.199
 4219SOL    HW124688   8.405   0.872   5.107
 4219SOL    HW224689   8.297   0.796   5.203
 4220SOL     OW24690   3.405   4.774   0.933
 4220SOL    HW124691   3.465   4.766   0.854
 4220SOL    HW224692   3.459   4.791   1.015
 4221SOL     OW24693   8.725   5.743   0.645
 4221SOL    HW124694   8.766   5.683   0.714
 4221SOL    HW224695   8.626   5.745   0.656
 4222SOL     OW24696   0.982   4.433   6.811
 4222SOL    HW124697   0.954   4.364   6.878
 4222SOL    HW224698   0.973   4.524   6.851
 4223SOL     OW24699   8.447   7.472   5.271
 4223SOL    HW124700   8.544   7.456   5.258
 4223SOL    HW224701   8.416   7.542   5.207
 4224SOL     OW24702   3.378   1.727   0.781
 4224SOL    HW124703   3.474   1.735   0.755
 4224SOL    HW224704   3.348   1.633   0.768
 4225SOL     OW24705   8.663   6.653   5.588
 4225SOL    HW124706   8.652   6.746   5.551
 4225SOL    HW224707   8.754   6.644   5.628
 4226SOL     OW24708   8.022   0.736   0.320
 4226SOL    HW124709   7.967   0.768   0.397
 4226SOL    HW224710   7.982   0.769   0.235
 4227SOL     OW24711   2.372   1.138   6.044
 4227SOL    HW124712   2.458   1.149   5.995
 4227SOL    HW224713   2.390   1.099   6.134
 4228SOL     OW24714   5.327   5.875   0.775
 4228SOL    HW124715   5.378   5.831   0.701
 4228SOL    HW224716   5.332   5.974   0.764
 4229SOL     OW24717   7.637   2.770   1.305
 4229SOL    HW124718   7.688   2.854   1.323
 4229SOL    HW224719   7.607   2.729   1.391
 4230SOL     OW24720   5.339   5.063   6.685
 4230SOL    HW124721   5.429   5.045   6.644
 4230SOL    HW224722   5.293   4.976   6.703
 4231SOL     OW24723   0.586   4.333   6.307
 4231SOL    HW124724   0.680   4.360   6.330
 4231SOL    HW224725   0.556   4.260   6.369
 4232SOL     OW24726   5.861   1.018   6.676
 4232SOL    HW124727   5.959   1.002   6.691
 4232SOL    HW224728   5.842   1.116   6.681
 4233SOL     OW24729   3.242   1.457   5.298
 4233SOL    HW124730   3.296   1.422   5.222
 4233SOL    HW224731   3.259   1.555   5.309
 4234SOL     OW24732   2.757   2.806   0.439
 4234SOL    HW124733   2.745   2.831   0.343
 4234SOL    HW224734   2.854   2.816   0.464
 4235SOL     OW24735   2.606   2.381   1.827
 4235SOL    HW124736   2.696   2.398   1.867
 4235SOL    HW224737   2.547   2.461   1.842
 4236SOL     OW24738   6.905   5.137   6.196
 4236SOL    HW124739   6.890   5.230   6.163
 4236SOL    HW224740   6.997   5.128   6.233
 4237SOL     OW24741   1.322   8.187   6.381
 4237SOL    HW124742   1.244   8.215   6.436
 4237SOL    HW224743   1.336   8.088   6.389
 4238SOL     OW24744   4.901   4.823   6.533
 4238SOL    HW124745   4.905   4.805   6.632
 4238SOL    HW224746   4.938   4.914   6.515
 4239SOL     OW24747   7.392   1.982   6.505
 4239SOL    HW124748   7.303   2.015   6.534
 4239SOL    HW224749   7.427   2.041   6.432
 4240SOL     OW24750   9.578   2.423   0.551
 4240SOL    HW124751   9.496   2.467   0.515
 4240SOL    HW224752   9.560   2.388   0.643
 4241SOL     OW24753   1.294   1.465   5.480
 4241SOL    HW124754   1.235   1.420   5.414
 4241SOL    HW224755   1.263   1.443   5.573
 4242SOL     OW24756   3.917   0.259   1.393
 4242SOL    HW124757   3.882   0.325   1.459
 4242SOL    HW224758   3.862   0.175   1.396
 4243SOL     OW24759   9.110   5.163   0.603
 4243SOL    HW124760   9.015   5.140   0.586
 4243SOL    HW224761   9.145   5.105   0.677
 4244SOL     OW24762   7.946   1.561   1.068
 4244SOL    HW124763   7.948   1.548   0.969
 4244SOL    HW224764   7.904   1.480   1.111
 4245SOL     OW24765   3.273   5.849   0.914
 4245SOL    HW124766   3.302   5.938   0.878
 4245SOL    HW224767   3.178   5.832   0.887
 4246SOL     OW24768   8.646   7.408   5.945
 4246SOL    HW124769   8.684   7.365   5.863
 4246SOL    HW224770   8.709   7.395   6.022
 4247SOL     OW24771   4.486   1.135   2.157
 4247SOL    HW124772   4.535   1.132   2.245
 4247SOL    HW224773   4.418   1.062   2.155
 4248SOL     OW24774   5.296   3.203   6.803
 4248SOL    HW124775   5.304   3.144   6.723
 4248SOL    HW224776   5.387   3.229   6.835
 4249SOL     OW24777   4.517   5.627   6.335
 4249SOL    HW124778   4.429   5.597   6.298
 4249SOL    HW224779   4.581   5.643   6.259
 4250SOL     OW24780   1.895   2.214   1.723
 4250SOL    HW124781   1.798   2.206   1.701
 4250SOL    HW224782   1.906   2.216   1.822
 4251SOL     OW24783   8.158   7.556   5.617
 4251SOL    HW124784   8.179   7.461   5.642
 4251SOL    HW224785   8.207   7.580   5.532
 4252SOL     OW24786   4.646   0.263   0.817
 4252SOL    HW124787   4.558   0.220   0.835
 4252SOL    HW224788   4.701   0.205   0.758
 4253SOL     OW24789   1.468   0.668   6.544
 4253SOL    HW124790   1.486   0.588   6.486
 4253SOL    HW224791   1.371   0.671   6.567
 4254SOL     OW24792   0.718   4.845   5.968
 4254SOL    HW124793   0.787   4.880   5.905
 4254SOL    HW224794   0.643   4.804   5.916
 4255SOL     OW24795   8.643   1.063   5.113
 4255SOL    HW124796   8.622   0.997   5.041
 4255SOL    HW224797   8.672   1.149   5.071
 4256SOL     OW24798   0.720   4.362   1.514
 4256SOL    HW124799   0.761   4.305   1.585
 4256SOL    HW224800   0.627   4.387   1.540
 4257SOL     OW24801   0.735   6.795   5.299
 4257SOL    HW124802   0.684   6.709   5.285
 4257SOL    HW224803   0.674   6.872   5.281
 4258SOL     OW24804   2.939   0.197   4.831
 4258SOL    HW124805   2.874   0.148   4.773
 4258SOL    HW224806   3.015   0.137   4.855
 4259SOL     OW24807   0.639   2.287   0.727
 4259SOL    HW124808   0.642   2.187   0.717
 4259SOL    HW224809   0.702   2.315   0.800
 4260SOL     OW24810   2.527   5.410   1.281
 4260SOL    HW124811   2.493   5.485   1.339
 4260SOL    HW224812   2.619   5.431   1.250
 4261SOL     OW24813   4.336   3.428   1.249
 4261SOL    HW124814   4.289   3.370   1.315
 4261SOL    HW224815   4.310   3.400   1.156
 4262SOL     OW24816   1.537   5.285   0.894
 4262SOL    HW124817   1.568   5.339   0.816
 4262SOL    HW224818   1.499   5.198   0.862
 4263SOL     OW24819   5.192   4.422   1.765
 4263SOL    HW124820   5.247   4.394   1.844
 4263SOL    HW224821   5.158   4.341   1.718
 4264SOL     OW24822   3.169   0.242   0.197
 4264SOL    HW124823   3.133   0.148   0.192
 4264SOL    HW224824   3.151   0.279   0.288
 4265SOL     OW24825   6.197   3.180   1.401
 4265SOL    HW124826   6.166   3.275   1.411
 4265SOL    HW224827   6.138   3.120   1.454
 4266SOL     OW24828   0.908   6.721   6.020
 4266SOL    HW124829   0.939   6.737   5.926
 4266SOL    HW224830   0.881   6.625   6.030
 4267SOL     OW24831   2.442   8.090   1.714
 4267SOL    HW124832   2.504   8.028   1.763
 4267SOL    HW224833   2.400   8.153   1.780
 4268SOL     OW24834   3.289   5.001   1.408
 4268SOL    HW124835   3.286   4.919   1.351
 4268SOL    HW224836   3.373   5.053   1.388
 4269SOL     OW24837   2.629   6.577   5.673
 4269SOL    HW124838   2.624   6.649   5.742
 4269SOL    HW224839   2.540   6.531   5.666
 4270SOL     OW24840   9.053   0.172   5.962
 4270SOL    HW124841   9.084   0.170   6.057
 4270SOL    HW224842   9.095   0.250   5.916
 4271SOL     OW24843   5.809   4.778   6.590
 4271SOL    HW124844   5.736   4.737   6.645
 4271SOL    HW224845   5.897   4.763   6.634
 4272SOL     OW24846   8.806   7.501   5.613
 4272SOL    HW124847   8.710   7.530   5.617
 4272SOL    HW224848   8.813   7.405   5.640
 4273SOL     OW24849   2.106   3.758   6.425
 4273SOL    HW124850   2.132   3.841   6.374
 4273SOL    HW224851   2.181   3.732   6.486
 4274SOL     OW24852   1.762   1.120   5.244
 4274SOL    HW124853   1.811   1.115   5.157
 4274SOL    HW224854   1.670   1.083   5.233
 4275SOL     OW24855   5.944   0.413   0.801
 4275SOL    HW124856   5.889   0.334   0.774
 4275SOL    HW224857   5.908   0.495   0.756
 4276SOL     OW24858   8.122   6.044   1.203
 4276SOL    HW124859   8.034   6.067   1.163
 4276SOL    HW224860   8.112   5.964   1.263
 4277SOL     OW24861   3.249   6.255   1.812
 4277SOL    HW124862   3.252   6.215   1.904
 4277SOL    HW224863   3.270   6.353   1.818
 4278SOL     OW24864   0.452   4.305   6.788
 4278SOL    HW124865   0.384   4.250   6.739
 4278SOL    HW224866   0.535   4.251   6.801
 4279SOL     OW24867   3.760   5.670   0.356
 4279SOL    HW124868   3.697   5.593   0.365
 4279SOL    HW224869   3.723   5.735   0.289
 4280SOL     OW24870   5.092   3.370   6.715
 4280SOL    HW124871   5.157   3.299   6.741
 4280SOL    HW224872   5.065   3.423   6.796
 4281SOL     OW24873   3.560   7.896   1.546
 4281SOL    HW124874   3.613   7.977   1.572
 4281SOL    HW224875   3.492   7.876   1.616
 4282SOL     OW24876   6.845   2.234   6.818
 4282SOL    HW124877   6.879   2.248   6.911
 4282SOL    HW224878   6.920   2.208   6.758
 4283SOL     OW24879   8.848   6.733   6.248
 4283SOL    HW124880   8.876   6.764   6.157
 4283SOL    HW224881   8.748   6.736   6.255
 4284SOL     OW24882   9.218   4.089   6.693
 4284SOL    HW124883   9.212   4.138   6.606
 4284SOL    HW224884   9.314   4.082   6.721
 4285SOL     OW24885   5.196   1.109   1.029
 4285SOL    HW124886   5.197   1.014   1.061
 4285SOL    HW224887   5.133   1.117   0.951
 4286SOL     OW24888   1.720   7.582   1.148
 4286SOL    HW124889   1.809   7.539   1.137
 4286SOL    HW224890   1.730   7.671   1.191
 4287SOL     OW24891   8.820   5.577   0.836
 4287SOL    HW124892   8.893   5.543   0.777
 4287SOL    HW224893   8.855   5.591   0.928
 4288SOL     OW24894   4.851   0.752   0.743
 4288SOL    HW124895   4.789   0.812   0.693
 4288SOL    HW224896   4.804   0.715   0.824
 4289SOL     OW24897   7.590   4.389   0.545
 4289SOL    HW124898   7.607   4.293   0.523
 4289SOL    HW224899   7.673   4.442   0.531
 4290SOL     OW24900   8.402   5.125   0.696
 4290SOL    HW124901   8.490   5.107   0.740
 4290SOL    HW224902   8.415   5.187   0.619
 4291SOL     OW24903   4.181   8.130   0.164
 4291SOL    HW124904   4.257   8.070   0.190
 4291SOL    HW224905   4.211   8.188   0.088
 4292SOL     OW24906   0.365   3.249   0.559
 4292SOL    HW124907   0.310   3.174   0.522
 4292SOL    HW224908   0.340   3.265   0.655
 4293SOL     OW24909   7.237   6.381   6.533
 4293SOL    HW124910   7.171   6.308   6.516
 4293SOL    HW224911   7.307   6.380   6.461
 4294SOL     OW24912   4.705   5.765   1.926
 4294SOL    HW124913   4.802   5.788   1.927
 4294SOL    HW224914   4.686   5.697   1.997
 4295SOL     OW24915   1.007   6.686   2.004
 4295SOL    HW124916   1.092   6.715   1.959
 4295SOL    HW224917   0.977   6.599   1.965
 4296SOL     OW24918   6.246   3.362   6.360
 4296SOL    HW124919   6.300   3.324   6.285
 4296SOL    HW224920   6.306   3.393   6.433
 4297SOL     OW24921   8.077   8.325   5.434
 4297SOL    HW124922   8.152   8.305   5.371
 4297SOL    HW224923   7.996   8.353   5.382
 4298SOL     OW24924   3.763   4.616   6.181
 4298SOL    HW124925   3.732   4.711   6.182
 4298SOL    HW224926   3.802   4.593   6.092
 4299SOL     OW24927   7.422   0.242   0.501
 4299SOL    HW124928   7.425   0.340   0.522
 4299SOL    HW224929   7.439   0.190   0.584
 4300SOL     OW24930   5.974   6.194   0.541
 4300SOL    HW124931   5.995   6.142   0.624
 4300SOL    HW224932   6.038   6.270   0.532
 4301SOL     OW24933   8.939   5.126   0.952
 4301SOL    HW124934   8.951   5.211   1.002
 4301SOL    HW224935   8.867   5.072   0.995
 4302SOL     OW24936   7.237   3.729   5.600
 4302SOL    HW124937   7.166   3.693   5.661
 4302SOL    HW224938   7.240   3.674   5.517
 4303SOL     OW24939   8.201   3.878   1.257
 4303SOL    HW124940   8.262   3.803   1.282
 4303SOL    HW224941   8.108   3.858   1.289
 4304SOL     OW24942   5.477   5.502   0.205
 4304SOL    HW124943   5.466   5.433   0.275
 4304SOL    HW224944   5.457   5.592   0.243
 4305SOL     OW24945   4.065   5.461   0.441
 4305SOL    HW124946   4.132   5.388   0.421
 4305SOL    HW224947   4.015   5.484   0.358
 4306SOL     OW24948   5.977   8.281   6.813
 4306SOL    HW124949   5.987   8.349   6.740
 4306SOL    HW224950   6.058   8.222   6.814
 4307SOL     OW24951   7.547   1.107   6.745
 4307SOL    HW124952   7.513   1.158   6.666
 4307SOL    HW224953   7.495   1.023   6.756
 4308SOL     OW24954   3.285   2.541   0.273
 4308SOL    HW124955   3.274   2.638   0.250
 4308SOL    HW224956   3.206   2.490   0.240
 4309SOL     OW24957   6.796   1.607   6.147
 4309SOL    HW124958   6.720   1.621   6.210
 4309SOL    HW224959   6.771   1.539   6.078
 4310SOL     OW24960   1.581   6.616   6.551
 4310SOL    HW124961   1.523   6.553   6.499
 4310SOL    HW224962   1.662   6.638   6.497
 4311SOL     OW24963   0.181   1.909   6.083
 4311SOL    HW124964   0.103   1.972   6.091
 4311SOL    HW224965   0.174   1.859   5.996
 4312SOL     OW24966   2.569   1.231   0.718
 4312SOL    HW124967   2.644   1.262   0.660
 4312SOL    HW224968   2.601   1.225   0.813
 4313SOL     OW24969   6.949   6.627   5.561
 4313SOL    HW124970   6.906   6.692   5.499
 4313SOL    HW224971   7.048   6.641   5.562
 4314SOL     OW24972   5.504   4.626   2.010
 4314SOL    HW124973   5.461   4.716   2.002
 4314SOL    HW224974   5.439   4.555   1.980
 4315SOL     OW24975   4.217   6.525   6.690
 4315SOL    HW124976   4.242   6.540   6.594
 4315SOL    HW224977   4.272   6.450   6.727
 4316SOL     OW24978   3.593   6.557   0.304
 4316SOL    HW124979   3.642   6.640   0.332
 4316SOL    HW224980   3.523   6.580   0.236
 4317SOL     OW24981   3.097   3.396   6.657
 4317SOL    HW124982   3.109   3.305   6.618
 4317SOL    HW224983   3.001   3.421   6.655
 4318SOL     OW24984   6.744   4.285   6.790
 4318SOL    HW124985   6.834   4.327   6.783
 4318SOL    HW224986   6.674   4.356   6.790
 4319SOL     OW24987   7.294  -0.063   5.401
 4319SOL    HW124988   7.199  -0.081   5.377
 4319SOL    HW224989   7.350  -0.061   5.318
 4320SOL     OW24990   1.010   6.064   6.620
 4320SOL    HW124991   1.036   5.969   6.634
 4320SOL    HW224992   0.933   6.069   6.556
 4321SOL     OW24993   3.525   0.806   1.280
 4321SOL    HW124994   3.493   0.870   1.210
 4321SOL    HW224995   3.454   0.739   1.299
 4322SOL     OW24996   1.599   6.060   0.294
 4322SOL    HW124997   1.668   6.058   0.366
 4322SOL    HW224998   1.643   6.058   0.204
 4323SOL     OW24999   6.130   7.288   5.818
 4323SOL    HW125000   6.176   7.215   5.766
 4323SOL    HW225001   6.032   7.284   5.799
 4324SOL     OW25002   7.911   2.125   6.588
 4324SOL    HW125003   7.922   2.212   6.538
 4324SOL    HW225004   7.990   2.112   6.648
 4325SOL     OW25005   4.418   1.012   5.656
 4325SOL    HW125006   4.359   1.006   5.737
 4325SOL    HW225007   4.403   0.933   5.597
 4326SOL     OW25008   1.196   5.216   6.004
 4326SOL    HW125009   1.209   5.297   5.947
 4326SOL    HW225010   1.099   5.190   6.003
 4327SOL     OW25011   7.655   5.282   6.432
 4327SOL    HW125012   7.581   5.215   6.432
 4327SOL    HW225013   7.725   5.254   6.497
 4328SOL     OW25014   1.917   6.641   5.561
 4328SOL    HW125015   1.856   6.640   5.641
 4328SOL    HW225016   1.873   6.591   5.486
 4329SOL     OW25017   5.840   4.337   0.531
 4329SOL    HW125018   5.837   4.413   0.595
 4329SOL    HW225019   5.851   4.251   0.581
 4330SOL     OW25020   5.417   7.989   5.757
 4330SOL    HW125021   5.447   8.079   5.790
 4330SOL    HW225022   5.371   8.000   5.670
 4331SOL     OW25023   3.696   6.921   6.069
 4331SOL    HW125024   3.763   6.849   6.084
 4331SOL    HW225025   3.627   6.888   6.004
 4332SOL     OW25026   1.324   1.898   0.451
 4332SOL    HW125027   1.412   1.946   0.441
 4332SOL    HW225028   1.249   1.963   0.440
 4333SOL     OW25029   8.909   6.030   5.127
 4333SOL    HW125030   8.845   5.984   5.189
 4333SOL    HW225031   8.963   5.962   5.078
 4334SOL     OW25032   3.164   4.331   0.563
 4334SOL    HW125033   3.086   4.385   0.531
 4334SOL    HW225034   3.224   4.310   0.486
 4335SOL     OW25035   3.190   4.892   6.731
 4335SOL    HW125036   3.101   4.908   6.775
 4335SOL    HW225037   3.243   4.827   6.785
 4336SOL     OW25038   6.257   2.397   6.090
 4336SOL    HW125039   6.204   2.335   6.034
 4336SOL    HW225040   6.224   2.395   6.184
 4337SOL     OW25041   1.222   3.895   0.368
 4337SOL    HW125042   1.322   3.893   0.359
 4337SOL    HW225043   1.196   3.866   0.460
 4338SOL     OW25044   0.561   7.990   1.565
 4338SOL    HW125045   0.535   8.085   1.583
 4338SOL    HW225046   0.525   7.932   1.638
 4339SOL     OW25047   2.398   7.782   5.125
 4339SOL    HW125048   2.473   7.837   5.086
 4339SOL    HW225049   2.355   7.728   5.053
 4340SOL     OW25050   0.877   1.528   5.892
 4340SOL    HW125051   0.882   1.624   5.865
 4340SOL    HW225052   0.803   1.516   5.958
 4341SOL     OW25053   0.933   4.110   1.478
 4341SOL    HW125054   0.895   4.127   1.568
 4341SOL    HW225055   0.944   4.011   1.464
 4342SOL     OW25056   3.266   4.982   6.499
 4342SOL    HW125057   3.354   5.027   6.514
 4342SOL    HW225058   3.232   4.946   6.586
 4343SOL     OW25059   0.315   4.980   5.371
 4343SOL    HW125060   0.281   4.997   5.279
 4343SOL    HW225061   0.272   4.898   5.409
 4344SOL     OW25062   6.704   5.261   6.621
 4344SOL    HW125063   6.625   5.281   6.679
 4344SOL    HW225064   6.757   5.345   6.605
 4345SOL     OW25065   3.464   3.072   6.481
 4345SOL    HW125066   3.448   3.083   6.579
 4345SOL    HW225067   3.546   3.017   6.467
 4346SOL     OW25068   0.383   6.368   4.768
 4346SOL    HW125069   0.397   6.450   4.713
 4346SOL    HW225070   0.466   6.312   4.768
 4347SOL     OW25071   9.271   5.001   5.499
 4347SOL    HW125072   9.180   5.038   5.480
 4347SOL    HW225073   9.309   4.960   5.416
 4348SOL     OW25074   4.371   7.699   0.982
 4348SOL    HW125075   4.325   7.634   1.043
 4348SOL    HW225076   4.307   7.732   0.914
 4349SOL     OW25077   7.821   2.832   6.706
 4349SOL    HW125078   7.920   2.838   6.723
 4349SOL    HW225079   7.805   2.811   6.610
 4350SOL     OW25080   2.885   6.947   5.861
 4350SOL    HW125081   2.851   6.956   5.955
 4350SOL    HW225082   2.849   7.023   5.806
 4351SOL     OW25083   3.572   2.998   1.999
 4351SOL    HW125084   3.525   3.084   1.980
 4351SOL    HW225085   3.529   2.953   2.078
 4352SOL     OW25086   2.495   7.427   0.887
 4352SOL    HW125087   2.428   7.483   0.839
 4352SOL    HW225088   2.455   7.337   0.908
 4353SOL     OW25089   7.854   3.969   0.899
 4353SOL    HW125090   7.935   4.018   0.932
 4353SOL    HW225091   7.854   3.967   0.799
 4354SOL     OW25092   4.079   5.411   1.481
 4354SOL    HW125093   4.001   5.444   1.535
 4354SOL    HW225094   4.109   5.322   1.516
 4355SOL     OW25095   8.581   2.365   1.200
 4355SOL    HW125096   8.486   2.350   1.229
 4355SOL    HW225097   8.622   2.437   1.255
 4356SOL     OW25098   6.863   5.697   0.947
 4356SOL    HW125099   6.773   5.731   0.919
 4356SOL    HW225100   6.863   5.597   0.946
 4357SOL     OW25101   7.889   3.608   6.051
 4357SOL    HW125102   7.953   3.586   5.977
 4357SOL    HW225103   7.806   3.649   6.012
 4358SOL     OW25104   0.321   6.856   5.437
 4358SOL    HW125105   0.360   6.810   5.358
 4358SOL    HW225106   0.274   6.789   5.494
 4359SOL     OW25107   5.865   8.383   1.106
 4359SOL    HW125108   5.845   8.472   1.064
 4359SOL    HW225109   5.955   8.385   1.148
 4360SOL     OW25110   5.185   6.556   1.629
 4360SOL    HW125111   5.252   6.485   1.605
 4360SOL    HW225112   5.217   6.645   1.597
 4361SOL     OW25113   1.318   5.618   0.150
 4361SOL    HW125114   1.260   5.577   0.079
 4361SOL    HW225115   1.347   5.709   0.120
 4362SOL     OW25116   2.162   0.259   1.106
 4362SOL    HW125117   2.229   0.314   1.157
 4362SOL    HW225118   2.072   0.267   1.149
 4363SOL     OW25119   4.513   0.407   6.204
 4363SOL    HW125120   4.506   0.490   6.149
 4363SOL    HW225121   4.568   0.339   6.156
 4364SOL     OW25122   8.306   7.602   0.717
 4364SOL    HW125123   8.354   7.573   0.635
 4364SOL    HW225124   8.293   7.702   0.715
 4365SOL     OW25125   0.875   6.525   4.642
 4365SOL    HW125126   0.878   6.428   4.616
 4365SOL    HW225127   0.924   6.537   4.729
 4366SOL     OW25128   2.277   7.619   6.178
 4366SOL    HW125129   2.294   7.714   6.153
 4366SOL    HW225130   2.185   7.593   6.147
 4367SOL     OW25131   4.919   3.654   1.816
 4367SOL    HW125132   4.863   3.588   1.866
 4367SOL    HW225133   4.996   3.682   1.874
 4368SOL     OW25134   2.127   1.234   0.150
 4368SOL    HW125135   2.112   1.327   0.118
 4368SOL    HW225136   2.218   1.227   0.191
 4369SOL     OW25137   2.619   2.699   0.996
 4369SOL    HW125138   2.579   2.765   0.932
 4369SOL    HW225139   2.545   2.647   1.039
 4370SOL     OW25140   7.223   1.098   1.510
 4370SOL    HW125141   7.173   1.143   1.583
 4370SOL    HW225142   7.321   1.113   1.523
 4371SOL     OW25143   6.460   3.849   6.295
 4371SOL    HW125144   6.440   3.907   6.374
 4371SOL    HW225145   6.389   3.863   6.225
 4372SOL     OW25146   3.820   7.794   6.784
 4372SOL    HW125147   3.790   7.703   6.815
 4372SOL    HW225148   3.770   7.818   6.701
 4373SOL     OW25149   3.328   1.359   5.764
 4373SOL    HW125150   3.302   1.315   5.678
 4373SOL    HW225151   3.251   1.413   5.798
 4374SOL     OW25152   4.213   2.236   6.229
 4374SOL    HW125153   4.189   2.272   6.139
 4374SOL    HW225154   4.162   2.152   6.247
 4375SOL     OW25155   7.151   0.338   0.238
 4375SOL    HW125156   7.183   0.268   0.173
 4375SOL    HW225157   7.218   0.412   0.242
 4376SOL     OW25158   6.295   6.598   6.232
 4376SOL    HW125159   6.323   6.693   6.234
 4376SOL    HW225160   6.253   6.573   6.320
 4377SOL     OW25161   4.355   2.409   1.340
 4377SOL    HW125162   4.416   2.484   1.314
 4377SOL    HW225163   4.407   2.324   1.346
 4378SOL     OW25164   0.831   3.188   0.435
 4378SOL    HW125165   0.887   3.199   0.517
 4378SOL    HW225166   0.742   3.231   0.449
 4379SOL     OW25167   8.966   2.567   1.128
 4379SOL    HW125168   9.063   2.590   1.113
 4379SOL    HW225169   8.959   2.473   1.160
 4380SOL     OW25170   8.974   6.782   0.531
 4380SOL    HW125171   8.981   6.695   0.483
 4380SOL    HW225172   8.948   6.766   0.626
 4381SOL     OW25173   1.253   8.058   0.725
 4381SOL    HW125174   1.310   8.042   0.805
 4381SOL    HW225175   1.280   7.996   0.651
 4382SOL     OW25176   9.001   7.761   0.497
 4382SOL    HW125177   9.034   7.854   0.480
 4382SOL    HW225178   9.037   7.729   0.585
 4383SOL     OW25179   8.804   4.158   5.931
 4383SOL    HW125180   8.771   4.101   6.006
 4383SOL    HW225181   8.773   4.119   5.844
 4384SOL     OW25182   9.032   3.663   5.696
 4384SOL    HW125183   9.005   3.593   5.630
 4384SOL    HW225184   9.101   3.723   5.656
 4385SOL     OW25185   7.360   6.076   5.796
 4385SOL    HW125186   7.346   5.988   5.751
 4385SOL    HW225187   7.377   6.146   5.727
 4386SOL     OW25188   7.077   5.469   0.599
 4386SOL    HW125189   7.149   5.450   0.665
 4386SOL    HW225190   7.018   5.389   0.590
 4387SOL     OW25191   9.123   8.295   0.755
 4387SOL    HW125192   9.049   8.343   0.709
 4387SOL    HW225193   9.168   8.232   0.692
 4388SOL     OW25194   3.069   4.873   0.239
 4388SOL    HW125195   3.115   4.801   0.291
 4388SOL    HW225196   2.994   4.910   0.293
 4389SOL     OW25197   5.780   6.653   2.316
 4389SOL    HW125198   5.811   6.746   2.333
 4389SOL    HW225199   5.858   6.590   2.317
 4390SOL     OW25200   1.887   3.576   5.899
 4390SOL    HW125201   1.875   3.515   5.821
 4390SOL    HW225202   1.829   3.657   5.888
 4391SOL     OW25203   5.053   6.884   6.521
 4391SOL    HW125204   5.033   6.916   6.614
 4391SOL    HW225205   5.148   6.853   6.516
 4392SOL     OW25206   0.173   2.604   6.645
 4392SOL    HW125207   0.186   2.510   6.675
 4392SOL    HW225208   0.092   2.610   6.587
 4393SOL     OW25209   5.814   1.542   6.573
 4393SOL    HW125210   5.821   1.642   6.571
 4393SOL    HW225211   5.904   1.503   6.596
 4394SOL     OW25212   9.445   2.086   6.426
 4394SOL    HW125213   9.438   2.167   6.368
 4394SOL    HW225214   9.515   2.101   6.496
 4395SOL     OW25215   1.076   1.761   6.581
 4395SOL    HW125216   1.090   1.685   6.644
 4395SOL    HW225217   1.009   1.735   6.512
 4396SOL     OW25218   7.397   7.380   0.510
 4396SOL    HW125219   7.479   7.326   0.529
 4396SOL    HW225220   7.412   7.435   0.427
 4397SOL     OW25221   8.651   6.994   0.304
 4397SOL    HW125222   8.711   6.935   0.249
 4397SOL    HW225223   8.557   6.963   0.296
 4398SOL     OW25224   1.785   3.236   0.303
 4398SOL    HW125225   1.696   3.213   0.264
 4398SOL    HW225226   1.841   3.280   0.232
 4399SOL     OW25227   7.394   3.047   0.922
 4399SOL    HW125228   7.481   3.088   0.950
 4399SOL    HW225229   7.345   3.014   1.002
 4400SOL     OW25230   8.399   2.280   0.889
 4400SOL    HW125231   8.370   2.215   0.819
 4400SOL    HW225232   8.495   2.263   0.912
 4401SOL     OW25233   4.267   2.754   0.132
 4401SOL    HW125234   4.207   2.698   0.076
 4401SOL    HW225235   4.362   2.726   0.119
 4402SOL     OW25236   2.901   2.288   1.211
 4402SOL    HW125237   2.857   2.366   1.255
 4402SOL    HW225238   2.928   2.313   1.118
 4403SOL     OW25239   2.250   3.380   6.455
 4403SOL    HW125240   2.292   3.444   6.390
 4403SOL    HW225241   2.292   3.290   6.444
 4404SOL     OW25242   4.319   5.403   1.962
 4404SOL    HW125243   4.326   5.303   1.955
 4404SOL    HW225244   4.253   5.427   2.033
 4405SOL     OW25245   5.317   0.353   0.420
 4405SOL    HW125246   5.238   0.412   0.406
 4405SOL    HW225247   5.289   0.257   0.417
 4406SOL     OW25248   8.051   6.354   0.688
 4406SOL    HW125249   7.990   6.275   0.679
 4406SOL    HW225250   8.122   6.333   0.756
 4407SOL     OW25251   8.073   2.441   0.792
 4407SOL    HW125252   8.158   2.470   0.750
 4407SOL    HW225253   8.017   2.393   0.724
 4408SOL     OW25254   7.042   6.575   1.077
 4408SOL    HW125255   7.084   6.611   0.994
 4408SOL    HW225256   6.944   6.564   1.063
 4409SOL     OW25257   7.251   0.269   0.875
 4409SOL    HW125258   7.323   0.224   0.821
 4409SOL    HW225259   7.166   0.271   0.822
 4410SOL     OW25260   9.295   7.774   5.636
 4410SOL    HW125261   9.317   7.870   5.652
 4410SOL    HW225262   9.204   7.755   5.672
 4411SOL     OW25263   5.451   1.138   0.270
 4411SOL    HW125264   5.369   1.089   0.298
 4411SOL    HW225265   5.532   1.086   0.296
 4412SOL     OW25266   0.432   7.520   4.900
 4412SOL    HW125267   0.422   7.605   4.849
 4412SOL    HW225268   0.519   7.476   4.875
 4413SOL     OW25269   7.406   4.807   0.437
 4413SOL    HW125270   7.332   4.865   0.404
 4413SOL    HW225271   7.420   4.823   0.534
 4414SOL     OW25272   4.561   5.516   0.334
 4414SOL    HW125273   4.650   5.530   0.291
 4414SOL    HW225274   4.567   5.441   0.399
 4415SOL     OW25275   3.437   1.729   5.808
 4415SOL    HW125276   3.426   1.760   5.713
 4415SOL    HW225277   3.513   1.779   5.850
 4416SOL     OW25278   8.760   0.640   6.530
 4416SOL    HW125279   8.792   0.553   6.494
 4416SOL    HW225280   8.670   0.661   6.492
 4417SOL     OW25281   3.387   3.917   1.228
 4417SOL    HW125282   3.342   3.870   1.304
 4417SOL    HW225283   3.370   3.868   1.143
 4418SOL     OW25284   4.529   7.702   2.286
 4418SOL    HW125285   4.544   7.795   2.320
 4418SOL    HW225286   4.526   7.704   2.186
 4419SOL     OW25287   3.706   4.950   5.058
 4419SOL    HW125288   3.697   4.952   4.959
 4419SOL    HW225289   3.653   5.024   5.099
 4420SOL     OW25290   8.633   5.552   0.196
 4420SOL    HW125291   8.613   5.471   0.141
 4420SOL    HW225292   8.627   5.634   0.139
 4421SOL     OW25293   6.279   2.866   6.315
 4421SOL    HW125294   6.378   2.865   6.297
 4421SOL    HW225295   6.233   2.801   6.254
 4422SOL     OW25296   0.430   2.520   0.222
 4422SOL    HW125297   0.382   2.599   0.184
 4422SOL    HW225298   0.364   2.457   0.261
 4423SOL     OW25299   1.234   4.838   5.934
 4423SOL    HW125300   1.261   4.873   5.844
 4423SOL    HW225301   1.188   4.911   5.985
 4424SOL     OW25302   1.393   0.238   0.918
 4424SOL    HW125303   1.345   0.273   0.837
 4424SOL    HW225304   1.469   0.181   0.890
 4425SOL     OW25305   6.769   7.702   1.511
 4425SOL    HW125306   6.827   7.705   1.592
 4425SOL    HW225307   6.765   7.609   1.476
 4426SOL     OW25308   5.346   7.051   6.241
 4426SOL    HW125309   5.395   6.993   6.307
 4426SOL    HW225310   5.408   7.076   6.167
 4427SOL     OW25311   5.766   6.250   0.866
 4427SOL    HW125312   5.669   6.264   0.847
 4427SOL    HW225313   5.806   6.192   0.795
 4428SOL     OW25314   2.895   0.196   5.435
 4428SOL    HW125315   2.968   0.160   5.376
 4428SOL    HW225316   2.936   0.249   5.510
 4429SOL     OW25317   7.038   6.100   1.399
 4429SOL    HW125318   7.135   6.080   1.406
 4429SOL    HW225319   6.987   6.015   1.383
 4430SOL     OW25320   8.297   8.260   1.372
 4430SOL    HW125321   8.355   8.254   1.453
 4430SOL    HW225322   8.207   8.295   1.397
 4431SOL     OW25323   2.464   7.138   6.512
 4431SOL    HW125324   2.396   7.075   6.474
 4431SOL    HW225325   2.421   7.197   6.580
 4432SOL     OW25326   0.688   6.400   4.419
 4432SOL    HW125327   0.716   6.387   4.324
 4432SOL    HW225328   0.767   6.387   4.479
 4433SOL     OW25329   5.869   5.872   1.932
 4433SOL    HW125330   5.856   5.774   1.951
 4433SOL    HW225331   5.966   5.894   1.932
 4434SOL     OW25332   2.360   8.073   0.230
 4434SOL    HW125333   2.412   8.013   0.291
 4434SOL    HW225334   2.373   8.168   0.257
 4435SOL     OW25335   8.556   7.092   6.514
 4435SOL    HW125336   8.560   7.192   6.520
 4435SOL    HW225337   8.588   7.062   6.424
 4436SOL     OW25338   6.894   0.949   6.227
 4436SOL    HW125339   6.835   0.883   6.272
 4436SOL    HW225340   6.987   0.911   6.220
 4437SOL     OW25341   9.108   6.132   6.848
 4437SOL    HW125342   9.115   6.049   6.904
 4437SOL    HW225343   9.080   6.209   6.906
 4438SOL     OW25344   4.092   0.007   5.870
 4438SOL    HW125345   4.047   0.096   5.879
 4438SOL    HW225346   4.114  -0.009   5.774
 4439SOL     OW25347   3.053   2.175   0.469
 4439SOL    HW125348   3.044   2.142   0.375
 4439SOL    HW225349   3.006   2.113   0.531
 4440SOL     OW25350   6.252   6.911   6.805
 4440SOL    HW125351   6.205   6.824   6.822
 4440SOL    HW225352   6.335   6.914   6.861
 4441SOL     OW25353   1.164   1.900   6.850
 4441SOL    HW125354   1.083   1.923   6.797
 4441SOL    HW225355   1.155   1.808   6.888
 4442SOL     OW25356   0.410   8.008   6.138
 4442SOL    HW125357   0.329   7.956   6.169
 4442SOL    HW225358   0.432   8.078   6.206
 4443SOL     OW25359   5.423   0.116   5.257
 4443SOL    HW125360   5.382   0.134   5.168
 4443SOL    HW225361   5.465   0.199   5.292
 4444SOL     OW25362   3.900   3.066   0.315
 4444SOL    HW125363   3.938   2.974   0.308
 4444SOL    HW225364   3.955   3.129   0.260
 4445SOL     OW25365   8.794   4.819   6.578
 4445SOL    HW125366   8.856   4.781   6.646
 4445SOL    HW225367   8.766   4.911   6.606
 4446SOL     OW25368   6.079   1.500   6.056
 4446SOL    HW125369   6.001   1.438   6.052
 4446SOL    HW225370   6.093   1.541   5.966
 4447SOL     OW25371   3.920   6.255   5.904
 4447SOL    HW125372   3.994   6.225   5.845
 4447SOL    HW225373   3.934   6.352   5.928
 4448SOL     OW25374   0.387   5.481   5.745
 4448SOL    HW125375   0.383   5.581   5.755
 4448SOL    HW225376   0.481   5.453   5.726
 4449SOL     OW25377   3.764   1.959   0.902
 4449SOL    HW125378   3.803   2.005   0.822
 4449SOL    HW225379   3.828   1.889   0.934
 4450SOL     OW25380   7.457   4.189   6.701
 4450SOL    HW125381   7.488   4.217   6.610
 4450SOL    HW225382   7.390   4.254   6.735
 4451SOL     OW25383   2.441   4.770   6.813
 4451SOL    HW125384   2.526   4.804   6.854
 4451SOL    HW225385   2.374   4.844   6.808
 4452SOL     OW25386   8.419   6.525   5.664
 4452SOL    HW125387   8.496   6.583   5.638
 4452SOL    HW225388   8.453   6.433   5.685
 4453SOL     OW25389   9.306   7.873   6.199
 4453SOL    HW125390   9.387   7.854   6.143
 4453SOL    HW225391   9.292   7.971   6.205
 4454SOL     OW25392   4.354   2.060   0.192
 4454SOL    HW125393   4.346   2.159   0.179
 4454SOL    HW225394   4.281   2.014   0.141
 4455SOL     OW25395   8.580   0.040   0.941
 4455SOL    HW125396   8.616   0.092   1.018
 4455SOL    HW225397   8.505  -0.018   0.973
 4456SOL     OW25398   8.355   6.851   0.859
 4456SOL    HW125399   8.360   6.793   0.940
 4456SOL    HW225400   8.307   6.802   0.786
 4457SOL     OW25401   9.317   3.446   1.509
 4457SOL    HW125402   9.273   3.372   1.561
 4457SOL    HW225403   9.287   3.534   1.546
 4458SOL     OW25404   5.919   6.787   1.208
 4458SOL    HW125405   5.917   6.768   1.306
 4458SOL    HW225406   5.954   6.707   1.159
 4459SOL     OW25407   4.639   7.611   0.915
 4459SOL    HW125408   4.547   7.643   0.937
 4459SOL    HW225409   4.639   7.511   0.913
 4460SOL     OW25410   2.990   7.381   5.680
 4460SOL    HW125411   3.038   7.332   5.607
 4460SOL    HW225412   3.045   7.377   5.763
 4461SOL     OW25413   4.452   1.783   1.806
 4461SOL    HW125414   4.478   1.858   1.866
 4461SOL    HW225415   4.393   1.719   1.855
 4462SOL     OW25416   7.634   0.091   5.912
 4462SOL    HW125417   7.625   0.180   5.867
 4462SOL    HW225418   7.578   0.090   5.994
 4463SOL     OW25419   9.339   5.481   4.963
 4463SOL    HW125420   9.415   5.479   4.898
 4463SOL    HW225421   9.254   5.502   4.914
 4464SOL     OW25422   4.617   5.186   0.906
 4464SOL    HW125423   4.555   5.249   0.859
 4464SOL    HW225424   4.603   5.193   1.005
 4465SOL     OW25425   0.694   1.231   6.461
 4465SOL    HW125426   0.632   1.230   6.382
 4465SOL    HW225427   0.780   1.187   6.436
 4466SOL     OW25428   8.084   6.880   5.076
 4466SOL    HW125429   8.028   6.962   5.090
 4466SOL    HW225430   8.024   6.801   5.064
 4467SOL     OW25431   8.853   6.279   5.924
 4467SOL    HW125432   8.815   6.194   5.961
 4467SOL    HW225433   8.938   6.302   5.973
 4468SOL     OW25434   3.885   7.334   2.519
 4468SOL    HW125435   3.916   7.239   2.517
 4468SOL    HW225436   3.898   7.372   2.611
 4469SOL     OW25437   9.098   2.813   0.878
 4469SOL    HW125438   9.142   2.801   0.790
 4469SOL    HW225439   9.143   2.755   0.947
 4470SOL     OW25440   7.067   5.520   5.246
 4470SOL    HW125441   7.076   5.503   5.344
 4470SOL    HW225442   7.016   5.605   5.231
 4471SOL     OW25443   4.587   5.235   1.174
 4471SOL    HW125444   4.490   5.214   1.186
 4471SOL    HW225445   4.601   5.333   1.187
 4472SOL     OW25446   6.213   4.636   5.779
 4472SOL    HW125447   6.165   4.560   5.735
 4472SOL    HW225448   6.198   4.633   5.878
 4473SOL     OW25449   1.381   6.823   4.462
 4473SOL    HW125450   1.429   6.836   4.375
 4473SOL    HW225451   1.346   6.729   4.467
 4474SOL     OW25452   0.497   0.159   6.411
 4474SOL    HW125453   0.557   0.085   6.443
 4474SOL    HW225454   0.453   0.202   6.489
 4475SOL     OW25455   2.971   0.809   5.847
 4475SOL    HW125456   2.919   0.784   5.765
 4475SOL    HW225457   3.022   0.729   5.880
 4476SOL     OW25458   2.908   6.796   6.298
 4476SOL    HW125459   2.973   6.823   6.368
 4476SOL    HW225460   2.889   6.874   6.238
 4477SOL     OW25461   0.899   6.124   4.933
 4477SOL    HW125462   0.924   6.058   5.004
 4477SOL    HW225463   0.974   6.133   4.868
 4478SOL     OW25464   5.905   3.720   6.492
 4478SOL    HW125465   5.937   3.639   6.443
 4478SOL    HW225466   5.836   3.693   6.559
 4479SOL     OW25467   3.569   7.201   6.820
 4479SOL    HW125468   3.638   7.134   6.847
 4479SOL    HW225469   3.566   7.275   6.887
 4480SOL     OW25470   3.764   7.534   1.222
 4480SOL    HW125471   3.698   7.497   1.157
 4480SOL    HW225472   3.747   7.631   1.235
 4481SOL     OW25473   4.574   4.516   1.044
 4481SOL    HW125474   4.570   4.548   0.949
 4481SOL    HW225475   4.640   4.441   1.050
 4482SOL     OW25476   5.422   4.121   0.976
 4482SOL    HW125477   5.470   4.185   1.037
 4482SOL    HW225478   5.466   4.121   0.886
 4483SOL     OW25479   4.155   0.858   0.759
 4483SOL    HW125480   4.237   0.914   0.747
 4483SOL    HW225481   4.164   0.775   0.705
 4484SOL     OW25482   6.216   0.128   1.166
 4484SOL    HW125483   6.293   0.065   1.150
 4484SOL    HW225484   6.186   0.165   1.078
 4485SOL     OW25485   6.219   2.171   5.586
 4485SOL    HW125486   6.296   2.228   5.561
 4485SOL    HW225487   6.144   2.185   5.521
 4486SOL     OW25488   0.394   7.439   5.532
 4486SOL    HW125489   0.347   7.408   5.450
 4486SOL    HW225490   0.353   7.396   5.613
 4487SOL     OW25491   1.419   6.239   0.630
 4487SOL    HW125492   1.416   6.145   0.596
 4487SOL    HW225493   1.498   6.286   0.590
 4488SOL     OW25494   8.342   7.196   0.489
 4488SOL    HW125495   8.321   7.098   0.491
 4488SOL    HW225496   8.366   7.227   0.581
 4489SOL     OW25497   8.760   2.203   6.843
 4489SOL    HW125498   8.795   2.290   6.807
 4489SOL    HW225499   8.723   2.149   6.768
 4490SOL     OW25500   7.182   2.092   6.794
 4490SOL    HW125501   7.113   2.030   6.757
 4490SOL    HW225502   7.179   2.178   6.743
 4491SOL     OW25503   0.778   5.459   6.105
 4491SOL    HW125504   0.773   5.410   6.192
 4491SOL    HW225505   0.829   5.544   6.117
 4492SOL     OW25506   5.222   1.522   6.255
 4492SOL    HW125507   5.275   1.459   6.198
 4492SOL    HW225508   5.130   1.486   6.269
 4493SOL     OW25509   1.437   3.770   0.774
 4493SOL    HW125510   1.342   3.783   0.743
 4493SOL    HW225511   1.462   3.844   0.836
 4494SOL     OW25512   7.146   2.339   6.712
 4494SOL    HW125513   7.239   2.350   6.676
 4494SOL    HW225514   7.129   2.408   6.781
 4495SOL     OW25515   2.351   3.838   5.820
 4495SOL    HW125516   2.445   3.830   5.788
 4495SOL    HW225517   2.292   3.781   5.763
 4496SOL     OW25518   8.148   0.714   5.205
 4496SOL    HW125519   8.072   0.671   5.253
 4496SOL    HW225520   8.182   0.653   5.134
 4497SOL     OW25521   6.599   7.465   1.129
 4497SOL    HW125522   6.504   7.443   1.150
 4497SOL    HW225523   6.604   7.515   1.042
 4498SOL     OW25524   4.256   7.069   0.673
 4498SOL    HW125525   4.271   6.981   0.629
 4498SOL    HW225526   4.162   7.099   0.657
 4499SOL     OW25527   2.725   5.824   6.203
 4499SOL    HW125528   2.667   5.895   6.162
 4499SOL    HW225529   2.817   5.861   6.217
 4500SOL     OW25530   4.344   4.694   6.047
 4500SOL    HW125531   4.380   4.696   5.953
 4500SOL    HW225532   4.385   4.768   6.100
 4501SOL     OW25533   7.321   3.825   0.962
 4501SOL    HW125534   7.308   3.779   1.050
 4501SOL    HW225535   7.418   3.848   0.950
 4502SOL     OW25536   3.073   6.889   5.661
 4502SOL    HW125537   2.988   6.879   5.712
 4502SOL    HW225538   3.058   6.949   5.582
 4503SOL     OW25539   2.562   7.228   0.597
 4503SOL    HW125540   2.614   7.309   0.569
 4503SOL    HW225541   2.466   7.254   0.612
 4504SOL     OW25542   4.696   5.641   6.115
 4504SOL    HW125543   4.764   5.679   6.052
 4504SOL    HW225544   4.722   5.548   6.140
 4505SOL     OW25545   6.065   4.588   1.203
 4505SOL    HW125546   5.985   4.648   1.207
 4505SOL    HW225547   6.071   4.535   1.287
 4506SOL     OW25548   3.515   3.869   1.668
 4506SOL    HW125549   3.553   3.952   1.628
 4506SOL    HW225550   3.423   3.854   1.632
 4507SOL     OW25551   4.633   1.420   1.112
 4507SOL    HW125552   4.721   1.391   1.150
 4507SOL    HW225553   4.558   1.379   1.164
 4508SOL     OW25554   7.584   6.712   0.218
 4508SOL    HW125555   7.500   6.712   0.163
 4508SOL    HW225556   7.565   6.674   0.308
 4509SOL     OW25557   9.463   7.445   0.607
 4509SOL    HW125558   9.501   7.405   0.690
 4509SOL    HW225559   9.384   7.391   0.577
 4510SOL     OW25560   8.109   0.439   0.516
 4510SOL    HW125561   8.139   0.460   0.423
 4510SOL    HW225562   8.101   0.523   0.568
 4511SOL     OW25563   8.692   1.353   6.257
 4511SOL    HW125564   8.755   1.307   6.320
 4511SOL    HW225565   8.601   1.312   6.265
 4512SOL     OW25566   3.301   6.127   0.911
 4512SOL    HW125567   3.322   6.133   0.814
 4512SOL    HW225568   3.234   6.196   0.935
 4513SOL     OW25569   6.608   6.009   5.401
 4513SOL    HW125570   6.644   6.000   5.309
 4513SOL    HW225571   6.658   5.947   5.462
 4514SOL     OW25572   5.336   1.514   1.318
 4514SOL    HW125573   5.378   1.447   1.380
 4514SOL    HW225574   5.312   1.470   1.232
 4515SOL     OW25575   7.992   4.648   0.319
 4515SOL    HW125576   8.022   4.726   0.264
 4515SOL    HW225577   7.950   4.579   0.259
 4516SOL     OW25578   7.269   0.307   6.516
 4516SOL    HW125579   7.171   0.299   6.494
 4516SOL    HW225580   7.281   0.360   6.599
 4517SOL     OW25581   1.014   2.308   6.815
 4517SOL    HW125582   1.102   2.262   6.804
 4517SOL    HW225583   1.029   2.406   6.828
 4518SOL     OW25584   7.374   5.401   1.270
 4518SOL    HW125585   7.359   5.344   1.351
 4518SOL    HW225586   7.463   5.446   1.276
 4519SOL     OW25587   6.311   4.727   6.163
 4519SOL    HW125588   6.381   4.670   6.205
 4519SOL    HW225589   6.352   4.812   6.130
 4520SOL     OW25590   5.402   7.357   6.177
 4520SOL    HW125591   5.373   7.270   6.137
 4520SOL    HW225592   5.499   7.354   6.198
 4521SOL     OW25593   0.473   4.588   0.884
 4521SOL    HW125594   0.494   4.683   0.907
 4521SOL    HW225595   0.403   4.584   0.813
 4522SOL     OW25596   7.474   8.401   4.816
 4522SOL    HW125597   7.538   8.441   4.881
 4522SOL    HW225598   7.430   8.321   4.857
 4523SOL     OW25599   7.793   4.613   6.432
 4523SOL    HW125600   7.804   4.657   6.521
 4523SOL    HW225601   7.861   4.649   6.368
 4524SOL     OW25602   1.766   6.575   0.669
 4524SOL    HW125603   1.810   6.577   0.579
 4524SOL    HW225604   1.810   6.643   0.728
 4525SOL     OW25605   5.152   6.932   0.483
 4525SOL    HW125606   5.066   6.909   0.528
 4525SOL    HW225607   5.133   6.974   0.394
 4526SOL     OW25608   0.865   4.552   5.363
 4526SOL    HW125609   0.960   4.532   5.384
 4526SOL    HW225610   0.847   4.531   5.266
 4527SOL     OW25611   7.629   5.395   0.187
 4527SOL    HW125612   7.582   5.343   0.116
 4527SOL    HW225613   7.721   5.420   0.155
 4528SOL     OW25614   1.850   3.383   5.695
 4528SOL    HW125615   1.783   3.336   5.637
 4528SOL    HW225616   1.889   3.318   5.760
 4529SOL     OW25617   8.931   7.920   1.492
 4529SOL    HW125618   8.840   7.961   1.483
 4529SOL    HW225619   8.972   7.949   1.578
 4530SOL     OW25620   2.026   8.378   0.642
 4530SOL    HW125621   2.121   8.383   0.671
 4530SOL    HW225622   2.016   8.314   0.566
 4531SOL     OW25623   7.182   6.414   0.292
 4531SOL    HW125624   7.183   6.320   0.326
 4531SOL    HW225625   7.124   6.419   0.210
 4532SOL     OW25626   3.997   7.020   0.195
 4532SOL    HW125627   4.091   7.036   0.162
 4532SOL    HW225628   3.991   6.930   0.236
 4533SOL     OW25629   2.325   7.109   6.049
 4533SOL    HW125630   2.264   7.127   6.126
 4533SOL    HW225631   2.284   7.145   5.965
 4534SOL     OW25632   7.463   4.513   0.764
 4534SOL    HW125633   7.411   4.587   0.722
 4534SOL    HW225634   7.538   4.487   0.704
 4535SOL     OW25635   7.563   7.951   0.337
 4535SOL    HW125636   7.610   8.022   0.389
 4535SOL    HW225637   7.500   7.902   0.398
 4536SOL     OW25638   1.303   6.327   1.344
 4536SOL    HW125639   1.337   6.421   1.355
 4536SOL    HW225640   1.267   6.316   1.251
 4537SOL     OW25641   6.108   8.376   1.241
 4537SOL    HW125642   6.102   8.320   1.323
 4537SOL    HW225643   6.158   8.460   1.261
 4538SOL     OW25644   4.761   8.340   6.285
 4538SOL    HW125645   4.673   8.371   6.248
 4538SOL    HW225646   4.777   8.246   6.258
 4539SOL     OW25647   8.017   2.848   1.226
 4539SOL    HW125648   8.018   2.758   1.183
 4539SOL    HW225649   7.951   2.849   1.301
 4540SOL     OW25650   1.490   7.598   5.328
 4540SOL    HW125651   1.565   7.555   5.277
 4540SOL    HW225652   1.410   7.607   5.269
 4541SOL     OW25653   4.647   8.336   1.155
 4541SOL    HW125654   4.682   8.429   1.143
 4541SOL    HW225655   4.671   8.303   1.246
 4542SOL     OW25656   2.325   1.696   5.866
 4542SOL    HW125657   2.310   1.794   5.875
 4542SOL    HW225658   2.307   1.669   5.771
 4543SOL     OW25659   9.223   3.684   1.648
 4543SOL    HW125660   9.171   3.767   1.624
 4543SOL    HW225661   9.231   3.677   1.747
 4544SOL     OW25662   5.244   1.779   1.417
 4544SOL    HW125663   5.233   1.798   1.514
 4544SOL    HW225664   5.272   1.683   1.405
 4545SOL     OW25665   3.349   7.849   1.708
 4545SOL    HW125666   3.355   7.839   1.807
 4545SOL    HW225667   3.286   7.780   1.672
 4546SOL     OW25668   0.779   0.327   6.201
 4546SOL    HW125669   0.813   0.268   6.274
 4546SOL    HW225670   0.829   0.414   6.202
 4547SOL     OW25671   2.899   2.141   1.663
 4547SOL    HW125672   2.841   2.078   1.715
 4547SOL    HW225673   2.920   2.101   1.574
 4548SOL     OW25674   0.549   8.310   5.811
 4548SOL    HW125675   0.498   8.352   5.886
 4548SOL    HW225676   0.503   8.226   5.782
 4549SOL     OW25677   6.001   8.266   5.489
 4549SOL    HW125678   5.986   8.346   5.547
 4549SOL    HW225679   6.099   8.256   5.470
 4550SOL     OW25680   0.969   0.852   2.053
 4550SOL    HW125681   1.052   0.876   2.103
 4550SOL    HW225682   0.899   0.922   2.071
 4551SOL     OW25683   5.679   2.737   5.719
 4551SOL    HW125684   5.608   2.793   5.676
 4551SOL    HW225685   5.647   2.643   5.728
 4552SOL     OW25686   2.684   4.758   6.028
 4552SOL    HW125687   2.731   4.804   5.954
 4552SOL    HW225688   2.704   4.660   6.025
 4553SOL     OW25689   0.242   3.862   6.733
 4553SOL    HW125690   0.213   3.769   6.710
 4553SOL    HW225691   0.327   3.858   6.785
 4554SOL     OW25692   0.818   1.225   5.131
 4554SOL    HW125693   0.787   1.313   5.168
 4554SOL    HW225694   0.915   1.232   5.106
 4555SOL     OW25695   6.230   7.140   0.820
 4555SOL    HW125696   6.292   7.218   0.807
 4555SOL    HW225697   6.141   7.162   0.780
 4556SOL     OW25698   0.541   7.266   2.073
 4556SOL    HW125699   0.481   7.345   2.065
 4556SOL    HW225700   0.509   7.207   2.147
 4557SOL     OW25701   0.560   5.699   4.424
 4557SOL    HW125702   0.488   5.701   4.493
 4557SOL    HW225703   0.637   5.646   4.458
 4558SOL     OW25704   5.693   3.449   1.162
 4558SOL    HW125705   5.695   3.544   1.193
 4558SOL    HW225706   5.763   3.396   1.210
 4559SOL     OW25707   7.477   4.392   6.210
 4559SOL    HW125708   7.445   4.486   6.224
 4559SOL    HW225709   7.478   4.371   6.113
 4560SOL     OW25710   8.955   3.566   6.009
 4560SOL    HW125711   8.893   3.592   6.083
 4560SOL    HW225712   8.969   3.644   5.948
 4561SOL     OW25713   5.609   8.432   0.221
 4561SOL    HW125714   5.601   8.333   0.231
 4561SOL    HW225715   5.693   8.463   0.267
 4562SOL     OW25716   8.167   0.126   6.726
 4562SOL    HW125717   8.146   0.088   6.636
 4562SOL    HW225718   8.259   0.100   6.754
 4563SOL     OW25719   6.230   7.741   0.555
 4563SOL    HW125720   6.188   7.697   0.634
 4563SOL    HW225721   6.177   7.721   0.473
 4564SOL     OW25722   0.663   6.392   4.904
 4564SOL    HW125723   0.676   6.322   4.975
 4564SOL    HW225724   0.736   6.386   4.837
 4565SOL     OW25725   0.955   4.221   6.558
 4565SOL    HW125726   0.953   4.278   6.640
 4565SOL    HW225727   0.931   4.276   6.478
 4566SOL     OW25728   6.610   4.197   5.587
 4566SOL    HW125729   6.662   4.281   5.603
 4566SOL    HW225730   6.518   4.207   5.626
 4567SOL     OW25731   6.549   2.587   0.481
 4567SOL    HW125732   6.564   2.584   0.383
 4567SOL    HW225733   6.482   2.658   0.503
 4568SOL     OW25734   0.339   5.322   6.095
 4568SOL    HW125735   0.263   5.387   6.088
 4568SOL    HW225736   0.333   5.255   6.022
 4569SOL     OW25737   1.705   5.711   6.251
 4569SOL    HW125738   1.709   5.776   6.175
 4569SOL    HW225739   1.753   5.627   6.226
 4570SOL     OW25740   7.538   7.994   1.087
 4570SOL    HW125741   7.526   8.083   1.043
 4570SOL    HW225742   7.466   7.980   1.155
 4571SOL     OW25743   4.614   6.458   5.704
 4571SOL    HW125744   4.589   6.404   5.624
 4571SOL    HW225745   4.595   6.555   5.687
 4572SOL     OW25746   1.488   1.830   0.147
 4572SOL    HW125747   1.532   1.768   0.212
 4572SOL    HW225748   1.391   1.838   0.169
 4573SOL     OW25749   3.792   2.756   1.407
 4573SOL    HW125750   3.724   2.689   1.437
 4573SOL    HW225751   3.831   2.727   1.320
 4574SOL     OW25752   2.835   3.342   1.079
 4574SOL    HW125753   2.903   3.384   1.019
 4574SOL    HW225754   2.879   3.273   1.137
 4575SOL     OW25755   6.619   8.191   1.542
 4575SOL    HW125756   6.629   8.092   1.552
 4575SOL    HW225757   6.630   8.234   1.631
 4576SOL     OW25758   4.225   5.074   0.517
 4576SOL    HW125759   4.241   5.033   0.427
 4576SOL    HW225760   4.289   5.033   0.583
 4577SOL     OW25761   8.851   8.167   0.641
 4577SOL    HW125762   8.942   8.129   0.622
 4577SOL    HW225763   8.797   8.168   0.557
 4578SOL     OW25764   6.477   5.318   6.765
 4578SOL    HW125765   6.494   5.405   6.812
 4578SOL    HW225766   6.380   5.294   6.774
 4579SOL     OW25767   3.942   6.698   5.635
 4579SOL    HW125768   3.864   6.740   5.682
 4579SOL    HW225769   3.947   6.601   5.659
 4580SOL     OW25770   5.448   0.936   1.258
 4580SOL    HW125771   5.428   1.012   1.320
 4580SOL    HW225772   5.366   0.912   1.206
 4581SOL     OW25773   7.183   5.009   0.382
 4581SOL    HW125774   7.106   4.958   0.343
 4581SOL    HW225775   7.244   5.038   0.308
 4582SOL     OW25776   2.673   1.719   6.112
 4582SOL    HW125777   2.683   1.627   6.150
 4582SOL    HW225778   2.647   1.714   6.016
 4583SOL     OW25779   1.104   7.496   5.448
 4583SOL    HW125780   1.102   7.590   5.414
 4583SOL    HW225781   1.156   7.439   5.384
 4584SOL     OW25782   6.388   0.830   1.997
 4584SOL    HW125783   6.457   0.869   1.936
 4584SOL    HW225784   6.425   0.748   2.040
 4585SOL     OW25785   4.621   6.757   2.243
 4585SOL    HW125786   4.529   6.722   2.262
 4585SOL    HW225787   4.675   6.686   2.199
 4586SOL     OW25788   8.396   1.620   6.733
 4586SOL    HW125789   8.479   1.651   6.779
 4586SOL    HW225790   8.420   1.572   6.649
 4587SOL     OW25791   9.345   5.284   1.088
 4587SOL    HW125792   9.427   5.276   1.144
 4587SOL    HW225793   9.264   5.273   1.146
 4588SOL     OW25794   6.218   5.884   1.425
 4588SOL    HW125795   6.243   5.882   1.522
 4588SOL    HW225796   6.153   5.959   1.409
 4589SOL     OW25797   7.341   5.713   5.390
 4589SOL    HW125798   7.393   5.672   5.315
 4589SOL    HW225799   7.255   5.663   5.402
 4590SOL     OW25800   5.461   1.507   5.816
 4590SOL    HW125801   5.543   1.466   5.775
 4590SOL    HW225802   5.454   1.603   5.786
 4591SOL     OW25803   2.013   7.568   5.132
 4591SOL    HW125804   2.012   7.529   5.040
 4591SOL    HW225805   2.095   7.538   5.181
 4592SOL     OW25806   9.413   6.511   0.316
 4592SOL    HW125807   9.483   6.556   0.260
 4592SOL    HW225808   9.453   6.485   0.404
 4593SOL     OW25809   7.031   6.342   1.256
 4593SOL    HW125810   6.943   6.334   1.210
 4593SOL    HW225811   7.053   6.257   1.303
 4594SOL     OW25812   9.556   0.991   0.269
 4594SOL    HW125813   9.547   0.966   0.365
 4594SOL    HW225814   9.513   1.080   0.253
 4595SOL     OW25815   0.485  -0.061   5.556
 4595SOL    HW125816   0.536  -0.088   5.637
 4595SOL    HW225817   0.546  -0.012   5.493
 4596SOL     OW25818   0.716   3.899   5.951
 4596SOL    HW125819   0.630   3.888   5.902
 4596SOL    HW225820   0.793   3.882   5.888
 4597SOL     OW25821   5.200   4.835   6.673
 4597SOL    HW125822   5.121   4.797   6.722
 4597SOL    HW225823   5.225   4.773   6.599
 4598SOL     OW25824   3.184   4.108   0.948
 4598SOL    HW125825   3.128   4.099   1.030
 4598SOL    HW225826   3.232   4.022   0.931
 4599SOL     OW25827   5.247   3.435   0.920
 4599SOL    HW125828   5.225   3.364   0.853
 4599SOL    HW225829   5.309   3.397   0.989
 4600SOL     OW25830   2.633   2.368   6.439
 4600SOL    HW125831   2.673   2.411   6.521
 4600SOL    HW225832   2.618   2.271   6.456
 4601SOL     OW25833   7.190   5.995   6.492
 4601SOL    HW125834   7.209   5.924   6.561
 4601SOL    HW225835   7.128   6.063   6.530
 4602SOL     OW25836   5.128   0.347   0.968
 4602SOL    HW125837   5.170   0.437   0.971
 4602SOL    HW225838   5.098   0.321   1.060
 4603SOL     OW25839   3.726   0.868   5.053
 4603SOL    HW125840   3.817   0.877   5.013
 4603SOL    HW225841   3.658   0.867   4.981
 4604SOL     OW25842   8.675   7.613   1.319
 4604SOL    HW125843   8.585   7.569   1.318
 4604SOL    HW225844   8.746   7.545   1.336
 4605SOL     OW25845   7.543   4.185   1.469
 4605SOL    HW125846   7.554   4.141   1.558
 4605SOL    HW225847   7.467   4.250   1.473
 4606SOL     OW25848   3.200   7.110   1.557
 4606SOL    HW125849   3.215   7.184   1.623
 4606SOL    HW225850   3.235   7.138   1.467
 4607SOL     OW25851   7.973   5.221   5.598
 4607SOL    HW125852   7.980   5.221   5.698
 4607SOL    HW225853   7.897   5.280   5.569
 4608SOL     OW25854   4.664   0.736   1.308
 4608SOL    HW125855   4.609   0.773   1.383
 4608SOL    HW225856   4.623   0.761   1.221
 4609SOL     OW25857   8.551   3.368   6.566
 4609SOL    HW125858   8.527   3.464   6.582
 4609SOL    HW225859   8.513   3.340   6.477
 4610SOL     OW25860   3.273   4.231   6.713
 4610SOL    HW125861   3.325   4.167   6.769
 4610SOL    HW225862   3.188   4.189   6.684
 4611SOL     OW25863   2.425   5.224   6.270
 4611SOL    HW125864   2.491   5.165   6.224
 4611SOL    HW225865   2.335   5.180   6.269
 4612SOL     OW25866   4.500   8.366   0.473
 4612SOL    HW125867   4.409   8.326   0.489
 4612SOL    HW225868   4.505   8.455   0.517
 4613SOL     OW25869   1.960   0.005   1.156
 4613SOL    HW125870   2.035  -0.056   1.131
 4613SOL    HW225871   1.944   0.000   1.255
 4614SOL     OW25872   4.949   1.609   5.373
 4614SOL    HW125873   4.997   1.697   5.367
 4614SOL    HW225874   4.898   1.593   5.288
 4615SOL     OW25875   7.002   8.207   6.207
 4615SOL    HW125876   7.098   8.179   6.211
 4615SOL    HW225877   6.985   8.276   6.277
 4616SOL     OW25878   9.385   2.116   5.195
 4616SOL    HW125879   9.285   2.107   5.189
 4616SOL    HW225880   9.417   2.179   5.125
 4617SOL     OW25881   3.679   2.651   1.160
 4617SOL    HW125882   3.644   2.563   1.130
 4617SOL    HW225883   3.604   2.706   1.196
 4618SOL     OW25884   6.524   2.422   0.214
 4618SOL    HW125885   6.583   2.435   0.134
 4618SOL    HW225886   6.579   2.393   0.292
 4619SOL     OW25887   4.061   7.743   5.822
 4619SOL    HW125888   4.145   7.798   5.818
 4619SOL    HW225889   3.994   7.790   5.880
 4620SOL     OW25890   2.867   6.599   6.801
 4620SOL    HW125891   2.853   6.664   6.876
 4620SOL    HW225892   2.945   6.630   6.746
 4621SOL     OW25893   8.565   4.509   6.733
 4621SOL    HW125894   8.559   4.582   6.665
 4621SOL    HW225895   8.473   4.475   6.753
 4622SOL     OW25896   1.652   7.277   6.410
 4622SOL    HW125897   1.742   7.256   6.448
 4622SOL    HW225898   1.662   7.332   6.327
 4623SOL     OW25899   1.876   4.675   0.773
 4623SOL    HW125900   1.895   4.578   0.757
 4623SOL    HW225901   1.912   4.729   0.697
 4624SOL     OW25902   3.991   8.055   1.087
 4624SOL    HW125903   4.005   8.025   0.992
 4624SOL    HW225904   3.976   7.975   1.145
 4625SOL     OW25905   8.178   0.263   5.661
 4625SOL    HW125906   8.245   0.336   5.675
 4625SOL    HW225907   8.184   0.197   5.737
 4626SOL     OW25908   3.251   8.186   1.919
 4626SOL    HW125909   3.219   8.258   1.981
 4626SOL    HW225910   3.306   8.119   1.970
 4627SOL     OW25911   4.852   0.241   6.211
 4627SOL    HW125912   4.758   0.232   6.177
 4627SOL    HW225913   4.853   0.301   6.291
 4628SOL     OW25914   6.753   6.608   0.993
 4628SOL    HW125915   6.694   6.547   1.046
 4628SOL    HW225916   6.701   6.687   0.963
 4629SOL     OW25917   4.242   6.511   1.535
 4629SOL    HW125918   4.318   6.450   1.556
 4629SOL    HW225919   4.275   6.585   1.476
 4630SOL     OW25920   1.691   5.383   1.072
 4630SOL    HW125921   1.634   5.354   1.149
 4630SOL    HW225922   1.650   5.351   0.987
 4631SOL     OW25923   3.895   0.574   0.898
 4631SOL    HW125924   3.987   0.571   0.858
 4631SOL    HW225925   3.842   0.647   0.854
 4632SOL     OW25926   1.094   0.894   5.420
 4632SOL    HW125927   1.024   0.965   5.431
 4632SOL    HW225928   1.157   0.920   5.347
 4633SOL     OW25929   9.095   8.259   6.461
 4633SOL    HW125930   9.087   8.161   6.476
 4633SOL    HW225931   9.063   8.308   6.542
 4634SOL     OW25932   1.458   5.729   0.967
 4634SOL    HW125933   1.396   5.776   1.030
 4634SOL    HW225934   1.480   5.639   1.005
 4635SOL     OW25935   9.372   3.589   6.525
 4635SOL    HW125936   9.349   3.685   6.539
 4635SOL    HW225937   9.305   3.547   6.463
 4636SOL     OW25938   6.579   2.019   1.414
 4636SOL    HW125939   6.628   1.933   1.397
 4636SOL    HW225940   6.510   2.033   1.342
 4637SOL     OW25941   7.877   1.337   1.251
 4637SOL    HW125942   7.821   1.319   1.331
 4637SOL    HW225943   7.884   1.254   1.196
 4638SOL     OW25944   9.524   0.637   0.690
 4638SOL    HW125945   9.569   0.723   0.712
 4638SOL    HW225946   9.587   0.578   0.640
 4639SOL     OW25947   3.119   6.115   5.928
 4639SOL    HW125948   3.144   6.123   5.831
 4639SOL    HW225949   3.024   6.144   5.940
 4640SOL     OW25950   2.012   6.553   1.792
 4640SOL    HW125951   2.094   6.608   1.810
 4640SOL    HW225952   2.026   6.461   1.829
 4641SOL     OW25953   8.059   8.270   5.868
 4641SOL    HW125954   8.088   8.254   5.774
 4641SOL    HW225955   8.010   8.357   5.874
 4642SOL     OW25956   4.795   1.359   5.904
 4642SOL    HW125957   4.731   1.391   5.974
 4642SOL    HW225958   4.745   1.314   5.831
 4643SOL     OW25959   3.998   0.515   5.357
 4643SOL    HW125960   3.921   0.578   5.354
 4643SOL    HW225961   4.066   0.541   5.288
 4644SOL     OW25962   6.856   4.479   0.732
 4644SOL    HW125963   6.892   4.418   0.661
 4644SOL    HW225964   6.779   4.435   0.778
 4645SOL     OW25965   8.989   0.497   6.114
 4645SOL    HW125966   9.004   0.592   6.090
 4645SOL    HW225967   9.073   0.458   6.153
 4646SOL     OW25968   3.738   1.118   5.226
 4646SOL    HW125969   3.706   1.208   5.197
 4646SOL    HW225970   3.710   1.050   5.159
 4647SOL     OW25971   7.742   0.550   0.324
 4647SOL    HW125972   7.814   0.491   0.290
 4647SOL    HW225973   7.726   0.530   0.421
 4648SOL     OW25974   2.366   1.211   0.238
 4648SOL    HW125975   2.418   1.281   0.190
 4648SOL    HW225976   2.417   1.182   0.320
 4649SOL     OW25977   7.579   7.215   6.644
 4649SOL    HW125978   7.621   7.186   6.730
 4649SOL    HW225979   7.513   7.146   6.615
 4650SOL     OW25980   1.693   7.459   5.174
 4650SOL    HW125981   1.781   7.412   5.181
 4650SOL    HW225982   1.684   7.499   5.082
 4651SOL     OW25983   8.393   4.767   5.277
 4651SOL    HW125984   8.375   4.760   5.179
 4651SOL    HW225985   8.424   4.859   5.299
 4652SOL     OW25986   4.913   6.838   0.794
 4652SOL    HW125987   4.904   6.797   0.703
 4652SOL    HW225988   4.829   6.822   0.846
 4653SOL     OW25989   7.515   6.688   5.989
 4653SOL    HW125990   7.499   6.675   5.891
 4653SOL    HW225991   7.436   6.655   6.040
 4654SOL     OW25992   0.723   5.685   5.693
 4654SOL    HW125993   0.694   5.646   5.605
 4654SOL    HW225994   0.696   5.781   5.697
 4655SOL     OW25995   4.014   4.653   1.002
 4655SOL    HW125996   4.008   4.603   1.088
 4655SOL    HW225997   4.078   4.729   1.011
 4656SOL     OW25998   3.953   0.701   5.661
 4656SOL    HW125999   3.926   0.671   5.569
 4656SOL    HW226000   3.909   0.789   5.681
 4657SOL     OW26001   8.206   7.084   5.822
 4657SOL    HW126002   8.247   7.082   5.913
 4657SOL    HW226003   8.234   7.168   5.775
 4658SOL     OW26004   1.828   1.109   4.983
 4658SOL    HW126005   1.860   1.014   4.988
 4658SOL    HW226006   1.903   1.168   4.953
 4659SOL     OW26007   9.540   2.968   6.806
 4659SOL    HW126008   9.506   2.875   6.793
 4659SOL    HW226009   9.640   2.969   6.799
 4660SOL     OW26010   4.349   0.336   2.002
 4660SOL    HW126011   4.357   0.427   1.961
 4660SOL    HW226012   4.343   0.344   2.101
 4661SOL     OW26013   0.136   0.014   6.657
 4661SOL    HW126014   0.159   0.081   6.587
 4661SOL    HW226015   0.123  -0.076   6.614
 4662SOL     OW26016   7.884   5.100   6.151
 4662SOL    HW126017   7.874   5.185   6.098
 4662SOL    HW226018   7.972   5.058   6.130
 4663SOL     OW26019   1.740   2.124   6.761
 4663SOL    HW126020   1.696   2.209   6.789
 4663SOL    HW226021   1.683   2.078   6.692
 4664SOL     OW26022   7.200   8.269   6.759
 4664SOL    HW126023   7.236   8.178   6.742
 4664SOL    HW226024   7.100   8.268   6.750
 4665SOL     OW26025   8.513   2.671   0.790
 4665SOL    HW126026   8.490   2.751   0.845
 4665SOL    HW226027   8.586   2.620   0.835
 4666SOL     OW26028   4.108   7.222   1.659
 4666SOL    HW126029   4.186   7.160   1.668
 4666SOL    HW226030   4.086   7.261   1.749
 4667SOL     OW26031   9.133   8.385   5.828
 4667SOL    HW126032   9.104   8.472   5.790
 4667SOL    HW226033   9.087   8.370   5.916
 4668SOL     OW26034   4.901   3.703   0.580
 4668SOL    HW126035   4.949   3.739   0.660
 4668SOL    HW226036   4.922   3.605   0.569
 4669SOL     OW26037   2.266   4.608   0.806
 4669SOL    HW126038   2.204   4.559   0.866
 4669SOL    HW226039   2.237   4.595   0.711
 4670SOL     OW26040   6.529   5.384   5.483
 4670SOL    HW126041   6.565   5.477   5.492
 4670SOL    HW226042   6.448   5.386   5.424
 4671SOL     OW26043   0.601   7.047   1.874
 4671SOL    HW126044   0.651   6.969   1.911
 4671SOL    HW226045   0.603   7.122   1.939
 4672SOL     OW26046   8.959   2.019   0.540
 4672SOL    HW126047   8.956   2.055   0.447
 4672SOL    HW226048   9.013   2.080   0.598
 4673SOL     OW26049   6.550   0.580   1.237
 4673SOL    HW126050   6.570   0.515   1.164
 4673SOL    HW226051   6.610   0.562   1.315
 4674SOL     OW26052   1.513   8.274   0.923
 4674SOL    HW126053   1.582   8.301   0.855
 4674SOL    HW226054   1.552   8.282   1.015
 4675SOL     OW26055   4.007   4.122   1.715
 4675SOL    HW126056   3.931   4.118   1.780
 4675SOL    HW226057   4.093   4.136   1.765
 4676SOL     OW26058   7.066   2.811   0.149
 4676SOL    HW126059   7.164   2.798   0.161
 4676SOL    HW226060   7.038   2.898   0.189
 4677SOL     OW26061   6.900   1.300   0.144
 4677SOL    HW126062   6.910   1.362   0.066
 4677SOL    HW226063   6.879   1.208   0.112
 4678SOL     OW26064   8.441   5.962   1.033
 4678SOL    HW126065   8.515   5.929   0.975
 4678SOL    HW226066   8.475   6.035   1.092
 4679SOL     OW26067   5.937   2.744   5.617
 4679SOL    HW126068   5.925   2.675   5.546
 4679SOL    HW226069   5.854   2.751   5.672
 4680SOL     OW26070   3.185   5.560   1.056
 4680SOL    HW126071   3.150   5.646   1.092
 4680SOL    HW226072   3.233   5.510   1.128
 4681SOL     OW26073   2.529   6.605   0.926
 4681SOL    HW126074   2.604   6.661   0.961
 4681SOL    HW226075   2.566   6.518   0.891
 4682SOL     OW26076   1.358   1.079   1.181
 4682SOL    HW126077   1.361   1.120   1.273
 4682SOL    HW226078   1.309   0.993   1.185
 4683SOL     OW26079   0.510   5.992   1.286
 4683SOL    HW126080   0.563   6.020   1.367
 4683SOL    HW226081   0.421   5.959   1.314
 4684SOL     OW26082   3.602   3.759   0.507
 4684SOL    HW126083   3.601   3.856   0.533
 4684SOL    HW226084   3.661   3.748   0.427
 4685SOL     OW26085   0.155   6.022   5.874
 4685SOL    HW126086   0.065   6.057   5.901
 4685SOL    HW226087   0.151   5.923   5.865
 4686SOL     OW26088   6.100   1.476   5.734
 4686SOL    HW126089   6.046   1.524   5.666
 4686SOL    HW226090   6.092   1.377   5.720
 4687SOL     OW26091   4.323   3.269   5.534
 4687SOL    HW126092   4.394   3.203   5.509
 4687SOL    HW226093   4.274   3.297   5.451
 4688SOL     OW26094   4.131   1.918   5.805
 4688SOL    HW126095   4.180   1.858   5.742
 4688SOL    HW226096   4.195   1.954   5.873
 4689SOL     OW26097   7.934   6.598   0.740
 4689SOL    HW126098   7.975   6.512   0.712
 4689SOL    HW226099   7.893   6.588   0.831
 4690SOL     OW26100   6.672   2.587   1.916
 4690SOL    HW126101   6.671   2.541   2.004
 4690SOL    HW226102   6.761   2.630   1.902
 4691SOL     OW26103   4.663   6.433   5.993
 4691SOL    HW126104   4.651   6.467   5.899
 4691SOL    HW226105   4.597   6.360   6.010
 4692SOL     OW26106   2.810   7.174   5.745
 4692SOL    HW126107   2.852   7.262   5.720
 4692SOL    HW226108   2.738   7.190   5.812
 4693SOL     OW26109   6.376   0.420   0.588
 4693SOL    HW126110   6.283   0.422   0.625
 4693SOL    HW226111   6.434   0.484   0.640
 4694SOL     OW26112   1.520   3.939   1.270
 4694SOL    HW126113   1.539   3.900   1.360
 4694SOL    HW226114   1.429   3.910   1.240
 4695SOL     OW26115   1.114   6.768   0.982
 4695SOL    HW126116   1.065   6.748   1.066
 4695SOL    HW226117   1.209   6.791   1.003
 4696SOL     OW26118   1.783   4.955   5.801
 4696SOL    HW126119   1.717   4.966   5.727
 4696SOL    HW226120   1.873   4.933   5.762
 4697SOL     OW26121   9.079   6.318   0.322
 4697SOL    HW126122   9.104   6.413   0.341
 4697SOL    HW226123   9.017   6.284   0.392
 4698SOL     OW26124   7.500   4.257   6.449
 4698SOL    HW126125   7.500   4.320   6.371
 4698SOL    HW226126   7.513   4.163   6.416
 4699SOL     OW26127   4.171   6.720   5.800
 4699SOL    HW126128   4.221   6.647   5.754
 4699SOL    HW226129   4.081   6.731   5.758
 4700SOL     OW26130   5.028   5.220   1.349
 4700SOL    HW126131   5.096   5.276   1.302
 4700SOL    HW226132   4.969   5.175   1.282
 4701SOL     OW26133   8.382   5.546   0.799
 4701SOL    HW126134   8.460   5.486   0.776
 4701SOL    HW226135   8.315   5.542   0.726
 4702SOL     OW26136   3.519   4.149   1.738
 4702SOL    HW126137   3.571   4.227   1.703
 4702SOL    HW226138   3.422   4.163   1.720
 4703SOL     OW26139   4.828   5.682   0.668
 4703SOL    HW126140   4.829   5.754   0.738
 4703SOL    HW226141   4.845   5.722   0.578
 4704SOL     OW26142   3.143   4.761   5.730
 4704SOL    HW126143   3.212   4.689   5.724
 4704SOL    HW226144   3.170   4.837   5.670
 4705SOL     OW26145   0.415   6.467   5.463
 4705SOL    HW126146   0.447   6.378   5.495
 4705SOL    HW226147   0.319   6.479   5.486
 4706SOL     OW26148   9.029   2.877   5.651
 4706SOL    HW126149   9.092   2.856   5.725
 4706SOL    HW226150   8.974   2.957   5.674
 4707SOL     OW26151   8.672   7.326   5.144
 4707SOL    HW126152   8.686   7.228   5.127
 4707SOL    HW226153   8.701   7.378   5.064
 4708SOL     OW26154   8.880   0.357   0.557
 4708SOL    HW126155   8.941   0.407   0.618
 4708SOL    HW226156   8.890   0.392   0.464
 4709SOL     OW26157   3.437   2.261   1.245
 4709SOL    HW126158   3.503   2.235   1.315
 4709SOL    HW226159   3.351   2.289   1.289
 4710SOL     OW26160   9.530   3.591   0.260
 4710SOL    HW126161   9.462   3.517   0.260
 4710SOL    HW226162   9.619   3.553   0.232
 4711SOL     OW26163   6.677   4.688   6.123
 4711SOL    HW126164   6.743   4.763   6.122
 4711SOL    HW226165   6.621   4.691   6.040
 4712SOL     OW26166   0.746   7.794   0.668
 4712SOL    HW126167   0.780   7.719   0.726
 4712SOL    HW226168   0.815   7.816   0.599
 4713SOL     OW26169   5.167   8.394   6.618
 4713SOL    HW126170   5.074   8.372   6.586
 4713SOL    HW226171   5.194   8.483   6.581
 4714SOL     OW26172   7.559   8.235   6.255
 4714SOL    HW126173   7.614   8.160   6.291
 4714SOL    HW226174   7.618   8.300   6.207
 4715SOL     OW26175   0.874   0.229   6.458
 4715SOL    HW126176   0.849   0.168   6.534
 4715SOL    HW226177   0.951   0.286   6.485
 4716SOL     OW26178   5.781   0.203   0.706
 4716SOL    HW126179   5.789   0.103   0.703
 4716SOL    HW226180   5.763   0.238   0.613
 4717SOL     OW26181   5.439   0.327   6.602
 4717SOL    HW126182   5.399   0.407   6.647
 4717SOL    HW226183   5.461   0.349   6.507
 4718SOL     OW26184   2.906   6.692   0.745
 4718SOL    HW126185   2.946   6.782   0.733
 4718SOL    HW226186   2.976   6.622   0.730
 4719SOL     OW26187   5.737   1.392   0.803
 4719SOL    HW126188   5.742   1.425   0.897
 4719SOL    HW226189   5.817   1.335   0.783
 4720SOL     OW26190   4.844   0.437   6.371
 4720SOL    HW126191   4.780   0.492   6.424
 4720SOL    HW226192   4.927   0.490   6.352
 4721SOL     OW26193   7.630   7.996   5.986
 4721SOL    HW126194   7.565   8.034   5.921
 4721SOL    HW226195   7.723   8.024   5.961
 4722SOL     OW26196   0.578   2.078   0.329
 4722SOL    HW126197   0.531   2.047   0.246
 4722SOL    HW226198   0.658   2.132   0.303
 4723SOL     OW26199   2.047   0.380   1.522
 4723SOL    HW126200   1.972   0.340   1.574
 4723SOL    HW226201   2.035   0.362   1.425
 4724SOL     OW26202   1.945   3.383   1.080
 4724SOL    HW126203   1.931   3.301   1.135
 4724SOL    HW226204   2.027   3.372   1.024
 4725SOL     OW26205   6.867   1.465   1.709
 4725SOL    HW126206   6.906   1.542   1.659
 4725SOL    HW226207   6.823   1.500   1.793
 4726SOL     OW26208   1.844   7.476   0.715
 4726SOL    HW126209   1.803   7.557   0.759
 4726SOL    HW226210   1.940   7.494   0.695
 4727SOL     OW26211   2.388   0.414   5.649
 4727SOL    HW126212   2.389   0.367   5.561
 4727SOL    HW226213   2.435   0.359   5.718
 4728SOL     OW26214   3.436   4.319   5.997
 4728SOL    HW126215   3.460   4.222   6.008
 4728SOL    HW226216   3.337   4.326   5.982
 4729SOL     OW26217   4.503   4.178   6.725
 4729SOL    HW126218   4.565   4.250   6.756
 4729SOL    HW226219   4.421   4.219   6.685
 4730SOL     OW26220   1.383   0.004   0.680
 4730SOL    HW126221   1.473   0.043   0.703
 4730SOL    HW226222   1.336  -0.021   0.765
 4731SOL     OW26223   4.080   1.008   2.052
 4731SOL    HW126224   4.018   0.932   2.070
 4731SOL    HW226225   4.030   1.082   2.007
 4732SOL     OW26226   0.534   4.103   0.824
 4732SOL    HW126227   0.466   4.042   0.783
 4732SOL    HW226228   0.601   4.130   0.754
 4733SOL     OW26229   5.956   1.575   0.716
 4733SOL    HW126230   5.857   1.565   0.726
 4733SOL    HW226231   5.983   1.667   0.745
 4734SOL     OW26232   6.609   3.724   0.980
 4734SOL    HW126233   6.639   3.805   1.030
 4734SOL    HW226234   6.581   3.751   0.888
 4735SOL     OW26235   7.297   8.162   6.326
 4735SOL    HW126236   7.390   8.190   6.302
 4735SOL    HW226237   7.262   8.223   6.397
 4736SOL     OW26238   6.401   1.711   6.467
 4736SOL    HW126239   6.310   1.674   6.449
 4736SOL    HW226240   6.393   1.803   6.506
 4737SOL     OW26241   4.817   7.935   0.418
 4737SOL    HW126242   4.718   7.921   0.413
 4737SOL    HW226243   4.858   7.914   0.329
 4738SOL     OW26244   6.067   4.375   1.001
 4738SOL    HW126245   6.075   4.434   1.081
 4738SOL    HW226246   5.997   4.306   1.017
 4739SOL     OW26247   9.474   3.852   0.313
 4739SOL    HW126248   9.547   3.916   0.289
 4739SOL    HW226249   9.504   3.759   0.293
 4740SOL     OW26250   9.400   4.012   0.809
 4740SOL    HW126251   9.325   3.980   0.751
 4740SOL    HW226252   9.418   4.108   0.788
 4741SOL     OW26253   2.766   1.062   1.648
 4741SOL    HW126254   2.851   1.115   1.655
 4741SOL    HW226255   2.788   0.967   1.626
 4742SOL     OW26256   6.328   6.165   1.313
 4742SOL    HW126257   6.333   6.265   1.307
 4742SOL    HW226258   6.338   6.137   1.409
 4743SOL     OW26259   7.303   6.012   0.325
 4743SOL    HW126260   7.286   5.925   0.371
 4743SOL    HW226261   7.401   6.030   0.321
 4744SOL     OW26262   1.790   3.869   0.866
 4744SOL    HW126263   1.807   3.771   0.877
 4744SOL    HW226264   1.740   3.903   0.945
 4745SOL     OW26265   6.837   2.935   6.465
 4745SOL    HW126266   6.802   2.995   6.537
 4745SOL    HW226267   6.869   2.849   6.505
 4746SOL     OW26268   4.086   5.977   6.786
 4746SOL    HW126269   4.056   5.882   6.777
 4746SOL    HW226270   4.181   5.985   6.757
 4747SOL     OW26271   3.326   7.117   0.189
 4747SOL    HW126272   3.399   7.136   0.123
 4747SOL    HW226273   3.270   7.042   0.155
 4748SOL     OW26274   4.263   5.808   0.725
 4748SOL    HW126275   4.300   5.881   0.782
 4748SOL    HW226276   4.296   5.720   0.757
 4749SOL     OW26277   3.198   1.413   6.474
 4749SOL    HW126278   3.236   1.327   6.507
 4749SOL    HW226279   3.242   1.489   6.522
 4750SOL     OW26280   3.852   1.748   0.291
 4750SOL    HW126281   3.843   1.655   0.253
 4750SOL    HW226282   3.796   1.811   0.237
 4751SOL     OW26283   2.776   5.390   0.999
 4751SOL    HW126284   2.716   5.311   0.990
 4751SOL    HW226285   2.845   5.372   1.069
 4752SOL     OW26286   0.734   1.791   6.687
 4752SOL    HW126287   0.635   1.779   6.691
 4752SOL    HW226288   0.769   1.759   6.599
 4753SOL     OW26289   0.844   2.531   0.436
 4753SOL    HW126290   0.927   2.584   0.449
 4753SOL    HW226291   0.850   2.445   0.486
 4754SOL     OW26292   2.750   7.485   0.782
 4754SOL    HW126293   2.666   7.443   0.817
 4754SOL    HW226294   2.821   7.482   0.853
 4755SOL     OW26295   2.494   1.636   5.479
 4755SOL    HW126296   2.487   1.540   5.452
 4755SOL    HW226297   2.422   1.689   5.434
 4756SOL     OW26298   7.003   7.379   0.628
 4756SOL    HW126299   7.070   7.453   0.622
 4756SOL    HW226300   6.947   7.378   0.545
 4757SOL     OW26301   6.261   6.697   0.858
 4757SOL    HW126302   6.281   6.604   0.826
 4757SOL    HW226303   6.253   6.758   0.779
 4758SOL     OW26304   0.412   7.451   6.050
 4758SOL    HW126305   0.474   7.523   6.081
 4758SOL    HW226306   0.454   7.361   6.068
 4759SOL     OW26307   2.046   5.515   5.207
 4759SOL    HW126308   1.982   5.439   5.196
 4759SOL    HW226309   2.056   5.563   5.120
 4760SOL     OW26310   4.518   2.160   0.541
 4760SOL    HW126311   4.480   2.081   0.590
 4760SOL    HW226312   4.460   2.181   0.462
 4761SOL     OW26313   7.293   4.319   0.891
 4761SOL    HW126314   7.231   4.360   0.958
 4761SOL    HW226315   7.330   4.390   0.831
 4762SOL     OW26316   4.812   3.831   0.353
 4762SOL    HW126317   4.843   3.796   0.441
 4762SOL    HW226318   4.766   3.919   0.367
 4763SOL     OW26319   1.887   7.143   6.151
 4763SOL    HW126320   1.977   7.180   6.175
 4763SOL    HW226321   1.817   7.213   6.165
 4764SOL     OW26322   2.297   7.594   0.832
 4764SOL    HW126323   2.247   7.612   0.748
 4764SOL    HW226324   2.267   7.657   0.904
 4765SOL     OW26325   3.811   0.517   6.837
 4765SOL    HW126326   3.890   0.458   6.822
 4765SOL    HW226327   3.732   0.478   6.788
 4766SOL     OW26328   0.399   8.373   0.828
 4766SOL    HW126329   0.391   8.278   0.796
 4766SOL    HW226330   0.364   8.434   0.757
 4767SOL     OW26331   5.153   1.713   0.349
 4767SOL    HW126332   5.115   1.801   0.322
 4767SOL    HW226333   5.148   1.703   0.449
 4768SOL     OW26334   5.066   5.508   0.636
 4768SOL    HW126335   5.106   5.540   0.722
 4768SOL    HW226336   4.983   5.561   0.616
 4769SOL     OW26337   9.264   7.077   1.283
 4769SOL    HW126338   9.191   7.041   1.342
 4769SOL    HW226339   9.314   7.148   1.332
 4770SOL     OW26340   4.568   3.628   0.338
 4770SOL    HW126341   4.509   3.579   0.275
 4770SOL    HW226342   4.640   3.675   0.287
 4771SOL     OW26343   7.627   7.090   0.888
 4771SOL    HW126344   7.696   7.141   0.939
 4771SOL    HW226345   7.550   7.150   0.868
 4772SOL     OW26346   6.134   5.063   0.828
 4772SOL    HW126347   6.150   5.113   0.742
 4772SOL    HW226348   6.217   5.065   0.883
 4773SOL     OW26349   0.218   6.019   4.689
 4773SOL    HW126350   0.226   6.047   4.785
 4773SOL    HW226351   0.185   6.097   4.635
 4774SOL     OW26352   5.144  -0.002   1.232
 4774SOL    HW126353   5.232   0.040   1.211
 4774SOL    HW226354   5.138  -0.092   1.188
 4775SOL     OW26355   9.423   4.672   0.441
 4775SOL    HW126356   9.389   4.581   0.416
 4775SOL    HW226357   9.507   4.692   0.391
 4776SOL     OW26358   4.383   3.968   1.045
 4776SOL    HW126359   4.412   4.053   1.001
 4776SOL    HW226360   4.286   3.975   1.070
 4777SOL     OW26361   5.922   7.759   0.664
 4777SOL    HW126362   5.879   7.848   0.645
 4777SOL    HW226363   5.861   7.686   0.637
 4778SOL     OW26364   4.089   7.113   5.262
 4778SOL    HW126365   4.020   7.057   5.216
 4778SOL    HW226366   4.167   7.128   5.201
 4779SOL     OW26367   4.357   6.014   0.871
 4779SOL    HW126368   4.372   6.074   0.950
 4779SOL    HW226369   4.375   6.065   0.787
 4780SOL     OW26370   9.025   1.480   0.789
 4780SOL    HW126371   9.028   1.406   0.857
 4780SOL    HW226372   9.112   1.528   0.789
 4781SOL     OW26373   7.592   7.778   0.885
 4781SOL    HW126374   7.581   7.857   0.945
 4781SOL    HW226375   7.518   7.712   0.904
 4782SOL     OW26376   2.060  -0.053   5.727
 4782SOL    HW126377   2.128   0.016   5.751
 4782SOL    HW226378   1.991  -0.013   5.667
 4783SOL     OW26379   0.538   3.172   5.362
 4783SOL    HW126380   0.631   3.207   5.370
 4783SOL    HW226381   0.525   3.130   5.273
 4784SOL     OW26382   0.902   7.966   0.132
 4784SOL    HW126383   0.905   7.869   0.110
 4784SOL    HW226384   0.874   7.978   0.228
 4785SOL     OW26385   0.189   3.342   0.202
 4785SOL    HW126386   0.256   3.370   0.271
 4785SOL    HW226387   0.123   3.279   0.244
 4786SOL     OW26388   1.613   0.555   6.769
 4786SOL    HW126389   1.567   0.624   6.712
 4786SOL    HW226390   1.549   0.524   6.840
 4787SOL     OW26391   3.777   1.198   1.521
 4787SOL    HW126392   3.873   1.169   1.515
 4787SOL    HW226393   3.772   1.290   1.558
 4788SOL     OW26394   1.057   3.433   0.464
 4788SOL    HW126395   1.022   3.369   0.395
 4788SOL    HW226396   1.154   3.449   0.447
 4789SOL     OW26397   7.418   8.026   6.812
 4789SOL    HW126398   7.475   7.986   6.884
 4789SOL    HW226399   7.380   7.952   6.756
 4790SOL     OW26400   2.586   7.528   6.488
 4790SOL    HW126401   2.580   7.498   6.584
 4790SOL    HW226402   2.599   7.448   6.430
 4791SOL     OW26403   4.592   3.244   0.454
 4791SOL    HW126404   4.634   3.304   0.386
 4791SOL    HW226405   4.655   3.170   0.477
 4792SOL     OW26406   4.364   8.027   0.696
 4792SOL    HW126407   4.371   7.927   0.700
 4792SOL    HW226408   4.395   8.066   0.783
 4793SOL     OW26409   1.685   5.900   6.024
 4793SOL    HW126410   1.609   5.963   6.013
 4793SOL    HW226411   1.678   5.828   5.955
 4794SOL     OW26412   2.595   3.213   0.922
 4794SOL    HW126413   2.677   3.252   0.965
 4794SOL    HW226414   2.531   3.286   0.901
 4795SOL     OW26415   1.480   4.402   0.797
 4795SOL    HW126416   1.418   4.403   0.719
 4795SOL    HW226417   1.571   4.373   0.767
 4796SOL     OW26418   1.219   2.542   4.568
 4796SOL    HW126419   1.313   2.562   4.595
 4796SOL    HW226420   1.220   2.486   4.485
 4797SOL     OW26421   3.764   7.812   1.373
 4797SOL    HW126422   3.826   7.882   1.339
 4797SOL    HW226423   3.686   7.855   1.418
 4798SOL     OW26424   9.452   8.128   5.213
 4798SOL    HW126425   9.511   8.100   5.137
 4798SOL    HW226426   9.414   8.218   5.194
 4799SOL     OW26427   7.506   5.159   1.106
 4799SOL    HW126428   7.463   5.196   1.188
 4799SOL    HW226429   7.598   5.125   1.129
 4800SOL     OW26430   5.150   4.593   1.199
 4800SOL    HW126431   5.185   4.592   1.293
 4800SOL    HW226432   5.218   4.552   1.138
 4801SOL     OW26433   5.174   0.682   5.711
 4801SOL    HW126434   5.148   0.715   5.620
 4801SOL    HW226435   5.222   0.594   5.701
 4802SOL     OW26436   5.927   1.837   5.580
 4802SOL    HW126437   5.857   1.893   5.536
 4802SOL    HW226438   5.933   1.748   5.533
 4803SOL     OW26439   2.168   5.787   6.684
 4803SOL    HW126440   2.256   5.829   6.661
 4803SOL    HW226441   2.172   5.750   6.777
 4804SOL     OW26442   6.388   4.638   5.579
 4804SOL    HW126443   6.335   4.643   5.663
 4804SOL    HW226444   6.326   4.640   5.500
 4805SOL     OW26445   0.348   0.476   0.798
 4805SOL    HW126446   0.290   0.489   0.718
 4805SOL    HW226447   0.296   0.499   0.881
 4806SOL     OW26448   8.712   1.782   0.497
 4806SOL    HW126449   8.756   1.702   0.537
 4806SOL    HW226450   8.772   1.821   0.427
 4807SOL     OW26451   7.192   5.973   6.218
 4807SOL    HW126452   7.181   5.961   6.317
 4807SOL    HW226453   7.129   5.912   6.170
 4808SOL     OW26454   6.665   2.440   1.069
 4808SOL    HW126455   6.649   2.537   1.050
 4808SOL    HW226456   6.703   2.395   0.989
 4809SOL     OW26457   5.095   3.996   0.566
 4809SOL    HW126458   5.112   3.991   0.665
 4809SOL    HW226459   5.092   4.092   0.538
 4810SOL     OW26460   3.174   0.887   1.544
 4810SOL    HW126461   3.201   0.827   1.469
 4810SOL    HW226462   3.075   0.905   1.538
 4811SOL     OW26463   2.131   0.181   1.824
 4811SOL    HW126464   2.220   0.166   1.869
 4811SOL    HW226465   2.073   0.235   1.884
 4812SOL     OW26466   2.311   0.641   1.104
 4812SOL    HW126467   2.329   0.674   1.011
 4812SOL    HW226468   2.227   0.681   1.138
 4813SOL     OW26469   2.513   0.241   6.673
 4813SOL    HW126470   2.586   0.229   6.741
 4813SOL    HW226471   2.424   0.230   6.717
 4814SOL     OW26472   5.496   7.775   0.874
 4814SOL    HW126473   5.573   7.832   0.903
 4814SOL    HW226474   5.463   7.723   0.952
 4815SOL     OW26475   7.995   7.534   6.061
 4815SOL    HW126476   7.908   7.565   6.100
 4815SOL    HW226477   8.027   7.602   5.995
 4816SOL     OW26478   7.110   2.629   1.348
 4816SOL    HW126479   7.074   2.544   1.307
 4816SOL    HW226480   7.157   2.607   1.434
 4817SOL     OW26481   7.988   4.692   5.548
 4817SOL    HW126482   7.895   4.681   5.513
 4817SOL    HW226483   8.050   4.631   5.498
 4818SOL     OW26484   1.110   7.359   1.489
 4818SOL    HW126485   1.152   7.331   1.575
 4818SOL    HW226486   1.018   7.320   1.483
 4819SOL     OW26487   5.899   4.557   5.994
 4819SOL    HW126488   5.952   4.617   6.054
 4819SOL    HW226489   5.934   4.464   6.001
 4820SOL     OW26490   0.264   6.193   6.081
 4820SOL    HW126491   0.266   6.106   6.130
 4820SOL    HW226492   0.224   6.178   5.990
 4821SOL     OW26493   8.243   4.730   6.266
 4821SOL    HW126494   8.269   4.658   6.330
 4821SOL    HW226495   8.286   4.816   6.293
 4822SOL     OW26496   7.645   0.112   5.280
 4822SOL    HW126497   7.586   0.053   5.224
 4822SOL    HW226498   7.701   0.169   5.220
 4823SOL     OW26499   0.228   4.951   6.321
 4823SOL    HW126500   0.157   4.914   6.380
 4823SOL    HW226501   0.317   4.913   6.348
 4824SOL     OW26502   1.496   7.417   1.246
 4824SOL    HW126503   1.418   7.386   1.192
 4824SOL    HW226504   1.558   7.469   1.188
 4825SOL     OW26505   3.674   1.859   5.820
 4825SOL    HW126506   3.757   1.868   5.874
 4825SOL    HW226507   3.697   1.854   5.723
 4826SOL     OW26508   6.811   7.382   6.309
 4826SOL    HW126509   6.744   7.310   6.328
 4826SOL    HW226510   6.807   7.451   6.381
 4827SOL     OW26511   4.277   2.023   5.062
 4827SOL    HW126512   4.238   2.032   5.154
 4827SOL    HW226513   4.231   2.086   5.000
 4828SOL     OW26514   9.054   7.926   5.990
 4828SOL    HW126515   8.969   7.971   5.964
 4828SOL    HW226516   9.128   7.960   5.932
 4829SOL     OW26517   9.445   0.050   5.591
 4829SOL    HW126518   9.402  -0.039   5.609
 4829SOL    HW226519   9.385   0.105   5.534
 4830SOL     OW26520   6.929   5.998   1.673
 4830SOL    HW126521   6.934   5.971   1.769
 4830SOL    HW226522   6.991   5.941   1.619
 4831SOL     OW26523   3.750   6.406   0.460
 4831SOL    HW126524   3.680   6.442   0.399
 4831SOL    HW226525   3.736   6.443   0.552
 4832SOL     OW26526   4.438   5.310   0.612
 4832SOL    HW126527   4.522   5.362   0.597
 4832SOL    HW226528   4.395   5.290   0.524
 4833SOL     OW26529   6.800   3.758   6.675
 4833SOL    HW126530   6.799   3.843   6.728
 4833SOL    HW226531   6.894   3.722   6.671
 4834SOL     OW26532   8.207   1.527   6.284
 4834SOL    HW126533   8.249   1.610   6.247
 4834SOL    HW226534   8.193   1.461   6.210
 4835SOL     OW26535   2.477   3.206   6.489
 4835SOL    HW126536   2.542   3.207   6.413
 4835SOL    HW226537   2.527   3.214   6.575
 4836SOL     OW26538   1.827   6.486   5.354
 4836SOL    HW126539   1.741   6.435   5.344
 4836SOL    HW226540   1.880   6.477   5.269
 4837SOL     OW26541   3.857   0.644   1.293
 4837SOL    HW126542   3.837   0.726   1.240
 4837SOL    HW226543   3.779   0.582   1.289
 4838SOL     OW26544   7.069   4.802   0.226
 4838SOL    HW126545   7.028   4.735   0.288
 4838SOL    HW226546   7.131   4.755   0.163
 4839SOL     OW26547   4.772   2.040   1.029
 4839SOL    HW126548   4.820   2.113   1.079
 4839SOL    HW226549   4.840   1.980   0.986
 4840SOL     OW26550   3.309   7.030   0.742
 4840SOL    HW126551   3.332   6.934   0.723
 4840SOL    HW226552   3.214   7.046   0.718
 4841SOL     OW26553   5.212   7.726   6.247
 4841SOL    HW126554   5.249   7.662   6.314
 4841SOL    HW226555   5.262   7.812   6.251
 4842SOL     OW26556   4.211   1.239   0.967
 4842SOL    HW126557   4.178   1.251   0.873
 4842SOL    HW226558   4.138   1.266   1.031
 4843SOL     OW26559   4.512   8.165   0.980
 4843SOL    HW126560   4.530   8.208   1.069
 4843SOL    HW226561   4.519   8.065   0.990
 4844SOL     OW26562   3.499   6.191   5.854
 4844SOL    HW126563   3.470   6.095   5.854
 4844SOL    HW226564   3.450   6.241   5.925
 4845SOL     OW26565   0.710   4.827   0.530
 4845SOL    HW126566   0.754   4.850   0.443
 4845SOL    HW226567   0.723   4.730   0.550
 4846SOL     OW26568   2.900   7.598   5.779
 4846SOL    HW126569   2.932   7.507   5.753
 4846SOL    HW226570   2.888   7.654   5.697
 4847SOL     OW26571   4.971   3.086   1.056
 4847SOL    HW126572   4.994   3.003   1.107
 4847SOL    HW226573   4.978   3.166   1.116
 4848SOL     OW26574   6.582   1.499   6.289
 4848SOL    HW126575   6.629   1.416   6.321
 4848SOL    HW226576   6.550   1.551   6.368
 4849SOL     OW26577   5.735   0.494   6.040
 4849SOL    HW126578   5.732   0.458   6.134
 4849SOL    HW226579   5.754   0.420   5.976
 4850SOL     OW26580   2.447   0.211   0.551
 4850SOL    HW126581   2.359   0.175   0.582
 4850SOL    HW226582   2.520   0.150   0.582
 4851SOL     OW26583   8.758   4.656   1.004
 4851SOL    HW126584   8.773   4.574   0.948
 4851SOL    HW226585   8.687   4.638   1.072
 4852SOL     OW26586   7.551   1.424   0.135
 4852SOL    HW126587   7.623   1.354   0.136
 4852SOL    HW226588   7.565   1.486   0.212
 4853SOL     OW26589   7.868   5.763   5.758
 4853SOL    HW126590   7.923   5.791   5.679
 4853SOL    HW226591   7.779   5.730   5.726
 4854SOL     OW26592   6.948   4.050   1.611
 4854SOL    HW126593   6.859   4.086   1.640
 4854SOL    HW226594   6.993   4.118   1.553
 4855SOL     OW26595   1.102   2.360   5.858
 4855SOL    HW126596   1.189   2.357   5.907
 4855SOL    HW226597   1.111   2.313   5.770
 4856SOL     OW26598   8.021   7.448   1.242
 4856SOL    HW126599   8.104   7.421   1.291
 4856SOL    HW226600   7.957   7.490   1.305
 4857SOL     OW26601   6.165   6.919   1.374
 4857SOL    HW126602   6.162   6.933   1.473
 4857SOL    HW226603   6.207   6.830   1.354
 4858SOL     OW26604   2.298  -0.006   6.516
 4858SOL    HW126605   2.331   0.053   6.442
 4858SOL    HW226606   2.316  -0.101   6.493
 4859SOL     OW26607   6.184   0.261   0.912
 4859SOL    HW126608   6.244   0.224   0.842
 4859SOL    HW226609   6.094   0.281   0.872
 4860SOL     OW26610   2.556   2.048   6.273
 4860SOL    HW126611   2.637   2.011   6.228
 4860SOL    HW226612   2.474   2.016   6.226
 4861SOL     OW26613   5.549   4.292   1.170
 4861SOL    HW126614   5.624   4.357   1.172
 4861SOL    HW226615   5.466   4.339   1.138
 4862SOL     OW26616   1.237   7.289   1.727
 4862SOL    HW126617   1.226   7.383   1.761
 4862SOL    HW226618   1.204   7.224   1.795
 4863SOL     OW26619   6.383   3.557   1.193
 4863SOL    HW126620   6.394   3.656   1.197
 4863SOL    HW226621   6.462   3.513   1.236
 4864SOL     OW26622   5.367   0.399   5.939
 4864SOL    HW126623   5.295   0.370   6.002
 4864SOL    HW226624   5.405   0.487   5.970
 4865SOL     OW26625   5.979   2.478   1.969
 4865SOL    HW126626   6.029   2.562   1.945
 4865SOL    HW226627   5.914   2.498   2.042
 4866SOL     OW26628   1.090   2.675   1.366
 4866SOL    HW126629   1.072   2.679   1.464
 4866SOL    HW226630   1.023   2.730   1.318
 4867SOL     OW26631   0.815   6.949   0.503
 4867SOL    HW126632   0.912   6.964   0.522
 4867SOL    HW226633   0.777   6.887   0.571
 4868SOL     OW26634   5.236   6.471   6.469
 4868SOL    HW126635   5.217   6.411   6.391
 4868SOL    HW226636   5.335   6.480   6.480
 4869SOL     OW26637   7.192   1.978   1.808
 4869SOL    HW126638   7.260   1.913   1.774
 4869SOL    HW226639   7.133   1.934   1.875
 4870SOL     OW26640   7.009   3.345   6.215
 4870SOL    HW126641   6.943   3.325   6.143
 4870SOL    HW226642   6.973   3.417   6.274
 4871SOL     OW26643   1.755   5.281   5.851
 4871SOL    HW126644   1.836   5.236   5.814
 4871SOL    HW226645   1.780   5.333   5.933
 4872SOL     OW26646   7.226   7.110   5.776
 4872SOL    HW126647   7.289   7.056   5.832
 4872SOL    HW226648   7.195   7.190   5.829
 4873SOL     OW26649   1.854  -0.030   0.329
 4873SOL    HW126650   1.913   0.050   0.342
 4873SOL    HW226651   1.780  -0.027   0.396
 4874SOL     OW26652   0.298   3.040   1.020
 4874SOL    HW126653   0.228   2.969   1.014
 4874SOL    HW226654   0.334   3.044   1.113
 4875SOL     OW26655   7.552   2.681   5.686
 4875SOL    HW126656   7.507   2.679   5.597
 4875SOL    HW226657   7.551   2.774   5.722
 4876SOL     OW26658   2.689   7.957   5.746
 4876SOL    HW126659   2.758   7.928   5.679
 4876SOL    HW226660   2.655   7.877   5.796
 4877SOL     OW26661   5.802   2.236   0.597
 4877SOL    HW126662   5.871   2.307   0.609
 4877SOL    HW226663   5.714   2.279   0.576
 4878SOL     OW26664   4.429   6.374   0.785
 4878SOL    HW126665   4.510   6.388   0.728
 4878SOL    HW226666   4.364   6.448   0.769
 4879SOL     OW26667   0.508   5.072   5.887
 4879SOL    HW126668   0.577   5.000   5.897
 4879SOL    HW226669   0.490   5.086   5.790
 4880SOL     OW26670   6.559   7.316   0.709
 4880SOL    HW126671   6.629   7.264   0.757
 4880SOL    HW226672   6.602   7.381   0.647
 4881SOL     OW26673   6.373   8.135   6.189
 4881SOL    HW126674   6.329   8.046   6.174
 4881SOL    HW226675   6.421   8.134   6.277
 4882SOL     OW26676   8.200   5.373   0.387
 4882SOL    HW126677   8.205   5.375   0.287
 4882SOL    HW226678   8.104   5.362   0.415
 4883SOL     OW26679   8.796   1.543   0.639
 4883SOL    HW126680   8.885   1.554   0.685
 4883SOL    HW226681   8.758   1.454   0.661
 4884SOL     OW26682   4.838   2.494   6.056
 4884SOL    HW126683   4.927   2.474   6.013
 4884SOL    HW226684   4.841   2.584   6.098
 4885SOL     OW26685   0.844   7.061   0.260
 4885SOL    HW126686   0.779   7.136   0.246
 4885SOL    HW226687   0.817   7.008   0.341
 4886SOL     OW26688   4.580   5.511   1.941
 4886SOL    HW126689   4.657   5.471   1.991
 4886SOL    HW226690   4.498   5.455   1.958
 4887SOL     OW26691   0.594   1.508   6.747
 4887SOL    HW126692   0.579   1.410   6.752
 4887SOL    HW226693   0.591   1.547   6.840
 4888SOL     OW26694   6.063   5.618   1.907
 4888SOL    HW126695   6.108   5.534   1.938
 4888SOL    HW226696   5.969   5.620   1.941
 4889SOL     OW26697   2.377   7.183   0.902
 4889SOL    HW126698   2.338   7.160   0.813
 4889SOL    HW226699   2.313   7.155   0.974
 4890SOL     OW26700   1.217   1.155   5.472
 4890SOL    HW126701   1.257   1.109   5.393
 4890SOL    HW226702   1.174   1.240   5.442
 4891SOL     OW26703   6.117   2.288   5.866
 4891SOL    HW126704   6.133   2.271   5.769
 4891SOL    HW226705   6.030   2.246   5.893
 4892SOL     OW26706   8.115   2.138   0.766
 4892SOL    HW126707   8.206   2.130   0.726
 4892SOL    HW226708   8.118   2.113   0.863
 4893SOL     OW26709   0.289   8.262   5.508
 4893SOL    HW126710   0.220   8.301   5.446
 4893SOL    HW226711   0.368   8.323   5.514
 4894SOL     OW26712   0.866   4.001   6.354
 4894SOL    HW126713   0.819   4.071   6.301
 4894SOL    HW226714   0.964   4.003   6.332
 4895SOL     OW26715   8.222   2.051   6.268
 4895SOL    HW126716   8.282   1.986   6.315
 4895SOL    HW226717   8.255   2.065   6.175
 4896SOL     OW26718   1.916   2.694   1.173
 4896SOL    HW126719   1.981   2.769   1.186
 4896SOL    HW226720   1.886   2.660   1.263
 4897SOL     OW26721   0.816   7.940   6.575
 4897SOL    HW126722   0.828   7.963   6.672
 4897SOL    HW226723   0.906   7.920   6.535
 4898SOL     OW26724   0.122   0.951   1.404
 4898SOL    HW126725   0.032   0.929   1.366
 4898SOL    HW226726   0.122   0.930   1.502
 4899SOL     OW26727   6.940   3.783   6.427
 4899SOL    HW126728   7.024   3.776   6.372
 4899SOL    HW226729   6.954   3.849   6.500
 4900SOL     OW26730   6.557   2.626   1.566
 4900SOL    HW126731   6.530   2.547   1.621
 4900SOL    HW226732   6.572   2.705   1.626
 4901SOL     OW26733   2.572   5.153   0.449
 4901SOL    HW126734   2.640   5.160   0.376
 4901SOL    HW226735   2.488   5.115   0.413
 4902SOL     OW26736   6.453   7.006   1.236
 4902SOL    HW126737   6.441   7.018   1.137
 4902SOL    HW226738   6.363   6.995   1.279
 4903SOL     OW26739   6.357   3.962   5.724
 4903SOL    HW126740   6.452   3.934   5.713
 4903SOL    HW226741   6.297   3.892   5.684
 4904SOL     OW26742   5.803   7.164   0.131
 4904SOL    HW126743   5.810   7.183   0.229
 4904SOL    HW226744   5.894   7.161   0.090
 4905SOL     OW26745   4.675   4.026   6.575
 4905SOL    HW126746   4.764   4.050   6.536
 4905SOL    HW226747   4.637   4.105   6.624
 4906SOL     OW26748   2.682   5.677   6.674
 4906SOL    HW126749   2.697   5.614   6.750
 4906SOL    HW226750   2.685   5.771   6.709
 4907SOL     OW26751   3.181   7.677   1.605
 4907SOL    HW126752   3.136   7.589   1.616
 4907SOL    HW226753   3.228   7.680   1.517
 4908SOL     OW26754   7.882   3.814   1.546
 4908SOL    HW126755   7.892   3.773   1.455
 4908SOL    HW226756   7.944   3.892   1.554
 4909SOL     OW26757   0.705   6.712   5.651
 4909SOL    HW126758   0.664   6.624   5.676
 4909SOL    HW226759   0.737   6.708   5.556
 4910SOL     OW26760   1.437   7.670   5.613
 4910SOL    HW126761   1.350   7.717   5.606
 4910SOL    HW226762   1.463   7.633   5.524
 4911SOL     OW26763   6.541   4.211   6.204
 4911SOL    HW126764   6.553   4.112   6.207
 4911SOL    HW226765   6.592   4.248   6.127
 4912SOL     OW26766   1.856   2.560   1.390
 4912SOL    HW126767   1.809   2.503   1.322
 4912SOL    HW226768   1.894   2.501   1.462
 4913SOL     OW26769   3.159   2.225   2.607
 4913SOL    HW126770   3.220   2.260   2.679
 4913SOL    HW226771   3.099   2.299   2.576
 4914SOL     OW26772   6.299   4.357   4.736
 4914SOL    HW126773   6.208   4.392   4.712
 4914SOL    HW226774   6.351   4.429   4.784
 4915SOL     OW26775   0.745   3.030   0.811
 4915SOL    HW126776   0.676   3.099   0.832
 4915SOL    HW226777   0.711   2.970   0.739
 4916SOL     OW26778   2.615   2.055   0.276
 4916SOL    HW126779   2.641   2.107   0.357
 4916SOL    HW226780   2.675   1.976   0.266
 4917SOL     OW26781   1.475   2.625   4.641
 4917SOL    HW126782   1.534   2.547   4.625
 4917SOL    HW226783   1.528   2.700   4.680
 4918SOL     OW26784   3.816   6.841   6.454
 4918SOL    HW126785   3.804   6.779   6.532
 4918SOL    HW226786   3.869   6.920   6.483
 4919SOL     OW26787   8.096   7.145   5.468
 4919SOL    HW126788   8.056   7.226   5.424
 4919SOL    HW226789   8.136   7.086   5.399
 4920SOL     OW26790   4.671   6.629   4.753
 4920SOL    HW126791   4.638   6.716   4.717
 4920SOL    HW226792   4.605   6.557   4.730
 4921SOL     OW26793   7.885   7.812   2.087
 4921SOL    HW126794   7.952   7.754   2.132
 4921SOL    HW226795   7.795   7.769   2.090
 4922SOL     OW26796   8.238   6.752   0.622
 4922SOL    HW126797   8.265   6.805   0.541
 4922SOL    HW226798   8.190   6.669   0.593
 4923SOL     OW26799   4.221   3.726   0.610
 4923SOL    HW126800   4.235   3.668   0.690
 4923SOL    HW226801   4.257   3.681   0.529
 4924SOL     OW26802   8.393   3.260   5.264
 4924SOL    HW126803   8.401   3.336   5.199
 4924SOL    HW226804   8.395   3.173   5.214
 4925SOL     OW26805   3.739   3.754   5.845
 4925SOL    HW126806   3.749   3.776   5.748
 4925SOL    HW226807   3.765   3.659   5.860
 4926SOL     OW26808   2.227   3.862   6.811
 4926SOL    HW126809   2.201   3.765   6.803
 4926SOL    HW226810   2.198   3.897   6.900
 4927SOL     OW26811   7.444   4.636   5.647
 4927SOL    HW126812   7.433   4.538   5.659
 4927SOL    HW226813   7.396   4.665   5.564
 4928SOL     OW26814   1.873   1.130   0.789
 4928SOL    HW126815   1.883   1.032   0.768
 4928SOL    HW226816   1.825   1.141   0.876
 4929SOL     OW26817   2.433   4.628   1.468
 4929SOL    HW126818   2.476   4.585   1.388
 4929SOL    HW226819   2.341   4.660   1.444
 4930SOL     OW26820   2.784   6.865   2.078
 4930SOL    HW126821   2.749   6.957   2.096
 4930SOL    HW226822   2.866   6.849   2.133
 4931SOL     OW26823   0.686   5.082   6.167
 4931SOL    HW126824   0.638   4.995   6.180
 4931SOL    HW226825   0.656   5.124   6.082
 4932SOL     OW26826   3.833   1.523   6.608
 4932SOL    HW126827   3.902   1.580   6.652
 4932SOL    HW226828   3.867   1.491   6.520
 4933SOL     OW26829   5.536   2.930   6.340
 4933SOL    HW126830   5.540   3.008   6.402
 4933SOL    HW226831   5.468   2.947   6.269
 4934SOL     OW26832   6.620   1.782   0.604
 4934SOL    HW126833   6.693   1.753   0.666
 4934SOL    HW226834   6.548   1.713   0.601
 4935SOL     OW26835   0.415   2.029   6.842
 4935SOL    HW126836   0.338   2.046   6.904
 4935SOL    HW226837   0.433   2.112   6.789
 4936SOL     OW26838   9.363   7.217   1.078
 4936SOL    HW126839   9.300   7.184   1.148
 4936SOL    HW226840   9.453   7.232   1.118
 4937SOL     OW26841   5.919   0.312   5.837
 4937SOL    HW126842   5.939   0.242   5.770
 4937SOL    HW226843   5.933   0.402   5.797
 4938SOL     OW26844   1.327   1.316   0.812
 4938SOL    HW126845   1.228   1.304   0.808
 4938SOL    HW226846   1.367   1.248   0.873
 4939SOL     OW26847   6.493   1.797   6.093
 4939SOL    HW126848   6.525   1.808   5.999
 4939SOL    HW226849   6.520   1.707   6.127
 4940SOL     OW26850   0.693   2.819   0.651
 4940SOL    HW126851   0.606   2.789   0.690
 4940SOL    HW226852   0.690   2.811   0.551
 4941SOL     OW26853   6.957   2.869   6.184
 4941SOL    HW126854   7.028   2.928   6.221
 4941SOL    HW226855   6.873   2.880   6.237
 4942SOL     OW26856   2.148   3.969   0.314
 4942SOL    HW126857   2.207   3.902   0.359
 4942SOL    HW226858   2.085   4.009   0.381
 4943SOL     OW26859   9.289   8.131   6.294
 4943SOL    HW126860   9.228   8.208   6.314
 4943SOL    HW226861   9.360   8.161   6.230
 4944SOL     OW26862   0.751   7.073   0.844
 4944SOL    HW126863   0.800   7.042   0.926
 4944SOL    HW226864   0.656   7.045   0.849
 4945SOL     OW26865   2.461   1.953   1.982
 4945SOL    HW126866   2.425   1.934   2.074
 4945SOL    HW226867   2.443   2.049   1.959
 4946SOL     OW26868   1.418   0.453   6.402
 4946SOL    HW126869   1.489   0.389   6.372
 4946SOL    HW226870   1.328   0.412   6.385
 4947SOL     OW26871   2.503   4.930   1.384
 4947SOL    HW126872   2.459   5.005   1.433
 4947SOL    HW226873   2.512   4.851   1.444
 4948SOL     OW26874   9.427   3.072   0.506
 4948SOL    HW126875   9.431   2.972   0.508
 4948SOL    HW226876   9.412   3.106   0.599
 4949SOL     OW26877   2.988   4.583   6.555
 4949SOL    HW126878   2.901   4.591   6.507
 4949SOL    HW226879   3.053   4.649   6.517
 4950SOL     OW26880   5.584   0.481   0.829
 4950SOL    HW126881   5.637   0.462   0.912
 4950SOL    HW226882   5.551   0.575   0.831
 4951SOL     OW26883   1.680   0.759   4.825
 4951SOL    HW126884   1.635   0.671   4.819
 4951SOL    HW226885   1.654   0.815   4.746
 4952SOL     OW26886   8.540   5.453   5.660
 4952SOL    HW126887   8.632   5.491   5.670
 4952SOL    HW226888   8.539   5.388   5.584
 4953SOL     OW26889   0.680   0.282   1.873
 4953SOL    HW126890   0.760   0.332   1.907
 4953SOL    HW226891   0.597   0.317   1.917
 4954SOL     OW26892   1.710   6.454   0.232
 4954SOL    HW126893   1.646   6.452   0.309
 4954SOL    HW226894   1.661   6.480   0.149
 4955SOL     OW26895   9.430   0.130   6.834
 4955SOL    HW126896   9.512   0.097   6.789
 4955SOL    HW226897   9.353   0.125   6.770
 4956SOL     OW26898   1.297   3.551   0.412
 4956SOL    HW126899   1.325   3.646   0.428
 4956SOL    HW226900   1.369   3.502   0.363
 4957SOL     OW26901   4.969   0.488   1.792
 4957SOL    HW126902   5.003   0.399   1.761
 4957SOL    HW226903   5.045   0.548   1.814
 4958SOL     OW26904   5.354   4.226   0.473
 4958SOL    HW126905   5.256   4.244   0.473
 4958SOL    HW226906   5.374   4.150   0.411
 4959SOL     OW26907   9.314   7.538   0.175
 4959SOL    HW126908   9.223   7.531   0.216
 4959SOL    HW226909   9.308   7.587   0.089
 4960SOL     OW26910   6.684   1.310   2.106
 4960SOL    HW126911   6.697   1.322   2.204
 4960SOL    HW226912   6.682   1.213   2.084
 4961SOL     OW26913   3.439   0.851   0.640
 4961SOL    HW126914   3.528   0.827   0.599
 4961SOL    HW226915   3.439   0.948   0.663
 4962SOL     OW26916   4.830   7.857   1.456
 4962SOL    HW126917   4.825   7.866   1.356
 4962SOL    HW226918   4.907   7.798   1.481
 4963SOL     OW26919   6.547   3.100   6.758
 4963SOL    HW126920   6.463   3.149   6.781
 4963SOL    HW226921   6.550   3.082   6.660
 4964SOL     OW26922   9.214   1.682   0.677
 4964SOL    HW126923   9.201   1.727   0.589
 4964SOL    HW226924   9.173   1.737   0.750
 4965SOL     OW26925   3.372   3.498   1.418
 4965SOL    HW126926   3.403   3.506   1.513
 4965SOL    HW226927   3.426   3.428   1.371
 4966SOL     OW26928   1.820   6.102   6.519
 4966SOL    HW126929   1.882   6.175   6.488
 4966SOL    HW226930   1.834   6.021   6.462
 4967SOL     OW26931   4.837   5.277   0.395
 4967SOL    HW126932   4.767   5.278   0.324
 4967SOL    HW226933   4.918   5.229   0.361
 4968SOL     OW26934   3.846   4.434   5.880
 4968SOL    HW126935   3.899   4.405   5.801
 4968SOL    HW226936   3.853   4.364   5.952
 4969SOL     OW26937   2.372   4.215   0.652
 4969SOL    HW126938   2.462   4.244   0.618
 4969SOL    HW226939   2.323   4.294   0.686
 4970SOL     OW26940   4.108   5.539   5.801
 4970SOL    HW126941   4.158   5.488   5.731
 4970SOL    HW226942   4.021   5.571   5.764
 4971SOL     OW26943   5.207   1.221   6.731
 4971SOL    HW126944   5.211   1.125   6.757
 4971SOL    HW226945   5.298   1.261   6.737
 4972SOL     OW26946   7.828   5.564   6.559
 4972SOL    HW126947   7.769   5.622   6.615
 4972SOL    HW226948   7.795   5.564   6.465
 4973SOL     OW26949   2.536   3.840   6.032
 4973SOL    HW126950   2.463   3.811   5.970
 4973SOL    HW226951   2.497   3.876   6.117
 4974SOL     OW26952   2.162   4.598   5.262
 4974SOL    HW126953   2.142   4.531   5.191
 4974SOL    HW226954   2.252   4.577   5.302
 4975SOL     OW26955   6.254   4.153   1.230
 4975SOL    HW126956   6.314   4.230   1.208
 4975SOL    HW226957   6.213   4.168   1.320
 4976SOL     OW26958   8.719   4.230   0.987
 4976SOL    HW126959   8.641   4.172   1.010
 4976SOL    HW226960   8.804   4.182   1.010
 4977SOL     OW26961   7.022   0.389   5.695
 4977SOL    HW126962   7.036   0.487   5.710
 4977SOL    HW226963   6.952   0.376   5.624
 4978SOL     OW26964   5.462   0.358   5.497
 4978SOL    HW126965   5.391   0.368   5.567
 4978SOL    HW226966   5.485   0.448   5.460
 4979SOL     OW26967   9.155   7.048   5.974
 4979SOL    HW126968   9.182   7.091   5.888
 4979SOL    HW226969   9.056   7.052   5.983
 4980SOL     OW26970   3.432   6.336   0.283
 4980SOL    HW126971   3.475   6.417   0.323
 4980SOL    HW226972   3.346   6.317   0.330
 4981SOL     OW26973   2.687   6.428   1.247
 4981SOL    HW126974   2.687   6.368   1.167
 4981SOL    HW226975   2.728   6.380   1.324
 4982SOL     OW26976   6.241   0.365   6.220
 4982SOL    HW126977   6.219   0.290   6.157
 4982SOL    HW226978   6.335   0.354   6.253
 4983SOL     OW26979   4.932   2.640   6.677
 4983SOL    HW126980   4.866   2.592   6.734
 4983SOL    HW226981   4.988   2.701   6.734
 4984SOL     OW26982   7.303   7.610   5.959
 4984SOL    HW126983   7.383   7.553   5.941
 4984SOL    HW226984   7.236   7.597   5.885
 4985SOL     OW26985   7.940   3.244   6.515
 4985SOL    HW126986   7.861   3.280   6.566
 4985SOL    HW226987   8.021   3.300   6.535
 4986SOL     OW26988   8.651   6.211   6.517
 4986SOL    HW126989   8.682   6.185   6.608
 4986SOL    HW226990   8.681   6.143   6.450
 4987SOL     OW26991   2.226   7.776   1.300
 4987SOL    HW126992   2.137   7.733   1.312
 4987SOL    HW226993   2.274   7.778   1.388
 4988SOL     OW26994   6.151   1.609   6.289
 4988SOL    HW126995   6.137   1.568   6.198
 4988SOL    HW226996   6.148   1.537   6.358
 4989SOL     OW26997   2.173   0.181   0.693
 4989SOL    HW126998   2.127   0.131   0.620
 4989SOL    HW226999   2.167   0.129   0.779
 4990SOL     OW27000   6.070   1.721   1.460
 4990SOL    HW127001   6.097   1.811   1.492
 4990SOL    HW227002   6.026   1.671   1.535
 4991SOL     OW27003   9.280   1.217   1.160
 4991SOL    HW127004   9.249   1.130   1.200
 4991SOL    HW227005   9.337   1.266   1.226
 4992SOL     OW27006   7.897   7.284   6.379
 4992SOL    HW127007   7.952   7.201   6.374
 4992SOL    HW227008   7.923   7.337   6.460
 4993SOL     OW27009   0.684   7.388   0.521
 4993SOL    HW127010   0.606   7.357   0.576
 4993SOL    HW227011   0.677   7.486   0.505
 4994SOL     OW27012   6.691   7.740   1.043
 4994SOL    HW127013   6.761   7.668   1.051
 4994SOL    HW227014   6.683   7.768   0.947
 4995SOL     OW27015   5.028   4.969   0.842
 4995SOL    HW127016   4.951   4.988   0.781
 4995SOL    HW227017   5.003   4.991   0.936
 4996SOL     OW27018   8.069   1.999   1.330
 4996SOL    HW127019   8.075   2.096   1.351
 4996SOL    HW227020   8.038   1.986   1.236
 4997SOL     OW27021   9.204   8.276   1.396
 4997SOL    HW127022   9.130   8.326   1.351
 4997SOL    HW227023   9.276   8.340   1.423
 4998SOL     OW27024   0.782   5.590   4.548
 4998SOL    HW127025   0.874   5.571   4.516
 4998SOL    HW227026   0.786   5.653   4.625
 4999SOL     OW27027   2.324   2.623   0.667
 4999SOL    HW127028   2.320   2.714   0.707
 4999SOL    HW227029   2.400   2.618   0.602
 5000SOL     OW27030   9.160   1.815   0.432
 5000SOL    HW127031   9.076   1.866   0.413
 5000SOL    HW227032   9.237   1.878   0.433
 5001SOL     OW27033   7.204   7.231   6.358
 5001SOL    HW127034   7.146   7.292   6.302
 5001SOL    HW227035   7.266   7.287   6.413
 5002SOL     OW27036   9.493   6.901   5.253
 5002SOL    HW127037   9.502   6.981   5.194
 5002SOL    HW227038   9.499   6.817   5.198
 5003SOL     OW27039   7.714   0.431   0.608
 5003SOL    HW127040   7.668   0.493   0.672
 5003SOL    HW227041   7.812   0.429   0.629
 5004SOL     OW27042   4.383   4.127   0.598
 5004SOL    HW127043   4.304   4.188   0.601
 5004SOL    HW227044   4.365   4.050   0.537
 5005SOL     OW27045   2.820   5.756   0.410
 5005SOL    HW127046   2.744   5.694   0.425
 5005SOL    HW227047   2.872   5.766   0.495
 5006SOL     OW27048   5.344   1.583   0.167
 5006SOL    HW127049   5.278   1.600   0.241
 5006SOL    HW227050   5.332   1.650   0.095
 5007SOL     OW27051   5.846   6.388   0.253
 5007SOL    HW127052   5.941   6.371   0.277
 5007SOL    HW227053   5.797   6.422   0.334
 5008SOL     OW27054   2.190   2.882   0.267
 5008SOL    HW127055   2.109   2.852   0.317
 5008SOL    HW227056   2.180   2.857   0.171
 5009SOL     OW27057   3.154   6.761   1.062
 5009SOL    HW127058   3.250   6.778   1.040
 5009SOL    HW227059   3.117   6.839   1.113
 5010SOL     OW27060   0.935   3.709   6.200
 5010SOL    HW127061   1.000   3.705   6.276
 5010SOL    HW227062   0.878   3.790   6.208
 5011SOL     OW27063   7.994   8.318   6.308
 5011SOL    HW127064   7.949   8.309   6.397
 5011SOL    HW227065   7.925   8.330   6.236
 5012SOL     OW27066   9.328   0.170   6.435
 5012SOL    HW127067   9.370   0.247   6.482
 5012SOL    HW227068   9.277   0.203   6.355
 5013SOL     OW27069   3.231   3.547   6.339
 5013SOL    HW127070   3.328   3.544   6.362
 5013SOL    HW227071   3.199   3.455   6.315
 5014SOL     OW27072   1.061   4.077   0.254
 5014SOL    HW127073   1.147   4.105   0.210
 5014SOL    HW227074   1.076   3.993   0.306
 5015SOL     OW27075   8.198   5.113   5.242
 5015SOL    HW127076   8.143   5.089   5.161
 5015SOL    HW227077   8.143   5.102   5.324
 5016SOL     OW27078   1.771   1.119   6.685
 5016SOL    HW127079   1.744   1.176   6.763
 5016SOL    HW227080   1.857   1.154   6.647
 5017SOL     OW27081   2.174   0.433   6.607
 5017SOL    HW127082   2.100   0.366   6.603
 5017SOL    HW227083   2.142   0.520   6.571
 5018SOL     OW27084   8.973   6.916   5.225
 5018SOL    HW127085   9.046   6.959   5.172
 5018SOL    HW227086   9.012   6.876   5.308
 5019SOL     OW27087   5.144   7.148   6.418
 5019SOL    HW127088   5.204   7.114   6.346
 5019SOL    HW227089   5.097   7.071   6.461
 5020SOL     OW27090   7.200   5.308   5.689
 5020SOL    HW127091   7.282   5.346   5.646
 5020SOL    HW227092   7.203   5.208   5.685
 5021SOL     OW27093   0.136   0.701   6.314
 5021SOL    HW127094   0.037   0.701   6.332
 5021SOL    HW227095   0.181   0.642   6.382
 5022SOL     OW27096   3.203   1.468   0.347
 5022SOL    HW127097   3.138   1.466   0.272
 5022SOL    HW227098   3.290   1.430   0.316
 5023SOL     OW27099   2.181   5.423   5.560
 5023SOL    HW127100   2.151   5.517   5.574
 5023SOL    HW227101   2.253   5.400   5.626
 5024SOL     OW27102   4.012   4.394   1.876
 5024SOL    HW127103   3.999   4.490   1.853
 5024SOL    HW227104   3.925   4.346   1.868
 5025SOL     OW27105   5.605   3.479   0.903
 5025SOL    HW127106   5.639   3.456   0.994
 5025SOL    HW227107   5.547   3.560   0.909
 5026SOL     OW27108   1.717   0.846   0.755
 5026SOL    HW127109   1.647   0.867   0.823
 5026SOL    HW227110   1.673   0.809   0.673
 5027SOL     OW27111   2.132   6.740   6.132
 5027SOL    HW127112   2.095   6.818   6.082
 5027SOL    HW227113   2.197   6.691   6.075
 5028SOL     OW27114   5.897   0.857   1.116
 5028SOL    HW127115   5.866   0.763   1.136
 5028SOL    HW227116   5.996   0.859   1.111
 5029SOL     OW27117   3.812   5.680   5.661
 5029SOL    HW127118   3.744   5.607   5.671
 5029SOL    HW227119   3.765   5.767   5.646
 5030SOL     OW27120   7.135   1.924   5.534
 5030SOL    HW127121   7.131   2.021   5.557
 5030SOL    HW227122   7.101   1.910   5.441
 5031SOL     OW27123   4.719   8.249   0.359
 5031SOL    HW127124   4.634   8.287   0.396
 5031SOL    HW227125   4.732   8.282   0.265
 5032SOL     OW27126   5.030   7.750   5.821
 5032SOL    HW127127   4.972   7.700   5.886
 5032SOL    HW227128   5.126   7.728   5.838
 5033SOL     OW27129   2.245   1.702   6.156
 5033SOL    HW127130   2.149   1.714   6.179
 5033SOL    HW227131   2.254   1.677   6.060
 5034SOL     OW27132   5.096   6.699   6.180
 5034SOL    HW127133   5.031   6.637   6.223
 5034SOL    HW227134   5.080   6.792   6.213
 5035SOL     OW27135   9.535   7.905   5.727
 5035SOL    HW127136   9.579   7.995   5.730
 5035SOL    HW227137   9.501   7.888   5.635
 5036SOL     OW27138   1.383   5.891   6.826
 5036SOL    HW127139   1.446   5.966   6.845
 5036SOL    HW227140   1.322   5.916   6.751
 5037SOL     OW27141   1.077   4.063   5.784
 5037SOL    HW127142   1.052   4.117   5.864
 5037SOL    HW227143   1.162   4.097   5.746
 5038SOL     OW27144   8.762   7.383   4.219
 5038SOL    HW127145   8.854   7.396   4.257
 5038SOL    HW227146   8.769   7.334   4.132
 5039SOL     OW27147   3.548   6.020   6.713
 5039SOL    HW127148   3.480   6.054   6.648
 5039SOL    HW227149   3.526   6.053   6.804
 5040SOL     OW27150   4.019   7.782   1.141
 5040SOL    HW127151   4.076   7.760   1.062
 5040SOL    HW227152   4.077   7.802   1.220
 5041SOL     OW27153   7.214   1.567   6.705
 5041SOL    HW127154   7.224   1.530   6.797
 5041SOL    HW227155   7.242   1.498   6.638
 5042SOL     OW27156   8.484   6.348   6.172
 5042SOL    HW127157   8.521   6.396   6.093
 5042SOL    HW227158   8.513   6.393   6.256
 5043SOL     OW27159   0.523   6.222   5.537
 5043SOL    HW127160   0.595   6.260   5.595
 5043SOL    HW227161   0.457   6.174   5.594
 5044SOL     OW27162   5.850   0.790   6.849
 5044SOL    HW127163   5.934   0.736   6.844
 5044SOL    HW227164   5.854   0.865   6.783
 5045SOL     OW27165   0.259   0.366   6.160
 5045SOL    HW127166   0.268   0.465   6.147
 5045SOL    HW227167   0.349   0.323   6.150
 5046SOL     OW27168   8.508   1.085   0.972
 5046SOL    HW127169   8.560   1.107   1.054
 5046SOL    HW227170   8.450   1.163   0.947
 5047SOL     OW27171   0.424   2.205   0.932
 5047SOL    HW127172   0.484   2.127   0.949
 5047SOL    HW227173   0.476   2.290   0.942
 5048SOL     OW27174   1.403   6.371   5.448
 5048SOL    HW127175   1.449   6.320   5.521
 5048SOL    HW227176   1.460   6.368   5.366
 5049SOL     OW27177   3.631   4.953   6.451
 5049SOL    HW127178   3.650   4.907   6.538
 5049SOL    HW227179   3.576   5.035   6.468
 5050SOL     OW27180   1.110   6.876   6.680
 5050SOL    HW127181   1.157   6.818   6.614
 5050SOL    HW227182   1.079   6.960   6.634
 5051SOL     OW27183   3.045   8.064   6.217
 5051SOL    HW127184   3.052   8.164   6.226
 5051SOL    HW227185   2.976   8.030   6.281
 5052SOL     OW27186   6.586   1.243   1.349
 5052SOL    HW127187   6.653   1.189   1.298
 5052SOL    HW227188   6.519   1.182   1.391
 5053SOL     OW27189   5.595   7.205   5.714
 5053SOL    HW127190   5.550   7.116   5.708
 5053SOL    HW227191   5.537   7.275   5.673
 5054SOL     OW27192   9.455   6.671   6.016
 5054SOL    HW127193   9.398   6.604   6.063
 5054SOL    HW227194   9.428   6.763   6.044
 5055SOL     OW27195   5.769   2.976   0.935
 5055SOL    HW127196   5.868   2.974   0.945
 5055SOL    HW227197   5.740   2.910   0.866
 5056SOL     OW27198   7.613   7.443   0.789
 5056SOL    HW127199   7.676   7.386   0.841
 5056SOL    HW227200   7.520   7.408   0.799
 5057SOL     OW27201   2.349   1.334   1.209
 5057SOL    HW127202   2.407   1.413   1.227
 5057SOL    HW227203   2.264   1.342   1.260
 5058SOL     OW27204   4.895   6.521   6.156
 5058SOL    HW127205   4.843   6.529   6.241
 5058SOL    HW227206   4.837   6.482   6.085
 5059SOL     OW27207   5.823   8.129   0.999
 5059SOL    HW127208   5.915   8.127   0.960
 5059SOL    HW227209   5.805   8.218   1.039
 5060SOL     OW27210   2.568   5.948   1.229
 5060SOL    HW127211   2.626   6.025   1.256
 5060SOL    HW227212   2.577   5.874   1.296
 5061SOL     OW27213   6.201   2.131   6.262
 5061SOL    HW127214   6.231   2.073   6.186
 5061SOL    HW227215   6.263   2.209   6.271
 5062SOL     OW27216   2.102   6.464   0.668
 5062SOL    HW127217   2.133   6.540   0.611
 5062SOL    HW227218   2.035   6.497   0.735
 5063SOL     OW27219   3.500   0.079   5.470
 5063SOL    HW127220   3.452   0.163   5.496
 5063SOL    HW227221   3.576   0.062   5.532
 5064SOL     OW27222   1.027   0.125   0.428
 5064SOL    HW127223   1.072   0.202   0.474
 5064SOL    HW227224   1.092   0.081   0.366
 5065SOL     OW27225   4.681   2.910   1.966
 5065SOL    HW127226   4.635   2.911   2.055
 5065SOL    HW227227   4.677   3.002   1.925
 5066SOL     OW27228   8.187  -0.037   0.772
 5066SOL    HW127229   8.233  -0.125   0.757
 5066SOL    HW227230   8.194  -0.012   0.868
 5067SOL     OW27231   5.657   7.908   6.209
 5067SOL    HW127232   5.583   7.912   6.142
 5067SOL    HW227233   5.685   7.813   6.222
 5068SOL     OW27234   0.774   1.569   0.597
 5068SOL    HW127235   0.683   1.556   0.558
 5068SOL    HW227236   0.769   1.631   0.675
 5069SOL     OW27237   1.021   7.660   5.003
 5069SOL    HW127238   0.959   7.729   5.041
 5069SOL    HW227239   1.105   7.704   4.973
 5070SOL     OW27240   7.981   0.883   6.544
 5070SOL    HW127241   7.893   0.927   6.527
 5070SOL    HW227242   7.977   0.787   6.514
 5071SOL     OW27243   0.508   4.397   6.026
 5071SOL    HW127244   0.418   4.439   6.040
 5071SOL    HW227245   0.551   4.381   6.114
 5072SOL     OW27246   3.668   7.054   0.447
 5072SOL    HW127247   3.764   7.061   0.474
 5072SOL    HW227248   3.615   7.125   0.494
 5073SOL     OW27249   6.099   0.745   1.741
 5073SOL    HW127250   6.074   0.841   1.731
 5073SOL    HW227251   6.136   0.730   1.833
 5074SOL     OW27252   7.378   2.958   1.371
 5074SOL    HW127253   7.371   2.896   1.450
 5074SOL    HW227254   7.334   3.045   1.394
 5075SOL     OW27255   1.818   7.926   0.820
 5075SOL    HW127256   1.808   8.005   0.880
 5075SOL    HW227257   1.783   7.845   0.866
 5076SOL     OW27258   5.786   6.025   0.265
 5076SOL    HW127259   5.801   5.929   0.241
 5076SOL    HW227260   5.851   6.082   0.216
 5077SOL     OW27261   4.663   7.975   6.821
 5077SOL    HW127262   4.736   8.037   6.794
 5077SOL    HW227263   4.669   7.890   6.768
 5078SOL     OW27264   8.036   2.596   1.140
 5078SOL    HW127265   7.978   2.540   1.199
 5078SOL    HW227266   8.101   2.537   1.093
 5079SOL     OW27267   3.126   3.153   0.969
 5079SOL    HW127268   3.178   3.206   0.901
 5079SOL    HW227269   3.165   3.170   1.060
 5080SOL     OW27270   6.376   1.933   1.586
 5080SOL    HW127271   6.449   1.964   1.525
 5080SOL    HW227272   6.403   1.949   1.681
 5081SOL     OW27273   6.953   4.575   0.362
 5081SOL    HW127274   6.867   4.547   0.317
 5081SOL    HW227275   6.979   4.507   0.429
 5082SOL     OW27276   8.817   1.151   6.828
 5082SOL    HW127277   8.797   1.243   6.861
 5082SOL    HW227278   8.756   1.128   6.752
 5083SOL     OW27279   3.585   2.134   5.481
 5083SOL    HW127280   3.556   2.194   5.407
 5083SOL    HW227281   3.561   2.039   5.459
 5084SOL     OW27282   8.294   3.909   6.818
 5084SOL    HW127283   8.363   3.869   6.879
 5084SOL    HW227284   8.337   3.980   6.762
 5085SOL     OW27285   5.659   1.715   0.402
 5085SOL    HW127286   5.667   1.619   0.431
 5085SOL    HW227287   5.580   1.757   0.447
 5086SOL     OW27288   3.256   6.874   5.864
 5086SOL    HW127289   3.209   6.803   5.916
 5086SOL    HW227290   3.204   6.893   5.780
 5087SOL     OW27291   6.720   8.241   5.733
 5087SOL    HW127292   6.628   8.206   5.750
 5087SOL    HW227293   6.781   8.212   5.807
 5088SOL     OW27294   7.982   2.302   1.027
 5088SOL    HW127295   8.013   2.344   0.942
 5088SOL    HW227296   7.884   2.284   1.022
 5089SOL     OW27297   6.596   5.486   6.034
 5089SOL    HW127298   6.512   5.540   6.035
 5089SOL    HW227299   6.609   5.446   5.943
 5090SOL     OW27300   4.392   3.937   0.386
 5090SOL    HW127301   4.435   3.943   0.296
 5090SOL    HW227302   4.415   3.849   0.428
 5091SOL     OW27303   2.180   6.429   0.358
 5091SOL    HW127304   2.181   6.371   0.439
 5091SOL    HW227305   2.265   6.482   0.353
 5092SOL     OW27306   2.192   0.024   6.755
 5092SOL    HW127307   2.222   0.019   6.660
 5092SOL    HW227308   2.205   0.117   6.790
 5093SOL     OW27309   7.584   7.741   6.626
 5093SOL    HW127310   7.580   7.676   6.550
 5093SOL    HW227311   7.492   7.753   6.664
 5094SOL     OW27312   1.542   4.129   6.434
 5094SOL    HW127313   1.554   4.135   6.533
 5094SOL    HW227314   1.596   4.053   6.399
 5095SOL     OW27315   6.504   1.271   0.879
 5095SOL    HW127316   6.455   1.292   0.963
 5095SOL    HW227317   6.585   1.217   0.900
 5096SOL     OW27318   7.441   5.927   1.687
 5096SOL    HW127319   7.419   5.856   1.620
 5096SOL    HW227320   7.539   5.947   1.682
 5097SOL     OW27321   1.742   6.906   6.173
 5097SOL    HW127322   1.650   6.900   6.135
 5097SOL    HW227323   1.790   6.986   6.136
 5098SOL     OW27324   3.505   2.296   1.547
 5098SOL    HW127325   3.424   2.239   1.532
 5098SOL    HW227326   3.530   2.294   1.644
 5099SOL     OW27327   1.374   5.144   6.493
 5099SOL    HW127328   1.362   5.156   6.395
 5099SOL    HW227329   1.420   5.224   6.531
 5100SOL     OW27330   0.565  -0.014   6.114
 5100SOL    HW127331   0.552   0.055   6.185
 5100SOL    HW227332   0.653  -0.059   6.128
 5101SOL     OW27333   6.810   4.995   0.604
 5101SOL    HW127334   6.712   4.976   0.616
 5101SOL    HW227335   6.863   4.917   0.635
 5102SOL     OW27336   8.951   2.088   0.263
 5102SOL    HW127337   8.885   2.136   0.204
 5102SOL    HW227338   9.042   2.128   0.251
 5103SOL     OW27339   0.402   2.181   0.523
 5103SOL    HW127340   0.446   2.255   0.575
 5103SOL    HW227341   0.467   2.147   0.454
 5104SOL     OW27342   6.371   1.168   6.251
 5104SOL    HW127343   6.283   1.162   6.205
 5104SOL    HW227344   6.363   1.225   6.333
 5105SOL     OW27345   7.395   4.130   1.211
 5105SOL    HW127346   7.301   4.104   1.234
 5105SOL    HW227347   7.443   4.156   1.295
 5106SOL     OW27348   2.882   5.944   0.216
 5106SOL    HW127349   2.841   5.893   0.292
 5106SOL    HW227350   2.972   5.978   0.245
 5107SOL     OW27351   5.503   8.064   6.564
 5107SOL    HW127352   5.582   8.061   6.503
 5107SOL    HW227353   5.516   8.135   6.633
 5108SOL     OW27354   0.289   6.347   5.157
 5108SOL    HW127355   0.267   6.393   5.243
 5108SOL    HW227356   0.256   6.402   5.081
 5109SOL     OW27357   5.298   4.409   6.226
 5109SOL    HW127358   5.334   4.316   6.212
 5109SOL    HW227359   5.369   4.475   6.203
 5110SOL     OW27360   4.974   6.662   5.298
 5110SOL    HW127361   5.005   6.574   5.332
 5110SOL    HW227362   4.975   6.662   5.198
 5111SOL     OW27363   0.397   4.479   5.201
 5111SOL    HW127364   0.321   4.435   5.153
 5111SOL    HW227365   0.455   4.409   5.242
 5112SOL     OW27366   0.961   5.711   4.908
 5112SOL    HW127367   0.894   5.644   4.941
 5112SOL    HW227368   0.932   5.746   4.819
 5113SOL     OW27369   0.212   5.656   6.594
 5113SOL    HW127370   0.206   5.557   6.609
 5113SOL    HW227371   0.151   5.703   6.658
 5114SOL     OW27372   7.355   5.076   0.167
 5114SOL    HW127373   7.403   4.990   0.181
 5114SOL    HW227374   7.409   5.134   0.105
 5115SOL     OW27375   9.000   2.289   6.174
 5115SOL    HW127376   9.046   2.301   6.086
 5115SOL    HW227377   8.904   2.315   6.164
 5116SOL     OW27378   5.620   0.921   6.550
 5116SOL    HW127379   5.671   0.916   6.464
 5116SOL    HW227380   5.682   0.943   6.625
 5117SOL     OW27381   4.500   5.647   0.803
 5117SOL    HW127382   4.482   5.554   0.834
 5117SOL    HW227383   4.599   5.665   0.808
 5118SOL     OW27384   3.440   6.514   5.868
 5118SOL    HW127385   3.358   6.468   5.832
 5118SOL    HW227386   3.471   6.467   5.951
 5119SOL     OW27387   6.823   0.613   0.592
 5119SOL    HW127388   6.727   0.606   0.619
 5119SOL    HW227389   6.841   0.549   0.518
 5120SOL     OW27390   5.786   3.424   6.814
 5120SOL    HW127391   5.886   3.426   6.820
 5120SOL    HW227392   5.759   3.438   6.718
 5121SOL     OW27393   7.315   7.876   1.330
 5121SOL    HW127394   7.256   7.829   1.396
 5121SOL    HW227395   7.403   7.897   1.372
 5122SOL     OW27396   7.338   2.193   1.095
 5122SOL    HW127397   7.363   2.285   1.064
 5122SOL    HW227398   7.398   2.126   1.052
 5123SOL     OW27399   6.871   8.039   0.444
 5123SOL    HW127400   6.900   8.087   0.526
 5123SOL    HW227401   6.951   8.012   0.390
 5124SOL     OW27402   1.508   1.811   0.863
 5124SOL    HW127403   1.580   1.844   0.924
 5124SOL    HW227404   1.472   1.724   0.898
 5125SOL     OW27405   0.615   6.010   5.405
 5125SOL    HW127406   0.588   6.106   5.400
 5125SOL    HW227407   0.633   5.975   5.313
 5126SOL     OW27408   4.979   1.869   6.782
 5126SOL    HW127409   4.895   1.839   6.828
 5126SOL    HW227410   5.004   1.801   6.713
 5127SOL     OW27411   6.106   5.804   5.525
 5127SOL    HW127412   6.143   5.776   5.614
 5127SOL    HW227413   6.047   5.884   5.537
 5128SOL     OW27414   3.480   2.855   6.223
 5128SOL    HW127415   3.443   2.849   6.315
 5128SOL    HW227416   3.461   2.770   6.174
 5129SOL     OW27417   1.399   2.370   1.095
 5129SOL    HW127418   1.349   2.417   1.022
 5129SOL    HW227419   1.353   2.386   1.182
 5130SOL     OW27420   2.014   2.352   6.780
 5130SOL    HW127421   2.090   2.350   6.715
 5130SOL    HW227422   1.976   2.260   6.790
 5131SOL     OW27423   1.933   4.175   1.068
 5131SOL    HW127424   1.834   4.173   1.055
 5131SOL    HW227425   1.978   4.134   0.989
 5132SOL     OW27426   7.443   6.498   6.727
 5132SOL    HW127427   7.377   6.448   6.671
 5132SOL    HW227428   7.395   6.565   6.783
 5133SOL     OW27429   7.781   6.121   0.880
 5133SOL    HW127430   7.782   6.027   0.915
 5133SOL    HW227431   7.793   6.185   0.955
 5134SOL     OW27432   6.572   2.549   6.720
 5134SOL    HW127433   6.487   2.519   6.677
 5134SOL    HW227434   6.574   2.648   6.726
 5135SOL     OW27435   8.633   5.438   6.444
 5135SOL    HW127436   8.733   5.430   6.448
 5135SOL    HW227437   8.603   5.511   6.505
 5136SOL     OW27438   4.582   7.929   1.911
 5136SOL    HW127439   4.545   7.941   2.003
 5136SOL    HW227440   4.646   7.852   1.911
 5137SOL     OW27441   2.821   3.288   5.972
 5137SOL    HW127442   2.778   3.197   5.973
 5137SOL    HW227443   2.777   3.345   6.041
 5138SOL     OW27444   0.574   0.570   5.796
 5138SOL    HW127445   0.493   0.535   5.843
 5138SOL    HW227446   0.558   0.569   5.697
 5139SOL     OW27447   4.926   0.484   1.333
 5139SOL    HW127448   4.977   0.398   1.324
 5139SOL    HW227449   4.828   0.464   1.335
 5140SOL     OW27450   0.362   7.637   1.232
 5140SOL    HW127451   0.301   7.714   1.211
 5140SOL    HW227452   0.377   7.633   1.331
 5141SOL     OW27453   6.296   1.881   6.820
 5141SOL    HW127454   6.366   1.852   6.885
 5141SOL    HW227455   6.291   1.981   6.819
 5142SOL     OW27456   0.519   3.146   1.252
 5142SOL    HW127457   0.574   3.177   1.329
 5142SOL    HW227458   0.444   3.088   1.286
 5143SOL     OW27459   1.815   2.751   6.107
 5143SOL    HW127460   1.897   2.696   6.122
 5143SOL    HW227461   1.743   2.693   6.069
 5144SOL     OW27462   7.540   6.707   5.722
 5144SOL    HW127463   7.505   6.719   5.629
 5144SOL    HW227464   7.626   6.758   5.732
 5145SOL     OW27465   3.076   1.428   6.063
 5145SOL    HW127466   3.097   1.524   6.041
 5145SOL    HW227467   3.037   1.384   5.982
 5146SOL     OW27468   6.937   8.179   5.937
 5146SOL    HW127469   6.978   8.089   5.926
 5146SOL    HW227470   6.916   8.195   6.033
 5147SOL     OW27471   5.387   1.759   5.738
 5147SOL    HW127472   5.386   1.786   5.641
 5147SOL    HW227473   5.395   1.841   5.795
 5148SOL     OW27474   6.848   1.719   1.107
 5148SOL    HW127475   6.814   1.809   1.137
 5148SOL    HW227476   6.941   1.706   1.140
 5149SOL     OW27477   4.043   6.056   1.075
 5149SOL    HW127478   4.012   6.000   1.152
 5149SOL    HW227479   4.037   6.003   0.990
 5150SOL     OW27480   6.843   1.422   6.620
 5150SOL    HW127481   6.877   1.512   6.592
 5150SOL    HW227482   6.868   1.354   6.551
 5151SOL     OW27483   5.278   0.881   5.917
 5151SOL    HW127484   5.307   0.801   5.864
 5151SOL    HW227485   5.292   0.964   5.864
 5152SOL     OW27486   8.318   5.567   1.678
 5152SOL    HW127487   8.294   5.495   1.612
 5152SOL    HW227488   8.282   5.543   1.768
 5153SOL     OW27489   2.421   2.221   1.915
 5153SOL    HW127490   2.500   2.276   1.890
 5153SOL    HW227491   2.337   2.275   1.902
 5154SOL     OW27492   5.408   4.924   0.443
 5154SOL    HW127493   5.393   4.826   0.429
 5154SOL    HW227494   5.338   4.959   0.506
 5155SOL     OW27495   8.973   8.372   6.243
 5155SOL    HW127496   9.011   8.325   6.323
 5155SOL    HW227497   8.897   8.319   6.207
 5156SOL     OW27498   6.593   5.480   1.101
 5156SOL    HW127499   6.566   5.425   1.179
 5156SOL    HW227500   6.664   5.433   1.049
 5157SOL     OW27501   8.908   6.504   5.187
 5157SOL    HW127502   8.814   6.521   5.158
 5157SOL    HW227503   8.941   6.419   5.145
 5158SOL     OW27504   3.531   1.787   0.340
 5158SOL    HW127505   3.492   1.751   0.255
 5158SOL    HW227506   3.556   1.883   0.327
 5159SOL     OW27507   5.703   5.744   0.284
 5159SOL    HW127508   5.780   5.704   0.334
 5159SOL    HW227509   5.637   5.781   0.349
 5160SOL     OW27510   2.945   1.690   6.204
 5160SOL    HW127511   2.913   1.595   6.200
 5160SOL    HW227512   2.867   1.751   6.215
 5161SOL     OW27513   0.689   2.199   6.402
 5161SOL    HW127514   0.709   2.194   6.500
 5161SOL    HW227515   0.654   2.290   6.380
 5162SOL     OW27516   6.112   4.843   6.500
 5162SOL    HW127517   6.103   4.818   6.596
 5162SOL    HW227518   6.172   4.924   6.492
 5163SOL     OW27519   8.905   4.939   0.453
 5163SOL    HW127520   8.847   4.862   0.425
 5163SOL    HW227521   8.881   4.966   0.547
 5164SOL     OW27522   7.080   4.810   5.566
 5164SOL    HW127523   7.119   4.736   5.510
 5164SOL    HW227524   7.031   4.874   5.506
 5165SOL     OW27525   7.746   1.162   0.195
 5165SOL    HW127526   7.679   1.171   0.121
 5165SOL    HW227527   7.722   1.083   0.252
 5166SOL     OW27528   4.623   0.573   6.466
 5166SOL    HW127529   4.577   0.558   6.378
 5166SOL    HW227530   4.562   0.621   6.528
 5167SOL     OW27531   5.786   7.182   0.920
 5167SOL    HW127532   5.824   7.269   0.889
 5167SOL    HW227533   5.858   7.125   0.959
 5168SOL     OW27534   4.666   0.747   2.047
 5168SOL    HW127535   4.636   0.803   2.125
 5168SOL    HW227536   4.758   0.713   2.064
 5169SOL     OW27537   6.851   0.715   0.310
 5169SOL    HW127538   6.825   0.689   0.403
 5169SOL    HW227539   6.799   0.661   0.244
 5170SOL     OW27540   8.166   6.822   6.402
 5170SOL    HW127541   8.174   6.811   6.501
 5170SOL    HW227542   8.191   6.737   6.357
 5171SOL     OW27543   1.426   6.464   6.407
 5171SOL    HW127544   1.363   6.439   6.481
 5171SOL    HW227545   1.450   6.383   6.354
 5172SOL     OW27546   5.621   2.444   1.221
 5172SOL    HW127547   5.667   2.446   1.132
 5172SOL    HW227548   5.686   2.469   1.293
 5173SOL     OW27549   0.260   7.865   1.113
 5173SOL    HW127550   0.305   7.924   1.180
 5173SOL    HW227551   0.167   7.896   1.097
 5174SOL     OW27552   6.972   0.591   5.965
 5174SOL    HW127553   6.895   0.653   5.979
 5174SOL    HW227554   7.041   0.636   5.908
 5175SOL     OW27555   5.282  -0.052   5.923
 5175SOL    HW127556   5.185  -0.059   5.898
 5175SOL    HW227557   5.313  -0.141   5.957
 5176SOL     OW27558   8.062   4.419   6.654
 5176SOL    HW127559   8.063   4.332   6.704
 5176SOL    HW227560   8.009   4.409   6.570
 5177SOL     OW27561   4.370   5.401   5.998
 5177SOL    HW127562   4.298   5.334   5.978
 5177SOL    HW227563   4.331   5.493   6.001
 5178SOL     OW27564   7.794   0.427   1.096
 5178SOL    HW127565   7.856   0.374   1.153
 5178SOL    HW227566   7.701   0.390   1.104
 5179SOL     OW27567   6.172   0.803   1.169
 5179SOL    HW127568   6.253   0.813   1.112
 5179SOL    HW227569   6.188   0.732   1.237
 5180SOL     OW27570   0.217   3.408   5.456
 5180SOL    HW127571   0.182   3.444   5.370
 5180SOL    HW227572   0.176   3.318   5.474
 5181SOL     OW27573   7.891   8.012   1.259
 5181SOL    HW127574   7.841   8.028   1.344
 5181SOL    HW227575   7.847   7.939   1.207
 5182SOL     OW27576   4.660   0.460   1.355
 5182SOL    HW127577   4.650   0.552   1.317
 5182SOL    HW227578   4.584   0.403   1.324
 5183SOL     OW27579   1.699   7.008   5.735
 5183SOL    HW127580   1.681   6.965   5.823
 5183SOL    HW227581   1.617   7.057   5.704
 5184SOL     OW27582   2.432   5.225   6.728
 5184SOL    HW127583   2.454   5.223   6.630
 5184SOL    HW227584   2.515   5.238   6.781
 5185SOL     OW27585   0.532   6.710   0.826
 5185SOL    HW127586   0.627   6.722   0.798
 5185SOL    HW227587   0.481   6.666   0.752
 5186SOL     OW27588   4.825   6.460   0.806
 5186SOL    HW127589   4.916   6.472   0.766
 5186SOL    HW227590   4.755   6.484   0.737
 5187SOL     OW27591   5.264   4.523   6.462
 5187SOL    HW127592   5.179   4.575   6.454
 5187SOL    HW227593   5.285   4.479   6.375
 5188SOL     OW27594   6.550   0.609   6.033
 5188SOL    HW127595   6.475   0.613   6.098
 5188SOL    HW227596   6.568   0.700   5.995
 5189SOL     OW27597   0.234   5.926   5.270
 5189SOL    HW127598   0.331   5.939   5.292
 5189SOL    HW227599   0.200   6.008   5.224
 5190SOL     OW27600   4.358   2.117   2.109
 5190SOL    HW127601   4.301   2.191   2.143
 5190SOL    HW227602   4.367   2.125   2.009
 5191SOL     OW27603   5.662   1.514   6.356
 5191SOL    HW127604   5.716   1.528   6.438
 5191SOL    HW227605   5.618   1.424   6.360
 5192SOL     OW27606   2.779   0.973   2.351
 5192SOL    HW127607   2.717   0.981   2.273
 5192SOL    HW227608   2.789   0.876   2.375
 5193SOL     OW27609   6.106   1.140   6.172
 5193SOL    HW127610   6.098   1.067   6.104
 5193SOL    HW227611   6.048   1.118   6.251
 5194SOL     OW27612   1.705   2.868   5.021
 5194SOL    HW127613   1.713   2.959   5.061
 5194SOL    HW227614   1.796   2.825   5.018
 5195SOL     OW27615   4.142   3.830   0.220
 5195SOL    HW127616   4.047   3.820   0.190
 5195SOL    HW227617   4.184   3.907   0.172
 5196SOL     OW27618   9.581   5.588   6.273
 5196SOL    HW127619   9.585   5.534   6.357
 5196SOL    HW227620   9.493   5.634   6.266
 5197SOL     OW27621   7.898   1.334   1.543
 5197SOL    HW127622   7.817   1.287   1.580
 5197SOL    HW227623   7.911   1.420   1.592
 5198SOL     OW27624   8.419   3.618   6.675
 5198SOL    HW127625   8.456   3.711   6.667
 5198SOL    HW227626   8.320   3.621   6.658
 5199SOL     OW27627   6.605   2.176   6.696
 5199SOL    HW127628   6.698   2.210   6.709
 5199SOL    HW227629   6.568   2.214   6.611
 5200SOL     OW27630   5.061   6.133   1.261
 5200SOL    HW127631   5.112   6.050   1.241
 5200SOL    HW227632   4.982   6.111   1.319
 5201SOL     OW27633   7.933   6.394   6.117
 5201SOL    HW127634   7.951   6.296   6.115
 5201SOL    HW227635   7.853   6.415   6.061
 5202SOL     OW27636   9.490   1.791   6.326
 5202SOL    HW127637   9.485   1.858   6.400
 5202SOL    HW227638   9.582   1.788   6.289
 5203SOL     OW27639   8.635   6.451   5.968
 5203SOL    HW127640   8.671   6.466   5.876
 5203SOL    HW227641   8.680   6.373   6.010
 5204SOL     OW27642   6.345   3.636   0.544
 5204SOL    HW127643   6.300   3.547   0.555
 5204SOL    HW227644   6.312   3.681   0.461
 5205SOL     OW27645   6.622   5.016   5.848
 5205SOL    HW127646   6.560   5.049   5.778
 5205SOL    HW227647   6.710   4.993   5.806
 5206SOL     OW27648   4.262   6.310   5.894
 5206SOL    HW127649   4.228   6.309   5.988
 5206SOL    HW227650   4.201   6.257   5.835
 5207SOL     OW27651   4.863   7.268   1.052
 5207SOL    HW127652   4.894   7.176   1.079
 5207SOL    HW227653   4.792   7.298   1.115
 5208SOL     OW27654   1.307   0.697   5.900
 5208SOL    HW127655   1.214   0.675   5.870
 5208SOL    HW227656   1.315   0.680   5.998
 5209SOL     OW27657   8.589   0.184   6.169
 5209SOL    HW127658   8.548   0.272   6.194
 5209SOL    HW227659   8.534   0.110   6.209
 5210SOL     OW27660   6.609   1.064   0.183
 5210SOL    HW127661   6.703   1.035   0.200
 5210SOL    HW227662   6.558   1.064   0.269
 5211SOL     OW27663   1.166   5.936   4.854
 5211SOL    HW127664   1.115   5.985   4.784
 5211SOL    HW227665   1.218   5.862   4.812
 5212SOL     OW27666   1.077   3.912   5.514
 5212SOL    HW127667   1.053   3.897   5.418
 5212SOL    HW227668   1.055   4.007   5.539
 5213SOL     OW27669   5.219   5.926   1.265
 5213SOL    HW127670   5.287   5.922   1.338
 5213SOL    HW227671   5.144   5.862   1.286
 5214SOL     OW27672   8.585   4.343   5.839
 5214SOL    HW127673   8.583   4.394   5.753
 5214SOL    HW227674   8.676   4.304   5.853
 5215SOL     OW27675   4.956   1.315   0.683
 5215SOL    HW127676   4.924   1.342   0.592
 5215SOL    HW227677   4.901   1.238   0.716
 5216SOL     OW27678   6.580   6.943   6.628
 5216SOL    HW127679   6.656   6.995   6.590
 5216SOL    HW227680   6.551   6.873   6.564
 5217SOL     OW27681   4.938   6.451   1.511
 5217SOL    HW127682   5.015   6.493   1.559
 5217SOL    HW227683   4.942   6.352   1.522
 5218SOL     OW27684   8.674   4.363   6.129
 5218SOL    HW127685   8.641   4.457   6.120
 5218SOL    HW227686   8.765   4.363   6.171
 5219SOL     OW27687   3.185   3.521   1.214
 5219SOL    HW127688   3.240   3.507   1.297
 5219SOL    HW227689   3.088   3.512   1.237
 5220SOL     OW27690   8.782   3.787   0.125
 5220SOL    HW127691   8.796   3.692   0.097
 5220SOL    HW227692   8.862   3.820   0.175
 5221SOL     OW27693   6.999   6.641   0.720
 5221SOL    HW127694   6.949   6.689   0.793
 5221SOL    HW227695   6.981   6.686   0.633
 5222SOL     OW27696   3.460   6.659   6.472
 5222SOL    HW127697   3.464   6.733   6.539
 5222SOL    HW227698   3.548   6.611   6.469
 5223SOL     OW27699   0.661   6.851   1.378
 5223SOL    HW127700   0.622   6.880   1.465
 5223SOL    HW227701   0.758   6.831   1.390
 5224SOL     OW27702   4.965   2.991   6.633
 5224SOL    HW127703   4.973   2.961   6.538
 5224SOL    HW227704   5.012   2.926   6.693
 5225SOL     OW27705   6.955   6.266   6.118
 5225SOL    HW127706   7.020   6.236   6.048
 5225SOL    HW227707   6.875   6.206   6.117
 5226SOL     OW27708   2.194   3.497   0.486
 5226SOL    HW127709   2.238   3.531   0.403
 5226SOL    HW227710   2.258   3.502   0.563
 5227SOL     OW27711   0.524   3.702   0.890
 5227SOL    HW127712   0.585   3.725   0.814
 5227SOL    HW227713   0.476   3.617   0.869
 5228SOL     OW27714   7.510   3.711   2.032
 5228SOL    HW127715   7.503   3.635   2.096
 5228SOL    HW227716   7.442   3.781   2.056
 5229SOL     OW27717   5.565   5.247   6.165
 5229SOL    HW127718   5.586   5.163   6.115
 5229SOL    HW227719   5.472   5.242   6.201
 5230SOL     OW27720   3.525   1.504   0.978
 5230SOL    HW127721   3.547   1.431   1.043
 5230SOL    HW227722   3.474   1.576   1.025
 5231SOL     OW27723   7.214   6.021   1.060
 5231SOL    HW127724   7.165   6.008   1.147
 5231SOL    HW227725   7.162   6.084   1.002
 5232SOL     OW27726   7.055   1.656   1.285
 5232SOL    HW127727   7.049   1.728   1.354
 5232SOL    HW227728   7.123   1.588   1.315
 5233SOL     OW27729   0.843   4.236   0.243
 5233SOL    HW127730   0.750   4.200   0.238
 5233SOL    HW227731   0.907   4.160   0.251
 5234SOL     OW27732   0.603   4.803   6.211
 5234SOL    HW127733   0.546   4.722   6.226
 5234SOL    HW227734   0.646   4.798   6.121
 5235SOL     OW27735   6.838   5.425   0.928
 5235SOL    HW127736   6.889   5.357   0.980
 5235SOL    HW227737   6.826   5.394   0.833
 5236SOL     OW27738   1.055   3.030   0.175
 5236SOL    HW127739   0.966   2.996   0.143
 5236SOL    HW227740   1.104   2.956   0.221
 5237SOL     OW27741   1.170   7.697   6.296
 5237SOL    HW127742   1.238   7.770   6.305
 5237SOL    HW227743   1.118   7.689   6.380
 5238SOL     OW27744   3.663   6.792   5.204
 5238SOL    HW127745   3.692   6.888   5.200
 5238SOL    HW227746   3.743   6.734   5.215
 5239SOL     OW27747   7.252   5.957   5.287
 5239SOL    HW127748   7.300   5.999   5.210
 5239SOL    HW227749   7.292   5.868   5.306
 5240SOL     OW27750   6.673   0.947   6.541
 5240SOL    HW127751   6.662   1.014   6.614
 5240SOL    HW227752   6.595   0.952   6.478
 5241SOL     OW27753   7.798   7.850   6.249
 5241SOL    HW127754   7.897   7.855   6.239
 5241SOL    HW227755   7.763   7.776   6.191
 5242SOL     OW27756   2.685   5.546   5.054
 5242SOL    HW127757   2.696   5.509   5.146
 5242SOL    HW227758   2.775   5.562   5.013
 5243SOL     OW27759   4.191   0.585   5.773
 5243SOL    HW127760   4.129   0.576   5.851
 5243SOL    HW227761   4.152   0.649   5.707
 5244SOL     OW27762   3.543   7.378   0.292
 5244SOL    HW127763   3.448   7.403   0.309
 5244SOL    HW227764   3.584   7.341   0.375
 5245SOL     OW27765   8.064   7.177   5.048
 5245SOL    HW127766   8.029   7.252   4.992
 5245SOL    HW227767   8.005   7.165   5.128
 5246SOL     OW27768   0.777   3.065   1.239
 5246SOL    HW127769   0.817   3.157   1.242
 5246SOL    HW227770   0.682   3.072   1.209
 5247SOL     OW27771   3.703   4.977   5.885
 5247SOL    HW127772   3.703   4.891   5.938
 5247SOL    HW227773   3.788   5.027   5.903
 5248SOL     OW27774   4.445   4.481   6.686
 5248SOL    HW127775   4.506   4.557   6.663
 5248SOL    HW227776   4.368   4.480   6.622
 5249SOL     OW27777   4.872   1.724   0.637
 5249SOL    HW127778   4.837   1.635   0.667
 5249SOL    HW227779   4.965   1.713   0.601
 5250SOL     OW27780   5.333   8.085   5.527
 5250SOL    HW127781   5.323   8.172   5.574
 5250SOL    HW227782   5.279   8.087   5.442
 5251SOL     OW27783   6.640   3.972   5.079
 5251SOL    HW127784   6.588   4.025   5.012
 5251SOL    HW227785   6.611   3.877   5.076
 5252SOL     OW27786   7.820   6.253   6.601
 5252SOL    HW127787   7.778   6.322   6.541
 5252SOL    HW227788   7.912   6.282   6.626
 5253SOL     OW27789   1.309   0.821   5.575
 5253SOL    HW127790   1.286   0.731   5.611
 5253SOL    HW227791   1.237   0.851   5.512
 5254SOL     OW27792   5.045   1.288   5.737
 5254SOL    HW127793   5.022   1.316   5.644
 5254SOL    HW227794   4.961   1.273   5.789
 5255SOL     OW27795   3.867   5.866   6.577
 5255SOL    HW127796   3.879   5.942   6.641
 5255SOL    HW227797   3.957   5.829   6.553
 5256SOL     OW27798   4.378   0.886   1.220
 5256SOL    HW127799   4.295   0.878   1.165
 5256SOL    HW227800   4.354   0.888   1.317
 5257SOL     OW27801   1.966   4.941   6.002
 5257SOL    HW127802   1.892   4.949   5.935
 5257SOL    HW227803   2.052   4.969   5.959
 5258SOL     OW27804   0.835   5.339   5.385
 5258SOL    HW127805   0.881   5.264   5.433
 5258SOL    HW227806   0.759   5.303   5.330
 5259SOL     OW27807   6.206   1.252   1.137
 5259SOL    HW127808   6.301   1.282   1.146
 5259SOL    HW227809   6.150   1.294   1.209
 5260SOL     OW27810   1.703   8.325   0.715
 5260SOL    HW127811   1.648   8.359   0.639
 5260SOL    HW227812   1.751   8.402   0.759
 5261SOL     OW27813   2.278   4.876   6.495
 5261SOL    HW127814   2.374   4.860   6.516
 5261SOL    HW227815   2.271   4.943   6.420
 5262SOL     OW27816   1.410   0.103   4.951
 5262SOL    HW127817   1.491   0.045   4.949
 5262SOL    HW227818   1.352   0.078   5.028
 5263SOL     OW27819   4.113   0.207   1.071
 5263SOL    HW127820   4.153   0.193   1.162
 5263SOL    HW227821   4.064   0.294   1.069
 5264SOL     OW27822   3.398   2.036   0.380
 5264SOL    HW127823   3.466   2.037   0.453
 5264SOL    HW227824   3.338   2.115   0.389
 5265SOL     OW27825   4.051   2.399   0.698
 5265SOL    HW127826   4.099   2.382   0.612
 5265SOL    HW227827   4.062   2.495   0.723
 5266SOL     OW27828   2.777   1.138   6.430
 5266SOL    HW127829   2.685   1.121   6.395
 5266SOL    HW227830   2.826   1.200   6.368
 5267SOL     OW27831   7.951   7.215   4.677
 5267SOL    HW127832   7.889   7.137   4.674
 5267SOL    HW227833   7.899   7.299   4.659
 5268SOL     OW27834   5.795   8.098   0.170
 5268SOL    HW127835   5.841   8.166   0.113
 5268SOL    HW227836   5.797   8.009   0.124
 5269SOL     OW27837   0.171   1.907   1.521
 5269SOL    HW127838   0.108   1.879   1.594
 5269SOL    HW227839   0.264   1.913   1.558
 5270SOL     OW27840   4.652   6.673   6.426
 5270SOL    HW127841   4.690   6.765   6.426
 5270SOL    HW227842   4.727   6.606   6.426
 5271SOL     OW27843   0.937   3.850   1.473
 5271SOL    HW127844   0.840   3.857   1.449
 5271SOL    HW227845   0.950   3.777   1.540
 5272SOL     OW27846   8.375   6.442   4.968
 5272SOL    HW127847   8.310   6.487   4.907
 5272SOL    HW227848   8.451   6.406   4.914
 5273SOL     OW27849   3.108   1.390   6.765
 5273SOL    HW127850   3.101   1.356   6.671
 5273SOL    HW227851   3.196   1.363   6.804
 5274SOL     OW27852   9.241   8.084   5.843
 5274SOL    HW127853   9.335   8.109   5.821
 5274SOL    HW227854   9.182   8.164   5.833
 5275SOL     OW27855   0.666   3.294   6.195
 5275SOL    HW127856   0.595   3.254   6.254
 5275SOL    HW227857   0.707   3.221   6.139
 5276SOL     OW27858   0.959   2.865   0.929
 5276SOL    HW127859   1.046   2.882   0.883
 5276SOL    HW227860   0.890   2.928   0.894
 5277SOL     OW27861   0.807   4.526   1.055
 5277SOL    HW127862   0.758   4.566   1.132
 5277SOL    HW227863   0.748   4.461   1.007
 5278SOL     OW27864   5.716   2.603   1.419
 5278SOL    HW127865   5.617   2.611   1.407
 5278SOL    HW227866   5.756   2.694   1.428
 5279SOL     OW27867   9.594   4.591   5.247
 5279SOL    HW127868   9.625   4.531   5.173
 5279SOL    HW227869   9.509   4.636   5.219
 5280SOL     OW27870   7.129   1.871   1.482
 5280SOL    HW127871   7.098   1.953   1.435
 5280SOL    HW227872   7.221   1.886   1.518
 5281SOL     OW27873   3.486   7.075   6.523
 5281SOL    HW127874   3.421   7.150   6.534
 5281SOL    HW227875   3.532   7.082   6.435
 5282SOL     OW27876   0.701   1.394   0.375
 5282SOL    HW127877   0.677   1.459   0.303
 5282SOL    HW227878   0.799   1.402   0.395
 5283SOL     OW27879   0.927   3.282   0.222
 5283SOL    HW127880   0.961   3.218   0.153
 5283SOL    HW227881   0.879   3.232   0.294
 5284SOL     OW27882   7.791   5.302   5.989
 5284SOL    HW127883   7.693   5.321   6.002
 5284SOL    HW227884   7.841   5.387   5.979
 5285SOL     OW27885   3.529   6.403   6.106
 5285SOL    HW127886   3.503   6.438   6.196
 5285SOL    HW227887   3.596   6.330   6.117
 5286SOL     OW27888   7.339   3.912   1.684
 5286SOL    HW127889   7.314   3.848   1.756
 5286SOL    HW227890   7.415   3.969   1.715
 5287SOL     OW27891   6.051   3.331   0.852
 5287SOL    HW127892   5.956   3.308   0.831
 5287SOL    HW227893   6.079   3.411   0.800
 5288SOL     OW27894   0.793   4.641   0.795
 5288SOL    HW127895   0.781   4.577   0.871
 5288SOL    HW227896   0.891   4.652   0.776
 5289SOL     OW27897   9.368   3.112   0.774
 5289SOL    HW127898   9.339   3.052   0.849
 5289SOL    HW227899   9.467   3.121   0.774
 5290SOL     OW27900   4.797   3.612   6.269
 5290SOL    HW127901   4.773   3.521   6.236
 5290SOL    HW227902   4.838   3.604   6.360
 5291SOL     OW27903   5.847   4.500   0.753
 5291SOL    HW127904   5.818   4.437   0.824
 5291SOL    HW227905   5.925   4.553   0.785
 5292SOL     OW27906   4.830   2.558   1.420
 5292SOL    HW127907   4.862   2.607   1.501
 5292SOL    HW227908   4.864   2.464   1.422
 5293SOL     OW27909   2.714   8.260   1.089
 5293SOL    HW127910   2.750   8.179   1.042
 5293SOL    HW227911   2.786   8.301   1.144
 5294SOL     OW27912   4.057   4.117   2.075
 5294SOL    HW127913   4.126   4.052   2.041
 5294SOL    HW227914   4.078   4.140   2.170
 5295SOL     OW27915   1.942   5.878   0.353
 5295SOL    HW127916   1.935   5.968   0.310
 5295SOL    HW227917   1.854   5.831   0.346
 5296SOL     OW27918   2.693   7.017   6.651
 5296SOL    HW127919   2.599   7.041   6.627
 5296SOL    HW227920   2.754   7.050   6.579
 5297SOL     OW27921   6.640   6.501   5.912
 5297SOL    HW127922   6.583   6.583   5.907
 5297SOL    HW227923   6.611   6.445   5.989
 5298SOL     OW27924   8.889   5.145   5.765
 5298SOL    HW127925   8.920   5.066   5.818
 5298SOL    HW227926   8.805   5.122   5.716
 5299SOL     OW27927   1.867   7.256   0.382
 5299SOL    HW127928   1.943   7.313   0.350
 5299SOL    HW227929   1.823   7.301   0.460
 5300SOL     OW27930   0.612   6.888   1.629
 5300SOL    HW127931   0.669   6.814   1.666
 5300SOL    HW227932   0.602   6.959   1.699
 5301SOL     OW27933   4.688   0.649   0.955
 5301SOL    HW127934   4.599   0.605   0.971
 5301SOL    HW227935   4.761   0.591   0.992
 5302SOL     OW27936   0.761   5.012   5.260
 5302SOL    HW127937   0.839   4.963   5.299
 5302SOL    HW227938   0.779   5.032   5.164
 5303SOL     OW27939   8.059   0.894   5.644
 5303SOL    HW127940   8.139   0.847   5.680
 5303SOL    HW227941   8.077   0.926   5.551
 5304SOL     OW27942   4.609   0.405   2.130
 5304SOL    HW127943   4.673   0.347   2.181
 5304SOL    HW227944   4.521   0.406   2.176
 5305SOL     OW27945   0.547   6.316   1.062
 5305SOL    HW127946   0.573   6.340   1.156
 5305SOL    HW227947   0.521   6.220   1.059
 5306SOL     OW27948   1.706   2.594   6.716
 5306SOL    HW127949   1.655   2.591   6.630
 5306SOL    HW227950   1.764   2.675   6.717
 5307SOL     OW27951   7.914   2.691   5.741
 5307SOL    HW127952   7.997   2.644   5.713
 5307SOL    HW227953   7.846   2.685   5.667
 5308SOL     OW27954   0.390   7.773   5.767
 5308SOL    HW127955   0.359   7.857   5.721
 5308SOL    HW227956   0.447   7.798   5.845
 5309SOL     OW27957   2.264   0.273   6.821
 5309SOL    HW127958   2.247   0.332   6.900
 5309SOL    HW227959   2.260   0.328   6.737
 5310SOL     OW27960   0.334   8.124   5.877
 5310SOL    HW127961   0.280   8.205   5.853
 5310SOL    HW227962   0.326   8.106   5.975
 5311SOL     OW27963   3.664   4.860   1.493
 5311SOL    HW127964   3.731   4.904   1.553
 5311SOL    HW227965   3.600   4.929   1.459
 5312SOL     OW27966   8.362   7.344   6.329
 5312SOL    HW127967   8.270   7.383   6.321
 5312SOL    HW227968   8.361   7.250   6.295
 5313SOL     OW27969   7.408   0.477   6.065
 5313SOL    HW127970   7.319   0.437   6.041
 5313SOL    HW227971   7.414   0.485   6.165
 5314SOL     OW27972   4.139   2.839   5.221
 5314SOL    HW127973   4.193   2.822   5.304
 5314SOL    HW227974   4.109   2.935   5.220
 5315SOL     OW27975   2.873   4.866   5.800
 5315SOL    HW127976   2.913   4.958   5.795
 5315SOL    HW227977   2.931   4.802   5.751
 5316SOL     OW27978   1.436   7.634   0.864
 5316SOL    HW127979   1.360   7.576   0.892
 5316SOL    HW227980   1.438   7.641   0.764
 5317SOL     OW27981   1.061   8.397   6.297
 5317SOL    HW127982   1.036   8.383   6.393
 5317SOL    HW227983   1.158   8.421   6.291
 5318SOL     OW27984   9.514   8.200   5.764
 5318SOL    HW127985   9.441   8.244   5.712
 5318SOL    HW227986   9.593   8.262   5.768
 5319SOL     OW27987   2.545   3.066   6.838
 5319SOL    HW127988   2.554   3.084   6.936
 5319SOL    HW227989   2.473   2.999   6.823
 5320SOL     OW27990   2.099   5.220   1.141
 5320SOL    HW127991   2.176   5.240   1.201
 5320SOL    HW227992   2.064   5.128   1.161
 5321SOL     OW27993   2.672   3.283   1.619
 5321SOL    HW127994   2.603   3.264   1.689
 5321SOL    HW227995   2.709   3.375   1.634
 5322SOL     OW27996   2.748   5.649   6.413
 5322SOL    HW127997   2.701   5.658   6.501
 5322SOL    HW227998   2.724   5.727   6.355
 5323SOL     OW27999   6.711   2.490   0.803
 5323SOL    HW128000   6.626   2.466   0.756
 5323SOL    HW228001   6.733   2.586   0.784
 5324SOL     OW28002   7.272   1.768   0.456
 5324SOL    HW128003   7.345   1.781   0.389
 5324SOL    HW228004   7.218   1.852   0.464
 5325SOL     OW28005   8.896   0.795   6.726
 5325SOL    HW128006   8.827   0.777   6.656
 5325SOL    HW228007   8.947   0.711   6.745
 5326SOL     OW28008   5.315   5.045   0.715
 5326SOL    HW128009   5.245   5.104   0.674
 5326SOL    HW228010   5.270   4.975   0.770
 5327SOL     OW28011   0.959   6.847   0.778
 5327SOL    HW128012   1.026   6.851   0.703
 5327SOL    HW228013   1.006   6.822   0.863
 5328SOL     OW28014   0.603   5.634   4.989
 5328SOL    HW128015   0.641   5.541   4.984
 5328SOL    HW228016   0.641   5.680   5.069
 5329SOL     OW28017   5.281   5.292   0.123
 5329SOL    HW128018   5.343   5.370   0.126
 5329SOL    HW228019   5.319   5.221   0.064
 5330SOL     OW28020   7.532   2.904   0.209
 5330SOL    HW128021   7.520   2.973   0.280
 5330SOL    HW228022   7.544   2.948   0.121
 5331SOL     OW28023   2.592   2.668   5.479
 5331SOL    HW128024   2.593   2.755   5.428
 5331SOL    HW228025   2.511   2.615   5.453
 5332SOL     OW28026   8.234   8.207   5.248
 5332SOL    HW128027   8.246   8.255   5.161
 5332SOL    HW228028   8.186   8.120   5.231
 5333SOL     OW28029   5.687   5.085   0.693
 5333SOL    HW128030   5.727   5.081   0.784
 5333SOL    HW228031   5.604   5.141   0.695
 5334SOL     OW28032   1.794   6.394   6.658
 5334SOL    HW128033   1.753   6.485   6.665
 5334SOL    HW228034   1.722   6.325   6.668
 5335SOL     OW28035   7.739   1.496   6.607
 5335SOL    HW128036   7.791   1.580   6.623
 5335SOL    HW228037   7.776   1.423   6.665
 5336SOL     OW28038   8.315   5.882   5.684
 5336SOL    HW128039   8.251   5.884   5.607
 5336SOL    HW228040   8.266   5.903   5.769
 5337SOL     OW28041   0.717   7.088   6.278
 5337SOL    HW128042   0.717   7.110   6.375
 5337SOL    HW228043   0.811   7.067   6.249
 5338SOL     OW28044   7.329   5.211   4.980
 5338SOL    HW128045   7.366   5.209   4.887
 5338SOL    HW228046   7.329   5.119   5.018
 5339SOL     OW28047   3.224   2.174   1.518
 5339SOL    HW128048   3.186   2.267   1.511
 5339SOL    HW228049   3.163   2.110   1.471
 5340SOL     OW28050   5.099   6.427   0.758
 5340SOL    HW128051   5.189   6.468   0.750
 5340SOL    HW228052   5.091   6.379   0.845
 5341SOL     OW28053   8.380   7.134   5.232
 5341SOL    HW128054   8.393   7.053   5.175
 5341SOL    HW228055   8.421   7.213   5.187
 5342SOL     OW28056   8.666   1.311   0.712
 5342SOL    HW128057   8.708   1.276   0.796
 5342SOL    HW228058   8.656   1.236   0.647
 5343SOL     OW28059   0.599   7.311   4.834
 5343SOL    HW128060   0.569   7.334   4.741
 5343SOL    HW228061   0.699   7.301   4.835
 5344SOL     OW28062   1.854   5.377   0.534
 5344SOL    HW128063   1.929   5.371   0.600
 5344SOL    HW228064   1.888   5.358   0.442
 5345SOL     OW28065   3.450   4.740   6.417
 5345SOL    HW128066   3.506   4.667   6.378
 5345SOL    HW228067   3.506   4.822   6.429
 5346SOL     OW28068   8.416   0.489   5.973
 5346SOL    HW128069   8.494   0.493   5.910
 5346SOL    HW228070   8.346   0.554   5.942
 5347SOL     OW28071   1.963   5.117   1.529
 5347SOL    HW128072   2.036   5.060   1.567
 5347SOL    HW228073   1.922   5.070   1.450
 5348SOL     OW28074   2.757   5.540   5.926
 5348SOL    HW128075   2.802   5.534   6.015
 5348SOL    HW228076   2.826   5.537   5.853
 5349SOL     OW28077   2.766   2.519   6.020
 5349SOL    HW128078   2.683   2.463   6.020
 5349SOL    HW228079   2.846   2.460   6.016
 5350SOL     OW28080   1.418   2.543   5.430
 5350SOL    HW128081   1.495   2.572   5.373
 5350SOL    HW228082   1.413   2.443   5.430
 5351SOL     OW28083   1.492   6.119   0.873
 5351SOL    HW128084   1.578   6.070   0.888
 5351SOL    HW228085   1.494   6.162   0.783
 5352SOL     OW28086   0.993   8.030   6.282
 5352SOL    HW128087   1.062   8.068   6.221
 5352SOL    HW228088   1.031   8.020   6.374
 5353SOL     OW28089   4.638   6.920   1.759
 5353SOL    HW128090   4.572   6.969   1.815
 5353SOL    HW228091   4.685   6.851   1.815
 5354SOL     OW28092   7.482   7.380   5.902
 5354SOL    HW128093   7.487   7.354   5.999
 5354SOL    HW228094   7.554   7.333   5.852
 5355SOL     OW28095   3.580   0.374   1.430
 5355SOL    HW128096   3.626   0.397   1.344
 5355SOL    HW228097   3.626   0.420   1.506
 5356SOL     OW28098   4.496   3.524   0.772
 5356SOL    HW128099   4.540   3.595   0.716
 5356SOL    HW228100   4.408   3.557   0.805
 5357SOL     OW28101   3.447   1.704   1.816
 5357SOL    HW128102   3.437   1.725   1.913
 5357SOL    HW228103   3.468   1.607   1.805
 5358SOL     OW28104   2.370   5.962   6.532
 5358SOL    HW128105   2.304   6.037   6.526
 5358SOL    HW228106   2.440   5.984   6.600
 5359SOL     OW28107   2.757   6.915   0.994
 5359SOL    HW128108   2.728   6.845   1.060
 5359SOL    HW228109   2.677   6.946   0.943
 5360SOL     OW28110   0.498   7.593   6.652
 5360SOL    HW128111   0.567   7.636   6.711
 5360SOL    HW228112   0.409   7.595   6.697
 5361SOL     OW28113   3.845   2.394   1.169
 5361SOL    HW128114   3.844   2.360   1.263
 5361SOL    HW228115   3.784   2.338   1.113
 5362SOL     OW28116   7.709   2.231   1.005
 5362SOL    HW128117   7.613   2.252   0.989
 5362SOL    HW228118   7.748   2.186   0.925
 5363SOL     OW28119   5.942   6.784   5.531
 5363SOL    HW128120   5.890   6.719   5.586
 5363SOL    HW228121   5.897   6.797   5.443
 5364SOL     OW28122   6.171   7.845   1.206
 5364SOL    HW128123   6.204   7.842   1.301
 5364SOL    HW228124   6.175   7.939   1.172
 5365SOL     OW28125   0.751   4.126   6.135
 5365SOL    HW128126   0.751   4.037   6.089
 5365SOL    HW228127   0.658   4.149   6.164
 5366SOL     OW28128   0.953   5.493   1.192
 5366SOL    HW128129   0.928   5.469   1.286
 5366SOL    HW228130   1.033   5.553   1.193
 5367SOL     OW28131   1.128   1.273   1.221
 5367SOL    HW128132   1.202   1.219   1.182
 5367SOL    HW228133   1.059   1.212   1.260
 5368SOL     OW28134   2.803   6.350   0.138
 5368SOL    HW128135   2.797   6.448   0.119
 5368SOL    HW228136   2.899   6.324   0.150
 5369SOL     OW28137   5.589   2.761   0.820
 5369SOL    HW128138   5.532   2.821   0.764
 5369SOL    HW228139   5.530   2.698   0.871
 5370SOL     OW28140   1.822   1.355   1.200
 5370SOL    HW128141   1.887   1.424   1.167
 5370SOL    HW228142   1.794   1.378   1.293
 5371SOL     OW28143   2.298   8.421   0.723
 5371SOL    HW128144   2.323   8.325   0.734
 5371SOL    HW228145   2.278   8.461   0.812
 5372SOL     OW28146   3.932   0.217   5.890
 5372SOL    HW128147   3.925   0.317   5.892
 5372SOL    HW228148   3.850   0.179   5.849
 5373SOL     OW28149   4.347   1.911   6.450
 5373SOL    HW128150   4.417   1.983   6.449
 5373SOL    HW228151   4.390   1.823   6.428
 5374SOL     OW28152   6.091   6.660   2.129
 5374SOL    HW128153   6.189   6.673   2.143
 5374SOL    HW228154   6.055   6.601   2.201
 5375SOL     OW28155   8.829   6.855   1.581
 5375SOL    HW128156   8.745   6.865   1.634
 5375SOL    HW228157   8.823   6.773   1.524
 5376SOL     OW28158   4.408   4.795   5.643
 5376SOL    HW128159   4.439   4.702   5.624
 5376SOL    HW228160   4.343   4.824   5.573
 5377SOL     OW28161   9.168   8.321   0.266
 5377SOL    HW128162   9.143   8.417   0.282
 5377SOL    HW228163   9.249   8.298   0.320
 5378SOL     OW28164   4.903   2.729   6.196
 5378SOL    HW128165   4.974   2.782   6.149
 5378SOL    HW228166   4.946   2.670   6.264
 5379SOL     OW28167   3.054   3.358   6.082
 5379SOL    HW128168   3.045   3.457   6.074
 5379SOL    HW228169   2.981   3.313   6.031
 5380SOL     OW28170   6.053   0.341   1.957
 5380SOL    HW128171   6.116   0.418   1.966
 5380SOL    HW228172   6.042   0.296   2.046
 5381SOL     OW28173   5.245   0.943   6.810
 5381SOL    HW128174   5.287   0.853   6.825
 5381SOL    HW228175   5.201   0.974   6.894
 5382SOL     OW28176   0.311   2.724   6.847
 5382SOL    HW128177   0.241   2.693   6.783
 5382SOL    HW228178   0.358   2.804   6.809
 5383SOL     OW28179   1.484   1.869   1.301
 5383SOL    HW128180   1.547   1.796   1.275
 5383SOL    HW228181   1.535   1.955   1.309
 5384SOL     OW28182   3.863   4.972   1.641
 5384SOL    HW128183   3.950   4.932   1.612
 5384SOL    HW228184   3.830   4.924   1.722
 5385SOL     OW28185   1.461   2.584   6.565
 5385SOL    HW128186   1.386   2.567   6.630
 5385SOL    HW228187   1.465   2.682   6.544
 5386SOL     OW28188   4.622   7.387   6.162
 5386SOL    HW128189   4.671   7.381   6.075
 5386SOL    HW228190   4.686   7.375   6.238
 5387SOL     OW28191   1.408   1.947   5.395
 5387SOL    HW128192   1.352   2.013   5.446
 5387SOL    HW228193   1.448   1.992   5.316
 5388SOL     OW28194   5.755   7.975   2.102
 5388SOL    HW128195   5.826   7.913   2.138
 5388SOL    HW228196   5.669   7.924   2.092
 5389SOL     OW28197   8.080   2.810   0.565
 5389SOL    HW128198   8.169   2.854   0.581
 5389SOL    HW228199   8.007   2.874   0.588
 5390SOL     OW28200   3.757   1.736   6.265
 5390SOL    HW128201   3.658   1.728   6.278
 5390SOL    HW228202   3.787   1.669   6.197
 5391SOL     OW28203   3.491   1.357   1.415
 5391SOL    HW128204   3.482   1.432   1.349
 5391SOL    HW228205   3.558   1.381   1.484
 5392SOL     OW28206   7.218   6.657   0.378
 5392SOL    HW128207   7.210   6.571   0.328
 5392SOL    HW228208   7.273   6.644   0.460
 5393SOL     OW28209   4.964   1.453   1.763
 5393SOL    HW128210   4.947   1.390   1.838
 5393SOL    HW228211   4.961   1.547   1.797
 5394SOL     OW28212   1.170   1.490   6.803
 5394SOL    HW128213   1.187   1.555   6.877
 5394SOL    HW228214   1.256   1.468   6.758
 5395SOL     OW28215   5.546   7.708   0.410
 5395SOL    HW128216   5.606   7.773   0.364
 5395SOL    HW228217   5.586   7.681   0.497
 5396SOL     OW28218   2.537   0.862   1.189
 5396SOL    HW128219   2.622   0.812   1.208
 5396SOL    HW228220   2.462   0.821   1.241
 5397SOL     OW28221   2.254   6.796   6.753
 5397SOL    HW128222   2.271   6.890   6.726
 5397SOL    HW228223   2.249   6.738   6.671
 5398SOL     OW28224   8.689   4.115   6.690
 5398SOL    HW128225   8.715   4.097   6.785
 5398SOL    HW228226   8.768   4.150   6.640
 5399SOL     OW28227   8.628   1.908   1.504
 5399SOL    HW128228   8.641   2.003   1.476
 5399SOL    HW228229   8.646   1.899   1.602
 5400SOL     OW28230   5.748   8.051   6.429
 5400SOL    HW128231   5.847   8.066   6.439
 5400SOL    HW228232   5.729   8.004   6.343
 5401SOL     OW28233   3.864   7.293   0.530
 5401SOL    HW128234   3.893   7.199   0.544
 5401SOL    HW228235   3.944   7.354   0.533
 5402SOL     OW28236   5.762   4.166   1.571
 5402SOL    HW128237   5.808   4.102   1.632
 5402SOL    HW228238   5.663   4.160   1.583
 5403SOL     OW28239   6.162   0.545   0.692
 5403SOL    HW128240   6.116   0.617   0.640
 5403SOL    HW228241   6.102   0.512   0.765
 5404SOL     OW28242   5.711   2.098   1.026
 5404SOL    HW128243   5.696   2.024   0.961
 5404SOL    HW228244   5.674   2.183   0.988
 5405SOL     OW28245   0.328   1.843   0.971
 5405SOL    HW128246   0.311   1.752   1.009
 5405SOL    HW228247   0.376   1.898   1.038
 5406SOL     OW28248   7.910   5.467   5.038
 5406SOL    HW128249   7.971   5.471   4.960
 5406SOL    HW228250   7.815   5.464   5.006
 5407SOL     OW28251   5.826   6.646   0.755
 5407SOL    HW128252   5.778   6.665   0.841
 5407SOL    HW228253   5.857   6.733   0.715
 5408SOL     OW28254   4.330   6.510   5.672
 5408SOL    HW128255   4.327   6.431   5.733
 5408SOL    HW228256   4.299   6.482   5.581
 5409SOL     OW28257   6.210   4.203   0.387
 5409SOL    HW128258   6.159   4.213   0.472
 5409SOL    HW228259   6.257   4.288   0.365
 5410SOL     OW28260   9.001   2.048   6.299
 5410SOL    HW128261   9.034   2.043   6.393
 5410SOL    HW228262   8.986   2.144   6.275
 5411SOL     OW28263   4.700   7.895   5.411
 5411SOL    HW128264   4.626   7.829   5.396
 5411SOL    HW228265   4.756   7.864   5.488
 5412SOL     OW28266   0.267   7.234   1.086
 5412SOL    HW128267   0.238   7.139   1.072
 5412SOL    HW228268   0.212   7.275   1.159
 5413SOL     OW28269   6.779   4.149   1.313
 5413SOL    HW128270   6.733   4.193   1.237
 5413SOL    HW228271   6.749   4.190   1.399
 5414SOL     OW28272   2.496   6.569   6.488
 5414SOL    HW128273   2.542   6.640   6.541
 5414SOL    HW228274   2.413   6.540   6.535
 5415SOL     OW28275   9.154   0.630   5.622
 5415SOL    HW128276   9.170   0.546   5.569
 5415SOL    HW228277   9.057   0.655   5.615
 5416SOL     OW28278   5.709   0.197   6.589
 5416SOL    HW128279   5.715   0.293   6.562
 5416SOL    HW228280   5.682   0.190   6.685
 5417SOL     OW28281   0.532   1.235   6.672
 5417SOL    HW128282   0.607   1.241   6.607
 5417SOL    HW228283   0.449   1.271   6.630
 5418SOL     OW28284   7.969   3.717   1.317
 5418SOL    HW128285   7.920   3.748   1.236
 5418SOL    HW228286   8.038   3.649   1.290
 5419SOL     OW28287   3.716   7.378   2.289
 5419SOL    HW128288   3.771   7.381   2.372
 5419SOL    HW228289   3.759   7.318   2.222
 5420SOL     OW28290   3.003   2.986   6.758
 5420SOL    HW128291   3.012   2.914   6.689
 5420SOL    HW228292   3.019   3.075   6.716
 5421SOL     OW28293   8.604   8.162   0.770
 5421SOL    HW128294   8.698   8.142   0.740
 5421SOL    HW228295   8.540   8.122   0.705
 5422SOL     OW28296   7.786   4.898   6.696
 5422SOL    HW128297   7.800   4.912   6.598
 5422SOL    HW228298   7.757   4.803   6.713
 5423SOL     OW28299   5.432   8.027   1.663
 5423SOL    HW128300   5.494   8.081   1.606
 5423SOL    HW228301   5.454   8.041   1.759
 5424SOL     OW28302   1.138   3.454   0.131
 5424SOL    HW128303   1.129   3.554   0.130
 5424SOL    HW228304   1.060   3.414   0.178
 5425SOL     OW28305   5.912   1.202   0.695
 5425SOL    HW128306   6.001   1.211   0.741
 5425SOL    HW228307   5.922   1.143   0.615
 5426SOL     OW28308   5.527   8.209   1.500
 5426SOL    HW128309   5.487   8.295   1.532
 5426SOL    HW228310   5.494   8.189   1.407
 5427SOL     OW28311   5.616   8.128   0.404
 5427SOL    HW128312   5.704   8.116   0.357
 5427SOL    HW228313   5.632   8.154   0.499
 5428SOL     OW28314   3.868   4.674   1.509
 5428SOL    HW128315   3.778   4.716   1.495
 5428SOL    HW228316   3.887   4.667   1.607
 5429SOL     OW28317   5.092   7.005   5.687
 5429SOL    HW128318   5.033   6.984   5.609
 5429SOL    HW228319   5.073   6.942   5.762
 5430SOL     OW28320   6.102   1.452   6.519
 5430SOL    HW128321   6.171   1.385   6.490
 5430SOL    HW228322   6.118   1.477   6.614
 5431SOL     OW28323   8.894   7.120   6.355
 5431SOL    HW128324   8.808   7.104   6.306
 5431SOL    HW228325   8.882   7.102   6.452
 5432SOL     OW28326   0.682   0.870   5.481
 5432SOL    HW128327   0.697   0.862   5.382
 5432SOL    HW228328   0.769   0.865   5.529
 5433SOL     OW28329   8.167   3.389   6.544
 5433SOL    HW128330   8.225   3.411   6.466
 5433SOL    HW228331   8.179   3.458   6.615
 5434SOL     OW28332   9.437   3.057   6.366
 5434SOL    HW128333   9.411   3.089   6.457
 5434SOL    HW228334   9.372   2.988   6.335
 5435SOL     OW28335   9.548   4.868   1.144
 5435SOL    HW128336   9.615   4.894   1.215
 5435SOL    HW228337   9.515   4.776   1.162
 5436SOL     OW28338   4.959   1.414   6.286
 5436SOL    HW128339   4.980   1.380   6.378
 5436SOL    HW228340   4.937   1.511   6.291
 5437SOL     OW28341   0.485   7.004   0.864
 5437SOL    HW128342   0.498   6.982   0.961
 5437SOL    HW228343   0.460   6.920   0.815
 5438SOL     OW28344   2.135   2.806   6.746
 5438SOL    HW128345   2.157   2.719   6.788
 5438SOL    HW228346   2.206   2.829   6.679
 5439SOL     OW28347   8.982   3.892   0.249
 5439SOL    HW128348   9.001   3.987   0.272
 5439SOL    HW228349   9.053   3.833   0.287
 5440SOL     OW28350   1.114   6.562   0.175
 5440SOL    HW128351   1.094   6.522   0.264
 5440SOL    HW228352   1.080   6.656   0.172
 5441SOL     OW28353   1.291   8.284   0.584
 5441SOL    HW128354   1.318   8.377   0.609
 5441SOL    HW228355   1.251   8.238   0.663
 5442SOL     OW28356   7.087   4.226   1.456
 5442SOL    HW128357   7.180   4.258   1.475
 5442SOL    HW228358   7.091   4.136   1.412
 5443SOL     OW28359   1.531   4.836   6.287
 5443SOL    HW128360   1.523   4.744   6.248
 5443SOL    HW228361   1.616   4.879   6.254
 5444SOL     OW28362   7.987   7.439   6.588
 5444SOL    HW128363   8.029   7.525   6.558
 5444SOL    HW228364   7.921   7.458   6.661
 5445SOL     OW28365   7.206   5.568   1.126
 5445SOL    HW128366   7.215   5.573   1.027
 5445SOL    HW228367   7.263   5.494   1.161
 5446SOL     OW28368   0.621   5.645   5.964
 5446SOL    HW128369   0.674   5.654   5.880
 5446SOL    HW228370   0.659   5.571   6.019
 5447SOL     OW28371   5.106   6.210   6.063
 5447SOL    HW128372   5.124   6.246   6.154
 5447SOL    HW228373   5.187   6.164   6.028
 5448SOL     OW28374   4.148   5.470   2.152
 5448SOL    HW128375   4.111   5.556   2.188
 5448SOL    HW228376   4.077   5.400   2.155
 5449SOL     OW28377   3.607   6.246   1.026
 5449SOL    HW128378   3.617   6.261   1.124
 5449SOL    HW228379   3.544   6.170   1.010
 5450SOL     OW28380   2.307   5.543   1.053
 5450SOL    HW128381   2.315   5.582   1.144
 5450SOL    HW228382   2.223   5.575   1.009
 5451SOL     OW28383   3.510   4.653   1.607
 5451SOL    HW128384   3.483   4.672   1.702
 5451SOL    HW228385   3.547   4.736   1.566
 5452SOL     OW28386   6.793   6.235   1.648
 5452SOL    HW128387   6.849   6.154   1.663
 5452SOL    HW228388   6.750   6.262   1.734
 5453SOL     OW28389   1.088   0.805   0.946
 5453SOL    HW128390   1.137   0.869   0.886
 5453SOL    HW228391   1.022   0.855   1.001
 5454SOL     OW28392   9.038   3.283   6.853
 5454SOL    HW128393   9.093   3.203   6.833
 5454SOL    HW228394   9.055   3.354   6.783
 5455SOL     OW28395   9.011   7.373   1.224
 5455SOL    HW128396   9.078   7.445   1.238
 5455SOL    HW228397   8.955   7.361   1.306
 5456SOL     OW28398   2.194   4.064   2.030
 5456SOL    HW128399   2.123   4.124   2.067
 5456SOL    HW228400   2.159   4.016   1.949
 5457SOL     OW28401   1.355   6.610   0.282
 5457SOL    HW128402   1.267   6.569   0.260
 5457SOL    HW228403   1.413   6.610   0.201
 5458SOL     OW28404   1.969   2.693   0.679
 5458SOL    HW128405   1.912   2.668   0.757
 5458SOL    HW228406   2.065   2.678   0.701
 5459SOL     OW28407   6.035   3.062   1.608
 5459SOL    HW128408   6.032   3.004   1.689
 5459SOL    HW228409   5.942   3.088   1.582
 5460SOL     OW28410   4.245   0.796   1.580
 5460SOL    HW128411   4.251   0.838   1.671
 5460SOL    HW228412   4.158   0.822   1.537
 5461SOL     OW28413   0.697   1.857   0.262
 5461SOL    HW128414   0.745   1.910   0.192
 5461SOL    HW228415   0.643   1.918   0.319
 5462SOL     OW28416   0.900   7.580   6.094
 5462SOL    HW128417   0.988   7.622   6.074
 5462SOL    HW228418   0.851   7.635   6.162
 5463SOL     OW28419   4.639   6.460   0.592
 5463SOL    HW128420   4.641   6.538   0.530
 5463SOL    HW228421   4.661   6.376   0.542
 5464SOL     OW28422   4.081   3.037   6.321
 5464SOL    HW128423   4.114   2.964   6.262
 5464SOL    HW228424   4.155   3.071   6.378
 5465SOL     OW28425   9.022   3.944   6.204
 5465SOL    HW128426   9.055   4.038   6.203
 5465SOL    HW228427   8.925   3.942   6.183
 5466SOL     OW28428   2.792   7.460   6.007
 5466SOL    HW128429   2.849   7.477   5.926
 5466SOL    HW228430   2.695   7.464   5.981
 5467SOL     OW28431   6.895   0.852   5.939
 5467SOL    HW128432   6.883   0.895   5.850
 5467SOL    HW228433   6.979   0.888   5.982
 5468SOL     OW28434   7.432   5.944   0.697
 5468SOL    HW128435   7.480   5.893   0.768
 5468SOL    HW228436   7.350   5.895   0.670
 5469SOL     OW28437   5.049   1.254   6.053
 5469SOL    HW128438   4.983   1.298   6.115
 5469SOL    HW228439   5.138   1.298   6.063
 5470SOL     OW28440   5.323   2.181   5.713
 5470SOL    HW128441   5.309   2.147   5.620
 5470SOL    HW228442   5.301   2.278   5.717
 5471SOL     OW28443   4.259   1.953   6.083
 5471SOL    HW128444   4.228   1.858   6.090
 5471SOL    HW228445   4.337   1.967   6.144
 5472SOL     OW28446   8.899   6.688   5.750
 5472SOL    HW128447   8.971   6.732   5.696
 5472SOL    HW228448   8.932   6.600   5.784
 5473SOL     OW28449   0.596   7.028   5.234
 5473SOL    HW128450   0.497   7.013   5.242
 5473SOL    HW228451   0.616   7.126   5.240
 5474SOL     OW28452   0.691   6.469   1.548
 5474SOL    HW128453   0.635   6.515   1.616
 5474SOL    HW228454   0.788   6.484   1.569
 5475SOL     OW28455   3.649   8.297   1.433
 5475SOL    HW128456   3.686   8.263   1.347
 5475SOL    HW228457   3.655   8.225   1.502
 5476SOL     OW28458   4.772   4.707   0.915
 5476SOL    HW128459   4.696   4.650   0.883
 5476SOL    HW228460   4.793   4.684   1.010
 5477SOL     OW28461   1.288   2.772   5.380
 5477SOL    HW128462   1.305   2.677   5.408
 5477SOL    HW228463   1.354   2.833   5.423
 5478SOL     OW28464   6.160   0.597   2.008
 5478SOL    HW128465   6.100   0.674   2.030
 5478SOL    HW228466   6.246   0.606   2.059
 5479SOL     OW28467   8.276   7.615   0.314
 5479SOL    HW128468   8.313   7.559   0.388
 5479SOL    HW228469   8.351   7.665   0.270
 5480SOL     OW28470   9.152   6.798   1.513
 5480SOL    HW128471   9.084   6.748   1.459
 5480SOL    HW228472   9.171   6.747   1.597
 5481SOL     OW28473   1.351   4.225   5.748
 5481SOL    HW128474   1.449   4.209   5.764
 5481SOL    HW228475   1.334   4.232   5.650
 5482SOL     OW28476   4.945   4.533   6.702
 5482SOL    HW128477   4.923   4.486   6.616
 5482SOL    HW228478   4.957   4.466   6.775
 5483SOL     OW28479   9.223   7.606   1.114
 5483SOL    HW128480   9.247   7.541   1.041
 5483SOL    HW228481   9.286   7.594   1.191
 5484SOL     OW28482   4.716   5.667   1.679
 5484SOL    HW128483   4.658   5.713   1.612
 5484SOL    HW228484   4.705   5.712   1.768
 5485SOL     OW28485   2.012   6.376   5.154
 5485SOL    HW128486   2.003   6.300   5.090
 5485SOL    HW228487   2.108   6.389   5.177
 5486SOL     OW28488   5.603   5.760   1.174
 5486SOL    HW128489   5.696   5.782   1.144
 5486SOL    HW228490   5.537   5.806   1.115
 5487SOL     OW28491   3.365   5.758   5.946
 5487SOL    HW128492   3.462   5.782   5.955
 5487SOL    HW228493   3.320   5.768   6.035
 5488SOL     OW28494   7.283   5.555   0.868
 5488SOL    HW128495   7.382   5.544   0.879
 5488SOL    HW228496   7.259   5.652   0.881
 5489SOL     OW28497   0.226   2.999   6.281
 5489SOL    HW128498   0.130   3.021   6.297
 5489SOL    HW228499   0.232   2.913   6.230
 5490SOL     OW28500   6.676   3.975   1.070
 5490SOL    HW128501   6.656   4.067   1.105
 5490SOL    HW228502   6.729   3.982   0.985
 5491SOL     OW28503   0.131   0.144   1.626
 5491SOL    HW128504   0.163   0.206   1.555
 5491SOL    HW228505   0.122   0.194   1.712
 5492SOL     OW28506   4.443   2.789   1.475
 5492SOL    HW128507   4.496   2.829   1.550
 5492SOL    HW228508   4.360   2.842   1.460
 5493SOL     OW28509   5.100   0.637   0.672
 5493SOL    HW128510   5.105   0.541   0.643
 5493SOL    HW228511   5.005   0.668   0.668
 5494SOL     OW28512   9.000   2.543   0.687
 5494SOL    HW128513   8.945   2.619   0.721
 5494SOL    HW228514   8.956   2.456   0.712
 5495SOL     OW28515   6.989   5.759   6.797
 5495SOL    HW128516   7.010   5.857   6.802
 5495SOL    HW228517   6.972   5.734   6.702
 5496SOL     OW28518   7.133   2.921   0.580
 5496SOL    HW128519   7.232   2.905   0.585
 5496SOL    HW228520   7.087   2.836   0.558
 5497SOL     OW28521   2.048   4.364   0.339
 5497SOL    HW128522   2.137   4.322   0.320
 5497SOL    HW228523   1.999   4.380   0.253
 5498SOL     OW28524   2.043   2.558   4.899
 5498SOL    HW128525   1.974   2.486   4.898
 5498SOL    HW228526   2.003   2.643   4.932
 5499SOL     OW28527   8.188   4.614   6.804
 5499SOL    HW128528   8.127   4.549   6.760
 5499SOL    HW228529   8.139   4.700   6.820
 5500SOL     OW28530   8.201   5.953   6.667
 5500SOL    HW128531   8.174   5.879   6.728
 5500SOL    HW228532   8.289   5.932   6.625
 5501SOL     OW28533   8.413   6.738   5.826
 5501SOL    HW128534   8.417   6.647   5.786
 5501SOL    HW228535   8.360   6.798   5.766
 5502SOL     OW28536   1.851   0.228   1.634
 5502SOL    HW128537   1.866   0.136   1.672
 5502SOL    HW228538   1.767   0.266   1.672
 5503SOL     OW28539   3.520   2.395   6.316
 5503SOL    HW128540   3.431   2.395   6.363
 5503SOL    HW228541   3.593   2.408   6.384
 5504SOL     OW28542   9.444   2.298   6.274
 5504SOL    HW128543   9.357   2.326   6.315
 5504SOL    HW228544   9.433   2.294   6.174
 5505SOL     OW28545   4.964   0.651   5.417
 5505SOL    HW128546   4.923   0.685   5.333
 5505SOL    HW228547   5.055   0.691   5.428
 5506SOL     OW28548   4.994   6.025   0.437
 5506SOL    HW128549   5.012   6.006   0.534
 5506SOL    HW228550   5.068   5.987   0.382
 5507SOL     OW28551   0.432   6.504   4.511
 5507SOL    HW128552   0.507   6.448   4.475
 5507SOL    HW228553   0.378   6.539   4.434
 5508SOL     OW28554   3.708   2.334   1.991
 5508SOL    HW128555   3.717   2.423   2.035
 5508SOL    HW228556   3.715   2.262   2.061
 5509SOL     OW28557   4.732   5.752   1.324
 5509SOL    HW128558   4.807   5.784   1.383
 5509SOL    HW228559   4.708   5.658   1.348
 5510SOL     OW28560   7.508   5.359   0.902
 5510SOL    HW128561   7.512   5.276   0.958
 5510SOL    HW228562   7.437   5.348   0.832
 5511SOL     OW28563   1.724   2.261   6.046
 5511SOL    HW128564   1.724   2.350   6.091
 5511SOL    HW228565   1.652   2.258   5.977
 5512SOL     OW28566   5.245   4.789   0.863
 5512SOL    HW128567   5.151   4.821   0.872
 5512SOL    HW228568   5.295   4.808   0.948
 5513SOL     OW28569   4.134   1.204   0.684
 5513SOL    HW128570   4.172   1.273   0.623
 5513SOL    HW228571   4.195   1.125   0.687
 5514SOL     OW28572   8.993   7.336   5.210
 5514SOL    HW128573   8.937   7.271   5.261
 5514SOL    HW228574   8.939   7.376   5.136
 5515SOL     OW28575   6.464   1.494   2.106
 5515SOL    HW128576   6.473   1.543   2.192
 5515SOL    HW228577   6.541   1.431   2.095
 5516SOL     OW28578   3.518   5.561   6.408
 5516SOL    HW128579   3.533   5.651   6.367
 5516SOL    HW228580   3.423   5.532   6.393
 5517SOL     OW28581   7.576   0.633   6.834
 5517SOL    HW128582   7.661   0.617   6.884
 5517SOL    HW228583   7.596   0.636   6.736
 5518SOL     OW28584   8.828   4.665   6.146
 5518SOL    HW128585   8.908   4.697   6.095
 5518SOL    HW228586   8.858   4.621   6.231
 5519SOL     OW28587   2.825   5.125   0.638
 5519SOL    HW128588   2.729   5.100   0.652
 5519SOL    HW228589   2.879   5.091   0.715
 5520SOL     OW28590   7.311   6.678   0.644
 5520SOL    HW128591   7.254   6.748   0.686
 5520SOL    HW228592   7.355   6.623   0.716
 5521SOL     OW28593   7.990   1.791   0.812
 5521SOL    HW128594   8.017   1.837   0.896
 5521SOL    HW228595   8.071   1.755   0.766
 5522SOL     OW28596   2.767   1.167   6.112
 5522SOL    HW128597   2.710   1.092   6.143
 5522SOL    HW228598   2.863   1.141   6.117
 5523SOL     OW28599   5.209   6.734   0.212
 5523SOL    HW128600   5.250   6.792   0.282
 5523SOL    HW228601   5.168   6.791   0.141
 5524SOL     OW28602   5.945   5.320   6.805
 5524SOL    HW128603   5.849   5.316   6.780
 5524SOL    HW228604   5.955   5.305   6.904
 5525SOL     OW28605   3.394   0.246   6.783
 5525SOL    HW128606   3.448   0.163   6.794
 5525SOL    HW228607   3.312   0.241   6.838
 5526SOL     OW28608   7.041   7.395   6.190
 5526SOL    HW128609   7.065   7.490   6.206
 5526SOL    HW228610   6.954   7.374   6.234
 5527SOL     OW28611   9.361   3.058   1.363
 5527SOL    HW128612   9.289   3.041   1.430
 5527SOL    HW228613   9.451   3.054   1.408
 5528SOL     OW28614   5.007   4.858   0.446
 5528SOL    HW128615   5.059   4.896   0.370
 5528SOL    HW228616   4.910   4.853   0.421
 5529SOL     OW28617   9.278   4.371   6.837
 5529SOL    HW128618   9.356   4.429   6.814
 5529SOL    HW228619   9.274   4.293   6.775
 5530SOL     OW28620   8.194   7.610   5.338
 5530SOL    HW128621   8.163   7.667   5.262
 5530SOL    HW228622   8.274   7.557   5.310
 5531SOL     OW28623   2.350   2.156   6.688
 5531SOL    HW128624   2.324   2.243   6.646
 5531SOL    HW228625   2.272   2.093   6.684
 5532SOL     OW28626   6.206   0.491   6.557
 5532SOL    HW128627   6.306   0.498   6.558
 5532SOL    HW228628   6.180   0.398   6.531
 5533SOL     OW28629   7.570   5.451   4.956
 5533SOL    HW128630   7.624   5.508   4.893
 5533SOL    HW228631   7.473   5.458   4.933
 5534SOL     OW28632   7.553   2.167   0.444
 5534SOL    HW128633   7.467   2.160   0.394
 5534SOL    HW228634   7.604   2.247   0.410
 5535SOL     OW28635   9.274   5.502   0.899
 5535SOL    HW128636   9.274   5.435   0.974
 5535SOL    HW228637   9.291   5.593   0.936
 5536SOL     OW28638   8.351   6.869   0.355
 5536SOL    HW128639   8.260   6.903   0.332
 5536SOL    HW228640   8.359   6.773   0.326
 5537SOL     OW28641   4.075   5.274   0.825
 5537SOL    HW128642   3.986   5.240   0.856
 5537SOL    HW228643   4.102   5.353   0.881
 5538SOL     OW28644   7.595   7.719   5.908
 5538SOL    HW128645   7.574   7.689   5.815
 5538SOL    HW228646   7.603   7.818   5.911
 5539SOL     OW28647   2.148   5.539   0.396
 5539SOL    HW128648   2.107   5.517   0.485
 5539SOL    HW228649   2.179   5.455   0.352
 5540SOL     OW28650   7.339   6.876   1.074
 5540SOL    HW128651   7.351   6.817   1.153
 5540SOL    HW228652   7.330   6.971   1.104
 5541SOL     OW28653   2.058   3.685   5.477
 5541SOL    HW128654   2.075   3.742   5.397
 5541SOL    HW228655   2.017   3.598   5.448
 5542SOL     OW28656   2.053   2.304   6.167
 5542SOL    HW128657   1.995   2.364   6.222
 5542SOL    HW228658   1.997   2.251   6.104
 5543SOL     OW28659   1.277   6.742   6.500
 5543SOL    HW128660   1.355   6.803   6.513
 5543SOL    HW228661   1.309   6.653   6.466
 5544SOL     OW28662   8.255   6.630   5.403
 5544SOL    HW128663   8.311   6.710   5.423
 5544SOL    HW228664   8.209   6.599   5.486
 5545SOL     OW28665   2.949   1.270   0.550
 5545SOL    HW128666   3.009   1.317   0.614
 5545SOL    HW228667   2.955   1.171   0.565
 5546SOL     OW28668   8.384   7.472   5.900
 5546SOL    HW128669   8.481   7.449   5.902
 5546SOL    HW228670   8.330   7.389   5.887
 5547SOL     OW28671   6.922   7.132   1.247
 5547SOL    HW128672   6.954   7.109   1.339
 5547SOL    HW228673   6.914   7.048   1.193
 5548SOL     OW28674   0.395   7.655   0.934
 5548SOL    HW128675   0.389   7.640   1.032
 5548SOL    HW228676   0.426   7.749   0.917
 5549SOL     OW28677   7.738   3.497   1.277
 5549SOL    HW128678   7.757   3.589   1.242
 5549SOL    HW228679   7.788   3.483   1.363
 5550SOL     OW28680   7.868   5.973   1.138
 5550SOL    HW128681   7.869   5.892   1.197
 5550SOL    HW228682   7.796   6.036   1.170
 5551SOL     OW28683   4.620   0.303   5.856
 5551SOL    HW128684   4.684   0.372   5.890
 5551SOL    HW228685   4.637   0.286   5.759
 5552SOL     OW28686   7.913  -0.001   5.863
 5552SOL    HW128687   7.816   0.015   5.850
 5552SOL    HW228688   7.965   0.077   5.829
 5553SOL     OW28689   5.773   4.648   0.304
 5553SOL    HW128690   5.814   4.732   0.339
 5553SOL    HW228691   5.840   4.573   0.308
 5554SOL     OW28692   1.638   5.711   5.825
 5554SOL    HW128693   1.690   5.698   5.741
 5554SOL    HW228694   1.624   5.623   5.870
 5555SOL     OW28695   4.690   7.527   5.247
 5555SOL    HW128696   4.759   7.514   5.176
 5555SOL    HW228697   4.605   7.558   5.205
 5556SOL     OW28698   2.386   5.464   5.802
 5556SOL    HW128699   2.406   5.557   5.834
 5556SOL    HW228700   2.432   5.397   5.861
 5557SOL     OW28701   2.272   4.718   5.780
 5557SOL    HW128702   2.263   4.702   5.878
 5557SOL    HW228703   2.353   4.670   5.746
 5558SOL     OW28704   2.591   3.559   5.829
 5558SOL    HW128705   2.675   3.506   5.842
 5558SOL    HW228706   2.615   3.654   5.809
 5559SOL     OW28707   5.526   6.875   0.766
 5559SOL    HW128708   5.476   6.899   0.683
 5559SOL    HW228709   5.529   6.953   0.827
 5560SOL     OW28710   5.757   8.224   2.246
 5560SOL    HW128711   5.752   8.126   2.226
 5560SOL    HW228712   5.853   8.251   2.253
 5561SOL     OW28713   6.586   7.972   5.958
 5561SOL    HW128714   6.530   7.892   5.979
 5561SOL    HW228715   6.543   8.025   5.885
 5562SOL     OW28716   8.979   2.716   0.374
 5562SOL    HW128717   9.058   2.721   0.312
 5562SOL    HW228718   8.901   2.762   0.332
 5563SOL     OW28719   3.306   8.361   6.476
 5563SOL    HW128720   3.313   8.298   6.399
 5563SOL    HW228721   3.225   8.419   6.465
 5564SOL     OW28722   2.590   2.353   1.213
 5564SOL    HW128723   2.538   2.415   1.154
 5564SOL    HW228724   2.591   2.262   1.173
 5565SOL     OW28725   1.716   7.664   0.875
 5565SOL    HW128726   1.761   7.640   0.961
 5565SOL    HW228727   1.617   7.650   0.884
 5566SOL     OW28728   2.090   4.623   5.570
 5566SOL    HW128729   2.105   4.620   5.472
 5566SOL    HW228730   2.173   4.657   5.616
 5567SOL     OW28731   2.817   1.890   0.210
 5567SOL    HW128732   2.852   1.816   0.268
 5567SOL    HW228733   2.840   1.871   0.114
 5568SOL     OW28734   8.909   6.217   0.506
 5568SOL    HW128735   8.907   6.118   0.519
 5568SOL    HW228736   8.914   6.263   0.595
 5569SOL     OW28737   5.784   1.112   1.183
 5569SOL    HW128738   5.811   1.147   1.273
 5569SOL    HW228739   5.826   1.023   1.168
 5570SOL     OW28740   2.044   6.211   1.491
 5570SOL    HW128741   2.112   6.138   1.499
 5570SOL    HW228742   1.971   6.181   1.429
 5571SOL     OW28743   3.396   6.699   5.201
 5571SOL    HW128744   3.334   6.771   5.233
 5571SOL    HW228745   3.488   6.736   5.193
 5572SOL     OW28746   7.277   5.388   5.182
 5572SOL    HW128747   7.295   5.357   5.089
 5572SOL    HW228748   7.187   5.432   5.186
 5573SOL     OW28749   6.264   3.651   6.236
 5573SOL    HW128750   6.359   3.620   6.246
 5573SOL    HW228751   6.240   3.653   6.139
 5574SOL     OW28752   6.665   5.744   0.405
 5574SOL    HW128753   6.728   5.667   0.403
 5574SOL    HW228754   6.700   5.814   0.468
 5575SOL     OW28755   4.239   5.675   6.021
 5575SOL    HW128756   4.245   5.770   5.991
 5575SOL    HW228757   4.181   5.623   5.957
 5576SOL     OW28758   0.278   2.042   5.345
 5576SOL    HW128759   0.325   2.055   5.433
 5576SOL    HW228760   0.344   2.048   5.271
 5577SOL     OW28761   9.265   6.560   6.211
 5577SOL    HW128762   9.264   6.481   6.273
 5577SOL    HW228763   9.199   6.628   6.243
 5578SOL     OW28764   1.361   6.039   0.461
 5578SOL    HW128765   1.265   6.042   0.432
 5578SOL    HW228766   1.420   6.035   0.380
 5579SOL     OW28767   1.199   7.008   6.245
 5579SOL    HW128768   1.229   7.103   6.241
 5579SOL    HW228769   1.278   6.947   6.241
 5580SOL     OW28770   7.983   1.942   6.346
 5580SOL    HW128771   7.949   2.019   6.400
 5580SOL    HW228772   8.062   1.973   6.292
 5581SOL     OW28773   6.321   7.417   0.818
 5581SOL    HW128774   6.389   7.388   0.751
 5581SOL    HW228775   6.257   7.481   0.775
 5582SOL     OW28776   7.590   6.298   0.763
 5582SOL    HW128777   7.563   6.256   0.677
 5582SOL    HW228778   7.623   6.227   0.826
 5583SOL     OW28779   4.435   7.826   1.453
 5583SOL    HW128780   4.508   7.833   1.521
 5583SOL    HW228781   4.470   7.777   1.372
 5584SOL     OW28782   9.235   1.448   1.032
 5584SOL    HW128783   9.147   1.492   1.045
 5584SOL    HW228784   9.232   1.355   1.067
 5585SOL     OW28785   1.699   0.932   0.219
 5585SOL    HW128786   1.775   0.994   0.238
 5585SOL    HW228787   1.636   0.976   0.155
 5586SOL     OW28788   9.469   6.596   5.358
 5586SOL    HW128789   9.493   6.689   5.385
 5586SOL    HW228790   9.534   6.532   5.400
 5587SOL     OW28791   2.639   6.369   0.831
 5587SOL    HW128792   2.601   6.295   0.776
 5587SOL    HW228793   2.736   6.380   0.809
 5588SOL     OW28794   2.706   7.425   0.502
 5588SOL    HW128795   2.648   7.502   0.477
 5588SOL    HW228796   2.747   7.441   0.591
 5589SOL     OW28797   5.026   2.849   0.307
 5589SOL    HW128798   5.016   2.752   0.326
 5589SOL    HW228799   4.969   2.874   0.228
 5590SOL     OW28800   1.392   6.838   1.028
 5590SOL    HW128801   1.404   6.740   1.014
 5590SOL    HW228802   1.393   6.858   1.126
 5591SOL     OW28803   3.365   8.140   6.757
 5591SOL    HW128804   3.301   8.126   6.681
 5591SOL    HW228805   3.382   8.238   6.769
 5592SOL     OW28806   7.599   3.862   1.257
 5592SOL    HW128807   7.646   3.941   1.296
 5592SOL    HW228808   7.502   3.864   1.284
 5593SOL     OW28809   4.967   3.829   6.285
 5593SOL    HW128810   4.895   3.768   6.253
 5593SOL    HW228811   5.041   3.832   6.218
 5594SOL     OW28812   3.195   1.794   0.565
 5594SOL    HW128813   3.280   1.807   0.616
 5594SOL    HW228814   3.209   1.822   0.470
 5595SOL     OW28815   0.971   1.437   0.418
 5595SOL    HW128816   0.961   1.494   0.337
 5595SOL    HW228817   0.950   1.491   0.499
 5596SOL     OW28818   3.795   0.320   0.928
 5596SOL    HW128819   3.830   0.408   0.894
 5596SOL    HW228820   3.696   0.317   0.916
 5597SOL     OW28821   3.361   2.697   1.180
 5597SOL    HW128822   3.277   2.712   1.233
 5597SOL    HW228823   3.362   2.604   1.145
 5598SOL     OW28824   1.126   3.614   0.836
 5598SOL    HW128825   1.068   3.539   0.806
 5598SOL    HW228826   1.161   3.595   0.928
 5599SOL     OW28827   5.849   1.853   0.531
 5599SOL    HW128828   5.792   1.809   0.462
 5599SOL    HW228829   5.793   1.880   0.609
 5600SOL     OW28830   9.511   1.556   0.121
 5600SOL    HW128831   9.501   1.472   0.175
 5600SOL    HW228832   9.588   1.547   0.059
 5601SOL     OW28833   5.425   0.151   5.829
 5601SOL    HW128834   5.384   0.233   5.870
 5601SOL    HW228835   5.369   0.071   5.852
 5602SOL     OW28836   4.026   3.449   6.750
 5602SOL    HW128837   4.060   3.382   6.816
 5602SOL    HW228838   3.942   3.415   6.708
 5603SOL     OW28839   5.706   5.525   0.551
 5603SOL    HW128840   5.610   5.497   0.552
 5603SOL    HW228841   5.749   5.499   0.638
 5604SOL     OW28842   6.013   5.529   6.475
 5604SOL    HW128843   6.101   5.482   6.481
 5604SOL    HW228844   5.942   5.473   6.517
 5605SOL     OW28845   5.190   6.365   1.327
 5605SOL    HW128846   5.138   6.280   1.330
 5605SOL    HW228847   5.131   6.439   1.296
 5606SOL     OW28848   4.486   5.061   6.656
 5606SOL    HW128849   4.436   5.146   6.642
 5606SOL    HW228850   4.422   4.988   6.681
 5607SOL     OW28851   2.366   4.148   0.937
 5607SOL    HW128852   2.385   4.183   0.845
 5607SOL    HW228853   2.363   4.225   1.001
 5608SOL     OW28854   4.215   0.674   6.410
 5608SOL    HW128855   4.165   0.756   6.436
 5608SOL    HW228856   4.170   0.593   6.449
 5609SOL     OW28857   2.132   6.793   0.720
 5609SOL    HW128858   2.042   6.806   0.762
 5609SOL    HW228859   2.195   6.753   0.786
 5610SOL     OW28860   3.594   3.040   0.203
 5610SOL    HW128861   3.616   3.002   0.293
 5610SOL    HW228862   3.656   3.116   0.183
 5611SOL     OW28863   1.440   6.276   0.238
 5611SOL    HW128864   1.501   6.201   0.263
 5611SOL    HW228865   1.409   6.323   0.320
 5612SOL     OW28866   1.326   7.112   5.450
 5612SOL    HW128867   1.268   7.122   5.531
 5612SOL    HW228868   1.283   7.050   5.386
 5613SOL     OW28869   3.994   5.085   5.896
 5613SOL    HW128870   3.941   5.148   5.839
 5613SOL    HW228871   4.090   5.113   5.896
 5614SOL     OW28872   0.462   6.753   4.306
 5614SOL    HW128873   0.442   6.830   4.246
 5614SOL    HW228874   0.429   6.774   4.398
 5615SOL     OW28875   1.329   3.257   5.809
 5615SOL    HW128876   1.231   3.270   5.824
 5615SOL    HW228877   1.378   3.340   5.836
 5616SOL     OW28878   7.205   5.990   1.979
 5616SOL    HW128879   7.119   5.965   1.936
 5616SOL    HW228880   7.248   6.065   1.928
 5617SOL     OW28881   4.579   6.712   0.505
 5617SOL    HW128882   4.563   6.764   0.588
 5617SOL    HW228883   4.541   6.761   0.427
 5618SOL     OW28884   3.596   3.731   6.823
 5618SOL    HW128885   3.628   3.715   6.916
 5618SOL    HW228886   3.634   3.817   6.789
 5619SOL     OW28887   2.325   8.186   0.829
 5619SOL    HW128888   2.424   8.183   0.815
 5619SOL    HW228889   2.301   8.144   0.916
 5620SOL     OW28890   7.295   5.265   0.757
 5620SOL    HW128891   7.211   5.245   0.707
 5620SOL    HW228892   7.279   5.342   0.820
 5621SOL     OW28893   0.537   7.958   6.512
 5621SOL    HW128894   0.634   7.949   6.533
 5621SOL    HW228895   0.497   7.867   6.499
 5622SOL     OW28896   5.470   4.368   6.592
 5622SOL    HW128897   5.397   4.406   6.534
 5622SOL    HW228898   5.526   4.305   6.537
 5623SOL     OW28899   0.199   0.250   6.422
 5623SOL    HW128900   0.162   0.327   6.473
 5623SOL    HW228901   0.217   0.278   6.328
 5624SOL     OW28902   3.028   2.395   1.563
 5624SOL    HW128903   3.027   2.324   1.633
 5624SOL    HW228904   2.982   2.477   1.598
 5625SOL     OW28905   5.106   4.181   1.589
 5625SOL    HW128906   5.047   4.100   1.594
 5625SOL    HW228907   5.170   4.170   1.513
 5626SOL     OW28908   2.187   0.072   0.932
 5626SOL    HW128909   2.162   0.154   0.983
 5626SOL    HW228910   2.182  -0.008   0.993
 5627SOL     OW28911   3.628   5.539   6.006
 5627SOL    HW128912   3.717   5.494   6.014
 5627SOL    HW228913   3.640   5.638   6.013
 5628SOL     OW28914   7.544   4.070   1.750
 5628SOL    HW128915   7.616   4.023   1.800
 5628SOL    HW228916   7.551   4.169   1.767
 5629SOL     OW28917   6.775   4.044   6.388
 5629SOL    HW128918   6.822   4.001   6.466
 5629SOL    HW228919   6.780   3.983   6.309
 5630SOL     OW28920   4.827   8.237   0.981
 5630SOL    HW128921   4.742   8.242   1.033
 5630SOL    HW228922   4.904   8.262   1.040
 5631SOL     OW28923   4.070   0.748   5.961
 5631SOL    HW128924   4.114   0.820   5.907
 5631SOL    HW228925   4.018   0.789   6.036
 5632SOL     OW28926   4.094   6.157   5.735
 5632SOL    HW128927   4.050   6.199   5.655
 5632SOL    HW228928   4.106   6.059   5.718
 5633SOL     OW28929   2.883   4.387   0.911
 5633SOL    HW128930   2.981   4.407   0.910
 5633SOL    HW228931   2.858   4.337   0.828
 5634SOL     OW28932   5.139   3.440   6.242
 5634SOL    HW128933   5.149   3.536   6.268
 5634SOL    HW228934   5.093   3.434   6.153
 5635SOL     OW28935   8.094   0.601   0.760
 5635SOL    HW128936   8.161   0.674   0.753
 5635SOL    HW228937   8.030   0.622   0.834
 5636SOL     OW28938   3.221   2.597   0.527
 5636SOL    HW128939   3.229   2.566   0.432
 5636SOL    HW228940   3.308   2.639   0.555
 5637SOL     OW28941   2.758   2.498   0.874
 5637SOL    HW128942   2.792   2.533   0.786
 5637SOL    HW228943   2.720   2.574   0.927
 5638SOL     OW28944   1.518   4.921   6.579
 5638SOL    HW128945   1.466   5.006   6.573
 5638SOL    HW228946   1.538   4.887   6.487
 5639SOL     OW28947   4.640   5.053   5.557
 5639SOL    HW128948   4.637   4.992   5.637
 5639SOL    HW228949   4.647   4.998   5.474
 5640SOL     OW28950   2.670   4.283   5.611
 5640SOL    HW128951   2.663   4.342   5.531
 5640SOL    HW228952   2.670   4.187   5.583
 5641SOL     OW28953   6.177   1.772   1.830
 5641SOL    HW128954   6.148   1.733   1.743
 5641SOL    HW228955   6.258   1.829   1.816
 5642SOL     OW28956   8.738   2.382   6.205
 5642SOL    HW128957   8.677   2.317   6.251
 5642SOL    HW228958   8.684   2.437   6.141
 5643SOL     OW28959   2.140   7.768   0.353
 5643SOL    HW128960   2.069   7.714   0.307
 5643SOL    HW228961   2.229   7.747   0.312
 5644SOL     OW28962   2.718   2.395   5.339
 5644SOL    HW128963   2.692   2.476   5.286
 5644SOL    HW228964   2.671   2.315   5.302
 5645SOL     OW28965   0.514   0.644   5.486
 5645SOL    HW128966   0.600   0.692   5.472
 5645SOL    HW228967   0.438   0.702   5.455
 5646SOL     OW28968   8.262   0.910   0.977
 5646SOL    HW128969   8.209   0.980   1.026
 5646SOL    HW228970   8.351   0.948   0.952
 5647SOL     OW28971   7.884   2.001   1.566
 5647SOL    HW128972   7.857   2.077   1.506
 5647SOL    HW228973   7.951   1.944   1.518
 5648SOL     OW28974   5.249   2.892   0.897
 5648SOL    HW128975   5.345   2.904   0.924
 5648SOL    HW228976   5.199   2.848   0.971
 5649SOL     OW28977   4.725   5.234   1.919
 5649SOL    HW128978   4.763   5.159   1.864
 5649SOL    HW228979   4.735   5.212   2.016
 5650SOL     OW28980   8.257   6.920   5.589
 5650SOL    HW128981   8.204   6.993   5.632
 5650SOL    HW228982   8.232   6.912   5.493
 5651SOL     OW28983   0.377   1.854   6.636
 5651SOL    HW128984   0.402   1.913   6.713
 5651SOL    HW228985   0.420   1.888   6.553
 5652SOL     OW28986   4.934   0.237   6.703
 5652SOL    HW128987   4.981   0.257   6.788
 5652SOL    HW228988   4.855   0.178   6.721
 5653SOL     OW28989   1.388   1.560   6.693
 5653SOL    HW128990   1.457   1.492   6.668
 5653SOL    HW228991   1.410   1.647   6.650
 5654SOL     OW28992   4.052   1.048   1.510
 5654SOL    HW128993   4.021   0.984   1.441
 5654SOL    HW228994   4.150   1.066   1.498
 5655SOL     OW28995   2.839   0.048   6.726
 5655SOL    HW128996   2.823   0.086   6.635
 5655SOL    HW228997   2.767   0.077   6.788
 5656SOL     OW28998   8.688   2.172   1.461
 5656SOL    HW128999   8.720   2.239   1.393
 5656SOL    HW229000   8.710   2.205   1.553
 5657SOL     OW29001   5.120   6.021   5.256
 5657SOL    HW129002   5.083   6.107   5.291
 5657SOL    HW229003   5.199   6.040   5.198
 5658SOL     OW29004   7.578   5.764   6.445
 5658SOL    HW129005   7.609   5.856   6.466
 5658SOL    HW229006   7.531   5.726   6.525
 5659SOL     OW29007   2.575   6.143   6.650
 5659SOL    HW129008   2.600   6.185   6.563
 5659SOL    HW229009   2.595   6.206   6.725
 5660SOL     OW29010   2.389   6.709   5.339
 5660SOL    HW129011   2.410   6.807   5.330
 5660SOL    HW229012   2.367   6.671   5.249
 5661SOL     OW29013   4.749   3.368   6.181
 5661SOL    HW129014   4.824   3.369   6.115
 5661SOL    HW229015   4.678   3.305   6.150
 5662SOL     OW29016   5.917   6.356   5.565
 5662SOL    HW129017   5.993   6.362   5.500
 5662SOL    HW229018   5.873   6.445   5.573
 5663SOL     OW29019   3.627   6.090   5.010
 5663SOL    HW129020   3.649   5.995   5.035
 5663SOL    HW229021   3.709   6.146   5.018
 5664SOL     OW29022   9.594   6.123   5.112
 5664SOL    HW129023   9.655   6.202   5.108
 5664SOL    HW229024   9.502   6.150   5.083
 5665SOL     OW29025   0.694   4.831   0.983
 5665SOL    HW129026   0.767   4.892   1.014
 5665SOL    HW229027   0.729   4.769   0.913
 5666SOL     OW29028   3.727   4.445   1.152
 5666SOL    HW129029   3.638   4.416   1.117
 5666SOL    HW229030   3.785   4.365   1.166
 5667SOL     OW29031   5.281   2.277   0.954
 5667SOL    HW129032   5.269   2.362   0.903
 5667SOL    HW229033   5.208   2.268   1.022
 5668SOL     OW29034   1.403   0.498   1.028
 5668SOL    HW129035   1.427   0.417   0.975
 5668SOL    HW229036   1.327   0.477   1.089
 5669SOL     OW29037   1.763   5.586   4.900
 5669SOL    HW129038   1.711   5.640   4.835
 5669SOL    HW229039   1.708   5.508   4.931
 5670SOL     OW29040   0.579   6.862   6.594
 5670SOL    HW129041   0.530   6.807   6.661
 5670SOL    HW229042   0.520   6.937   6.563
 5671SOL     OW29043   5.314  -0.043   6.271
 5671SOL    HW129044   5.304  -0.128   6.220
 5671SOL    HW229045   5.228   0.007   6.271
 5672SOL     OW29046   2.446   0.475   0.598
 5672SOL    HW129047   2.440   0.485   0.698
 5672SOL    HW229048   2.436   0.378   0.574
 5673SOL     OW29049   4.233   3.002   0.518
 5673SOL    HW129050   4.286   3.053   0.451
 5673SOL    HW229051   4.295   2.949   0.576
 5674SOL     OW29052   3.072   6.487   0.668
 5674SOL    HW129053   3.018   6.424   0.724
 5674SOL    HW229054   3.169   6.472   0.685
 5675SOL     OW29055   2.781   1.493   0.644
 5675SOL    HW129056   2.871   1.530   0.669
 5675SOL    HW229057   2.793   1.414   0.584
 5676SOL     OW29058   1.467   0.592   4.821
 5676SOL    HW129059   1.419   0.506   4.838
 5676SOL    HW229060   1.418   0.643   4.750
 5677SOL     OW29061   6.574   4.283   0.308
 5677SOL    HW129062   6.549   4.229   0.228
 5677SOL    HW229063   6.553   4.231   0.391
 5678SOL     OW29064   3.806   2.511   5.317
 5678SOL    HW129065   3.842   2.604   5.305
 5678SOL    HW229066   3.807   2.464   5.229
 5679SOL     OW29067   5.414   6.119   6.446
 5679SOL    HW129068   5.512   6.118   6.466
 5679SOL    HW229069   5.365   6.066   6.515
 5680SOL     OW29070   4.128   7.443   0.529
 5680SOL    HW129071   4.203   7.502   0.558
 5680SOL    HW229072   4.165   7.362   0.484
 5681SOL     OW29073   6.960   2.280   0.323
 5681SOL    HW129074   6.883   2.307   0.382
 5681SOL    HW229075   7.046   2.296   0.371
 5682SOL     OW29076   3.519   0.569   5.667
 5682SOL    HW129077   3.498   0.657   5.709
 5682SOL    HW229078   3.586   0.521   5.723
 5683SOL     OW29079   3.459   7.686   6.685
 5683SOL    HW129080   3.393   7.699   6.759
 5683SOL    HW229081   3.505   7.598   6.698
 5684SOL     OW29082   1.262   2.447   1.342
 5684SOL    HW129083   1.196   2.509   1.301
 5684SOL    HW229084   1.236   2.428   1.437
 5685SOL     OW29085   1.519   2.385   6.368
 5685SOL    HW129086   1.500   2.471   6.416
 5685SOL    HW229087   1.451   2.317   6.395
 5686SOL     OW29088   2.841   2.915   6.381
 5686SOL    HW129089   2.832   3.010   6.410
 5686SOL    HW229090   2.757   2.865   6.405
 5687SOL     OW29091   8.591   0.389   0.209
 5687SOL    HW129092   8.505   0.339   0.225
 5687SOL    HW229093   8.612   0.387   0.111
 5688SOL     OW29094   6.462   5.149   5.672
 5688SOL    HW129095   6.407   5.082   5.622
 5688SOL    HW229096   6.510   5.208   5.608
 5689SOL     OW29097   5.816   0.050   6.400
 5689SOL    HW129098   5.758   0.095   6.469
 5689SOL    HW229099   5.908   0.039   6.437
 5690SOL     OW29100   2.173   3.906   6.008
 5690SOL    HW129101   2.241   3.877   5.941
 5690SOL    HW229102   2.127   3.825   6.045
 5691SOL     OW29103   1.517   7.167   5.636
 5691SOL    HW129104   1.510   7.261   5.670
 5691SOL    HW229105   1.471   7.160   5.547
 5692SOL     OW29106   2.525   0.847   5.848
 5692SOL    HW129107   2.517   0.913   5.773
 5692SOL    HW229108   2.596   0.878   5.911
 5693SOL     OW29109   5.754   1.141   1.499
 5693SOL    HW129110   5.696   1.213   1.537
 5693SOL    HW229111   5.703   1.055   1.499
 5694SOL     OW29112   6.021   5.019   1.827
 5694SOL    HW129113   6.067   5.106   1.811
 5694SOL    HW229114   6.016   5.002   1.926
 5695SOL     OW29115   8.195   8.191   5.636
 5695SOL    HW129116   8.294   8.204   5.637
 5695SOL    HW229117   8.156   8.235   5.555
 5696SOL     OW29118   6.999   2.386   1.255
 5696SOL    HW129119   7.027   2.364   1.162
 5696SOL    HW229120   6.914   2.338   1.277
 5697SOL     OW29121   6.764   7.773   0.543
 5697SOL    HW129122   6.674   7.816   0.553
 5697SOL    HW229123   6.832   7.843   0.526
 5698SOL     OW29124   2.450   2.471   6.228
 5698SOL    HW129125   2.396   2.410   6.285
 5698SOL    HW229126   2.537   2.492   6.275
 5699SOL     OW29127   8.781   6.694   4.699
 5699SOL    HW129128   8.835   6.725   4.620
 5699SOL    HW229129   8.751   6.600   4.685
 5700SOL     OW29130   8.472   7.600   6.270
 5700SOL    HW129131   8.474   7.524   6.205
 5700SOL    HW229132   8.423   7.572   6.353
 5701SOL     OW29133   7.006   1.176   6.010
 5701SOL    HW129134   7.087   1.203   5.957
 5701SOL    HW229135   6.939   1.134   5.948
 5702SOL     OW29136   1.219   0.879   0.518
 5702SOL    HW129137   1.178   0.955   0.467
 5702SOL    HW229138   1.304   0.851   0.473
 5703SOL     OW29139   7.010   4.259   5.389
 5703SOL    HW129140   7.016   4.276   5.290
 5703SOL    HW229141   6.987   4.164   5.405
 5704SOL     OW29142   9.395   4.078   6.380
 5704SOL    HW129143   9.319   4.132   6.417
 5704SOL    HW229144   9.381   4.063   6.282
 5705SOL     OW29145   7.897   5.427   6.822
 5705SOL    HW129146   7.907   5.477   6.736
 5705SOL    HW229147   7.987   5.412   6.862
 5706SOL     OW29148   2.455   4.890   5.078
 5706SOL    HW129149   2.549   4.870   5.049
 5706SOL    HW229150   2.392   4.831   5.027
 5707SOL     OW29151   9.333   6.229   5.033
 5707SOL    HW129152   9.381   6.255   4.949
 5707SOL    HW229153   9.237   6.209   5.012
 5708SOL     OW29154   1.004   4.845   5.226
 5708SOL    HW129155   1.089   4.800   5.251
 5708SOL    HW229156   0.970   4.807   5.140
 5709SOL     OW29157   4.605   0.140   2.057
 5709SOL    HW129158   4.555   0.220   2.025
 5709SOL    HW229159   4.677   0.169   2.120
 5710SOL     OW29160   5.059   6.425   5.405
 5710SOL    HW129161   5.143   6.377   5.430
 5710SOL    HW229162   5.001   6.364   5.350
 5711SOL     OW29163   0.668   4.551   1.322
 5711SOL    HW129164   0.699   4.486   1.392
 5711SOL    HW229165   0.701   4.642   1.345
 5712SOL     OW29166   3.998   7.395   5.240
 5712SOL    HW129167   4.006   7.432   5.148
 5712SOL    HW229168   4.015   7.297   5.238
 5713SOL     OW29169   8.013   1.744   1.546
 5713SOL    HW129170   7.997   1.663   1.604
 5713SOL    HW229171   8.085   1.800   1.586
 5714SOL     OW29172   7.864   1.795   6.136
 5714SOL    HW129173   7.871   1.866   6.206
 5714SOL    HW229174   7.862   1.705   6.181
 5715SOL     OW29175   6.718   7.250   0.215
 5715SOL    HW129176   6.759   7.159   0.209
 5715SOL    HW229177   6.657   7.264   0.137
 5716SOL     OW29178   6.090   1.778   6.688
 5716SOL    HW129179   6.171   1.818   6.732
 5716SOL    HW229180   6.085   1.809   6.593
 5717SOL     OW29181   5.741   5.922   1.004
 5717SOL    HW129182   5.709   6.014   0.983
 5717SOL    HW229183   5.833   5.926   1.043
 5718SOL     OW29184   3.262   4.243   0.298
 5718SOL    HW129185   3.325   4.318   0.279
 5718SOL    HW229186   3.181   4.252   0.240
 5719SOL     OW29187   7.093   2.039   6.313
 5719SOL    HW129188   7.090   1.975   6.390
 5719SOL    HW229189   7.117   1.990   6.229
 5720SOL     OW29190   1.001   3.147   6.452
 5720SOL    HW129191   1.014   3.049   6.465
 5720SOL    HW229192   0.930   3.180   6.516
 5721SOL     OW29193   5.801   7.107   5.430
 5721SOL    HW129194   5.798   7.186   5.368
 5721SOL    HW229195   5.897   7.084   5.448
 5722SOL     OW29196   4.167   6.988   1.318
 5722SOL    HW129197   4.110   6.922   1.270
 5722SOL    HW229198   4.180   7.069   1.261
 5723SOL     OW29199   4.240   1.751   5.634
 5723SOL    HW129200   4.309   1.689   5.596
 5723SOL    HW229201   4.167   1.764   5.567
 5724SOL     OW29202   4.254   7.134   6.821
 5724SOL    HW129203   4.340   7.086   6.804
 5724SOL    HW229204   4.219   7.171   6.735
 5725SOL     OW29205   2.404   0.143   1.949
 5725SOL    HW129206   2.372   0.198   2.026
 5725SOL    HW229207   2.436   0.055   1.982
 5726SOL     OW29208   0.284   5.878   0.240
 5726SOL    HW129209   0.239   5.794   0.210
 5726SOL    HW229210   0.380   5.860   0.259
 5727SOL     OW29211   1.319   7.319   1.073
 5727SOL    HW129212   1.285   7.279   1.158
 5727SOL    HW229213   1.243   7.329   1.008
 5728SOL     OW29214   6.208   5.241   0.628
 5728SOL    HW129215   6.243   5.251   0.534
 5728SOL    HW229216   6.187   5.331   0.665
 5729SOL     OW29217   7.646   6.928   0.693
 5729SOL    HW129218   7.615   6.963   0.781
 5729SOL    HW229219   7.739   6.893   0.702
 5730SOL     OW29220   7.518   8.253   0.998
 5730SOL    HW129221   7.470   8.280   1.082
 5730SOL    HW229222   7.479   8.302   0.920
 5731SOL     OW29223   1.182   1.747   1.891
 5731SOL    HW129224   1.163   1.782   1.799
 5731SOL    HW229225   1.240   1.812   1.940
 5732SOL     OW29226   5.684   3.768   0.380
 5732SOL    HW129227   5.771   3.721   0.392
 5732SOL    HW229228   5.616   3.704   0.344
 5733SOL     OW29229   4.822   3.122   0.529
 5733SOL    HW129230   4.820   3.096   0.625
 5733SOL    HW229231   4.885   3.198   0.516
 5734SOL     OW29232   7.032   6.212   6.539
 5734SOL    HW129233   7.040   6.232   6.637
 5734SOL    HW229234   6.937   6.192   6.517
 5735SOL     OW29235   7.530   0.293   6.496
 5735SOL    HW129236   7.431   0.291   6.480
 5735SOL    HW229237   7.562   0.201   6.520
 5736SOL     OW29238   2.466   6.971   5.339
 5736SOL    HW129239   2.407   7.046   5.311
 5736SOL    HW229240   2.544   6.964   5.276
 5737SOL     OW29241   6.106   1.200   5.661
 5737SOL    HW129242   6.041   1.141   5.612
 5737SOL    HW229243   6.195   1.154   5.667
 5738SOL     OW29244   6.046   2.992   5.645
 5738SOL    HW129245   5.999   2.904   5.636
 5738SOL    HW229246   6.007   3.057   5.579
 5739SOL     OW29247   8.140   2.565   6.385
 5739SOL    HW129248   8.202   2.575   6.308
 5739SOL    HW229249   8.179   2.611   6.465
 5740SOL     OW29250   0.641   0.813   0.840
 5740SOL    HW129251   0.695   0.873   0.781
 5740SOL    HW229252   0.590   0.748   0.783
 5741SOL     OW29253   6.839   5.538   0.414
 5741SOL    HW129254   6.813   5.458   0.469
 5741SOL    HW229255   6.872   5.508   0.325
 5742SOL     OW29256   6.680   0.100   0.945
 5742SOL    HW129257   6.757   0.094   1.008
 5742SOL    HW229258   6.651   0.008   0.919
 5743SOL     OW29259   1.148   6.333   5.417
 5743SOL    HW129260   1.243   6.360   5.429
 5743SOL    HW229261   1.135   6.241   5.454
 5744SOL     OW29262   1.146   7.396   0.878
 5744SOL    HW129263   1.056   7.353   0.877
 5744SOL    HW229264   1.173   7.419   0.784
 5745SOL     OW29265   5.909   1.718   2.152
 5745SOL    HW129266   5.969   1.643   2.177
 5745SOL    HW229267   5.814   1.687   2.153
 5746SOL     OW29268   0.964   5.128   1.099
 5746SOL    HW129269   1.031   5.119   1.173
 5746SOL    HW229270   1.006   5.099   1.013
 5747SOL     OW29271   8.992   1.530   1.156
 5747SOL    HW129272   8.965   1.626   1.163
 5747SOL    HW229273   8.916   1.471   1.184
 5748SOL     OW29274   3.037   2.794   6.563
 5748SOL    HW129275   2.965   2.830   6.503
 5748SOL    HW229276   3.096   2.732   6.511
 5749SOL     OW29277   9.531   7.725   6.520
 5749SOL    HW129278   9.486   7.755   6.604
 5749SOL    HW229279   9.540   7.803   6.457
 5750SOL     OW29280   0.897   4.487   0.399
 5750SOL    HW129281   0.833   4.485   0.476
 5750SOL    HW229282   0.889   4.402   0.348
 5751SOL     OW29283   5.567   7.837   5.933
 5751SOL    HW129284   5.493   7.874   5.877
 5751SOL    HW229285   5.637   7.908   5.946
 5752SOL     OW29286   3.448   8.230   1.090
 5752SOL    HW129287   3.356   8.236   1.129
 5752SOL    HW229288   3.479   8.321   1.062
 5753SOL     OW29289   0.949   1.348   6.600
 5753SOL    HW129290   0.925   1.439   6.564
 5753SOL    HW229291   1.047   1.332   6.587
 5754SOL     OW29292   1.285   2.408   0.620
 5754SOL    HW129293   1.283   2.507   0.636
 5754SOL    HW229294   1.375   2.372   0.645
 5755SOL     OW29295   2.895   7.445   1.059
 5755SOL    HW129296   2.960   7.403   1.123
 5755SOL    HW229297   2.834   7.506   1.109
 5756SOL     OW29298   1.103   6.014   0.375
 5756SOL    HW129299   1.036   6.056   0.436
 5756SOL    HW229300   1.076   6.027   0.280
 5757SOL     OW29301   1.803   6.396   0.897
 5757SOL    HW129302   1.792   6.445   0.811
 5757SOL    HW229303   1.713   6.376   0.936
 5758SOL     OW29304   1.552   8.325   0.264
 5758SOL    HW129305   1.478   8.324   0.197
 5758SOL    HW229306   1.534   8.256   0.335
 5759SOL     OW29307   6.663   7.929   1.629
 5759SOL    HW129308   6.718   7.847   1.616
 5759SOL    HW229309   6.636   7.938   1.725
 5760SOL     OW29310   2.932   5.473   5.674
 5760SOL    HW129311   2.929   5.448   5.578
 5760SOL    HW229312   2.993   5.410   5.723
 5761SOL     OW29313   9.459   7.494   4.969
 5761SOL    HW129314   9.460   7.578   5.023
 5761SOL    HW229315   9.365   7.459   4.963
 5762SOL     OW29316   8.173   6.509   0.487
 5762SOL    HW129317   8.160   6.432   0.550
 5762SOL    HW229318   8.119   6.493   0.404
 5763SOL     OW29319   1.169   7.911   1.275
 5763SOL    HW129320   1.152   7.932   1.371
 5763SOL    HW229321   1.232   7.833   1.269
 5764SOL     OW29322   4.014   6.319   1.216
 5764SOL    HW129323   3.957   6.249   1.260
 5764SOL    HW229324   4.106   6.282   1.200
 5765SOL     OW29325   6.110   7.671   5.659
 5765SOL    HW129326   6.034   7.609   5.679
 5765SOL    HW229327   6.121   7.679   5.560
 5766SOL     OW29328   2.189   8.010   0.525
 5766SOL    HW129329   2.178   7.920   0.482
 5766SOL    HW229330   2.285   8.037   0.520
 5767SOL     OW29331   0.539   0.594   6.655
 5767SOL    HW129332   0.631   0.633   6.660
 5767SOL    HW229333   0.508   0.570   6.747
 5768SOL     OW29334   5.008   8.118   5.073
 5768SOL    HW129335   4.954   8.202   5.087
 5768SOL    HW229336   4.950   8.038   5.087
 5769SOL     OW29337   5.373   7.182   6.581
 5769SOL    HW129338   5.384   7.092   6.622
 5769SOL    HW229339   5.279   7.193   6.550
 5770SOL     OW29340   5.067   5.468   5.611
 5770SOL    HW129341   5.062   5.399   5.538
 5770SOL    HW229342   5.106   5.552   5.575
 5771SOL     OW29343   7.782   4.853   0.261
 5771SOL    HW129344   7.858   4.793   0.286
 5771SOL    HW229345   7.802   4.899   0.175
 5772SOL     OW29346   7.940   0.547   6.105
 5772SOL    HW129347   7.945   0.448   6.089
 5772SOL    HW229348   7.859   0.584   6.060
 5773SOL     OW29349   4.322   0.362   6.400
 5773SOL    HW129350   4.256   0.292   6.372
 5773SOL    HW229351   4.373   0.394   6.320
 5774SOL     OW29352   2.744   1.014   0.183
 5774SOL    HW129353   2.728   1.063   0.269
 5774SOL    HW229354   2.656   0.983   0.146
 5775SOL     OW29355   0.980   6.403   1.011
 5775SOL    HW129356   0.908   6.432   0.947
 5775SOL    HW229357   0.997   6.475   1.078
 5776SOL     OW29358   0.591   7.430   4.548
 5776SOL    HW129359   0.639   7.518   4.550
 5776SOL    HW229360   0.518   7.434   4.480
 5777SOL     OW29361   6.347   6.943   0.975
 5777SOL    HW129362   6.299   6.857   0.958
 5777SOL    HW229363   6.317   7.011   0.908
 5778SOL     OW29364   7.082   7.162   6.687
 5778SOL    HW129365   7.056   7.258   6.681
 5778SOL    HW229366   7.107   7.140   6.782
 5779SOL     OW29367   5.612   5.273   6.544
 5779SOL    HW129368   5.620   5.298   6.640
 5779SOL    HW229369   5.625   5.174   6.534
 5780SOL     OW29370   5.298   7.423   1.379
 5780SOL    HW129371   5.365   7.424   1.453
 5780SOL    HW229372   5.247   7.337   1.381
 5781SOL     OW29373   7.247   1.575   6.029
 5781SOL    HW129374   7.168   1.568   5.968
 5781SOL    HW229375   7.328   1.595   5.975
 5782SOL     OW29376   1.226   1.689   0.296
 5782SOL    HW129377   1.146   1.660   0.349
 5782SOL    HW229378   1.269   1.768   0.341
 5783SOL     OW29379   5.520   6.587   2.201
 5783SOL    HW129380   5.453   6.655   2.231
 5783SOL    HW229381   5.611   6.615   2.231
 5784SOL     OW29382   6.996   4.160   1.122
 5784SOL    HW129383   6.931   4.174   1.196
 5784SOL    HW229384   7.022   4.248   1.082
 5785SOL     OW29385   5.458   1.330   6.797
 5785SOL    HW129386   5.459   1.275   6.880
 5785SOL    HW229387   5.422   1.421   6.818
 5786SOL     OW29388   5.325   0.191   1.475
 5786SOL    HW129389   5.320   0.282   1.516
 5786SOL    HW229390   5.316   0.122   1.546
 5787SOL     OW29391   8.769   1.489   5.837
 5787SOL    HW129392   8.702   1.449   5.898
 5787SOL    HW229393   8.723   1.527   5.757
 5788SOL     OW29394   1.228   1.776   0.675
 5788SOL    HW129395   1.254   1.771   0.579
 5788SOL    HW229396   1.297   1.730   0.731
 5789SOL     OW29397   6.443   6.510   6.512
 5789SOL    HW129398   6.409   6.434   6.567
 5789SOL    HW229399   6.526   6.481   6.463
 5790SOL     OW29400   9.528   5.782   6.815
 5790SOL    HW129401   9.551   5.880   6.810
 5790SOL    HW229402   9.512   5.757   6.911
 5791SOL     OW29403   4.758   4.305   0.765
 5791SOL    HW129404   4.822   4.297   0.841
 5791SOL    HW229405   4.797   4.365   0.695
 5792SOL     OW29406   7.278   6.625   1.901
 5792SOL    HW129407   7.339   6.563   1.951
 5792SOL    HW229408   7.224   6.678   1.966
 5793SOL     OW29409   4.918   7.631   0.555
 5793SOL    HW129410   4.991   7.610   0.620
 5793SOL    HW229411   4.934   7.721   0.514
 5794SOL     OW29412   2.756   4.667   0.372
 5794SOL    HW129413   2.828   4.599   0.361
 5794SOL    HW229414   2.747   4.720   0.287
 5795SOL     OW29415   3.094   5.304   5.797
 5795SOL    HW129416   3.134   5.212   5.788
 5795SOL    HW229417   3.134   5.350   5.876
 5796SOL     OW29418   2.720   2.756   6.105
 5796SOL    HW129419   2.726   2.676   6.044
 5796SOL    HW229420   2.695   2.726   6.197
 5797SOL     OW29421   2.007   4.797   0.566
 5797SOL    HW129422   2.035   4.764   0.476
 5797SOL    HW229423   1.966   4.888   0.557
 5798SOL     OW29424   9.089   6.777   0.800
 5798SOL    HW129425   9.014   6.832   0.836
 5798SOL    HW229426   9.176   6.818   0.828
 5799SOL     OW29427   0.797   7.273   1.157
 5799SOL    HW129428   0.793   7.335   1.078
 5799SOL    HW229429   0.705   7.239   1.177
 5800SOL     OW29430   5.404   3.950   0.558
 5800SOL    HW129431   5.384   3.916   0.466
 5800SOL    HW229432   5.318   3.970   0.606
 5801SOL     OW29433   5.293   2.475   6.580
 5801SOL    HW129434   5.384   2.456   6.615
 5801SOL    HW229435   5.228   2.407   6.615
 5802SOL     OW29436   2.611   4.687   1.239
 5802SOL    HW129437   2.562   4.661   1.156
 5802SOL    HW229438   2.579   4.776   1.271
 5803SOL     OW29439   2.159   5.061   6.300
 5803SOL    HW129440   2.118   5.152   6.301
 5803SOL    HW229441   2.117   5.006   6.228
 5804SOL     OW29442   3.076   6.968   1.216
 5804SOL    HW129443   3.148   7.036   1.230
 5804SOL    HW229444   3.038   6.942   1.305
 5805SOL     OW29445   9.582   5.483   4.842
 5805SOL    HW129446   9.650   5.517   4.906
 5805SOL    HW229447   9.620   5.481   4.749
 5806SOL     OW29448   5.402   6.922   6.743
 5806SOL    HW129449   5.384   6.844   6.683
 5806SOL    HW229450   5.500   6.927   6.763
 5807SOL     OW29451   6.197   8.080   6.716
 5807SOL    HW129452   6.156   7.990   6.731
 5807SOL    HW229453   6.274   8.092   6.778
 5808SOL     OW29454   3.780   4.136   0.322
 5808SOL    HW129455   3.691   4.092   0.335
 5808SOL    HW229456   3.775   4.198   0.244
 5809SOL     OW29457   2.417   5.611   5.062
 5809SOL    HW129458   2.510   5.602   5.025
 5809SOL    HW229459   2.401   5.707   5.087
 5810SOL     OW29460   2.907   7.211   1.744
 5810SOL    HW129461   2.916   7.267   1.662
 5810SOL    HW229462   2.872   7.268   1.819
 5811SOL     OW29463   3.233   2.286   5.758
 5811SOL    HW129464   3.229   2.196   5.715
 5811SOL    HW229465   3.226   2.357   5.687
 5812SOL     OW29466   4.849   0.296   0.975
 5812SOL    HW129467   4.920   0.352   0.932
 5812SOL    HW229468   4.765   0.302   0.921
 5813SOL     OW29469   9.409   0.802   0.906
 5813SOL    HW129470   9.390   0.796   1.004
 5813SOL    HW229471   9.400   0.711   0.865
 5814SOL     OW29472   4.253   4.575   6.504
 5814SOL    HW129473   4.216   4.638   6.435
 5814SOL    HW229474   4.180   4.549   6.568
 5815SOL     OW29475   3.469   6.017   1.102
 5815SOL    HW129476   3.444   6.061   1.189
 5815SOL    HW229477   3.406   6.044   1.031
 5816SOL     OW29478   3.206   2.902   1.501
 5816SOL    HW129479   3.152   2.883   1.583
 5816SOL    HW229480   3.303   2.887   1.521
 5817SOL     OW29481   7.191   4.636   0.592
 5817SOL    HW129482   7.098   4.664   0.569
 5817SOL    HW229483   7.255   4.676   0.526
 5818SOL     OW29484   7.427   6.474   5.129
 5818SOL    HW129485   7.494   6.507   5.064
 5818SOL    HW229486   7.345   6.444   5.080
 5819SOL     OW29487   2.188   6.109   0.545
 5819SOL    HW129488   2.201   6.072   0.452
 5819SOL    HW229489   2.258   6.178   0.563
 5820SOL     OW29490   6.942   5.196   5.252
 5820SOL    HW129491   6.940   5.278   5.308
 5820SOL    HW229492   7.014   5.205   5.182
 5821SOL     OW29493   4.266   7.579   6.728
 5821SOL    HW129494   4.190   7.514   6.738
 5821SOL    HW229495   4.261   7.648   6.800
 5822SOL     OW29496   1.897   8.391   1.396
 5822SOL    HW129497   1.984   8.342   1.395
 5822SOL    HW229498   1.822   8.324   1.388
 5823SOL     OW29499   0.815   3.232   5.837
 5823SOL    HW129500   0.884   3.227   5.910
 5823SOL    HW229501   0.812   3.144   5.789
 5824SOL     OW29502   0.686   7.312   4.019
 5824SOL    HW129503   0.782   7.314   4.047
 5824SOL    HW229504   0.635   7.382   4.069
 5825SOL     OW29505   5.510   1.828   1.716
 5825SOL    HW129506   5.459   1.912   1.695
 5825SOL    HW229507   5.446   1.751   1.718
 5826SOL     OW29508   2.771   4.341   0.342
 5826SOL    HW129509   2.703   4.291   0.397
 5826SOL    HW229510   2.729   4.367   0.255
 5827SOL     OW29511   6.481   2.601   6.018
 5827SOL    HW129512   6.400   2.542   6.016
 5827SOL    HW229513   6.562   2.549   5.993
 5828SOL     OW29514   5.971   4.847   0.679
 5828SOL    HW129515   6.009   4.932   0.715
 5828SOL    HW229516   5.991   4.772   0.741
 5829SOL     OW29517   6.094   8.377   0.807
 5829SOL    HW129518   6.006   8.422   0.791
 5829SOL    HW229519   6.079   8.282   0.832
 5830SOL     OW29520   5.413   1.477   1.027
 5830SOL    HW129521   5.424   1.378   1.031
 5830SOL    HW229522   5.460   1.513   0.947
 5831SOL     OW29523   1.181   2.431   6.540
 5831SOL    HW129524   1.193   2.441   6.639
 5831SOL    HW229525   1.244   2.361   6.506
 5832SOL     OW29526   3.549   7.421   6.650
 5832SOL    HW129527   3.471   7.393   6.594
 5832SOL    HW229528   3.562   7.355   6.724
 5833SOL     OW29529   1.278   2.796   0.145
 5833SOL    HW129530   1.312   2.854   0.071
 5833SOL    HW229531   1.352   2.739   0.179
 5834SOL     OW29532   3.150   7.785   5.428
 5834SOL    HW129533   3.241   7.827   5.427
 5834SOL    HW229534   3.110   7.792   5.337
 5835SOL     OW29535   3.015   7.078   0.598
 5835SOL    HW129536   3.040   7.012   0.528
 5835SOL    HW229537   2.924   7.057   0.634
 5836SOL     OW29538   0.368   8.113   0.758
 5836SOL    HW129539   0.348   8.126   0.661
 5836SOL    HW229540   0.351   8.018   0.783
 5837SOL     OW29541   1.923   3.458   5.414
 5837SOL    HW129542   1.945   3.416   5.502
 5837SOL    HW229543   1.939   3.392   5.341
 5838SOL     OW29544   7.834   1.552   0.274
 5838SOL    HW129545   7.747   1.601   0.263
 5838SOL    HW229546   7.906   1.616   0.299
 5839SOL     OW29547   3.135   4.289   6.037
 5839SOL    HW129548   3.160   4.252   6.127
 5839SOL    HW229549   3.151   4.219   5.967
 5840SOL     OW29550   3.234   4.140   6.271
 5840SOL    HW129551   3.171   4.071   6.305
 5840SOL    HW229552   3.257   4.204   6.344
 5841SOL     OW29553   5.287   3.204   1.547
 5841SOL    HW129554   5.260   3.242   1.635
 5841SOL    HW229555   5.373   3.155   1.557
 5842SOL     OW29556   7.635   0.822   0.610
 5842SOL    HW129557   7.701   0.756   0.647
 5842SOL    HW229558   7.656   0.913   0.645
 5843SOL     OW29559   5.363   2.343   2.039
 5843SOL    HW129560   5.457   2.334   2.073
 5843SOL    HW229561   5.300   2.351   2.116
 5844SOL     OW29562   2.578   2.890   5.710
 5844SOL    HW129563   2.569   2.854   5.617
 5844SOL    HW229564   2.666   2.937   5.719
 5845SOL     OW29565   3.372   3.587   0.834
 5845SOL    HW129566   3.358   3.560   0.738
 5845SOL    HW229567   3.469   3.586   0.855
 5846SOL     OW29568   5.302   4.891   5.668
 5846SOL    HW129569   5.344   4.979   5.691
 5846SOL    HW229570   5.209   4.905   5.634
 5847SOL     OW29571   8.313   1.034   6.766
 5847SOL    HW129572   8.373   0.973   6.714
 5847SOL    HW229573   8.345   1.037   6.861
 5848SOL     OW29574   8.386   3.688   0.252
 5848SOL    HW129575   8.345   3.655   0.337
 5848SOL    HW229576   8.406   3.610   0.192
 5849SOL     OW29577   3.354   7.713   6.438
 5849SOL    HW129578   3.389   7.690   6.529
 5849SOL    HW229579   3.303   7.635   6.402
 5850SOL     OW29580   6.576   7.208   5.393
 5850SOL    HW129581   6.480   7.188   5.415
 5850SOL    HW229582   6.607   7.146   5.321
 5851SOL     OW29583   3.694   5.259   1.451
 5851SOL    HW129584   3.729   5.352   1.438
 5851SOL    HW229585   3.671   5.245   1.547
 5852SOL     OW29586   5.418   6.369   6.057
 5852SOL    HW129587   5.337   6.423   6.076
 5852SOL    HW229588   5.394   6.272   6.058
 5853SOL     OW29589   9.080   2.109   5.184
 5853SOL    HW129590   8.985   2.124   5.159
 5853SOL    HW229591   9.098   2.149   5.274
 5854SOL     OW29592   6.457   8.176   6.442
 5854SOL    HW129593   6.384   8.232   6.482
 5854SOL    HW229594   6.545   8.207   6.477
 5855SOL     OW29595   2.342   0.641   5.885
 5855SOL    HW129596   2.335   0.592   5.798
 5855SOL    HW229597   2.422   0.701   5.883
 5856SOL     OW29598   2.557   2.628   5.158
 5856SOL    HW129599   2.656   2.640   5.161
 5856SOL    HW229600   2.519   2.680   5.081
 5857SOL     OW29601   2.021   0.011   6.366
 5857SOL    HW129602   2.055   0.074   6.435
 5857SOL    HW229603   2.089   0.002   6.293
 5858SOL     OW29604   5.479   8.243   2.230
 5858SOL    HW129605   5.578   8.248   2.241
 5858SOL    HW229606   5.438   8.331   2.253
 5859SOL     OW29607   9.121   2.862   0.610
 5859SOL    HW129608   9.087   2.956   0.607
 5859SOL    HW229609   9.064   2.805   0.550
 5860SOL     OW29610   3.512   6.792   5.905
 5860SOL    HW129611   3.494   6.695   5.889
 5860SOL    HW229612   3.432   6.846   5.879
 5861SOL     OW29613   5.351   2.034   0.863
 5861SOL    HW129614   5.331   2.120   0.910
 5861SOL    HW229615   5.357   1.960   0.931
 5862SOL     OW29616   6.724   1.799   1.716
 5862SOL    HW129617   6.710   1.801   1.814
 5862SOL    HW229618   6.647   1.753   1.672
 5863SOL     OW29619   6.453   3.423   6.546
 5863SOL    HW129620   6.482   3.518   6.538
 5863SOL    HW229621   6.533   3.364   6.557
 5864SOL     OW29622   4.128   0.462   0.369
 5864SOL    HW129623   4.223   0.485   0.350
 5864SOL    HW229624   4.112   0.366   0.346
 5865SOL     OW29625   6.940   7.140   1.834
 5865SOL    HW129626   6.900   7.050   1.819
 5865SOL    HW229627   7.016   7.133   1.900
 5866SOL     OW29628   8.300   4.315   5.778
 5866SOL    HW129629   8.242   4.234   5.767
 5866SOL    HW229630   8.387   4.288   5.818
 5867SOL     OW29631   1.356   7.919   6.378
 5867SOL    HW129632   1.389   7.933   6.285
 5867SOL    HW229633   1.411   7.848   6.422
 5868SOL     OW29634   6.115   7.546   6.767
 5868SOL    HW129635   6.088   7.491   6.846
 5868SOL    HW229636   6.098   7.493   6.683
 5869SOL     OW29637   5.313   0.926   6.547
 5869SOL    HW129638   5.411   0.946   6.552
 5869SOL    HW229639   5.277   0.915   6.640
 5870SOL     OW29640   2.790   4.958   6.522
 5870SOL    HW129641   2.823   4.925   6.611
 5870SOL    HW229642   2.757   5.052   6.531
 5871SOL     OW29643   6.428   3.849   1.177
 5871SOL    HW129644   6.470   3.929   1.136
 5871SOL    HW229645   6.347   3.823   1.125
 5872SOL     OW29646   4.392   3.145   0.858
 5872SOL    HW129647   4.365   3.180   0.948
 5872SOL    HW229648   4.325   3.174   0.790
 5873SOL     OW29649   6.703   0.539   1.451
 5873SOL    HW129650   6.786   0.484   1.452
 5873SOL    HW229651   6.659   0.537   1.540
 5874SOL     OW29652   6.070   4.417   1.441
 5874SOL    HW129653   6.120   4.464   1.514
 5874SOL    HW229654   6.091   4.319   1.445
 5875SOL     OW29655   3.298   2.513   5.933
 5875SOL    HW129656   3.246   2.430   5.912
 5875SOL    HW229657   3.284   2.580   5.860
 5876SOL     OW29658   1.412   3.170   6.606
 5876SOL    HW129659   1.439   3.108   6.532
 5876SOL    HW229660   1.332   3.134   6.653
 5877SOL     OW29661   0.491   5.776   0.911
 5877SOL    HW129662   0.525   5.788   0.818
 5877SOL    HW229663   0.567   5.751   0.971
 5878SOL     OW29664   8.288   1.090   0.606
 5878SOL    HW129665   8.200   1.124   0.572
 5878SOL    HW229666   8.335   1.163   0.655
 5879SOL     OW29667   8.579   3.238   5.856
 5879SOL    HW129668   8.513   3.170   5.823
 5879SOL    HW229669   8.610   3.213   5.947
 5880SOL     OW29670   2.385   4.986   0.375
 5880SOL    HW129671   2.318   4.990   0.301
 5880SOL    HW229672   2.357   4.916   0.441
 5881SOL     OW29673   0.687   0.821   5.225
 5881SOL    HW129674   0.676   0.903   5.170
 5881SOL    HW229675   0.628   0.748   5.188
 5882SOL     OW29676   1.859   2.614   5.311
 5882SOL    HW129677   1.861   2.530   5.258
 5882SOL    HW229678   1.914   2.684   5.265
 5883SOL     OW29679   9.174   7.097   6.299
 5883SOL    HW129680   9.195   7.063   6.207
 5883SOL    HW229681   9.083   7.138   6.299
 5884SOL     OW29682   6.887   4.221   0.299
 5884SOL    HW129683   6.868   4.125   0.321
 5884SOL    HW229684   6.806   4.262   0.256
 5885SOL     OW29685   7.456   5.796   6.180
 5885SOL    HW129686   7.381   5.857   6.206
 5885SOL    HW229687   7.501   5.761   6.262
 5886SOL     OW29688   0.759   2.499   6.714
 5886SOL    HW129689   0.669   2.520   6.677
 5886SOL    HW229690   0.768   2.538   6.806
 5887SOL     OW29691   8.355   7.976   6.713
 5887SOL    HW129692   8.296   8.022   6.646
 5887SOL    HW229693   8.438   7.943   6.667
 5888SOL     OW29694   8.279   3.521   6.086
 5888SOL    HW129695   8.286   3.453   6.014
 5888SOL    HW229696   8.236   3.604   6.050
 5889SOL     OW29697   2.294   3.869   0.920
 5889SOL    HW129698   2.261   3.963   0.931
 5889SOL    HW229699   2.294   3.845   0.823
 5890SOL     OW29700   0.757   2.290   1.112
 5890SOL    HW129701   0.729   2.207   1.161
 5890SOL    HW229702   0.691   2.363   1.130
 5891SOL     OW29703   5.299   7.043   1.111
 5891SOL    HW129704   5.389   7.032   1.068
 5891SOL    HW229705   5.229   7.054   1.040
 5892SOL     OW29706   3.627   2.968   0.473
 5892SOL    HW129707   3.717   2.933   0.498
 5892SOL    HW229708   3.599   3.037   0.540
 5893SOL     OW29709   8.491   6.308   0.676
 5893SOL    HW129710   8.490   6.408   0.677
 5893SOL    HW229711   8.584   6.276   0.695
 5894SOL     OW29712   2.516   5.913   0.956
 5894SOL    HW129713   2.532   5.822   0.918
 5894SOL    HW229714   2.550   5.917   1.050
 5895SOL     OW29715   6.338   4.236   5.662
 5895SOL    HW129716   6.376   4.297   5.732
 5895SOL    HW229717   6.349   4.141   5.691
 5896SOL     OW29718   6.357   2.010   6.068
 5896SOL    HW129719   6.389   1.917   6.089
 5896SOL    HW229720   6.432   2.061   6.026
 5897SOL     OW29721   6.608   3.690   0.347
 5897SOL    HW129722   6.560   3.661   0.430
 5897SOL    HW229723   6.570   3.777   0.315
 5898SOL     OW29724   3.311   0.746   6.056
 5898SOL    HW129725   3.406   0.747   6.088
 5898SOL    HW229726   3.252   0.785   6.127
 5899SOL     OW29727   3.846   0.018   6.408
 5899SOL    HW129728   3.896  -0.061   6.442
 5899SOL    HW229729   3.837   0.012   6.308
 5900SOL     OW29730   7.848   7.721   6.788
 5900SOL    HW129731   7.885   7.694   6.878
 5900SOL    HW229732   7.776   7.789   6.801
 5901SOL     OW29733   2.493   1.376   5.705
 5901SOL    HW129734   2.433   1.448   5.670
 5901SOL    HW229735   2.503   1.304   5.636
 5902SOL     OW29736   4.422   4.803   1.978
 5902SOL    HW129737   4.508   4.753   1.966
 5902SOL    HW229738   4.437   4.880   2.041
 5903SOL     OW29739   7.547   6.028   5.997
 5903SOL    HW129740   7.483   6.038   5.921
 5903SOL    HW229741   7.515   5.956   6.058
 5904SOL     OW29742   3.466   2.446   1.054
 5904SOL    HW129743   3.469   2.369   1.119
 5904SOL    HW229744   3.406   2.423   0.978
 5905SOL     OW29745   7.931   4.664   1.208
 5905SOL    HW129746   8.009   4.602   1.202
 5905SOL    HW229747   7.912   4.685   1.304
 5906SOL     OW29748   4.600   3.750   6.629
 5906SOL    HW129749   4.533   3.698   6.575
 5906SOL    HW229750   4.605   3.843   6.594
 5907SOL     OW29751   5.616   4.995   6.613
 5907SOL    HW129752   5.601   4.925   6.543
 5907SOL    HW229753   5.639   4.951   6.700
 5908SOL     OW29754   3.875   3.822   6.845
 5908SOL    HW129755   3.808   3.895   6.847
 5908SOL    HW229756   3.864   3.769   6.760
 5909SOL     OW29757   5.746   2.167   0.195
 5909SOL    HW129758   5.832   2.207   0.226
 5909SOL    HW229759   5.752   2.067   0.201
 5910SOL     OW29760   5.810   4.463   6.752
 5910SOL    HW129761   5.727   4.518   6.739
 5910SOL    HW229762   5.840   4.470   6.847
 5911SOL     OW29763   8.225   0.182   0.590
 5911SOL    HW129764   8.205   0.113   0.660
 5911SOL    HW229765   8.159   0.256   0.597
 5912SOL     OW29766   7.192   1.270   5.828
 5912SOL    HW129767   7.212   1.236   5.736
 5912SOL    HW229768   7.161   1.365   5.822
 5913SOL     OW29769   8.901   6.297   6.279
 5913SOL    HW129770   8.809   6.335   6.292
 5913SOL    HW229771   8.946   6.287   6.368
 5914SOL     OW29772   1.020   0.025   6.829
 5914SOL    HW129773   0.994   0.122   6.824
 5914SOL    HW229774   1.089   0.005   6.759
 5915SOL     OW29775   0.250   5.801   6.220
 5915SOL    HW129776   0.280   5.744   6.143
 5915SOL    HW229777   0.176   5.754   6.269
 5916SOL     OW29778   5.915   0.920   0.856
 5916SOL    HW129779   5.869   0.888   0.938
 5916SOL    HW229780   5.959   1.008   0.875
 5917SOL     OW29781   2.778   3.673   6.043
 5917SOL    HW129782   2.727   3.755   6.068
 5917SOL    HW229783   2.876   3.689   6.056
 5918SOL     OW29784   5.370   4.164   6.196
 5918SOL    HW129785   5.335   4.077   6.230
 5918SOL    HW229786   5.375   4.161   6.096
 5919SOL     OW29787   2.709   7.738   6.359
 5919SOL    HW129788   2.666   7.669   6.418
 5919SOL    HW229789   2.638   7.799   6.322
 5920SOL     OW29790   1.757   7.097   0.797
 5920SOL    HW129791   1.702   7.120   0.877
 5920SOL    HW229792   1.726   7.009   0.760
 5921SOL     OW29793   4.036   3.246   5.872
 5921SOL    HW129794   3.956   3.239   5.813
 5921SOL    HW229795   4.102   3.174   5.848
 5922SOL     OW29796   1.057   4.443   1.078
 5922SOL    HW129797   1.053   4.387   1.161
 5922SOL    HW229798   0.977   4.502   1.075
 5923SOL     OW29799   2.996   5.796   6.662
 5923SOL    HW129800   3.026   5.867   6.726
 5923SOL    HW229801   2.908   5.822   6.622
 5924SOL     OW29802   3.893   4.019   5.875
 5924SOL    HW129803   3.846   3.931   5.872
 5924SOL    HW229804   3.842   4.087   5.823
 5925SOL     OW29805   7.538   1.717   0.593
 5925SOL    HW129806   7.543   1.665   0.678
 5925SOL    HW229807   7.617   1.779   0.588
 5926SOL     OW29808   6.262   5.362   6.431
 5926SOL    HW129809   6.274   5.345   6.333
 5926SOL    HW229810   6.288   5.280   6.483
 5927SOL     OW29811   6.227   0.917   0.180
 5927SOL    HW129812   6.141   0.968   0.182
 5927SOL    HW229813   6.214   0.832   0.130
 5928SOL     OW29814   1.338   6.566   5.628
 5928SOL    HW129815   1.306   6.641   5.569
 5928SOL    HW229816   1.373   6.492   5.571
 5929SOL     OW29817   1.572   5.444   1.575
 5929SOL    HW129818   1.604   5.512   1.641
 5929SOL    HW229819   1.616   5.356   1.593
 5930SOL     OW29820   0.964   5.125   5.517
 5930SOL    HW129821   1.014   5.210   5.538
 5930SOL    HW229822   1.017   5.047   5.549
 5931SOL     OW29823   5.221   3.649   6.400
 5931SOL    HW129824   5.311   3.690   6.412
 5931SOL    HW229825   5.176   3.639   6.489
 5932SOL     OW29826   3.969   0.895   1.787
 5932SOL    HW129827   4.068   0.886   1.782
 5932SOL    HW229828   3.936   0.857   1.873
 5933SOL     OW29829   4.225   1.003   6.142
 5933SOL    HW129830   4.218   1.044   6.233
 5933SOL    HW229831   4.315   1.022   6.103
 5934SOL     OW29832   8.572   2.118   5.736
 5934SOL    HW129833   8.519   2.127   5.819
 5934SOL    HW229834   8.522   2.062   5.670
 5935SOL     OW29835   1.844   0.832   5.050
 5935SOL    HW129836   1.783   0.810   4.974
 5935SOL    HW229837   1.915   0.762   5.057
 5936SOL     OW29838   5.896   6.813   6.676
 5936SOL    HW129839   5.896   6.722   6.715
 5936SOL    HW229840   5.860   6.810   6.583
 5937SOL     OW29841   6.383   5.704   5.454
 5937SOL    HW129842   6.337   5.632   5.402
 5937SOL    HW229843   6.329   5.725   5.535
 5938SOL     OW29844   5.808   0.120   0.981
 5938SOL    HW129845   5.793   0.150   0.887
 5938SOL    HW229846   5.772   0.188   1.044
 5939SOL     OW29847   7.897   5.319   5.270
 5939SOL    HW129848   7.929   5.229   5.240
 5939SOL    HW229849   7.893   5.380   5.191
 5940SOL     OW29850   1.831   5.522   6.463
 5940SOL    HW129851   1.817   5.499   6.366
 5940SOL    HW229852   1.908   5.585   6.471
 5941SOL     OW29853   0.990   7.365   0.320
 5941SOL    HW129854   1.017   7.288   0.263
 5941SOL    HW229855   0.976   7.334   0.414
 5942SOL     OW29856   3.106   0.243   1.550
 5942SOL    HW129857   3.010   0.258   1.525
 5942SOL    HW229858   3.135   0.153   1.518
 5943SOL     OW29859   6.108   3.497   1.236
 5943SOL    HW129860   6.205   3.517   1.222
 5943SOL    HW229861   6.086   3.505   1.333
 5944SOL     OW29862   9.136   4.210   1.210
 5944SOL    HW129863   9.048   4.204   1.162
 5944SOL    HW229864   9.196   4.275   1.162
 5945SOL     OW29865   2.915   3.051   0.850
 5945SOL    HW129866   2.880   3.100   0.770
 5945SOL    HW229867   2.975   3.111   0.903
 5946SOL     OW29868   2.150   0.494   0.262
 5946SOL    HW129869   2.203   0.552   0.324
 5946SOL    HW229870   2.155   0.532   0.170
 5947SOL     OW29871   3.170   0.774   2.359
 5947SOL    HW129872   3.268   0.771   2.378
 5947SOL    HW229873   3.126   0.841   2.419
 5948SOL     OW29874   3.333   6.457   6.331
 5948SOL    HW129875   3.235   6.449   6.345
 5948SOL    HW229876   3.367   6.537   6.380
 5949SOL     OW29877   6.151   7.504   1.779
 5949SOL    HW129878   6.241   7.489   1.819
 5949SOL    HW229879   6.085   7.525   1.852
 5950SOL     OW29880   8.083   6.866   1.595
 5950SOL    HW129881   8.096   6.965   1.591
 5950SOL    HW229882   8.000   6.845   1.648
 5951SOL     OW29883   2.668   0.558   5.907
 5951SOL    HW129884   2.583   0.506   5.896
 5951SOL    HW229885   2.664   0.641   5.851
 5952SOL     OW29886   4.711   4.936   1.193
 5952SOL    HW129887   4.788   4.871   1.199
 5952SOL    HW229888   4.747   5.029   1.188
 5953SOL     OW29889   0.367   7.346   6.629
 5953SOL    HW129890   0.286   7.367   6.574
 5953SOL    HW229891   0.430   7.423   6.627
 5954SOL     OW29892   1.345   3.947   0.943
 5954SOL    HW129893   1.338   4.046   0.958
 5954SOL    HW229894   1.310   3.899   1.024
 5955SOL     OW29895   7.543   7.076   6.041
 5955SOL    HW129896   7.626   7.122   6.072
 5955SOL    HW229897   7.480   7.065   6.118
 5956SOL     OW29898   5.780   5.259   1.223
 5956SOL    HW129899   5.795   5.348   1.178
 5956SOL    HW229900   5.764   5.273   1.320
 5957SOL     OW29901   5.981   7.454   5.478
 5957SOL    HW129902   5.896   7.456   5.425
 5957SOL    HW229903   6.049   7.513   5.434
 5958SOL     OW29904   3.601   4.835   6.125
 5958SOL    HW129905   3.574   4.784   6.043
 5958SOL    HW229906   3.519   4.869   6.172
 5959SOL     OW29907   3.915   6.247   6.416
 5959SOL    HW129908   4.002   6.239   6.368
 5959SOL    HW229909   3.922   6.205   6.506
 5960SOL     OW29910   2.751   4.515   5.869
 5960SOL    HW129911   2.844   4.497   5.838
 5960SOL    HW229912   2.707   4.429   5.895
 5961SOL     OW29913   8.545   7.290   5.578
 5961SOL    HW129914   8.539   7.387   5.557
 5961SOL    HW229915   8.627   7.251   5.536
 5962SOL     OW29916   2.555   0.287   1.156
 5962SOL    HW129917   2.536   0.258   1.062
 5962SOL    HW229918   2.481   0.346   1.188
 5963SOL     OW29919   3.759   2.342   5.065
 5963SOL    HW129920   3.803   2.302   4.985
 5963SOL    HW229921   3.661   2.351   5.047
 5964SOL     OW29922   3.183   0.207   5.394
 5964SOL    HW129923   3.234   0.246   5.471
 5964SOL    HW229924   3.187   0.108   5.399
 5965SOL     OW29925   0.163   6.587   0.888
 5965SOL    HW129926   0.213   6.638   0.958
 5965SOL    HW229927   0.203   6.496   0.878
 5966SOL     OW29928   5.160   7.821   0.482
 5966SOL    HW129929   5.200   7.729   0.488
 5966SOL    HW229930   5.228   7.885   0.449
 5967SOL     OW29931   0.806   2.859   0.121
 5967SOL    HW129932   0.758   2.771   0.125
 5967SOL    HW229933   0.829   2.888   0.214
 5968SOL     OW29934   6.014   5.121   6.196
 5968SOL    HW129935   5.985   5.080   6.283
 5968SOL    HW229936   5.968   5.074   6.121
 5969SOL     OW29937   8.765   3.093   1.107
 5969SOL    HW129938   8.805   3.010   1.068
 5969SOL    HW229939   8.825   3.128   1.179
 5970SOL     OW29940   8.428   5.267   0.465
 5970SOL    HW129941   8.506   5.326   0.444
 5970SOL    HW229942   8.344   5.312   0.437
 5971SOL     OW29943   4.089   3.688   6.042
 5971SOL    HW129944   4.136   3.602   6.022
 5971SOL    HW229945   4.152   3.749   6.091
 5972SOL     OW29946   0.366   6.390   6.730
 5972SOL    HW129947   0.375   6.396   6.829
 5972SOL    HW229948   0.281   6.434   6.702
 5973SOL     OW29949   8.386   8.346   6.534
 5973SOL    HW129950   8.349   8.342   6.441
 5973SOL    HW229951   8.394   8.441   6.562
 5974SOL     OW29952   1.596   7.827   1.259
 5974SOL    HW129953   1.655   7.893   1.213
 5974SOL    HW229954   1.577   7.858   1.352
 5975SOL     OW29955   3.698   8.229   0.657
 5975SOL    HW129956   3.612   8.248   0.609
 5975SOL    HW229957   3.731   8.138   0.633
 5976SOL     OW29958   1.794   2.870   0.534
 5976SOL    HW129959   1.853   2.947   0.509
 5976SOL    HW229960   1.841   2.811   0.600
 5977SOL     OW29961   9.082   5.702   5.647
 5977SOL    HW129962   9.094   5.801   5.648
 5977SOL    HW229963   9.134   5.662   5.723
 5978SOL     OW29964   2.868   1.402   0.170
 5978SOL    HW129965   2.956   1.399   0.124
 5978SOL    HW229966   2.814   1.321   0.145
 5979SOL     OW29967   2.291   5.009   5.238
 5979SOL    HW129968   2.220   4.939   5.233
 5979SOL    HW229969   2.367   4.984   5.177
 5980SOL     OW29970   2.566   4.152   1.532
 5980SOL    HW129971   2.507   4.071   1.542
 5980SOL    HW229972   2.661   4.124   1.526
 5981SOL     OW29973   7.457   0.079   0.708
 5981SOL    HW129974   7.468  -0.019   0.724
 5981SOL    HW229975   7.543   0.125   0.728
 5982SOL     OW29976   0.495  -0.007   0.184
 5982SOL    HW129977   0.436  -0.052   0.117
 5982SOL    HW229978   0.440   0.058   0.238
 5983SOL     OW29979   8.842   6.084   4.847
 5983SOL    HW129980   8.919   6.143   4.824
 5983SOL    HW229981   8.871   6.017   4.916
 5984SOL     OW29982   6.330   1.675   5.725
 5984SOL    HW129983   6.290   1.765   5.708
 5984SOL    HW229984   6.256   1.607   5.732
 5985SOL     OW29985   4.585   2.650   6.369
 5985SOL    HW129986   4.530   2.612   6.295
 5985SOL    HW229987   4.660   2.705   6.331
 5986SOL     OW29988   2.940   4.349   5.726
 5986SOL    HW129989   2.868   4.299   5.678
 5986SOL    HW229990   3.028   4.306   5.707
 5987SOL     OW29991   3.537   5.248   0.156
 5987SOL    HW129992   3.545   5.341   0.191
 5987SOL    HW229993   3.449   5.237   0.111
 5988SOL     OW29994   4.633   7.043   1.026
 5988SOL    HW129995   4.567   7.092   1.083
 5988SOL    HW229996   4.597   6.952   1.006
 5989SOL     OW29997   0.564   1.601   0.261
 5989SOL    HW129998   0.522   1.606   0.352
 5989SOL    HW229999   0.614   1.686   0.243
 5990SOL     OW30000   2.025   6.526   1.385
 5990SOL    HW130001   2.085   6.592   1.340
 5990SOL    HW230002   1.995   6.457   1.319
 5991SOL     OW30003   7.264   7.895   5.548
 5991SOL    HW130004   7.334   7.962   5.576
 5991SOL    HW230005   7.235   7.916   5.455
 5992SOL     OW30006   2.013   0.716   6.641
 5992SOL    HW130007   1.993   0.806   6.678
 5992SOL    HW230008   1.998   0.716   6.542
 5993SOL     OW30009   7.328   6.145   1.791
 5993SOL    HW130010   7.376   6.058   1.789
 5993SOL    HW230011   7.379   6.213   1.738
 5994SOL     OW30012   7.412   0.504   0.535
 5994SOL    HW130013   7.339   0.549   0.586
 5994SOL    HW230014   7.498   0.551   0.553
 5995SOL     OW30015   7.922   5.592   6.236
 5995SOL    HW130016   7.937   5.496   6.259
 5995SOL    HW230017   7.884   5.599   6.144
 5996SOL     OW30018   4.753   4.036   0.965
 5996SOL    HW130019   4.825   4.075   0.907
 5996SOL    HW230020   4.704   3.965   0.913
 5997SOL     OW30021   5.814   2.373   1.560
 5997SOL    HW130022   5.762   2.290   1.580
 5997SOL    HW230023   5.755   2.439   1.513
 5998SOL     OW30024   7.328   7.030   6.208
 5998SOL    HW130025   7.260   7.084   6.258
 5998SOL    HW230026   7.351   6.948   6.260
 5999SOL     OW30027   0.199   7.312   5.359
 5999SOL    HW130028   0.116   7.298   5.413
 5999SOL    HW230029   0.211   7.236   5.296
 6000SOL     OW30030   9.066   3.525   6.417
 6000SOL    HW130031   8.998   3.599   6.413
 6000SOL    HW230032   9.104   3.511   6.326
 6001SOL     OW30033   2.787   4.806   5.263
 6001SOL    HW130034   2.745   4.821   5.173
 6001SOL    HW230035   2.877   4.850   5.265
 6002SOL     OW30036   0.250   4.808   0.550
 6002SOL    HW130037   0.169   4.805   0.610
 6002SOL    HW230038   0.231   4.757   0.466
 6003SOL     OW30039   6.594   7.234   6.358
 6003SOL    HW130040   6.549   7.171   6.294
 6003SOL    HW230041   6.564   7.213   6.451
 6004SOL     OW30042   4.531   8.269   6.853
 6004SOL    HW130043   4.505   8.174   6.871
 6004SOL    HW230044   4.566   8.276   6.759
 6005SOL     OW30045   4.837   6.783   6.050
 6005SOL    HW130046   4.853   6.700   6.103
 6005SOL    HW230047   4.746   6.778   6.007
 6006SOL     OW30048   8.656   7.780   5.134
 6006SOL    HW130049   8.721   7.843   5.174
 6006SOL    HW230050   8.704   7.720   5.069
 6007SOL     OW30051   2.469   1.026   6.289
 6007SOL    HW130052   2.488   0.932   6.261
 6007SOL    HW230053   2.421   1.026   6.377
 6008SOL     OW30054   9.189   1.862   6.804
 6008SOL    HW130055   9.104   1.818   6.773
 6008SOL    HW230056   9.171   1.957   6.828
 6009SOL     OW30057   3.029   1.038   6.176
 6009SOL    HW130058   3.117   1.085   6.166
 6009SOL    HW230059   3.039   0.961   6.238
 6010SOL     OW30060   3.070   4.649   1.462
 6010SOL    HW130061   2.996   4.697   1.415
 6010SOL    HW230062   3.033   4.604   1.544
 6011SOL     OW30063   7.856   6.085   0.229
 6011SOL    HW130064   7.829   6.169   0.275
 6011SOL    HW230065   7.916   6.106   0.152
 6012SOL     OW30066   8.472   1.982   1.845
 6012SOL    HW130067   8.566   1.955   1.824
 6012SOL    HW230068   8.449   1.953   1.938
 6013SOL     OW30069   0.941   0.959   1.105
 6013SOL    HW130070   0.923   0.996   1.197
 6013SOL    HW230071   0.878   1.001   1.040
 6014SOL     OW30072   2.001   7.027   0.433
 6014SOL    HW130073   1.948   7.111   0.431
 6014SOL    HW230074   1.960   6.963   0.499
 6015SOL     OW30075   4.868   4.726   1.490
 6015SOL    HW130076   4.964   4.715   1.518
 6015SOL    HW230077   4.808   4.696   1.565
 6016SOL     OW30078   8.319   1.731   6.186
 6016SOL    HW130079   8.234   1.780   6.166
 6016SOL    HW230080   8.357   1.694   6.101
 6017SOL     OW30081   1.282   8.423   5.760
 6017SOL    HW130082   1.319   8.408   5.669
 6017SOL    HW230083   1.260   8.520   5.772
 6018SOL     OW30084   8.814   2.999   0.472
 6018SOL    HW130085   8.906   3.038   0.473
 6018SOL    HW230086   8.777   3.002   0.379
 6019SOL     OW30087   6.541   6.315   6.135
 6019SOL    HW130088   6.445   6.315   6.108
 6019SOL    HW230089   6.583   6.228   6.111
 6020SOL     OW30090   5.100   2.593   1.559
 6020SOL    HW130091   5.011   2.637   1.569
 6020SOL    HW230092   5.147   2.592   1.647
 6021SOL     OW30093   7.519   0.364   1.116
 6021SOL    HW130094   7.435   0.380   1.169
 6021SOL    HW230095   7.546   0.268   1.126
 6022SOL     OW30096   8.919   0.128   6.836
 6022SOL    HW130097   8.927   0.058   6.766
 6022SOL    HW230098   8.845   0.191   6.813
 6023SOL     OW30099   4.700   4.059   0.621
 6023SOL    HW130100   4.638   4.007   0.680
 6023SOL    HW230101   4.710   4.152   0.655
 6024SOL     OW30102   2.150   3.680   5.743
 6024SOL    HW130103   2.101   3.705   5.660
 6024SOL    HW230104   2.089   3.690   5.822
 6025SOL     OW30105   7.074   7.706   0.793
 6025SOL    HW130106   7.086   7.687   0.890
 6025SOL    HW230107   7.140   7.653   0.740
 6026SOL     OW30108   0.557   2.885   0.416
 6026SOL    HW130109   0.545   2.805   0.357
 6026SOL    HW230110   0.613   2.953   0.371
 6027SOL     OW30111   6.344   1.312   6.515
 6027SOL    HW130112   6.424   1.367   6.538
 6027SOL    HW230113   6.347   1.225   6.565
 6028SOL     OW30114   5.754   0.423   5.616
 6028SOL    HW130115   5.736   0.329   5.645
 6028SOL    HW230116   5.690   0.448   5.543
 6029SOL     OW30117   0.629   5.769   6.317
 6029SOL    HW130118   0.709   5.710   6.313
 6029SOL    HW230119   0.547   5.712   6.328
 6030SOL     OW30120   4.022   0.532   6.531
 6030SOL    HW130121   3.978   0.444   6.514
 6030SOL    HW230122   4.029   0.548   6.630
 6031SOL     OW30123   7.190   1.528   1.636
 6031SOL    HW130124   7.277   1.564   1.601
 6031SOL    HW230125   7.123   1.601   1.641
 6032SOL     OW30126   4.558   0.244   6.490
 6032SOL    HW130127   4.472   0.286   6.462
 6032SOL    HW230128   4.630   0.268   6.424
 6033SOL     OW30129   3.748   8.196   1.172
 6033SOL    HW130130   3.657   8.170   1.139
 6033SOL    HW230131   3.818   8.145   1.122
 6034SOL     OW30132   6.458   2.300   6.504
 6034SOL    HW130133   6.503   2.294   6.415
 6034SOL    HW230134   6.402   2.383   6.508
 6035SOL     OW30135   2.872   2.852   1.044
 6035SOL    HW130136   2.881   2.893   0.953
 6035SOL    HW230137   2.787   2.801   1.050
 6036SOL     OW30138   6.377   5.149   5.312
 6036SOL    HW130139   6.313   5.170   5.237
 6036SOL    HW230140   6.424   5.063   5.292
 6037SOL     OW30141   1.358   8.402   5.512
 6037SOL    HW130142   1.282   8.385   5.449
 6037SOL    HW230143   1.411   8.318   5.523
 6038SOL     OW30144   9.390   0.734   1.377
 6038SOL    HW130145   9.442   0.649   1.366
 6038SOL    HW230146   9.293   0.712   1.386
 6039SOL     OW30147   4.142   5.302   6.367
 6039SOL    HW130148   4.098   5.254   6.291
 6039SOL    HW230149   4.210   5.366   6.331
 6040SOL     OW30150   0.687   3.670   0.634
 6040SOL    HW130151   0.746   3.655   0.554
 6040SOL    HW230152   0.724   3.621   0.713
 6041SOL     OW30153   4.899   6.876   5.438
 6041SOL    HW130154   4.842   6.843   5.513
 6041SOL    HW230155   4.922   6.800   5.377
 6042SOL     OW30156   7.983   3.984   1.818
 6042SOL    HW130157   7.999   3.999   1.721
 6042SOL    HW230158   8.018   3.893   1.844
 6043SOL     OW30159   3.472   5.468   1.179
 6043SOL    HW130160   3.552   5.461   1.239
 6043SOL    HW230161   3.492   5.532   1.104
 6044SOL     OW30162   6.788   3.589   0.666
 6044SOL    HW130163   6.766   3.503   0.711
 6044SOL    HW230164   6.722   3.659   0.694
 6045SOL     OW30165   3.798   3.590   1.171
 6045SOL    HW130166   3.863   3.516   1.188
 6045SOL    HW230167   3.748   3.610   1.255
 6046SOL     OW30168   3.604   3.039   6.066
 6046SOL    HW130169   3.566   2.966   6.123
 6046SOL    HW230170   3.587   3.018   5.970
 6047SOL     OW30171   7.411   6.488   0.947
 6047SOL    HW130172   7.461   6.426   0.887
 6047SOL    HW230173   7.453   6.578   0.944
 6048SOL     OW30174   1.954   5.276   0.312
 6048SOL    HW130175   1.862   5.296   0.279
 6048SOL    HW230176   1.965   5.177   0.323
 6049SOL     OW30177   5.177   3.278   0.683
 6049SOL    HW130178   5.267   3.234   0.691
 6049SOL    HW230179   5.106   3.208   0.682
 6050SOL     OW30180   7.477   8.265   0.253
 6050SOL    HW130181   7.420   8.269   0.335
 6050SOL    HW230182   7.446   8.190   0.195
 6051SOL     OW30183   1.856   0.788   5.583
 6051SOL    HW130184   1.943   0.764   5.625
 6051SOL    HW230185   1.864   0.785   5.484
 6052SOL     OW30186   2.443   7.903   4.550
 6052SOL    HW130187   2.513   7.950   4.496
 6052SOL    HW230188   2.448   7.805   4.534
 6053SOL     OW30189   3.901   2.665   1.857
 6053SOL    HW130190   3.918   2.581   1.907
 6053SOL    HW230191   3.854   2.731   1.916
 6054SOL     OW30192   5.013   3.762   6.549
 6054SOL    HW130193   5.024   3.783   6.452
 6054SOL    HW230194   5.042   3.841   6.603
 6055SOL     OW30195   9.160   2.099   6.514
 6055SOL    HW130196   9.147   2.169   6.584
 6055SOL    HW230197   9.256   2.097   6.486
 6056SOL     OW30198   5.675   6.942   6.797
 6056SOL    HW130199   5.713   7.033   6.816
 6056SOL    HW230200   5.740   6.890   6.742
 6057SOL     OW30201   8.090   5.437   6.564
 6057SOL    HW130202   8.159   5.480   6.506
 6057SOL    HW230203   8.016   5.400   6.506
 6058SOL     OW30204   7.598   3.899   5.887
 6058SOL    HW130205   7.529   3.911   5.816
 6058SOL    HW230206   7.659   3.824   5.862
 6059SOL     OW30207   0.281   3.995   0.790
 6059SOL    HW130208   0.271   3.905   0.748
 6059SOL    HW230209   0.217   4.002   0.868
 6060SOL     OW30210   5.022   3.488   0.209
 6060SOL    HW130211   4.982   3.440   0.287
 6060SOL    HW230212   5.000   3.585   0.214
 6061SOL     OW30213   2.566   6.979   6.148
 6061SOL    HW130214   2.492   7.035   6.111
 6061SOL    HW230215   2.529   6.894   6.185
 6062SOL     OW30216   1.250   0.028   6.667
 6062SOL    HW130217   1.308  -0.008   6.740
 6062SOL    HW230218   1.290   0.113   6.632
 6063SOL     OW30219   5.825   1.822   6.558
 6063SOL    HW130220   5.923   1.820   6.580
 6063SOL    HW230221   5.805   1.906   6.506
 6064SOL     OW30222   6.363   2.151   6.844
 6064SOL    HW130223   6.438   2.181   6.786
 6064SOL    HW230224   6.398   2.127   6.935
 6065SOL     OW30225   3.274   6.063   2.044
 6065SOL    HW130226   3.180   6.095   2.044
 6065SOL    HW230227   3.284   5.990   2.112
 6066SOL     OW30228   6.662   4.664   5.630
 6066SOL    HW130229   6.567   4.633   5.626
 6066SOL    HW230230   6.679   4.731   5.558
 6067SOL     OW30231   4.604   1.502   6.530
 6067SOL    HW130232   4.542   1.486   6.607
 6067SOL    HW230233   4.697   1.516   6.565
 6068SOL     OW30234   5.673   6.055   1.971
 6068SOL    HW130235   5.701   6.144   2.007
 6068SOL    HW230236   5.755   6.001   1.950
 6069SOL     OW30237   4.092   4.795   5.887
 6069SOL    HW130238   4.171   4.788   5.947
 6069SOL    HW230239   4.067   4.891   5.874
 6070SOL     OW30240   6.762   0.456   6.107
 6070SOL    HW130241   6.840   0.492   6.159
 6070SOL    HW230242   6.691   0.527   6.102
 6071SOL     OW30243   8.079   7.178   6.680
 6071SOL    HW130244   8.163   7.197   6.732
 6071SOL    HW230245   8.032   7.264   6.661
 6072SOL     OW30246   7.648   2.674   0.319
 6072SOL    HW130247   7.628   2.764   0.281
 6072SOL    HW230248   7.676   2.683   0.414
 6073SOL     OW30249   9.477   4.987   5.723
 6073SOL    HW130250   9.427   4.955   5.643
 6073SOL    HW230251   9.454   5.082   5.741
 6074SOL     OW30252   1.382   7.033   6.747
 6074SOL    HW130253   1.291   7.067   6.723
 6074SOL    HW230254   1.382   6.999   6.841
 6075SOL     OW30255   5.671   4.943   1.466
 6075SOL    HW130256   5.716   4.905   1.547
 6075SOL    HW230257   5.633   5.033   1.487
 6076SOL     OW30258   8.887   6.218   1.181
 6076SOL    HW130259   8.853   6.129   1.212
 6076SOL    HW230260   8.865   6.288   1.249
 6077SOL     OW30261   3.519   7.084   6.215
 6077SOL    HW130262   3.419   7.077   6.211
 6077SOL    HW230263   3.559   7.009   6.163
 6078SOL     OW30264   2.818   8.041   0.135
 6078SOL    HW130265   2.815   8.141   0.136
 6078SOL    HW230266   2.761   8.006   0.060
 6079SOL     OW30267   6.468   8.106   5.746
 6079SOL    HW130268   6.504   8.131   5.655
 6079SOL    HW230269   6.376   8.144   5.757
 6080SOL     OW30270   2.208   7.067   0.685
 6080SOL    HW130271   2.126   7.115   0.718
 6080SOL    HW230272   2.193   6.969   0.689
 6081SOL     OW30273   7.887   0.730   0.654
 6081SOL    HW130274   7.865   0.801   0.722
 6081SOL    HW230275   7.945   0.660   0.697
 6082SOL     OW30276   0.967   0.307   0.916
 6082SOL    HW130277   0.947   0.216   0.879
 6082SOL    HW230278   1.064   0.314   0.939
 6083SOL     OW30279   3.957   5.913   6.258
 6083SOL    HW130280   3.881   5.864   6.300
 6083SOL    HW230281   4.037   5.909   6.318
 6084SOL     OW30282   4.107   7.201   1.197
 6084SOL    HW130283   4.059   7.179   1.282
 6084SOL    HW230284   4.088   7.295   1.171
 6085SOL     OW30285   3.618   6.306   1.292
 6085SOL    HW130286   3.650   6.360   1.370
 6085SOL    HW230287   3.560   6.231   1.324
 6086SOL     OW30288   9.099   0.198   0.573
 6086SOL    HW130289   9.171   0.267   0.570
 6086SOL    HW230290   9.010   0.243   0.579
 6087SOL     OW30291   4.891   2.014   5.548
 6087SOL    HW130292   4.802   1.969   5.556
 6087SOL    HW230293   4.906   2.074   5.626
 6088SOL     OW30294   0.410   2.755   6.099
 6088SOL    HW130295   0.313   2.770   6.082
 6088SOL    HW230296   0.460   2.841   6.088
 6089SOL     OW30297   1.612  -0.034   0.492
 6089SOL    HW130298   1.580  -0.070   0.404
 6089SOL    HW230299   1.567   0.054   0.509
 6090SOL     OW30300   0.818   0.250   0.336
 6090SOL    HW130301   0.805   0.286   0.429
 6090SOL    HW230302   0.864   0.161   0.342
 6091SOL     OW30303   1.068   3.759   6.478
 6091SOL    HW130304   1.057   3.852   6.513
 6091SOL    HW230305   1.165   3.735   6.479
 6092SOL     OW30306   7.396   3.925   5.703
 6092SOL    HW130307   7.380   4.002   5.642
 6092SOL    HW230308   7.343   3.846   5.672
 6093SOL     OW30309   1.925   5.974   6.733
 6093SOL    HW130310   1.992   5.908   6.697
 6093SOL    HW230311   1.902   6.040   6.662
 6094SOL     OW30312   3.150   7.448   5.885
 6094SOL    HW130313   3.178   7.435   5.980
 6094SOL    HW230314   3.149   7.546   5.864
 6095SOL     OW30315   6.578   7.903   6.498
 6095SOL    HW130316   6.537   7.816   6.472
 6095SOL    HW230317   6.521   7.979   6.465
 6096SOL     OW30318   1.414   2.975   0.356
 6096SOL    HW130319   1.414   2.933   0.447
 6096SOL    HW230320   1.475   2.924   0.296
 6097SOL     OW30321   0.525   1.222   6.255
 6097SOL    HW130322   0.427   1.202   6.246
 6097SOL    HW230323   0.576   1.160   6.195
 6098SOL     OW30324   2.798   1.118   1.209
 6098SOL    HW130325   2.797   1.213   1.177
 6098SOL    HW230326   2.707   1.094   1.244
 6099SOL     OW30327   4.496   4.730   1.186
 6099SOL    HW130328   4.538   4.655   1.134
 6099SOL    HW230329   4.565   4.798   1.209
 6100SOL     OW30330   7.481   6.333   6.384
 6100SOL    HW130331   7.516   6.308   6.293
 6100SOL    HW230332   7.542   6.398   6.427
 6101SOL     OW30333   5.847   1.291   0.200
 6101SOL    HW130334   5.806   1.324   0.115
 6101SOL    HW230335   5.855   1.191   0.197
 6102SOL     OW30336   6.213   8.074   0.471
 6102SOL    HW130337   6.126   8.075   0.520
 6102SOL    HW230338   6.253   7.983   0.477
 6103SOL     OW30339   8.208   4.663   1.437
 6103SOL    HW130340   8.175   4.652   1.530
 6103SOL    HW230341   8.224   4.760   1.419
 6104SOL     OW30342   6.920   0.581   6.645
 6104SOL    HW130343   6.824   0.606   6.631
 6104SOL    HW230344   6.925   0.489   6.685
 6105SOL     OW30345   5.069   6.462   6.713
 6105SOL    HW130346   5.095   6.552   6.746
 6105SOL    HW230347   5.116   6.443   6.627
 6106SOL     OW30348   0.753   0.121   5.733
 6106SOL    HW130349   0.762   0.036   5.786
 6106SOL    HW230350   0.732   0.099   5.638
 6107SOL     OW30351   7.388   5.038   6.121
 6107SOL    HW130352   7.480   4.999   6.125
 6107SOL    HW230353   7.389   5.121   6.067
 6108SOL     OW30354   0.337   7.957   1.421
 6108SOL    HW130355   0.430   7.975   1.453
 6108SOL    HW230356   0.285   7.911   1.493
 6109SOL     OW30357   3.729   4.450   6.767
 6109SOL    HW130358   3.717   4.496   6.855
 6109SOL    HW230359   3.641   4.419   6.732
 6110SOL     OW30360   6.859   0.314   5.493
 6110SOL    HW130361   6.785   0.316   5.426
 6110SOL    HW230362   6.883   0.219   5.513
 6111SOL     OW30363   0.495   4.227   5.299
 6111SOL    HW130364   0.442   4.147   5.273
 6111SOL    HW230365   0.593   4.209   5.286
 6112SOL     OW30366   5.021   4.630   6.377
 6112SOL    HW130367   4.958   4.693   6.420
 6112SOL    HW230368   5.056   4.670   6.292
 6113SOL     OW30369   3.298   6.274   6.720
 6113SOL    HW130370   3.347   6.263   6.634
 6113SOL    HW230371   3.363   6.291   6.794
 6114SOL     OW30372   2.858   8.087   0.932
 6114SOL    HW130373   2.869   7.987   0.926
 6114SOL    HW230374   2.927   8.132   0.876
 6115SOL     OW30375   4.921   5.028   6.169
 6115SOL    HW130376   4.871   5.068   6.246
 6115SOL    HW230377   4.965   4.943   6.198
 6116SOL     OW30378   1.383   0.338   4.830
 6116SOL    HW130379   1.324   0.329   4.749
 6116SOL    HW230380   1.409   0.247   4.862
 6117SOL     OW30381   8.125   5.940   5.494
 6117SOL    HW130382   8.121   6.025   5.548
 6117SOL    HW230383   8.035   5.921   5.455
 6118SOL     OW30384   6.826   0.790   1.410
 6118SOL    HW130385   6.780   0.721   1.466
 6118SOL    HW230386   6.915   0.811   1.450
 6119SOL     OW30387   3.676   2.556   0.851
 6119SOL    HW130388   3.609   2.532   0.921
 6119SOL    HW230389   3.694   2.654   0.854
 6120SOL     OW30390   3.233   7.494   0.943
 6120SOL    HW130391   3.193   7.556   0.876
 6120SOL    HW230392   3.188   7.405   0.939
 6121SOL     OW30393   9.046   0.063   0.882
 6121SOL    HW130394   8.983   0.050   0.805
 6121SOL    HW230395   9.132   0.016   0.862
 6122SOL     OW30396   0.516   7.162   6.102
 6122SOL    HW130397   0.492   7.112   6.019
 6122SOL    HW230398   0.603   7.127   6.137
 6123SOL     OW30399   4.329   0.132   4.733
 6123SOL    HW130400   4.410   0.103   4.681
 6123SOL    HW230401   4.248   0.128   4.674
 6124SOL     OW30402   1.530   3.099   6.312
 6124SOL    HW130403   1.450   3.152   6.283
 6124SOL    HW230404   1.555   3.034   6.241
 6125SOL     OW30405   1.290   5.826   5.561
 6125SOL    HW130406   1.194   5.804   5.578
 6125SOL    HW230407   1.320   5.895   5.627
 6126SOL     OW30408   3.724   7.564   0.206
 6126SOL    HW130409   3.814   7.523   0.191
 6126SOL    HW230410   3.670   7.505   0.267
 6127SOL     OW30411   4.666   1.778   6.180
 6127SOL    HW130412   4.760   1.802   6.206
 6127SOL    HW230413   4.624   1.855   6.132
 6128SOL     OW30414   3.782   2.697   6.500
 6128SOL    HW130415   3.825   2.757   6.432
 6128SOL    HW230416   3.778   2.744   6.588
 6129SOL     OW30417   3.520   4.331   5.742
 6129SOL    HW130418   3.480   4.317   5.832
 6129SOL    HW230419   3.457   4.384   5.685
 6130SOL     OW30420   7.379   7.554   5.067
 6130SOL    HW130421   7.361   7.649   5.094
 6130SOL    HW230422   7.442   7.553   4.989
 6131SOL     OW30423   5.572   4.057   6.771
 6131SOL    HW130424   5.632   3.984   6.740
 6131SOL    HW230425   5.614   4.146   6.751
 6132SOL     OW30426   8.722   0.737   6.091
 6132SOL    HW130427   8.626   0.758   6.113
 6132SOL    HW230428   8.755   0.802   6.022
 6133SOL     OW30429   3.722   0.074   1.411
 6133SOL    HW130430   3.702  -0.024   1.404
 6133SOL    HW230431   3.642   0.127   1.383
 6134SOL     OW30432   3.962   3.618   0.899
 6134SOL    HW130433   3.895   3.547   0.920
 6134SOL    HW230434   3.916   3.691   0.848
 6135SOL     OW30435   8.270   4.297   1.055
 6135SOL    HW130436   8.281   4.301   0.956
 6135SOL    HW230437   8.344   4.242   1.095
 6136SOL     OW30438   4.365   1.822   1.089
 6136SOL    HW130439   4.374   1.741   1.146
 6136SOL    HW230440   4.270   1.854   1.091
 6137SOL     OW30441   3.880   0.739   6.403
 6137SOL    HW130442   3.929   0.654   6.425
 6137SOL    HW230443   3.788   0.735   6.442
 6138SOL     OW30444   2.541   8.119   6.213
 6138SOL    HW130445   2.608   8.141   6.284
 6138SOL    HW230446   2.586   8.123   6.123
 6139SOL     OW30447   4.521   8.062   1.281
 6139SOL    HW130448   4.448   8.053   1.213
 6139SOL    HW230449   4.515   7.987   1.346
 6140SOL     OW30450   2.861   3.646   6.399
 6140SOL    HW130451   2.802   3.720   6.368
 6140SOL    HW230452   2.954   3.660   6.365
 6141SOL     OW30453   4.030   2.234   5.723
 6141SOL    HW130454   3.933   2.212   5.719
 6141SOL    HW230455   4.076   2.201   5.641
 6142SOL     OW30456   5.299   4.640   1.436
 6142SOL    HW130457   5.317   4.733   1.404
 6142SOL    HW230458   5.234   4.643   1.512
 6143SOL     OW30459   4.242   7.438   1.420
 6143SOL    HW130460   4.315   7.456   1.485
 6143SOL    HW230461   4.166   7.392   1.466
 6144SOL     OW30462   6.796   1.393   1.449
 6144SOL    HW130463   6.711   1.341   1.439
 6144SOL    HW230464   6.816   1.404   1.546
 6145SOL     OW30465   1.383   0.786   0.282
 6145SOL    HW130466   1.390   0.687   0.281
 6145SOL    HW230467   1.409   0.823   0.193
 6146SOL     OW30468   7.457   2.283   6.632
 6146SOL    HW130469   7.549   2.286   6.591
 6146SOL    HW230470   7.456   2.214   6.705
 6147SOL     OW30471   4.125   1.847   0.167
 6147SOL    HW130472   4.140   1.782   0.241
 6147SOL    HW230473   4.066   1.920   0.198
 6148SOL     OW30474   6.385   6.134   0.511
 6148SOL    HW130475   6.411   6.088   0.426
 6148SOL    HW230476   6.464   6.181   0.549
 6149SOL     OW30477   3.149   1.061   2.170
 6149SOL    HW130478   3.070   1.112   2.137
 6149SOL    HW230479   3.192   1.013   2.093
 6150SOL     OW30480   0.186   7.322   4.992
 6150SOL    HW130481   0.107   7.379   4.970
 6150SOL    HW230482   0.236   7.300   4.908
 6151SOL     OW30483   2.369   7.815   5.915
 6151SOL    HW130484   2.465   7.829   5.937
 6151SOL    HW230485   2.322   7.903   5.911
 6152SOL     OW30486   4.299   3.281   0.381
 6152SOL    HW130487   4.299   3.356   0.314
 6152SOL    HW230488   4.394   3.256   0.402
 6153SOL     OW30489   7.714   0.180   0.737
 6153SOL    HW130490   7.793   0.202   0.795
 6153SOL    HW230491   7.690   0.260   0.682
 6154SOL     OW30492   8.007   0.106   0.208
 6154SOL    HW130493   7.927   0.068   0.162
 6154SOL    HW230494   8.079   0.124   0.140
 6155SOL     OW30495   0.823   4.386   6.370
 6155SOL    HW130496   0.854   4.366   6.277
 6155SOL    HW230497   0.821   4.485   6.384
 6156SOL     OW30498   6.206   5.447   1.577
 6156SOL    HW130499   6.195   5.387   1.656
 6156SOL    HW230500   6.237   5.538   1.607
 6157SOL     OW30501   1.733   0.186   2.042
 6157SOL    HW130502   1.643   0.230   2.038
 6157SOL    HW230503   1.761   0.160   1.950
 6158SOL     OW30504   0.752   6.729   0.702
 6158SOL    HW130505   0.826   6.771   0.753
 6158SOL    HW230506   0.760   6.629   0.709
 6159SOL     OW30507   2.645   0.670   0.515
 6159SOL    HW130508   2.573   0.601   0.517
 6159SOL    HW230509   2.731   0.628   0.488
 6160SOL     OW30510   0.821   6.372   5.525
 6160SOL    HW130511   0.900   6.433   5.532
 6160SOL    HW230512   0.852   6.279   5.504
 6161SOL     OW30513   6.116   7.607   0.780
 6161SOL    HW130514   6.168   7.652   0.851
 6161SOL    HW230515   6.046   7.670   0.744
 6162SOL     OW30516   3.455   0.676   0.989
 6162SOL    HW130517   3.472   0.766   1.031
 6162SOL    HW230518   3.357   0.658   0.989
 6163SOL     OW30519   9.382   3.999   6.123
 6163SOL    HW130520   9.471   3.995   6.076
 6163SOL    HW230521   9.333   3.913   6.107
 6164SOL     OW30522   1.985   3.192   6.632
 6164SOL    HW130523   1.963   3.243   6.715
 6164SOL    HW230524   2.085   3.181   6.626
 6165SOL     OW30525   1.089   4.978   0.898
 6165SOL    HW130526   1.110   4.943   0.807
 6165SOL    HW230527   1.058   4.903   0.957
 6166SOL     OW30528   8.117   0.022   6.463
 6166SOL    HW130529   8.062  -0.062   6.470
 6166SOL    HW230530   8.060   0.096   6.427
 6167SOL     OW30531   6.073   2.753   0.264
 6167SOL    HW130532   6.172   2.740   0.260
 6167SOL    HW230533   6.053   2.847   0.295
 6168SOL     OW30534   1.650   5.673   0.791
 6168SOL    HW130535   1.576   5.699   0.854
 6168SOL    HW230536   1.633   5.715   0.702
 6169SOL     OW30537   6.887   8.313   1.035
 6169SOL    HW130538   6.804   8.299   0.980
 6169SOL    HW230539   6.966   8.275   0.987
 6170SOL     OW30540   6.609   7.370   5.162
 6170SOL    HW130541   6.663   7.304   5.110
 6170SOL    HW230542   6.574   7.326   5.244
 6171SOL     OW30543   5.312   5.241   6.244
 6171SOL    HW130544   5.222   5.232   6.201
 6171SOL    HW230545   5.303   5.227   6.342
 6172SOL     OW30546   4.649   4.306   6.396
 6172SOL    HW130547   4.571   4.364   6.369
 6172SOL    HW230548   4.708   4.357   6.458
 6173SOL     OW30549   2.788   2.488   6.617
 6173SOL    HW130550   2.805   2.538   6.702
 6173SOL    HW230551   2.874   2.448   6.585
 6174SOL     OW30552   5.602   6.346   6.804
 6174SOL    HW130553   5.538   6.418   6.833
 6174SOL    HW230554   5.684   6.349   6.861
 6175SOL     OW30555   0.208   0.812   5.545
 6175SOL    HW130556   0.188   0.718   5.517
 6175SOL    HW230557   0.262   0.811   5.629
 6176SOL     OW30558   2.562   1.545   1.231
 6176SOL    HW130559   2.507   1.614   1.184
 6176SOL    HW230560   2.547   1.552   1.330
 6177SOL     OW30561   7.703   6.026   1.422
 6177SOL    HW130562   7.713   5.980   1.510
 6177SOL    HW230563   7.748   6.115   1.426
 6178SOL     OW30564   8.902   7.384   0.132
 6178SOL    HW130565   8.954   7.306   0.099
 6178SOL    HW230566   8.965   7.456   0.161
 6179SOL     OW30567   8.849   3.271   0.902
 6179SOL    HW130568   8.789   3.251   0.979
 6179SOL    HW230569   8.905   3.191   0.881
 6180SOL     OW30570   6.383   1.466   6.853
 6180SOL    HW130571   6.444   1.545   6.854
 6180SOL    HW230572   6.289   1.497   6.837
 6181SOL     OW30573   8.128   7.137   1.521
 6181SOL    HW130574   8.164   7.153   1.613
 6181SOL    HW230575   8.162   7.208   1.459
 6182SOL     OW30576   2.578   5.790   0.198
 6182SOL    HW130577   2.620   5.788   0.289
 6182SOL    HW230578   2.637   5.842   0.136
 6183SOL     OW30579   6.392   5.580   0.917
 6183SOL    HW130580   6.441   5.589   1.004
 6183SOL    HW230581   6.449   5.532   0.851
 6184SOL     OW30582   2.097   0.357   5.770
 6184SOL    HW130583   2.053   0.446   5.775
 6184SOL    HW230584   2.188   0.366   5.729
 6185SOL     OW30585   8.419   1.736   1.481
 6185SOL    HW130586   8.491   1.804   1.466
 6185SOL    HW230587   8.460   1.652   1.518
 6186SOL     OW30588   3.307   1.193   6.579
 6186SOL    HW130589   3.242   1.120   6.599
 6186SOL    HW230590   3.341   1.232   6.664
 6187SOL     OW30591   5.947   4.420   0.294
 6187SOL    HW130592   5.957   4.339   0.237
 6187SOL    HW230593   5.917   4.394   0.385
 6188SOL     OW30594   7.181   8.300   5.848
 6188SOL    HW130595   7.207   8.357   5.770
 6188SOL    HW230596   7.093   8.256   5.829
 6189SOL     OW30597   4.455   6.222   1.026
 6189SOL    HW130598   4.428   6.290   0.958
 6189SOL    HW230599   4.386   6.218   1.098
 6190SOL     OW30600   7.355   2.803   6.589
 6190SOL    HW130601   7.287   2.876   6.593
 6190SOL    HW230602   7.354   2.751   6.674
 6191SOL     OW30603   7.424   6.936   5.850
 6191SOL    HW130604   7.463   6.966   5.937
 6191SOL    HW230605   7.487   6.872   5.805
 6192SOL     OW30606   1.133   3.369   6.372
 6192SOL    HW130607   1.195   3.396   6.446
 6192SOL    HW230608   1.067   3.302   6.406
 6193SOL     OW30609   7.854   7.333   5.924
 6193SOL    HW130610   7.818   7.266   5.988
 6193SOL    HW230611   7.901   7.406   5.975
 6194SOL     OW30612   4.018   2.077   2.217
 6194SOL    HW130613   4.041   2.054   2.312
 6194SOL    HW230614   4.075   2.154   2.187
 6195SOL     OW30615   6.968   4.003   6.603
 6195SOL    HW130616   6.901   3.997   6.677
 6195SOL    HW230617   7.057   3.970   6.636
 6196SOL     OW30618   3.211   3.122   1.213
 6196SOL    HW130619   3.267   3.049   1.251
 6196SOL    HW230620   3.114   3.103   1.231
 6197SOL     OW30621   4.874   5.863   0.885
 6197SOL    HW130622   4.866   5.963   0.888
 6197SOL    HW230623   4.828   5.824   0.965
 6198SOL     OW30624   7.850   1.191   6.449
 6198SOL    HW130625   7.927   1.165   6.390
 6198SOL    HW230626   7.792   1.112   6.465
 6199SOL     OW30627   4.097   3.096   5.312
 6199SOL    HW130628   4.071   3.076   5.406
 6199SOL    HW230629   4.018   3.084   5.252
 6200SOL     OW30630   7.619   7.329   1.272
 6200SOL    HW130631   7.683   7.388   1.222
 6200SOL    HW230632   7.668   7.278   1.343
 6201SOL     OW30633   0.986   4.728   1.326
 6201SOL    HW130634   1.045   4.675   1.387
 6201SOL    HW230635   0.900   4.748   1.372
 6202SOL     OW30636   1.541   4.239   0.564
 6202SOL    HW130637   1.443   4.249   0.578
 6202SOL    HW230638   1.558   4.213   0.469
 6203SOL     OW30639   8.120   2.297   6.269
 6203SOL    HW130640   8.157   2.363   6.335
 6203SOL    HW230641   8.168   2.210   6.278
 6204SOL     OW30642   6.323   4.635   1.160
 6204SOL    HW130643   6.229   4.617   1.191
 6204SOL    HW230644   6.321   4.687   1.075
 6205SOL     OW30645   7.536   5.403   6.022
 6205SOL    HW130646   7.556   5.407   6.120
 6205SOL    HW230647   7.451   5.352   6.008
 6206SOL     OW30648   8.830   4.452   6.610
 6206SOL    HW130649   8.734   4.471   6.631
 6206SOL    HW230650   8.866   4.523   6.549
 6207SOL     OW30651   9.381   3.399   5.568
 6207SOL    HW130652   9.439   3.376   5.490
 6207SOL    HW230653   9.318   3.473   5.542
 6208SOL     OW30654   7.863   4.951   6.404
 6208SOL    HW130655   7.850   5.030   6.344
 6208SOL    HW230656   7.884   4.870   6.350
 6209SOL     OW30657   2.217   8.357   5.356
 6209SOL    HW130658   2.164   8.285   5.312
 6209SOL    HW230659   2.269   8.407   5.286
 6210SOL     OW30660   2.571   4.292   5.874
 6210SOL    HW130661   2.597   4.267   5.780
 6210SOL    HW230662   2.625   4.238   5.938
 6211SOL     OW30663   0.530   0.993   6.824
 6211SOL    HW130664   0.589   0.935   6.767
 6211SOL    HW230665   0.514   1.080   6.777
 6212SOL     OW30666   6.881   2.275   0.823
 6212SOL    HW130667   6.939   2.241   0.749
 6212SOL    HW230668   6.853   2.370   0.802
 6213SOL     OW30669   7.143   1.687   0.955
 6213SOL    HW130670   7.183   1.773   0.985
 6213SOL    HW230671   7.060   1.705   0.902
 6214SOL     OW30672   2.268   2.147   5.939
 6214SOL    HW130673   2.258   2.211   5.863
 6214SOL    HW230674   2.212   2.179   6.016
 6215SOL     OW30675   8.270   4.932   1.396
 6215SOL    HW130676   8.228   5.008   1.446
 6215SOL    HW230677   8.334   4.968   1.328
 6216SOL     OW30678   0.826   2.186   0.255
 6216SOL    HW130679   0.850   2.158   0.348
 6216SOL    HW230680   0.909   2.211   0.205
 6217SOL     OW30681   4.057   0.478   1.103
 6217SOL    HW130682   4.049   0.496   1.201
 6217SOL    HW230683   3.974   0.509   1.057
 6218SOL     OW30684   0.185   2.381   6.400
 6218SOL    HW130685   0.098   2.371   6.350
 6218SOL    HW230686   0.188   2.314   6.475
 6219SOL     OW30687   4.720   6.862   1.454
 6219SOL    HW130688   4.698   6.855   1.551
 6219SOL    HW230689   4.765   6.777   1.424
 6220SOL     OW30690   4.307   3.353   0.666
 6220SOL    HW130691   4.389   3.408   0.682
 6220SOL    HW230692   4.295   3.339   0.568
 6221SOL     OW30693   2.208   3.098   6.278
 6221SOL    HW130694   2.183   3.187   6.240
 6221SOL    HW230695   2.126   3.041   6.288
 6222SOL     OW30696   2.463   5.390   0.366
 6222SOL    HW130697   2.388   5.362   0.307
 6222SOL    HW230698   2.494   5.312   0.420
 6223SOL     OW30699   2.716   3.484   6.213
 6223SOL    HW130700   2.777   3.500   6.290
 6223SOL    HW230701   2.713   3.565   6.154
 6224SOL     OW30702   1.790   0.524   6.310
 6224SOL    HW130703   1.733   0.586   6.256
 6224SOL    HW230704   1.876   0.570   6.333
 6225SOL     OW30705   1.587   4.118   1.010
 6225SOL    HW130706   1.576   4.122   1.109
 6225SOL    HW230707   1.504   4.081   0.968
 6226SOL     OW30708   1.077   2.028   6.532
 6226SOL    HW130709   1.072   1.933   6.563
 6226SOL    HW230710   1.007   2.044   6.462
 6227SOL     OW30711   4.204   5.415   5.588
 6227SOL    HW130712   4.224   5.435   5.492
 6227SOL    HW230713   4.213   5.317   5.605
 6228SOL     OW30714   5.180   6.498   6.018
 6228SOL    HW130715   5.087   6.463   6.008
 6228SOL    HW230716   5.182   6.568   6.089
 6229SOL     OW30717   1.114   6.562   0.744
 6229SOL    HW130718   1.212   6.546   0.732
 6229SOL    HW230719   1.086   6.536   0.837
 6230SOL     OW30720   0.985   1.710   0.429
 6230SOL    HW130721   0.908   1.707   0.492
 6230SOL    HW230722   0.951   1.719   0.335
 6231SOL     OW30723   1.603   2.883   0.127
 6231SOL    HW130724   1.568   2.798   0.166
 6231SOL    HW230725   1.678   2.862   0.064
 6232SOL     OW30726   3.677   5.799   6.388
 6232SOL    HW130727   3.625   5.881   6.365
 6232SOL    HW230728   3.738   5.819   6.465
 6233SOL     OW30729   1.694   3.793   1.104
 6233SOL    HW130730   1.623   3.838   1.158
 6233SOL    HW230731   1.721   3.707   1.148
 6234SOL     OW30732   8.825   6.329   5.477
 6234SOL    HW130733   8.805   6.235   5.448
 6234SOL    HW230734   8.913   6.357   5.438
 6235SOL     OW30735   3.239   3.721   1.800
 6235SOL    HW130736   3.243   3.819   1.779
 6235SOL    HW230737   3.157   3.682   1.758
 6236SOL     OW30738   6.145   1.460   0.545
 6236SOL    HW130739   6.121   1.460   0.448
 6236SOL    HW230740   6.067   1.492   0.599
 6237SOL     OW30741   4.587   7.100   1.422
 6237SOL    HW130742   4.613   7.003   1.423
 6237SOL    HW230743   4.562   7.129   1.514
 6238SOL     OW30744   6.714   1.479   2.325
 6238SOL    HW130745   6.630   1.534   2.333
 6238SOL    HW230746   6.790   1.538   2.297
 6239SOL     OW30747   3.052   2.004   6.391
 6239SOL    HW130748   3.000   1.924   6.361
 6239SOL    HW230749   3.029   2.026   6.486
 6240SOL     OW30750   5.280   1.728   1.048
 6240SOL    HW130751   5.328   1.641   1.062
 6240SOL    HW230752   5.198   1.712   0.992
 6241SOL     OW30753   8.835   8.329   6.664
 6241SOL    HW130754   8.745   8.302   6.628
 6241SOL    HW230755   8.857   8.272   6.743
 6242SOL     OW30756   4.370   0.810   5.466
 6242SOL    HW130757   4.451   0.807   5.407
 6242SOL    HW230758   4.336   0.717   5.479
 6243SOL     OW30759   6.284   6.650   5.509
 6243SOL    HW130760   6.335   6.565   5.526
 6243SOL    HW230761   6.190   6.627   5.481
 6244SOL     OW30762   2.531   8.219   6.669
 6244SOL    HW130763   2.442   8.257   6.642
 6244SOL    HW230764   2.556   8.255   6.760
 6245SOL     OW30765   1.807   5.464   6.197
 6245SOL    HW130766   1.888   5.475   6.139
 6245SOL    HW230767   1.778   5.368   6.197
 6246SOL     OW30768   3.182   1.898   0.229
 6246SOL    HW130769   3.280   1.918   0.227
 6246SOL    HW230770   3.169   1.799   0.240
 6247SOL     OW30771   5.893   4.991   6.407
 6247SOL    HW130772   5.968   4.929   6.428
 6247SOL    HW230773   5.835   5.001   6.488
 6248SOL     OW30774   3.954   8.386   1.344
 6248SOL    HW130775   3.914   8.353   1.258
 6248SOL    HW230776   3.916   8.476   1.366
 6249SOL     OW30777   5.366   6.492   0.749
 6249SOL    HW130778   5.362   6.499   0.849
 6249SOL    HW230779   5.422   6.414   0.723
 6250SOL     OW30780   2.600   7.741   0.906
 6250SOL    HW130781   2.648   7.657   0.933
 6250SOL    HW230782   2.502   7.731   0.924
 6251SOL     OW30783   3.158   4.042   0.654
 6251SOL    HW130784   3.178   4.055   0.751
 6251SOL    HW230785   3.175   4.128   0.604
 6252SOL     OW30786   9.500   4.103   6.763
 6252SOL    HW130787   9.553   4.177   6.804
 6252SOL    HW230788   9.527   4.015   6.803
 6253SOL     OW30789   1.848   3.671   6.392
 6253SOL    HW130790   1.933   3.718   6.415
 6253SOL    HW230791   1.867   3.592   6.334
 6254SOL     OW30792   7.538   7.623   6.400
 6254SOL    HW130793   7.536   7.702   6.338
 6254SOL    HW230794   7.556   7.540   6.347
 6255SOL     OW30795   4.645   7.614   0.489
 6255SOL    HW130796   4.732   7.626   0.537
 6255SOL    HW230797   4.655   7.641   0.394
 6256SOL     OW30798   7.277   3.699   5.970
 6256SOL    HW130799   7.271   3.762   5.892
 6256SOL    HW230800   7.361   3.645   5.962
 6257SOL     OW30801   1.781   0.508   5.649
 6257SOL    HW130802   1.798   0.599   5.686
 6257SOL    HW230803   1.792   0.440   5.721
 6258SOL     OW30804   8.151   0.979   5.395
 6258SOL    HW130805   8.122   0.911   5.328
 6258SOL    HW230806   8.251   0.983   5.397
 6259SOL     OW30807   3.135   5.715   5.528
 6259SOL    HW130808   3.065   5.776   5.489
 6259SOL    HW230809   3.170   5.756   5.612
 6260SOL     OW30810   2.891   0.488   0.501
 6260SOL    HW130811   2.916   0.463   0.595
 6260SOL    HW230812   2.869   0.405   0.450
 6261SOL     OW30813   2.805   7.109   5.452
 6261SOL    HW130814   2.797   7.132   5.549
 6261SOL    HW230815   2.877   7.041   5.440
 6262SOL     OW30816   8.633   4.418   1.382
 6262SOL    HW130817   8.535   4.435   1.371
 6262SOL    HW230818   8.667   4.466   1.463
 6263SOL     OW30819   8.599   7.372   6.480
 6263SOL    HW130820   8.533   7.360   6.407
 6263SOL    HW230821   8.561   7.432   6.551
 6264SOL     OW30822   0.156   6.267   6.325
 6264SOL    HW130823   0.057   6.272   6.331
 6264SOL    HW230824   0.183   6.246   6.231
 6265SOL     OW30825   0.967   1.199   6.319
 6265SOL    HW130826   1.030   1.253   6.375
 6265SOL    HW230827   0.961   1.240   6.228
 6266SOL     OW30828   2.990   4.046   6.620
 6266SOL    HW130829   2.924   4.000   6.679
 6266SOL    HW230830   2.952   4.057   6.528
 6267SOL     OW30831   4.169   4.224   0.802
 6267SOL    HW130832   4.177   4.126   0.783
 6267SOL    HW230833   4.227   4.247   0.880
 6268SOL     OW30834   0.521   0.284   6.174
 6268SOL    HW130835   0.492   0.232   6.255
 6268SOL    HW230836   0.619   0.305   6.182
 6269SOL     OW30837   9.318   3.759   1.334
 6269SOL    HW130838   9.357   3.700   1.404
 6269SOL    HW230839   9.310   3.852   1.370
 6270SOL     OW30840   3.278   5.401   4.782
 6270SOL    HW130841   3.315   5.314   4.814
 6270SOL    HW230842   3.186   5.414   4.820
 6271SOL     OW30843   9.459   5.183   0.208
 6271SOL    HW130844   9.394   5.134   0.266
 6271SOL    HW230845   9.413   5.263   0.167
 6272SOL     OW30846   6.661   3.617   1.944
 6272SOL    HW130847   6.564   3.636   1.926
 6272SOL    HW230848   6.674   3.598   2.041
 6273SOL     OW30849   4.448   7.836   6.109
 6273SOL    HW130850   4.469   7.820   6.013
 6273SOL    HW230851   4.533   7.836   6.162
 6274SOL     OW30852   0.149   4.235   6.420
 6274SOL    HW130853   0.070   4.175   6.410
 6274SOL    HW230854   0.211   4.222   6.343
 6275SOL     OW30855   0.155   7.044   0.417
 6275SOL    HW130856   0.208   7.007   0.493
 6275SOL    HW230857   0.197   7.129   0.385
 6276SOL     OW30858   2.612   6.896   0.368
 6276SOL    HW130859   2.567   6.838   0.300
 6276SOL    HW230860   2.614   6.848   0.456
 6277SOL     OW30861   1.259   7.207   1.326
 6277SOL    HW130862   1.249   7.282   1.391
 6277SOL    HW230863   1.342   7.155   1.348
 6278SOL     OW30864   5.468   2.635   1.066
 6278SOL    HW130865   5.496   2.557   1.122
 6278SOL    HW230866   5.528   2.713   1.084
 6279SOL     OW30867   5.830   4.318   1.366
 6279SOL    HW130868   5.911   4.360   1.406
 6279SOL    HW230869   5.807   4.234   1.416
 6280SOL     OW30870   4.180   1.506   0.147
 6280SOL    HW130871   4.273   1.473   0.134
 6280SOL    HW230872   4.145   1.541   0.060
 6281SOL     OW30873   7.862   2.937   1.450
 6281SOL    HW130874   7.783   2.945   1.510
 6281SOL    HW230875   7.946   2.943   1.504
 6282SOL     OW30876   4.211   6.144   1.463
 6282SOL    HW130877   4.295   6.113   1.507
 6282SOL    HW230878   4.134   6.088   1.494
 6283SOL     OW30879   8.437   6.864   6.613
 6283SOL    HW130880   8.360   6.872   6.676
 6283SOL    HW230881   8.479   6.954   6.601
 6284SOL     OW30882   3.593   8.286   0.224
 6284SOL    HW130883   3.602   8.198   0.177
 6284SOL    HW230884   3.645   8.356   0.174
 6285SOL     OW30885   4.332   3.420   6.267
 6285SOL    HW130886   4.261   3.427   6.197
 6285SOL    HW230887   4.295   3.447   6.355
 6286SOL     OW30888   8.545   4.687   6.144
 6286SOL    HW130889   8.545   4.651   6.237
 6286SOL    HW230890   8.634   4.727   6.123
 6287SOL     OW30891   7.900   8.067   1.972
 6287SOL    HW130892   7.897   7.978   2.018
 6287SOL    HW230893   7.866   8.137   2.034
 6288SOL     OW30894   2.395   7.645   5.678
 6288SOL    HW130895   2.389   7.731   5.729
 6288SOL    HW230896   2.328   7.580   5.714
 6289SOL     OW30897   1.513   5.527   6.056
 6289SOL    HW130898   1.569   5.510   6.137
 6289SOL    HW230899   1.503   5.442   6.004
 6290SOL     OW30900   5.055   5.589   0.353
 6290SOL    HW130901   4.967   5.636   0.349
 6290SOL    HW230902   5.062   5.540   0.440
 6291SOL     OW30903   8.647   5.025   5.711
 6291SOL    HW130904   8.617   5.103   5.657
 6291SOL    HW230905   8.580   5.006   5.782
 6292SOL     OW30906   7.594   5.824   5.707
 6292SOL    HW130907   7.515   5.885   5.695
 6292SOL    HW230908   7.582   5.770   5.790
 6293SOL     OW30909   5.480   0.412   6.312
 6293SOL    HW130910   5.511   0.320   6.287
 6293SOL    HW230911   5.460   0.464   6.228
 6294SOL     OW30912   4.149   8.396   5.615
 6294SOL    HW130913   4.225   8.348   5.570
 6294SOL    HW230914   4.158   8.495   5.598
 6295SOL     OW30915   0.936   7.315   0.630
 6295SOL    HW130916   0.849   7.340   0.587
 6295SOL    HW230917   0.922   7.235   0.689
 6296SOL     OW30918   3.348   2.806   0.290
 6296SOL    HW130919   3.326   2.894   0.333
 6296SOL    HW230920   3.328   2.811   0.192
 6297SOL     OW30921   1.250   1.712   1.320
 6297SOL    HW130922   1.248   1.629   1.265
 6297SOL    HW230923   1.333   1.764   1.301
 6298SOL     OW30924   4.203   7.060   6.439
 6298SOL    HW130925   4.278   6.996   6.456
 6298SOL    HW230926   4.132   7.016   6.384
 6299SOL     OW30927   1.661   4.677   5.474
 6299SOL    HW130928   1.654   4.742   5.399
 6299SOL    HW230929   1.607   4.595   5.452
 6300SOL     OW30930   3.301   0.465   1.411
 6300SOL    HW130931   3.398   0.442   1.409
 6300SOL    HW230932   3.262   0.437   1.498
 6301SOL     OW30933   6.073   0.489   1.184
 6301SOL    HW130934   6.065   0.540   1.098
 6301SOL    HW230935   6.157   0.516   1.231
 6302SOL     OW30936   8.596   7.491   4.440
 6302SOL    HW130937   8.593   7.399   4.477
 6302SOL    HW230938   8.642   7.490   4.351
 6303SOL     OW30939   6.982   5.112   1.106
 6303SOL    HW130940   7.068   5.062   1.109
 6303SOL    HW230941   6.993   5.199   1.155
 6304SOL     OW30942   8.451   5.785   5.906
 6304SOL    HW130943   8.547   5.755   5.912
 6304SOL    HW230944   8.431   5.811   5.811
 6305SOL     OW30945   9.308   7.221   6.559
 6305SOL    HW130946   9.290   7.177   6.471
 6305SOL    HW230947   9.334   7.316   6.545
 6306SOL     OW30948   6.779   1.458   5.924
 6306SOL    HW130949   6.756   1.495   5.833
 6306SOL    HW230950   6.779   1.358   5.920
 6307SOL     OW30951   9.212   3.654   0.880
 6307SOL    HW130952   9.263   3.700   0.953
 6307SOL    HW230953   9.123   3.624   0.916
 6308SOL     OW30954   0.371   3.823   6.009
 6308SOL    HW130955   0.422   3.847   5.926
 6308SOL    HW230956   0.392   3.729   6.035
 6309SOL     OW30957   9.458   1.829   0.132
 6309SOL    HW130958   9.361   1.853   0.126
 6309SOL    HW230959   9.467   1.730   0.126
 6310SOL     OW30960   0.706   2.599   0.221
 6310SOL    HW130961   0.765   2.569   0.296
 6310SOL    HW230962   0.619   2.551   0.226
 6311SOL     OW30963   5.309   0.737   6.330
 6311SOL    HW130964   5.305   0.799   6.408
 6311SOL    HW230965   5.360   0.781   6.256
 6312SOL     OW30966   0.708   6.494   0.935
 6312SOL    HW130967   0.653   6.417   0.968
 6312SOL    HW230968   0.708   6.567   1.003
 6313SOL     OW30969   1.878   4.585   1.068
 6313SOL    HW130970   1.862   4.624   0.977
 6313SOL    HW230971   1.827   4.637   1.136
 6314SOL     OW30972   1.341   3.278   6.230
 6314SOL    HW130973   1.266   3.331   6.270
 6314SOL    HW230974   1.347   3.297   6.132
 6315SOL     OW30975   5.446   7.147   5.980
 6315SOL    HW130976   5.409   7.086   5.910
 6315SOL    HW230977   5.545   7.152   5.970
 6316SOL     OW30978   9.081   6.350   6.073
 6316SOL    HW130979   9.169   6.388   6.100
 6316SOL    HW230980   9.016   6.359   6.148
 6317SOL     OW30981   4.848   2.628   0.612
 6317SOL    HW130982   4.910   2.706   0.604
 6317SOL    HW230983   4.784   2.643   0.687
 6318SOL     OW30984   5.979   6.331   5.050
 6318SOL    HW130985   5.914   6.260   5.025
 6318SOL    HW230986   5.934   6.399   5.108
 6319SOL     OW30987   6.396   4.247   6.577
 6319SOL    HW130988   6.355   4.210   6.661
 6319SOL    HW230989   6.323   4.271   6.513
 6320SOL     OW30990   3.356   1.163   1.284
 6320SOL    HW130991   3.402   1.237   1.334
 6320SOL    HW230992   3.425   1.107   1.238
 6321SOL     OW30993   2.028   8.241   0.395
 6321SOL    HW130994   1.950   8.221   0.336
 6321SOL    HW230995   2.090   8.163   0.396
 6322SOL     OW30996   7.936   1.310   0.310
 6322SOL    HW130997   7.918   1.404   0.279
 6322SOL    HW230998   7.876   1.247   0.262
 6323SOL     OW30999   1.981   5.567   0.201
 6323SOL    HW131000   1.945   5.659   0.219
 6323SOL    HW231001   2.029   5.533   0.282
 6324SOL     OW31002   8.783   8.205   6.135
 6324SOL    HW131003   8.724   8.178   6.211
 6324SOL    HW231004   8.750   8.162   6.051
 6325SOL     OW31005   2.210   1.149   1.046
 6325SOL    HW131006   2.142   1.103   1.103
 6325SOL    HW231007   2.265   1.209   1.103
 6326SOL     OW31008   2.563   7.287   6.296
 6326SOL    HW131009   2.485   7.325   6.246
 6326SOL    HW231010   2.532   7.221   6.364
 6327SOL     OW31011   9.049   1.123   0.274
 6327SOL    HW131012   8.967   1.125   0.216
 6327SOL    HW231013   9.086   1.030   0.274
 6328SOL     OW31014   7.179   7.311   1.401
 6328SOL    HW131015   7.202   7.217   1.426
 6328SOL    HW231016   7.119   7.350   1.472
 6329SOL     OW31017   5.984   0.839   5.511
 6329SOL    HW131018   5.886   0.841   5.490
 6329SOL    HW231019   6.031   0.906   5.454
 6330SOL     OW31020   3.642   0.373   6.683
 6330SOL    HW131021   3.565   0.347   6.740
 6330SOL    HW231022   3.616   0.368   6.587
 6331SOL     OW31023   9.012   7.349   5.929
 6331SOL    HW131024   8.945   7.361   6.002
 6331SOL    HW231025   9.094   7.403   5.948
 6332SOL     OW31026   1.523   4.689   5.927
 6332SOL    HW131027   1.424   4.700   5.932
 6332SOL    HW231028   1.568   4.760   5.981
 6333SOL     OW31029   2.167   4.734   1.382
 6333SOL    HW131030   2.148   4.799   1.309
 6333SOL    HW231031   2.159   4.779   1.471
 6334SOL     OW31032   2.547   3.147   0.390
 6334SOL    HW131033   2.472   3.104   0.440
 6334SOL    HW231034   2.632   3.135   0.441
 6335SOL     OW31035   7.266   8.011   0.911
 6335SOL    HW131036   7.344   7.992   0.851
 6335SOL    HW231037   7.235   7.925   0.952
 6336SOL     OW31038   6.852   3.361   1.256
 6336SOL    HW131039   6.765   3.389   1.214
 6336SOL    HW231040   6.894   3.439   1.302
 6337SOL     OW31041   7.907   1.138   5.454
 6337SOL    HW131042   7.974   1.066   5.433
 6337SOL    HW231043   7.839   1.143   5.381
 6338SOL     OW31044   8.541   0.448   6.218
 6338SOL    HW131045   8.582   0.514   6.282
 6338SOL    HW231046   8.541   0.487   6.126
 6339SOL     OW31047   2.019   3.097   0.709
 6339SOL    HW131048   2.115   3.110   0.684
 6339SOL    HW231049   2.013   3.072   0.806
 6340SOL     OW31050   2.143   0.993   0.427
 6340SOL    HW131051   2.099   0.984   0.338
 6340SOL    HW231052   2.243   0.988   0.415
 6341SOL     OW31053   3.226   1.249   1.813
 6341SOL    HW131054   3.290   1.325   1.799
 6341SOL    HW231055   3.141   1.285   1.852
 6342SOL     OW31056   7.508   1.552   0.375
 6342SOL    HW131057   7.519   1.592   0.466
 6342SOL    HW231058   7.453   1.613   0.317
 6343SOL     OW31059   0.840   0.672   0.670
 6343SOL    HW131060   0.751   0.632   0.647
 6343SOL    HW231061   0.828   0.742   0.740
 6344SOL     OW31062   3.709   4.796   1.858
 6344SOL    HW131063   3.620   4.822   1.895
 6344SOL    HW231064   3.765   4.755   1.930
 6345SOL     OW31065   6.096   3.889   0.551
 6345SOL    HW131066   6.032   3.910   0.477
 6345SOL    HW231067   6.109   3.790   0.557
 6346SOL     OW31068   9.538   5.245   1.248
 6346SOL    HW131069   9.536   5.331   1.300
 6346SOL    HW231070   9.628   5.203   1.256
 6347SOL     OW31071   0.973   2.831   6.180
 6347SOL    HW131072   0.917   2.781   6.246
 6347SOL    HW231073   0.914   2.884   6.119
 6348SOL     OW31074   4.360   0.842   0.479
 6348SOL    HW131075   4.275   0.803   0.444
 6348SOL    HW231076   4.435   0.779   0.461
 6349SOL     OW31077   8.282   2.212   6.534
 6349SOL    HW131078   8.301   2.117   6.556
 6349SOL    HW231079   8.254   2.261   6.616
 6350SOL     OW31080   7.380   7.566   0.968
 6350SOL    HW131081   7.319   7.632   1.013
 6350SOL    HW231082   7.378   7.480   1.020
 6351SOL     OW31083   4.735   0.773   6.259
 6351SOL    HW131084   4.794   0.846   6.293
 6351SOL    HW231085   4.708   0.714   6.334
 6352SOL     OW31086   7.756   5.383   5.529
 6352SOL    HW131087   7.783   5.381   5.433
 6352SOL    HW231088   7.715   5.472   5.550
 6353SOL     OW31089   4.139   1.217   1.742
 6353SOL    HW131090   4.083   1.221   1.824
 6353SOL    HW231091   4.117   1.134   1.690
 6354SOL     OW31092   6.978   1.823   1.944
 6354SOL    HW131093   6.981   1.830   1.844
 6354SOL    HW231094   6.906   1.758   1.971
 6355SOL     OW31095   4.015   5.656   0.654
 6355SOL    HW131096   4.094   5.714   0.676
 6355SOL    HW231097   4.033   5.605   0.570
 6356SOL     OW31098   6.153   5.257   5.659
 6356SOL    HW131099   6.073   5.257   5.719
 6356SOL    HW231100   6.232   5.296   5.708
 6357SOL     OW31101   4.408   1.662   1.501
 6357SOL    HW131102   4.442   1.751   1.530
 6357SOL    HW231103   4.320   1.672   1.456
 6358SOL     OW31104   6.187   7.405   5.140
 6358SOL    HW131105   6.103   7.456   5.156
 6358SOL    HW231106   6.265   7.468   5.141
 6359SOL     OW31107   4.927   5.964   5.715
 6359SOL    HW131108   4.951   5.922   5.627
 6359SOL    HW231109   4.829   5.987   5.714
 6360SOL     OW31110   8.944   6.608   6.642
 6360SOL    HW131111   8.845   6.612   6.627
 6360SOL    HW231112   8.991   6.613   6.554
 6361SOL     OW31113   6.419   6.879   5.561
 6361SOL    HW131114   6.514   6.866   5.590
 6361SOL    HW231115   6.371   6.791   5.562
 6362SOL     OW31116   5.774   3.246   0.854
 6362SOL    HW131117   5.778   3.166   0.915
 6362SOL    HW231118   5.703   3.308   0.886
 6363SOL     OW31119   7.161   2.257   1.849
 6363SOL    HW131120   7.175   2.160   1.829
 6363SOL    HW231121   7.082   2.267   1.910
 6364SOL     OW31122   0.654   7.304   0.241
 6364SOL    HW131123   0.558   7.322   0.222
 6364SOL    HW231124   0.671   7.313   0.339
 6365SOL     OW31125   0.913   5.125   4.919
 6365SOL    HW131126   0.926   5.207   4.863
 6365SOL    HW231127   0.904   5.045   4.860
 6366SOL     OW31128   4.138   4.365   0.177
 6366SOL    HW131129   4.167   4.283   0.227
 6366SOL    HW231130   4.176   4.364   0.085
 6367SOL     OW31131   1.153   7.555   4.180
 6367SOL    HW131132   1.231   7.550   4.118
 6367SOL    HW231133   1.103   7.640   4.165
 6368SOL     OW31134   7.503   0.041   6.160
 6368SOL    HW131135   7.518   0.032   6.259
 6368SOL    HW231136   7.428  -0.020   6.132
 6369SOL     OW31137   3.090   1.085   5.856
 6369SOL    HW131138   3.140   1.036   5.784
 6369SOL    HW231139   3.048   1.020   5.918
 6370SOL     OW31140   6.627   1.321   0.490
 6370SOL    HW131141   6.684   1.363   0.561
 6370SOL    HW231142   6.531   1.330   0.516
 6371SOL     OW31143   2.194   5.459   6.485
 6371SOL    HW131144   2.134   5.450   6.564
 6371SOL    HW231145   2.286   5.483   6.515
 6372SOL     OW31146   4.429   7.469   1.632
 6372SOL    HW131147   4.443   7.371   1.644
 6372SOL    HW231148   4.512   7.519   1.659
 6373SOL     OW31149   3.921   5.393   0.235
 6373SOL    HW131150   3.956   5.410   0.143
 6373SOL    HW231151   3.838   5.447   0.250
 6374SOL     OW31152   6.610   8.346   0.905
 6374SOL    HW131153   6.651   8.258   0.881
 6374SOL    HW231154   6.530   8.362   0.848
 6375SOL     OW31155   1.170   7.804   5.584
 6375SOL    HW131156   1.095   7.784   5.647
 6375SOL    HW231157   1.136   7.804   5.490
 6376SOL     OW31158   1.716   0.412   0.521
 6376SOL    HW131159   1.764   0.500   0.515
 6376SOL    HW231160   1.620   0.428   0.545
 6377SOL     OW31161   3.779   4.081   1.867
 6377SOL    HW131162   3.798   4.109   1.961
 6377SOL    HW231163   3.688   4.113   1.841
 6378SOL     OW31164   9.272   5.463   0.603
 6378SOL    HW131165   9.330   5.382   0.596
 6378SOL    HW231166   9.282   5.503   0.695
 6379SOL     OW31167   0.390   0.894   1.415
 6379SOL    HW131168   0.293   0.915   1.398
 6379SOL    HW231169   0.398   0.840   1.499
 6380SOL     OW31170   9.137   1.785   0.905
 6380SOL    HW131171   9.062   1.831   0.857
 6380SOL    HW231172   9.135   1.810   1.002
 6381SOL     OW31173   1.885   4.822   4.729
 6381SOL    HW131174   1.844   4.857   4.645
 6381SOL    HW231175   1.835   4.742   4.760
 6382SOL     OW31176   2.491   7.569   1.299
 6382SOL    HW131177   2.410   7.555   1.241
 6382SOL    HW231178   2.463   7.612   1.385
 6383SOL     OW31179   6.970   7.080   6.110
 6383SOL    HW131180   6.893   7.099   6.049
 6383SOL    HW231181   7.045   7.142   6.090
 6384SOL     OW31182   6.186   8.251   1.633
 6384SOL    HW131183   6.226   8.268   1.722
 6384SOL    HW231184   6.253   8.273   1.561
 6385SOL     OW31185   3.184   4.240   5.671
 6385SOL    HW131186   3.222   4.186   5.596
 6385SOL    HW231187   3.232   4.218   5.756
 6386SOL     OW31188   3.006   1.707   6.507
 6386SOL    HW131189   2.975   1.620   6.545
 6386SOL    HW231190   2.941   1.737   6.436
 6387SOL     OW31191   3.115   6.864   6.484
 6387SOL    HW131192   3.056   6.942   6.502
 6387SOL    HW231193   3.199   6.896   6.440
 6388SOL     OW31194   4.470   4.099   6.361
 6388SOL    HW131195   4.455   4.115   6.263
 6388SOL    HW231196   4.542   4.160   6.394
 6389SOL     OW31197   4.736   1.771   0.173
 6389SOL    HW131198   4.734   1.787   0.272
 6389SOL    HW231199   4.670   1.831   0.128
 6390SOL     OW31200   0.187   6.142   0.205
 6390SOL    HW131201   0.256   6.071   0.217
 6390SOL    HW231202   0.119   6.112   0.138
 6391SOL     OW31203   7.040   6.980   5.616
 6391SOL    HW131204   7.072   7.052   5.677
 6391SOL    HW231205   7.119   6.931   5.578
 6392SOL     OW31206   5.913   7.725   1.344
 6392SOL    HW131207   5.944   7.696   1.434
 6392SOL    HW231208   5.932   7.822   1.332
 6393SOL     OW31209   7.486   4.856   1.021
 6393SOL    HW131210   7.412   4.898   0.968
 6393SOL    HW231211   7.514   4.919   1.093
 6394SOL     OW31212   6.610   5.790   0.778
 6394SOL    HW131213   6.555   5.840   0.845
 6394SOL    HW231214   6.643   5.854   0.709
 6395SOL     OW31215   4.172   0.183   6.261
 6395SOL    HW131216   4.195   0.114   6.331
 6395SOL    HW231217   4.224   0.165   6.178
 6396SOL     OW31218   0.622   3.364   0.530
 6396SOL    HW131219   0.606   3.454   0.489
 6396SOL    HW231220   0.536   3.330   0.568
 6397SOL     OW31221   0.234   1.341   5.983
 6397SOL    HW131222   0.294   1.341   5.903
 6397SOL    HW231223   0.254   1.422   6.039
 6398SOL     OW31224   4.032   3.894   6.561
 6398SOL    HW131225   4.006   3.971   6.619
 6398SOL    HW231226   4.117   3.854   6.595
 6399SOL     OW31227   5.080   4.288   0.607
 6399SOL    HW131228   5.021   4.352   0.558
 6399SOL    HW231229   5.125   4.335   0.683
 6400SOL     OW31230   7.170   3.439   0.609
 6400SOL    HW131231   7.193   3.366   0.673
 6400SOL    HW231232   7.253   3.488   0.582
 6401SOL     OW31233   4.618   6.101   6.052
 6401SOL    HW131234   4.581   6.095   6.145
 6401SOL    HW231235   4.708   6.058   6.048
 6402SOL     OW31236   8.208   2.163   1.073
 6402SOL    HW131237   8.296   2.204   1.052
 6402SOL    HW231238   8.138   2.234   1.081
 6403SOL     OW31239   0.880   3.363   0.676
 6403SOL    HW131240   0.950   3.387   0.609
 6403SOL    HW231241   0.790   3.384   0.640
 6404SOL     OW31242   2.336   0.151   5.943
 6404SOL    HW131243   2.257   0.123   5.887
 6404SOL    HW231244   2.328   0.248   5.966
 6405SOL     OW31245   3.179   7.769   6.077
 6405SOL    HW131246   3.088   7.791   6.043
 6405SOL    HW231247   3.245   7.834   6.038
 6406SOL     OW31248   4.222   6.840   0.513
 6406SOL    HW131249   4.172   6.823   0.429
 6406SOL    HW231250   4.203   6.767   0.579
 6407SOL     OW31251   1.482   2.641   0.271
 6407SOL    HW131252   1.565   2.644   0.325
 6407SOL    HW231253   1.432   2.556   0.290
 6408SOL     OW31254   3.141   3.630   5.769
 6408SOL    HW131255   3.160   3.550   5.712
 6408SOL    HW231256   3.132   3.711   5.712
 6409SOL     OW31257   2.253   1.496   6.444
 6409SOL    HW131258   2.242   1.462   6.350
 6409SOL    HW231259   2.167   1.487   6.493
 6410SOL     OW31260   1.820   4.213   6.058
 6410SOL    HW131261   1.734   4.236   6.013
 6410SOL    HW231262   1.884   4.289   6.050
 6411SOL     OW31263   4.944   7.193   0.543
 6411SOL    HW131264   5.041   7.214   0.532
 6411SOL    HW231265   4.922   7.184   0.640
 6412SOL     OW31266   1.680   7.209   1.296
 6412SOL    HW131267   1.637   7.135   1.347
 6412SOL    HW231268   1.618   7.287   1.292
 6413SOL     OW31269   7.150   6.998   0.184
 6413SOL    HW131270   7.223   6.931   0.172
 6413SOL    HW231271   7.181   7.072   0.243
 6414SOL     OW31272   9.596   8.023   4.990
 6414SOL    HW131273   9.689   8.018   5.026
 6414SOL    HW231274   9.583   8.112   4.946
 6415SOL     OW31275   0.146   6.476   5.542
 6415SOL    HW131276   0.130   6.557   5.597
 6415SOL    HW231277   0.128   6.394   5.596
 6416SOL     OW31278   8.801   3.794   5.793
 6416SOL    HW131279   8.722   3.826   5.741
 6416SOL    HW231280   8.868   3.753   5.731
 6417SOL     OW31281   5.904   8.400   1.928
 6417SOL    HW131282   5.835   8.330   1.945
 6417SOL    HW231283   5.922   8.450   2.013
 6418SOL     OW31284   7.346   0.278   1.349
 6418SOL    HW131285   7.389   0.197   1.389
 6418SOL    HW231286   7.254   0.290   1.389
 6419SOL     OW31287   6.593   2.700   6.412
 6419SOL    HW131288   6.561   2.746   6.329
 6419SOL    HW231289   6.663   2.757   6.457
 6420SOL     OW31290   2.080   3.664   6.071
 6420SOL    HW131291   2.018   3.632   5.999
 6420SOL    HW231292   2.043   3.640   6.161
 6421SOL     OW31293   6.252   6.051   6.746
 6421SOL    HW131294   6.171   5.994   6.754
 6421SOL    HW231295   6.302   6.026   6.662
 6422SOL     OW31296   3.696   2.973   1.105
 6422SOL    HW131297   3.612   2.993   1.054
 6422SOL    HW231298   3.741   2.893   1.066
 6423SOL     OW31299   1.159   8.224   6.130
 6423SOL    HW131300   1.109   8.275   6.200
 6423SOL    HW231301   1.247   8.267   6.114
 6424SOL     OW31302   7.307   5.310   5.970
 6424SOL    HW131303   7.233   5.318   6.037
 6424SOL    HW231304   7.272   5.268   5.887
 6425SOL     OW31305   9.213   1.529   5.845
 6425SOL    HW131306   9.172   1.619   5.830
 6425SOL    HW231307   9.312   1.535   5.836
 6426SOL     OW31308   6.834   7.335   5.334
 6426SOL    HW131309   6.809   7.243   5.365
 6426SOL    HW231310   6.789   7.354   5.247
 6427SOL     OW31311   1.448   6.858   6.229
 6427SOL    HW131312   1.463   6.919   6.307
 6427SOL    HW231313   1.490   6.769   6.248
 6428SOL     OW31314   8.491   1.120   5.884
 6428SOL    HW131315   8.537   1.044   5.838
 6428SOL    HW231316   8.401   1.134   5.843
 6429SOL     OW31317   2.970   5.883   6.281
 6429SOL    HW131318   2.987   5.981   6.272
 6429SOL    HW231319   3.014   5.849   6.365
 6430SOL     OW31320   3.390   1.333   2.069
 6430SOL    HW131321   3.392   1.233   2.075
 6430SOL    HW231322   3.466   1.371   2.121
 6431SOL     OW31323   4.646   5.993   1.741
 6431SOL    HW131324   4.712   5.946   1.800
 6431SOL    HW231325   4.693   6.029   1.661
 6432SOL     OW31326   1.195   4.519   0.493
 6432SOL    HW131327   1.096   4.522   0.478
 6432SOL    HW231328   1.242   4.502   0.407
 6433SOL     OW31329   1.571   0.675   5.891
 6433SOL    HW131330   1.559   0.774   5.892
 6433SOL    HW231331   1.482   0.630   5.893
 6434SOL     OW31332   6.313   7.468   0.462
 6434SOL    HW131333   6.288   7.376   0.430
 6434SOL    HW231334   6.230   7.520   0.482
 6435SOL     OW31335   1.409   0.204   5.864
 6435SOL    HW131336   1.401   0.276   5.933
 6435SOL    HW231337   1.499   0.161   5.871
 6436SOL     OW31338   3.499   2.921   1.544
 6436SOL    HW131339   3.495   2.930   1.444
 6436SOL    HW231340   3.592   2.943   1.575
 6437SOL     OW31341   2.954   3.430   0.454
 6437SOL    HW131342   3.003   3.352   0.493
 6437SOL    HW231343   2.994   3.455   0.366
 6438SOL     OW31344   0.144   3.179   0.780
 6438SOL    HW131345   0.127   3.275   0.801
 6438SOL    HW231346   0.202   3.139   0.852
 6439SOL     OW31347   5.279   3.404   0.253
 6439SOL    HW131348   5.274   3.322   0.196
 6439SOL    HW231349   5.187   3.438   0.271
 6440SOL     OW31350   6.810   4.920   6.073
 6440SOL    HW131351   6.831   4.919   5.976
 6440SOL    HW231352   6.828   5.011   6.111
 6441SOL     OW31353   2.887   5.557   6.154
 6441SOL    HW131354   2.892   5.646   6.200
 6441SOL    HW231355   2.979   5.519   6.145
 6442SOL     OW31356   3.639   7.851   6.590
 6442SOL    HW131357   3.627   7.934   6.536
 6442SOL    HW231358   3.552   7.802   6.595
 6443SOL     OW31359   7.025   3.946   0.688
 6443SOL    HW131360   7.040   3.951   0.589
 6443SOL    HW231361   7.101   3.989   0.736
 6444SOL     OW31362   4.339   0.525   6.647
 6444SOL    HW131363   4.336   0.458   6.573
 6444SOL    HW231364   4.361   0.615   6.611
 6445SOL     OW31365   6.343   5.986   0.731
 6445SOL    HW131366   6.349   6.037   0.645
 6445SOL    HW231367   6.426   6.003   0.785
 6446SOL     OW31368   0.829   0.740   5.792
 6446SOL    HW131369   0.832   0.840   5.800
 6446SOL    HW231370   0.734   0.709   5.801
 6447SOL     OW31371   8.219   6.092   0.497
 6447SOL    HW131372   8.240   6.141   0.581
 6447SOL    HW231373   8.121   6.074   0.492
 6448SOL     OW31374   4.424   0.015   1.116
 6448SOL    HW131375   4.489  -0.050   1.154
 6448SOL    HW231376   4.333  -0.026   1.116
 6449SOL     OW31377   3.249   7.337   1.714
 6449SOL    HW131378   3.171   7.384   1.673
 6449SOL    HW231379   3.270   7.378   1.803
 6450SOL     OW31380   4.630   5.432   5.360
 6450SOL    HW131381   4.578   5.387   5.287
 6450SOL    HW231382   4.713   5.471   5.322
 6451SOL     OW31383   3.095   7.246   5.468
 6451SOL    HW131384   3.084   7.147   5.464
 6451SOL    HW231385   3.156   7.276   5.395
 6452SOL     OW31386   9.462   7.272   6.178
 6452SOL    HW131387   9.520   7.349   6.207
 6452SOL    HW231388   9.514   7.187   6.184
 6453SOL     OW31389   2.848   0.808   1.557
 6453SOL    HW131390   2.887   0.729   1.603
 6453SOL    HW231391   2.749   0.797   1.549
 6454SOL     OW31392   4.835   3.207   6.767
 6454SOL    HW131393   4.754   3.163   6.729
 6454SOL    HW231394   4.917   3.168   6.726
 6455SOL     OW31395   8.223   4.671   0.665
 6455SOL    HW131396   8.285   4.616   0.609
 6455SOL    HW231397   8.129   4.659   0.632
 6456SOL     OW31398   2.399   2.575   1.120
 6456SOL    HW131399   2.325   2.509   1.133
 6456SOL    HW231400   2.383   2.654   1.179
 6457SOL     OW31401   4.813   0.449   5.512
 6457SOL    HW131402   4.869   0.516   5.462
 6457SOL    HW231403   4.733   0.496   5.552
 6458SOL     OW31404   8.678   3.441   0.325
 6458SOL    HW131405   8.579   3.431   0.329
 6458SOL    HW231406   8.711   3.405   0.237
 6459SOL     OW31407   4.860   0.687   4.865
 6459SOL    HW131408   4.780   0.745   4.875
 6459SOL    HW231409   4.929   0.733   4.810
 6460SOL     OW31410   0.300   5.650   4.939
 6460SOL    HW131411   0.278   5.639   5.036
 6460SOL    HW231412   0.398   5.664   4.928
 6461SOL     OW31413   5.478   5.205   1.349
 6461SOL    HW131414   5.536   5.194   1.430
 6461SOL    HW231415   5.536   5.218   1.268
 6462SOL     OW31416   0.174   3.636   6.597
 6462SOL    HW131417   0.088   3.585   6.592
 6462SOL    HW231418   0.178   3.701   6.520
 6463SOL     OW31419   1.756   6.810   5.101
 6463SOL    HW131420   1.840   6.757   5.115
 6463SOL    HW231421   1.739   6.819   5.002
 6464SOL     OW31422   4.420   2.963   0.273
 6464SOL    HW131423   4.364   2.884   0.247
 6464SOL    HW231424   4.408   3.036   0.205
 6465SOL     OW31425   2.534   2.327   0.927
 6465SOL    HW131426   2.512   2.270   0.848
 6465SOL    HW231427   2.588   2.406   0.898
 6466SOL     OW31428   7.246   4.057   0.855
 6466SOL    HW131429   7.279   3.992   0.923
 6466SOL    HW231430   7.264   4.150   0.887
 6467SOL     OW31431   0.677   6.024   6.828
 6467SOL    HW131432   0.670   5.982   6.737
 6467SOL    HW231433   0.595   6.002   6.880
 6468SOL     OW31434   1.708   7.309   0.583
 6468SOL    HW131435   1.666   7.240   0.642
 6468SOL    HW231436   1.775   7.361   0.636
 6469SOL     OW31437   0.545   0.580   0.180
 6469SOL    HW131438   0.606   0.659   0.178
 6469SOL    HW231439   0.491   0.581   0.265
 6470SOL     OW31440   5.295   6.482   5.197
 6470SOL    HW131441   5.205   6.512   5.168
 6470SOL    HW231442   5.322   6.401   5.144
 6471SOL     OW31443   1.473   1.106   0.945
 6471SOL    HW131444   1.436   1.094   1.037
 6471SOL    HW231445   1.477   1.017   0.899
 6472SOL     OW31446   8.430   2.628   6.240
 6472SOL    HW131447   8.403   2.622   6.144
 6472SOL    HW231448   8.469   2.540   6.269
 6473SOL     OW31449   0.871   7.170   1.540
 6473SOL    HW131450   0.821   7.246   1.582
 6473SOL    HW231451   0.880   7.096   1.606
 6474SOL     OW31452   5.781   0.493   1.035
 6474SOL    HW131453   5.758   0.416   1.094
 6474SOL    HW231454   5.865   0.472   0.985
 6475SOL     OW31455   8.828   7.080   6.629
 6475SOL    HW131456   8.896   7.118   6.691
 6475SOL    HW231457   8.737   7.111   6.656
 6476SOL     OW31458   0.151   1.566   6.429
 6476SOL    HW131459   0.052   1.572   6.437
 6476SOL    HW231460   0.193   1.590   6.516
 6477SOL     OW31461   9.352   2.275   6.024
 6477SOL    HW131462   9.404   2.196   5.992
 6477SOL    HW231463   9.260   2.272   5.984
 6478SOL     OW31464   2.279   7.129   5.576
 6478SOL    HW131465   2.291   7.159   5.482
 6478SOL    HW231466   2.321   7.039   5.588
 6479SOL     OW31467   9.442   0.233   0.813
 6479SOL    HW131468   9.386   0.160   0.774
 6479SOL    HW231469   9.538   0.214   0.795
 6480SOL     OW31470   1.942   7.771   1.029
 6480SOL    HW131471   1.965   7.696   1.091
 6480SOL    HW231472   1.973   7.750   0.937
 6481SOL     OW31473   3.772   7.129   1.136
 6481SOL    HW131474   3.826   7.082   1.206
 6481SOL    HW231475   3.781   7.228   1.148
 6482SOL     OW31476   5.631   7.354   6.745
 6482SOL    HW131477   5.570   7.346   6.666
 6482SOL    HW231478   5.680   7.268   6.758
 6483SOL     OW31479   8.885   3.834   0.962
 6483SOL    HW131480   8.881   3.740   0.996
 6483SOL    HW231481   8.975   3.872   0.983
 6484SOL     OW31482   9.456   2.801   0.489
 6484SOL    HW131483   9.472   2.759   0.399
 6484SOL    HW231484   9.530   2.776   0.551
 6485SOL     OW31485   6.568   0.580   0.711
 6485SOL    HW131486   6.549   0.676   0.688
 6485SOL    HW231487   6.506   0.551   0.784
 6486SOL     OW31488   9.562   1.310   0.692
 6486SOL    HW131489   9.487   1.374   0.710
 6486SOL    HW231490   9.648   1.349   0.725
 6487SOL     OW31491   7.972   3.596   1.938
 6487SOL    HW131492   7.923   3.616   2.022
 6487SOL    HW231493   7.982   3.497   1.929
 6488SOL     OW31494   6.166   0.988   6.623
 6488SOL    HW131495   6.216   0.957   6.542
 6488SOL    HW231496   6.230   1.006   6.697
 6489SOL     OW31497   3.984   4.536   0.619
 6489SOL    HW131498   4.039   4.618   0.632
 6489SOL    HW231499   3.912   4.532   0.689
 6490SOL     OW31500   6.715   1.558   5.666
 6490SOL    HW131501   6.654   1.532   5.591
 6490SOL    HW231502   6.777   1.630   5.636
 6491SOL     OW31503   0.294   0.200   0.530
 6491SOL    HW131504   0.261   0.107   0.546
 6491SOL    HW231505   0.386   0.209   0.569
 6492SOL     OW31506   4.382   4.693   0.663
 6492SOL    HW131507   4.362   4.653   0.574
 6492SOL    HW231508   4.297   4.710   0.712
 6493SOL     OW31509   6.071   6.597   1.083
 6493SOL    HW131510   6.127   6.623   1.005
 6493SOL    HW231511   6.025   6.511   1.064
 6494SOL     OW31512   7.811   2.362   6.112
 6494SOL    HW131513   7.846   2.269   6.123
 6494SOL    HW231514   7.846   2.419   6.186
 6495SOL     OW31515   9.066   3.849   6.647
 6495SOL    HW131516   9.057   3.845   6.746
 6495SOL    HW231517   9.087   3.942   6.618
 6496SOL     OW31518   9.462   8.368   0.790
 6496SOL    HW131519   9.498   8.414   0.871
 6496SOL    HW231520   9.390   8.424   0.749
 6497SOL     OW31521   6.657   2.457   1.389
 6497SOL    HW131522   6.591   2.444   1.315
 6497SOL    HW231523   6.623   2.526   1.453
 6498SOL     OW31524   5.606   4.675   1.398
 6498SOL    HW131525   5.621   4.770   1.425
 6498SOL    HW231526   5.584   4.621   1.479
 6499SOL     OW31527   0.627   7.031   3.994
 6499SOL    HW131528   0.716   6.988   4.008
 6499SOL    HW231529   0.639   7.130   3.987
 6500SOL     OW31530   7.737   1.896   0.717
 6500SOL    HW131531   7.808   1.848   0.769
 6500SOL    HW231532   7.757   1.994   0.715
 6501SOL     OW31533   5.079   0.696   1.299
 6501SOL    HW131534   5.155   0.703   1.363
 6501SOL    HW231535   5.016   0.625   1.330
 6502SOL     OW31536   9.052   4.234   5.996
 6502SOL    HW131537   9.135   4.185   5.969
 6502SOL    HW231538   8.975   4.201   5.941
 6503SOL     OW31539   7.773   7.186   6.165
 6503SOL    HW131540   7.813   7.233   6.244
 6503SOL    HW231541   7.801   7.090   6.167
 6504SOL     OW31542   5.635   5.077   0.250
 6504SOL    HW131543   5.575   5.018   0.304
 6504SOL    HW231544   5.719   5.093   0.300
 6505SOL     OW31545   7.673   2.419   5.734
 6505SOL    HW131546   7.635   2.506   5.704
 6505SOL    HW231547   7.773   2.424   5.732
 6506SOL     OW31548   6.838   3.349   5.980
 6506SOL    HW131549   6.844   3.328   5.882
 6506SOL    HW231550   6.744   3.339   6.010
 6507SOL     OW31551   7.710   4.638   6.732
 6507SOL    HW131552   7.616   4.672   6.734
 6507SOL    HW231553   7.723   4.573   6.807
 6508SOL     OW31554   7.852   2.144   0.731
 6508SOL    HW131555   7.852   2.209   0.655
 6508SOL    HW231556   7.941   2.146   0.777
 6509SOL     OW31557   6.414   4.124   4.926
 6509SOL    HW131558   6.372   4.177   4.853
 6509SOL    HW231559   6.358   4.131   5.009
 6510SOL     OW31560   2.799   2.424   0.171
 6510SOL    HW131561   2.776   2.348   0.111
 6510SOL    HW231562   2.722   2.444   0.231
 6511SOL     OW31563   1.654   6.306   1.285
 6511SOL    HW131564   1.743   6.270   1.259
 6511SOL    HW231565   1.631   6.275   1.378
 6512SOL     OW31566   8.658   7.780   6.172
 6512SOL    HW131567   8.663   7.783   6.072
 6512SOL    HW231568   8.600   7.704   6.201
 6513SOL     OW31569   0.904   7.711   6.789
 6513SOL    HW131570   0.884   7.613   6.791
 6513SOL    HW231571   0.993   7.728   6.832
 6514SOL     OW31572   3.192   6.395   6.056
 6514SOL    HW131573   3.188   6.355   5.964
 6514SOL    HW231574   3.271   6.358   6.104
 6515SOL     OW31575   2.528   4.566   5.678
 6515SOL    HW131576   2.559   4.503   5.606
 6515SOL    HW231577   2.599   4.573   5.748
 6516SOL     OW31578   0.158   8.383   1.018
 6516SOL    HW131579   0.241   8.386   0.963
 6516SOL    HW231580   0.127   8.288   1.025
 6517SOL     OW31581   0.364   4.485   0.638
 6517SOL    HW131582   0.290   4.421   0.661
 6517SOL    HW231583   0.378   4.486   0.539
 6518SOL     OW31584   4.796   0.285   0.319
 6518SOL    HW131585   4.861   0.239   0.380
 6518SOL    HW231586   4.730   0.218   0.284
 6519SOL     OW31587   5.055   0.963   0.708
 6519SOL    HW131588   4.973   1.019   0.709
 6519SOL    HW231589   5.032   0.871   0.676
 6520SOL     OW31590   0.259   4.222   6.153
 6520SOL    HW131591   0.241   4.314   6.120
 6520SOL    HW231592   0.350   4.193   6.125
 6521SOL     OW31593   6.911   4.976   5.442
 6521SOL    HW131594   6.825   4.924   5.441
 6521SOL    HW231595   6.916   5.034   5.361
 6522SOL     OW31596   8.494   7.416   1.073
 6522SOL    HW131597   8.477   7.511   1.047
 6522SOL    HW231598   8.592   7.399   1.076
 6523SOL     OW31599   3.828   3.376   0.710
 6523SOL    HW131600   3.827   3.352   0.613
 6523SOL    HW231601   3.798   3.470   0.722
 6524SOL     OW31602   7.441   5.019   1.406
 6524SOL    HW131603   7.412   5.012   1.502
 6524SOL    HW231604   7.518   4.958   1.391
 6525SOL     OW31605   8.175   6.573   6.242
 6525SOL    HW131606   8.104   6.554   6.175
 6525SOL    HW231607   8.247   6.628   6.200
 6526SOL     OW31608   0.937   6.775   1.436
 6526SOL    HW131609   0.986   6.862   1.425
 6526SOL    HW231610   0.983   6.720   1.505
 6527SOL     OW31611   1.055   7.607   1.012
 6527SOL    HW131612   1.084   7.532   0.953
 6527SOL    HW231613   1.091   7.592   1.105
 6528SOL     OW31614   5.081   0.129   6.489
 6528SOL    HW131615   5.026   0.183   6.551
 6528SOL    HW231616   5.147   0.188   6.442
 6529SOL     OW31617   4.588   2.110   0.838
 6529SOL    HW131618   4.557   2.021   0.806
 6529SOL    HW231619   4.657   2.098   0.910
 6530SOL     OW31620   6.831   6.692   6.253
 6530SOL    HW131621   6.858   6.679   6.157
 6530SOL    HW231622   6.887   6.634   6.311
 6531SOL     OW31623   4.974   4.343   0.977
 6531SOL    HW131624   5.041   4.418   0.972
 6531SOL    HW231625   5.014   4.261   0.936
 6532SOL     OW31626   8.405   3.068   5.745
 6532SOL    HW131627   8.390   3.100   5.651
 6532SOL    HW231628   8.391   2.969   5.749
 6533SOL     OW31629   8.675   0.556   0.402
 6533SOL    HW131630   8.745   0.507   0.454
 6533SOL    HW231631   8.627   0.493   0.342
 6534SOL     OW31632   3.382   8.431   6.728
 6534SOL    HW131633   3.295   8.459   6.769
 6534SOL    HW231634   3.370   8.420   6.629
 6535SOL     OW31635   8.432   6.602   1.553
 6535SOL    HW131636   8.423   6.549   1.637
 6535SOL    HW231637   8.344   6.605   1.505
 6536SOL     OW31638   0.745   0.549   0.397
 6536SOL    HW131639   0.764   0.522   0.491
 6536SOL    HW231640   0.787   0.483   0.334
 6537SOL     OW31641   6.520   3.037   6.495
 6537SOL    HW131642   6.426   3.072   6.492
 6537SOL    HW231643   6.570   3.071   6.415
 6538SOL     OW31644   2.268   2.277   6.324
 6538SOL    HW131645   2.283   2.179   6.328
 6538SOL    HW231646   2.189   2.296   6.265
 6539SOL     OW31647   7.286   7.903   5.921
 6539SOL    HW131648   7.296   7.803   5.919
 6539SOL    HW231649   7.194   7.926   5.952
 6540SOL     OW31650   4.796   3.725   1.570
 6540SOL    HW131651   4.697   3.729   1.575
 6540SOL    HW231652   4.833   3.710   1.662
 6541SOL     OW31653   5.151   2.003   0.361
 6541SOL    HW131654   5.089   2.064   0.410
 6541SOL    HW231655   5.233   2.053   0.335
 6542SOL     OW31656   3.319   6.401   0.660
 6542SOL    HW131657   3.350   6.456   0.737
 6542SOL    HW231658   3.369   6.315   0.657
 6543SOL     OW31659   4.835   6.773   5.709
 6543SOL    HW131660   4.836   6.688   5.762
 6543SOL    HW231661   4.753   6.825   5.732
 6544SOL     OW31662   5.156   4.544   0.328
 6544SOL    HW131663   5.250   4.543   0.363
 6544SOL    HW231664   5.122   4.638   0.326
 6545SOL     OW31665   8.273   2.256   5.508
 6545SOL    HW131666   8.194   2.208   5.470
 6545SOL    HW231667   8.355   2.233   5.455
 6546SOL     OW31668   1.548   6.640   6.815
 6546SOL    HW131669   1.622   6.706   6.828
 6546SOL    HW231670   1.538   6.621   6.717
 6547SOL     OW31671   7.811   7.145   1.736
 6547SOL    HW131672   7.831   7.047   1.738
 6547SOL    HW231673   7.858   7.190   1.812
 6548SOL     OW31674   3.818   0.482   1.583
 6548SOL    HW131675   3.768   0.493   1.669
 6548SOL    HW231676   3.907   0.526   1.590
 6549SOL     OW31677   2.182   7.518   5.846
 6549SOL    HW131678   2.127   7.539   5.927
 6549SOL    HW231679   2.188   7.419   5.834
 6550SOL     OW31680   3.219   8.064   0.680
 6550SOL    HW131681   3.221   7.964   0.674
 6550SOL    HW231682   3.309   8.098   0.705
 6551SOL     OW31683   7.084   4.457   5.543
 6551SOL    HW131684   7.160   4.512   5.509
 6551SOL    HW231685   7.076   4.373   5.489
 6552SOL     OW31686   3.982   8.154   5.783
 6552SOL    HW131687   3.985   8.248   5.749
 6552SOL    HW231688   4.072   8.128   5.818
 6553SOL     OW31689   5.348   7.606   0.281
 6553SOL    HW131690   5.293   7.690   0.283
 6553SOL    HW231691   5.434   7.622   0.329
 6554SOL     OW31692   7.284   0.866   6.693
 6554SOL    HW131693   7.325   0.818   6.771
 6554SOL    HW231694   7.265   0.801   6.619
 6555SOL     OW31695   5.257   3.067   6.567
 6555SOL    HW131696   5.179   3.109   6.521
 6555SOL    HW231697   5.248   2.967   6.563
 6556SOL     OW31698   3.799   7.971   0.677
 6556SOL    HW131699   3.726   7.967   0.609
 6556SOL    HW231700   3.768   7.925   0.760
 6557SOL     OW31701   2.059   8.238   1.796
 6557SOL    HW131702   2.156   8.229   1.820
 6557SOL    HW231703   2.027   8.153   1.755
 6558SOL     OW31704   9.437   0.447   5.955
 6558SOL    HW131705   9.438   0.468   5.857
 6558SOL    HW231706   9.513   0.385   5.977
 6559SOL     OW31707   4.265   4.145   0.259
 6559SOL    HW131708   4.289   4.073   0.324
 6559SOL    HW231709   4.281   4.112   0.166
 6560SOL     OW31710   0.309   0.831   0.356
 6560SOL    HW131711   0.246   0.900   0.321
 6560SOL    HW231712   0.364   0.871   0.429
 6561SOL     OW31713   6.001   0.236   1.287
 6561SOL    HW131714   6.074   0.179   1.250
 6561SOL    HW231715   5.999   0.323   1.239
 6562SOL     OW31716   6.270   7.900   5.759
 6562SOL    HW131717   6.208   7.822   5.749
 6562SOL    HW231718   6.289   7.939   5.669
 6563SOL     OW31719   4.270   7.457   5.585
 6563SOL    HW131720   4.246   7.535   5.527
 6563SOL    HW231721   4.187   7.412   5.616
 6564SOL     OW31722   1.616   1.745   6.651
 6564SOL    HW131723   1.621   1.830   6.599
 6564SOL    HW231724   1.545   1.752   6.721
 6565SOL     OW31725   7.617   4.971   4.970
 6565SOL    HW131726   7.703   4.919   4.970
 6565SOL    HW231727   7.627   5.051   5.029
 6566SOL     OW31728   8.346   1.309   0.952
 6566SOL    HW131729   8.342   1.330   0.854
 6566SOL    HW231730   8.257   1.275   0.982
 6567SOL     OW31731   0.420   0.609   0.416
 6567SOL    HW131732   0.373   0.534   0.463
 6567SOL    HW231733   0.357   0.685   0.403
 6568SOL     OW31734   8.808   6.037   5.763
 6568SOL    HW131735   8.720   6.017   5.720
 6568SOL    HW231736   8.882   6.014   5.700
 6569SOL     OW31737   7.553  -0.055   6.792
 6569SOL    HW131738   7.528  -0.121   6.863
 6569SOL    HW231739   7.518   0.035   6.817
 6570SOL     OW31740   2.373   0.353   6.461
 6570SOL    HW131741   2.431   0.317   6.533
 6570SOL    HW231742   2.285   0.382   6.500
 6571SOL     OW31743   9.418   5.479   6.008
 6571SOL    HW131744   9.368   5.453   6.090
 6571SOL    HW231745   9.508   5.516   6.035
 6572SOL     OW31746   6.500   4.573   6.286
 6572SOL    HW131747   6.574   4.612   6.231
 6572SOL    HW231748   6.533   4.491   6.333
 6573SOL     OW31749   6.429   7.679   6.658
 6573SOL    HW131750   6.371   7.697   6.737
 6573SOL    HW231751   6.377   7.690   6.574
 6574SOL     OW31752   2.950   3.485   0.863
 6574SOL    HW131753   3.028   3.509   0.806
 6574SOL    HW231754   2.914   3.567   0.907
 6575SOL     OW31755   7.277   2.089   0.327
 6575SOL    HW131756   7.203   2.048   0.381
 6575SOL    HW231757   7.249   2.092   0.231
 6576SOL     OW31758   4.230   3.313   1.023
 6576SOL    HW131759   4.146   3.266   1.048
 6576SOL    HW231760   4.210   3.380   0.951
 6577SOL     OW31761   3.786   4.903   0.701
 6577SOL    HW131762   3.730   4.975   0.660
 6577SOL    HW231763   3.883   4.922   0.685
 6578SOL     OW31764   4.055   1.354   1.387
 6578SOL    HW131765   4.129   1.288   1.376
 6578SOL    HW231766   4.071   1.409   1.469
 6579SOL     OW31767   7.946   0.286   6.054
 6579SOL    HW131768   7.898   0.281   5.967
 6579SOL    HW231769   8.045   0.278   6.039
 6580SOL     OW31770   2.031   4.450   5.959
 6580SOL    HW131771   1.942   4.494   5.970
 6580SOL    HW231772   2.100   4.501   6.011
 6581SOL     OW31773   4.011   0.871   1.321
 6581SOL    HW131774   4.038   0.899   1.229
 6581SOL    HW231775   3.971   0.779   1.318
 6582SOL     OW31776   7.722   0.754   4.869
 6582SOL    HW131777   7.790   0.817   4.907
 6582SOL    HW231778   7.668   0.801   4.799
 6583SOL     OW31779   6.003   7.629   6.393
 6583SOL    HW131780   5.921   7.608   6.447
 6583SOL    HW231781   5.992   7.594   6.300
 6584SOL     OW31782   1.603   2.693   5.280
 6584SOL    HW131783   1.696   2.657   5.280
 6584SOL    HW231784   1.605   2.791   5.260
 6585SOL     OW31785   5.756   8.146   5.615
 6585SOL    HW131786   5.720   8.175   5.526
 6585SOL    HW231787   5.842   8.096   5.601
 6586SOL     OW31788   7.036   3.665   0.557
 6586SOL    HW131789   7.097   3.593   0.591
 6586SOL    HW231790   6.942   3.644   0.583
 6587SOL     OW31791   1.643   2.498   6.134
 6587SOL    HW131792   1.583   2.459   6.204
 6587SOL    HW231793   1.590   2.560   6.076
 6588SOL     OW31794   5.834   2.240   1.854
 6588SOL    HW131795   5.888   2.321   1.831
 6588SOL    HW231796   5.794   2.202   1.770
 6589SOL     OW31797   3.459   6.861   5.519
 6589SOL    HW131798   3.364   6.892   5.522
 6589SOL    HW231799   3.509   6.912   5.448
 6590SOL     OW31800   0.148   2.828   1.034
 6590SOL    HW131801   0.225   2.768   1.056
 6590SOL    HW231802   0.077   2.775   0.987
 6591SOL     OW31803   6.762   2.528   6.240
 6591SOL    HW131804   6.725   2.588   6.311
 6591SOL    HW231805   6.809   2.583   6.171
 6592SOL     OW31806   6.988   5.751   0.654
 6592SOL    HW131807   6.965   5.747   0.751
 6592SOL    HW231808   6.971   5.662   0.612
 6593SOL     OW31809   0.822   7.057   5.044
 6593SOL    HW131810   0.737   7.046   5.096
 6593SOL    HW231811   0.859   6.967   5.022
 6594SOL     OW31812   7.477   5.079   6.441
 6594SOL    HW131813   7.400   5.128   6.483
 6594SOL    HW231814   7.490   4.992   6.488
 6595SOL     OW31815   9.277   0.715   0.635
 6595SOL    HW131816   9.350   0.659   0.673
 6595SOL    HW231817   9.193   0.661   0.629
 6596SOL     OW31818   1.130   6.937   5.894
 6596SOL    HW131819   1.039   6.900   5.873
 6596SOL    HW231820   1.197   6.863   5.888
 6597SOL     OW31821   5.823   2.835   1.455
 6597SOL    HW131822   5.800   2.855   1.550
 6597SOL    HW231823   5.830   2.920   1.403
 6598SOL     OW31824   7.760   4.092   1.959
 6598SOL    HW131825   7.839   4.048   1.919
 6598SOL    HW231826   7.750   4.184   1.921
 6599SOL     OW31827   4.465   6.135   5.822
 6599SOL    HW131828   4.407   6.214   5.840
 6599SOL    HW231829   4.531   6.124   5.897
 6600SOL     OW31830   8.421   0.579   6.736
 6600SOL    HW131831   8.411   0.607   6.831
 6600SOL    HW231832   8.347   0.516   6.711
 6601SOL     OW31833   0.526   2.829   5.311
 6601SOL    HW131834   0.511   2.909   5.252
 6601SOL    HW231835   0.522   2.746   5.256
 6602SOL     OW31836   3.653   5.812   5.990
 6602SOL    HW131837   3.711   5.859   5.923
 6602SOL    HW231838   3.613   5.880   6.052
 6603SOL     OW31839   0.906   2.004   6.753
 6603SOL    HW131840   0.962   2.047   6.683
 6603SOL    HW231841   0.866   1.919   6.717
 6604SOL     OW31842   1.877   4.989   1.034
 6604SOL    HW131843   1.790   4.941   1.025
 6604SOL    HW231844   1.898   5.035   0.948
 6605SOL     OW31845   7.960   8.158   0.188
 6605SOL    HW131846   7.963   8.236   0.251
 6605SOL    HW231847   7.964   8.073   0.241
 6606SOL     OW31848   2.864   5.206   5.957
 6606SOL    HW131849   2.864   5.167   6.049
 6606SOL    HW231850   2.951   5.186   5.912
 6607SOL     OW31851   3.813   7.541   6.617
 6607SOL    HW131852   3.721   7.504   6.603
 6607SOL    HW231853   3.845   7.516   6.708
 6608SOL     OW31854   0.789   6.398   6.700
 6608SOL    HW131855   0.753   6.481   6.658
 6608SOL    HW231856   0.889   6.397   6.689
 6609SOL     OW31857   1.533   5.273   1.330
 6609SOL    HW131858   1.589   5.331   1.390
 6609SOL    HW231859   1.540   5.178   1.361
 6610SOL     OW31860   1.479   1.884   4.968
 6610SOL    HW131861   1.566   1.931   4.959
 6610SOL    HW231862   1.470   1.816   4.895
 6611SOL     OW31863   9.565   4.500   6.291
 6611SOL    HW131864   9.625   4.544   6.359
 6611SOL    HW231865   9.581   4.401   6.292
 6612SOL     OW31866   2.702   5.936   6.752
 6612SOL    HW131867   2.648   6.008   6.709
 6612SOL    HW231868   2.749   5.972   6.832
 6613SOL     OW31869   5.420   1.642   6.413
 6613SOL    HW131870   5.496   1.601   6.363
 6613SOL    HW231871   5.334   1.609   6.374
 6614SOL     OW31872   5.010   4.235   5.402
 6614SOL    HW131873   5.090   4.196   5.356
 6614SOL    HW231874   4.931   4.174   5.388
 6615SOL     OW31875   7.090   1.255   1.686
 6615SOL    HW131876   7.161   1.324   1.668
 6615SOL    HW231877   7.008   1.300   1.722
 6616SOL     OW31878   1.795   6.862   0.578
 6616SOL    HW131879   1.764   6.770   0.602
 6616SOL    HW231880   1.773   6.881   0.482
 6617SOL     OW31881   6.024   5.413   5.113
 6617SOL    HW131882   5.977   5.481   5.056
 6617SOL    HW231883   6.121   5.437   5.119
 6618SOL     OW31884   2.226   6.793   0.424
 6618SOL    HW131885   2.185   6.769   0.513
 6618SOL    HW231886   2.206   6.888   0.403
 6619SOL     OW31887   0.213   7.794   4.834
 6619SOL    HW131888   0.192   7.875   4.889
 6619SOL    HW231889   0.312   7.788   4.820
 6620SOL     OW31890   4.068   2.000   2.480
 6620SOL    HW131891   3.986   1.975   2.531
 6620SOL    HW231892   4.078   2.099   2.478
 6621SOL     OW31893   4.693   6.063   5.688
 6621SOL    HW131894   4.604   6.098   5.716
 6621SOL    HW231895   4.704   6.073   5.589
 6622SOL     OW31896   6.469  -0.033   6.854
 6622SOL    HW131897   6.401   0.019   6.802
 6622SOL    HW231898   6.463  -0.008   6.951
 6623SOL     OW31899   1.876   5.863   6.404
 6623SOL    HW131900   1.955   5.811   6.370
 6623SOL    HW231901   1.796   5.843   6.347
 6624SOL     OW31902   4.501   4.394   5.882
 6624SOL    HW131903   4.499   4.295   5.870
 6624SOL    HW231904   4.429   4.436   5.825
 6625SOL     OW31905   3.648   7.835   0.304
 6625SOL    HW131906   3.678   7.914   0.250
 6625SOL    HW231907   3.673   7.751   0.257
 6626SOL     OW31908   3.074   5.173   0.960
 6626SOL    HW131909   3.049   5.268   0.941
 6626SOL    HW231910   3.081   5.158   1.058
 6627SOL     OW31911   9.179   6.109   6.580
 6627SOL    HW131912   9.202   6.097   6.677
 6627SOL    HW231913   9.096   6.165   6.572
 6628SOL     OW31914   8.850   7.001   5.564
 6628SOL    HW131915   8.851   6.902   5.546
 6628SOL    HW231916   8.934   7.027   5.612
 6629SOL     OW31917   6.764   2.742   0.684
 6629SOL    HW131918   6.857   2.748   0.646
 6629SOL    HW231919   6.707   2.814   0.643
 6630SOL     OW31920   2.242   5.626   4.837
 6630SOL    HW131921   2.260   5.653   4.743
 6630SOL    HW231922   2.321   5.646   4.894
 6631SOL     OW31923   8.436   7.972   1.523
 6631SOL    HW131924   8.411   7.919   1.604
 6631SOL    HW231925   8.421   8.069   1.540
 6632SOL     OW31926   8.852   0.441   6.350
 6632SOL    HW131927   8.872   0.343   6.355
 6632SOL    HW231928   8.871   0.474   6.257
 6633SOL     OW31929   4.308   3.857   6.068
 6633SOL    HW131930   4.277   3.929   6.006
 6633SOL    HW231931   4.370   3.796   6.019
 6634SOL     OW31932   3.417   3.274   6.287
 6634SOL    HW131933   3.452   3.196   6.339
 6634SOL    HW231934   3.476   3.353   6.303
 6635SOL     OW31935   4.922   3.304   1.552
 6635SOL    HW131936   4.930   3.396   1.514
 6635SOL    HW231937   5.002   3.250   1.525
 6636SOL     OW31938   0.878   3.516   5.056
 6636SOL    HW131939   0.849   3.610   5.073
 6636SOL    HW231940   0.947   3.515   4.984
 6637SOL     OW31941   8.116   6.305   6.634
 6637SOL    HW131942   8.120   6.244   6.555
 6637SOL    HW231943   8.136   6.399   6.604
 6638SOL     OW31944   7.013   6.373   0.678
 6638SOL    HW131945   7.080   6.343   0.610
 6638SOL    HW231946   7.016   6.473   0.686
 6639SOL     OW31947   8.255   7.286   5.637
 6639SOL    HW131948   8.352   7.280   5.611
 6639SOL    HW231949   8.199   7.247   5.564
 6640SOL     OW31950   9.215   3.785   6.093
 6640SOL    HW131951   9.207   3.686   6.096
 6640SOL    HW231952   9.143   3.826   6.149
 6641SOL     OW31953   4.045   6.825   1.102
 6641SOL    HW131954   4.051   6.725   1.095
 6641SOL    HW231955   3.954   6.851   1.136
 6642SOL     OW31956   2.519   2.985   1.623
 6642SOL    HW131957   2.519   2.887   1.601
 6642SOL    HW231958   2.514   2.997   1.722
 6643SOL     OW31959   5.888   8.417   5.807
 6643SOL    HW131960   5.850   8.331   5.772
 6643SOL    HW231961   5.929   8.401   5.896
 6644SOL     OW31962   7.227   7.570   0.598
 6644SOL    HW131963   7.220   7.622   0.513
 6644SOL    HW231964   7.307   7.511   0.596
 6645SOL     OW31965   9.105   7.941   6.466
 6645SOL    HW131966   9.071   7.848   6.456
 6645SOL    HW231967   9.179   7.957   6.401
 6646SOL     OW31968   3.319   5.292   6.343
 6646SOL    HW131969   3.239   5.232   6.339
 6646SOL    HW231970   3.348   5.315   6.250
 6647SOL     OW31971   4.785   5.334   2.182
 6647SOL    HW131972   4.884   5.347   2.192
 6647SOL    HW231973   4.738   5.421   2.198
 6648SOL     OW31974   2.018   5.354   0.745
 6648SOL    HW131975   2.110   5.314   0.749
 6648SOL    HW231976   1.999   5.403   0.831
 6649SOL     OW31977   4.000   0.894   5.070
 6649SOL    HW131978   4.068   0.837   5.024
 6649SOL    HW231979   4.019   0.897   5.168
 6650SOL     OW31980   3.925   1.617   0.665
 6650SOL    HW131981   3.950   1.704   0.622
 6650SOL    HW231982   4.006   1.558   0.669
 6651SOL     OW31983   4.628   3.900   5.344
 6651SOL    HW131984   4.593   3.810   5.320
 6651SOL    HW231985   4.565   3.970   5.313
 6652SOL     OW31986   7.848   7.068   5.585
 6652SOL    HW131987   7.946   7.072   5.566
 6652SOL    HW231988   7.798   7.066   5.499
 6653SOL     OW31989   1.666   1.506   0.966
 6653SOL    HW131990   1.695   1.440   1.035
 6653SOL    HW231991   1.632   1.456   0.885
 6654SOL     OW31992   2.048   5.489   6.070
 6654SOL    HW131993   2.118   5.561   6.074
 6654SOL    HW231994   2.057   5.440   5.983
 6655SOL     OW31995   9.349   5.987   6.421
 6655SOL    HW131996   9.270   6.035   6.459
 6655SOL    HW231997   9.431   6.010   6.474
 6656SOL     OW31998   5.952   5.749   0.414
 6656SOL    HW131999   6.014   5.806   0.360
 6656SOL    HW232000   6.003   5.670   0.449
 6657SOL     OW32001   4.224   3.589   0.312
 6657SOL    HW132002   4.283   3.538   0.250
 6657SOL    HW232003   4.195   3.674   0.267
 6658SOL     OW32004   5.414   7.040   1.435
 6658SOL    HW132005   5.490   6.980   1.459
 6658SOL    HW232006   5.388   7.094   1.515
 6659SOL     OW32007   6.393   7.685   1.707
 6659SOL    HW132008   6.344   7.624   1.770
 6659SOL    HW232009   6.490   7.660   1.705
 6660SOL     OW32010   4.819   1.940   6.523
 6660SOL    HW132011   4.795   1.933   6.620
 6660SOL    HW232012   4.737   1.963   6.470
 6661SOL     OW32013   4.911   4.010   1.937
 6661SOL    HW132014   4.904   4.104   1.970
 6661SOL    HW232015   4.842   3.953   1.981
 6662SOL     OW32016   4.615   2.940   0.490
 6662SOL    HW132017   4.560   2.942   0.407
 6662SOL    HW232018   4.698   2.995   0.477
 6663SOL     OW32019   1.472   6.757   0.522
 6663SOL    HW132020   1.407   6.720   0.456
 6663SOL    HW232021   1.545   6.806   0.474
 6664SOL     OW32022   6.274   2.923   5.774
 6664SOL    HW132023   6.331   2.852   5.733
 6664SOL    HW232024   6.190   2.934   5.720
 6665SOL     OW32025   2.893   4.991   0.871
 6665SOL    HW132026   2.891   4.899   0.912
 6665SOL    HW232027   2.961   5.046   0.918
 6666SOL     OW32028   1.322   2.199   6.444
 6666SOL    HW132029   1.261   2.153   6.379
 6666SOL    HW232030   1.298   2.171   6.537
 6667SOL     OW32031   2.323   0.885   6.521
 6667SOL    HW132032   2.288   0.899   6.613
 6667SOL    HW232033   2.379   0.802   6.518
 6668SOL     OW32034   3.845   6.143   1.325
 6668SOL    HW132035   3.755   6.181   1.306
 6668SOL    HW232036   3.848   6.048   1.295
 6669SOL     OW32037   1.472   6.004   6.364
 6669SOL    HW132038   1.399   6.001   6.432
 6669SOL    HW232039   1.478   5.915   6.318
 6670SOL     OW32040   3.755   4.175   5.711
 6670SOL    HW132041   3.676   4.234   5.720
 6670SOL    HW232042   3.834   4.228   5.679
 6671SOL     OW32043   4.157   6.690   6.435
 6671SOL    HW132044   4.131   6.755   6.364
 6671SOL    HW232045   4.114   6.716   6.521
 6672SOL     OW32046   3.714   3.702   1.632
 6672SOL    HW132047   3.759   3.685   1.720
 6672SOL    HW232048   3.646   3.774   1.642
 6673SOL     OW32049   3.907   0.503   5.863
 6673SOL    HW132050   3.891   0.519   5.960
 6673SOL    HW232051   3.932   0.589   5.818
 6674SOL     OW32052   5.766   6.803   6.419
 6674SOL    HW132053   5.793   6.759   6.334
 6674SOL    HW232054   5.708   6.882   6.399
 6675SOL     OW32055   3.758   7.977   5.815
 6675SOL    HW132056   3.839   8.035   5.805
 6675SOL    HW232057   3.759   7.933   5.905
 6676SOL     OW32058   6.735   3.988   0.608
 6676SOL    HW132059   6.660   3.923   0.613
 6676SOL    HW232060   6.784   3.989   0.695
 6677SOL     OW32061   0.926   1.095   1.344
 6677SOL    HW132062   0.858   1.167   1.329
 6677SOL    HW232063   0.899   1.040   1.423
 6678SOL     OW32064   3.233   2.643   6.441
 6678SOL    HW132065   3.326   2.671   6.465
 6678SOL    HW232066   3.227   2.543   6.438
 6679SOL     OW32067   2.583   7.444   5.674
 6679SOL    HW132068   2.569   7.381   5.598
 6679SOL    HW232069   2.509   7.511   5.677
 6680SOL     OW32070   0.566   4.118   0.435
 6680SOL    HW132071   0.543   4.021   0.437
 6680SOL    HW232072   0.482   4.171   0.424
 6681SOL     OW32073   0.668   1.323   0.979
 6681SOL    HW132074   0.651   1.391   1.051
 6681SOL    HW232075   0.693   1.236   1.020
 6682SOL     OW32076   9.114   2.214   5.894
 6682SOL    HW132077   9.138   2.150   5.821
 6682SOL    HW232078   9.016   2.234   5.890
 6683SOL     OW32079   7.834   3.891   6.183
 6683SOL    HW132080   7.845   3.807   6.235
 6683SOL    HW232081   7.810   3.966   6.245
 6684SOL     OW32082   7.211   6.389   5.003
 6684SOL    HW132083   7.199   6.299   4.961
 6684SOL    HW232084   7.212   6.460   4.932
 6685SOL     OW32085   5.015   5.489   2.090
 6685SOL    HW132086   5.054   5.536   2.011
 6685SOL    HW232087   5.034   5.391   2.082
 6686SOL     OW32088   2.307   2.838   0.814
 6686SOL    HW132089   2.387   2.863   0.869
 6686SOL    HW232090   2.227   2.888   0.848
 6687SOL     OW32091   6.376   1.144   6.765
 6687SOL    HW132092   6.451   1.093   6.807
 6687SOL    HW232093   6.373   1.236   6.803
 6688SOL     OW32094   2.479   7.877   6.299
 6688SOL    HW132095   2.453   7.913   6.389
 6688SOL    HW232096   2.477   7.952   6.233
 6689SOL     OW32097   5.135   3.826   6.063
 6689SOL    HW132098   5.198   3.769   6.116
 6689SOL    HW232099   5.174   3.846   5.973
 6690SOL     OW32100   1.367   1.236   6.333
 6690SOL    HW132101   1.349   1.153   6.280
 6690SOL    HW232102   1.435   1.292   6.286
 6691SOL     OW32103   3.280   0.494   6.636
 6691SOL    HW132104   3.314   0.425   6.699
 6691SOL    HW232105   3.246   0.573   6.688
 6692SOL     OW32106   2.125   2.464   1.156
 6692SOL    HW132107   2.078   2.421   1.078
 6692SOL    HW232108   2.069   2.538   1.192
 6693SOL     OW32109   3.022   2.838   0.459
 6693SOL    HW132110   3.040   2.870   0.366
 6693SOL    HW232111   3.094   2.871   0.520
 6694SOL     OW32112   5.920   3.842   5.538
 6694SOL    HW132113   5.822   3.819   5.540
 6694SOL    HW232114   5.969   3.787   5.605
 6695SOL     OW32115   3.705   5.198   5.484
 6695SOL    HW132116   3.636   5.126   5.484
 6695SOL    HW232117   3.742   5.209   5.576
 6696SOL     OW32118   7.999   4.468   6.129
 6696SOL    HW132119   7.944   4.541   6.089
 6696SOL    HW232120   8.085   4.461   6.080
 6697SOL     OW32121   8.251   5.647   6.007
 6697SOL    HW132122   8.179   5.713   6.029
 6697SOL    HW232123   8.333   5.697   5.979
 6698SOL     OW32124   1.905   1.089   0.261
 6698SOL    HW132125   1.972   1.147   0.214
 6698SOL    HW232126   1.883   1.127   0.350
 6699SOL     OW32127   2.761   0.854   6.029
 6699SOL    HW132128   2.831   0.840   5.958
 6699SOL    HW232129   2.749   0.770   6.081
 6700SOL     OW32130   7.802   3.779   1.115
 6700SOL    HW132131   7.723   3.804   1.171
 6700SOL    HW232132   7.818   3.849   1.046
 6701SOL     OW32133   7.924   8.137   6.659
 6701SOL    HW132134   7.913   8.164   6.755
 6701SOL    HW232135   7.842   8.088   6.629
 6702SOL     OW32136   5.995   7.383   0.224
 6702SOL    HW132137   5.989   7.304   0.286
 6702SOL    HW232138   5.904   7.421   0.210
 6703SOL     OW32139   3.396   5.768   1.440
 6703SOL    HW132140   3.468   5.803   1.500
 6703SOL    HW232141   3.395   5.668   1.445
 6704SOL     OW32142   4.667   2.252   5.798
 6704SOL    HW132143   4.757   2.210   5.798
 6704SOL    HW232144   4.657   2.312   5.718
 6705SOL     OW32145   0.400   6.779   5.204
 6705SOL    HW132146   0.473   6.717   5.174
 6705SOL    HW232147   0.357   6.821   5.124
 6706SOL     OW32148   5.608   5.912   5.753
 6706SOL    HW132149   5.622   6.007   5.781
 6706SOL    HW232150   5.545   5.910   5.675
 6707SOL     OW32151   1.463   3.182   1.227
 6707SOL    HW132152   1.557   3.161   1.253
 6707SOL    HW232153   1.407   3.195   1.309
 6708SOL     OW32154   7.670   0.172   0.400
 6708SOL    HW132155   7.746   0.236   0.405
 6708SOL    HW232156   7.589   0.212   0.443
 6709SOL     OW32157   7.397   4.070   0.593
 6709SOL    HW132158   7.346   4.033   0.514
 6709SOL    HW232159   7.338   4.069   0.674
 6710SOL     OW32160   9.164   2.170   0.998
 6710SOL    HW132161   9.261   2.182   0.976
 6710SOL    HW232162   9.154   2.098   1.066
 6711SOL     OW32163   4.835   2.256   1.199
 6711SOL    HW132164   4.809   2.277   1.293
 6711SOL    HW232165   4.791   2.321   1.137
 6712SOL     OW32166   5.402   0.037   0.969
 6712SOL    HW132167   5.399  -0.062   0.982
 6712SOL    HW232168   5.410   0.082   1.058
 6713SOL     OW32169   0.392   7.566   0.686
 6713SOL    HW132170   0.383   7.615   0.773
 6713SOL    HW232171   0.422   7.472   0.704
 6714SOL     OW32172   3.575   8.124   5.270
 6714SOL    HW132173   3.629   8.158   5.193
 6714SOL    HW232174   3.569   8.194   5.340
 6715SOL     OW32175   5.831   7.553   5.763
 6715SOL    HW132176   5.867   7.461   5.746
 6715SOL    HW232177   5.820   7.565   5.862
 6716SOL     OW32178   0.556   5.526   5.304
 6716SOL    HW132179   0.601   5.465   5.240
 6716SOL    HW232180   0.480   5.572   5.259
 6717SOL     OW32181   2.363   5.279   1.004
 6717SOL    HW132182   2.323   5.240   1.087
 6717SOL    HW232183   2.331   5.374   0.994
 6718SOL     OW32184   3.051   3.175   0.560
 6718SOL    HW132185   3.080   3.085   0.529
 6718SOL    HW232186   3.115   3.208   0.630
 6719SOL     OW32187   2.678   4.336   6.813
 6719SOL    HW132188   2.605   4.404   6.804
 6719SOL    HW232189   2.637   4.244   6.811
 6720SOL     OW32190   2.648   3.678   0.587
 6720SOL    HW132191   2.604   3.741   0.524
 6720SOL    HW232192   2.747   3.693   0.585
 6721SOL     OW32193   3.714   4.890   6.714
 6721SOL    HW132194   3.650   4.888   6.790
 6721SOL    HW232195   3.760   4.979   6.711
 6722SOL     OW32196   3.126   7.320   1.171
 6722SOL    HW132197   3.157   7.415   1.170
 6722SOL    HW232198   3.198   7.261   1.208
 6723SOL     OW32199   0.244   2.902   5.772
 6723SOL    HW132200   0.314   2.880   5.704
 6723SOL    HW232201   0.215   2.997   5.761
 6724SOL     OW32202   3.566   6.342   1.774
 6724SOL    HW132203   3.518   6.291   1.845
 6724SOL    HW232204   3.499   6.395   1.721
 6725SOL     OW32205   0.888   2.044   6.309
 6725SOL    HW132206   0.812   2.102   6.338
 6725SOL    HW232207   0.918   2.071   6.218
 6726SOL     OW32208   1.513   0.411   5.615
 6726SOL    HW132209   1.603   0.455   5.621
 6726SOL    HW232210   1.524   0.313   5.604
 6727SOL     OW32211   7.925   6.876   0.657
 6727SOL    HW132212   7.929   6.788   0.705
 6727SOL    HW232213   8.008   6.888   0.603
 6728SOL     OW32214   9.132   0.832   6.363
 6728SOL    HW132215   9.045   0.835   6.314
 6728SOL    HW232216   9.189   0.909   6.334
 6729SOL     OW32217   2.665   2.664   6.394
 6729SOL    HW132218   2.575   2.644   6.432
 6729SOL    HW232219   2.736   2.626   6.453
 6730SOL     OW32220   8.346   8.292   6.003
 6730SOL    HW132221   8.327   8.247   6.090
 6730SOL    HW232222   8.260   8.316   5.958
 6731SOL     OW32223   6.483   2.259   1.174
 6731SOL    HW132224   6.548   2.307   1.116
 6731SOL    HW232225   6.399   2.240   1.123
 6732SOL     OW32226   6.124   3.013   6.500
 6732SOL    HW132227   6.180   2.971   6.428
 6732SOL    HW232228   6.027   3.007   6.475
 6733SOL     OW32229   7.079   6.240   0.955
 6733SOL    HW132230   7.058   6.264   1.049
 6733SOL    HW232231   7.073   6.321   0.897
 6734SOL     OW32232   6.367   5.965   0.248
 6734SOL    HW132233   6.280   5.943   0.293
 6734SOL    HW232234   6.350   5.999   0.156
 6735SOL     OW32235   1.267   5.676   5.834
 6735SOL    HW132236   1.339   5.696   5.767
 6735SOL    HW232237   1.180   5.711   5.800
 6736SOL     OW32238   5.184   8.080   5.285
 6736SOL    HW132239   5.174   7.990   5.328
 6736SOL    HW232240   5.127   8.084   5.203
 6737SOL     OW32241   2.750   6.213   0.396
 6737SOL    HW132242   2.654   6.200   0.422
 6737SOL    HW232243   2.755   6.261   0.309
 6738SOL     OW32244   2.093   1.279   1.322
 6738SOL    HW132245   2.066   1.251   1.415
 6738SOL    HW232246   2.059   1.371   1.303
 6739SOL     OW32247   8.244   0.832   0.713
 6739SOL    HW132248   8.236   0.864   0.808
 6739SOL    HW232249   8.278   0.905   0.655
 6740SOL     OW32250   1.972   6.272   1.755
 6740SOL    HW132251   1.970   6.182   1.798
 6740SOL    HW232252   1.987   6.262   1.656
 6741SOL     OW32253   6.845   6.861   5.798
 6741SOL    HW132254   6.916   6.879   5.729
 6741SOL    HW232255   6.867   6.777   5.847
 6742SOL     OW32256   1.228   3.786   5.690
 6742SOL    HW132257   1.167   3.850   5.643
 6742SOL    HW232258   1.182   3.751   5.773
 6743SOL     OW32259   2.736   2.829   0.171
 6743SOL    HW132260   2.747   2.920   0.131
 6743SOL    HW232261   2.801   2.767   0.129
 6744SOL     OW32262   3.588   3.576   1.009
 6744SOL    HW132263   3.525   3.515   1.057
 6744SOL    HW232264   3.670   3.590   1.064
 6745SOL     OW32265   0.174   7.480   6.160
 6745SOL    HW132266   0.240   7.415   6.123
 6745SOL    HW232267   0.219   7.567   6.178
 6746SOL     OW32268   8.651   8.098   6.851
 6746SOL    HW132269   8.598   8.139   6.777
 6746SOL    HW232270   8.720   8.163   6.882
 6747SOL     OW32271   2.539   5.335   6.492
 6747SOL    HW132272   2.508   5.297   6.405
 6747SOL    HW232273   2.485   5.417   6.514
 6748SOL     OW32274   9.148   0.892   6.652
 6748SOL    HW132275   9.055   0.867   6.678
 6748SOL    HW232276   9.162   0.871   6.555
 6749SOL     OW32277   2.416   6.899   5.659
 6749SOL    HW132278   2.450   6.879   5.567
 6749SOL    HW232279   2.493   6.912   5.721
 6750SOL     OW32280   3.476   2.976   0.941
 6750SOL    HW132281   3.377   2.975   0.931
 6750SOL    HW232282   3.515   3.052   0.890
 6751SOL     OW32283   8.620   0.958   6.316
 6751SOL    HW132284   8.548   0.924   6.255
 6751SOL    HW232285   8.709   0.942   6.273
 6752SOL     OW32286   6.389   7.767   6.040
 6752SOL    HW132287   6.332   7.821   6.102
 6752SOL    HW232288   6.331   7.700   5.992
 6753SOL     OW32289   4.985   8.264   4.677
 6753SOL    HW132290   4.934   8.181   4.657
 6753SOL    HW232291   5.059   8.274   4.610
 6754SOL     OW32292   0.935   1.563   0.180
 6754SOL    HW132293   0.853   1.587   0.130
 6754SOL    HW232294   1.005   1.529   0.117
 6755SOL     OW32295   4.452   2.910   0.708
 6755SOL    HW132296   4.448   2.992   0.765
 6755SOL    HW232297   4.529   2.918   0.644
 6756SOL     OW32298   0.780   0.089   6.680
 6756SOL    HW132299   0.695   0.038   6.666
 6756SOL    HW232300   0.842   0.036   6.737
 6757SOL     OW32301   8.399   3.163   6.761
 6757SOL    HW132302   8.299   3.165   6.758
 6757SOL    HW232303   8.435   3.188   6.672
 6758SOL     OW32304   3.434   3.552   1.699
 6758SOL    HW132305   3.524   3.570   1.738
 6758SOL    HW232306   3.365   3.602   1.751
 6759SOL     OW32307   4.808   7.066   5.774
 6759SOL    HW132308   4.737   7.084   5.842
 6759SOL    HW232309   4.874   7.001   5.811
 6760SOL     OW32310   5.381   5.726   0.316
 6760SOL    HW132311   5.408   5.731   0.412
 6760SOL    HW232312   5.297   5.778   0.302
 6761SOL     OW32313   9.315   4.012   0.487
 6761SOL    HW132314   9.263   3.960   0.554
 6761SOL    HW232315   9.357   3.949   0.421
 6762SOL     OW32316   3.066   7.834   6.647
 6762SOL    HW132317   3.078   7.932   6.632
 6762SOL    HW232318   3.141   7.800   6.703
 6763SOL     OW32319   3.437   2.618   6.121
 6763SOL    HW132320   3.470   2.555   6.191
 6763SOL    HW232321   3.386   2.567   6.052
 6764SOL     OW32322   0.419   5.229   5.341
 6764SOL    HW132323   0.396   5.240   5.245
 6764SOL    HW232324   0.387   5.140   5.374
 6765SOL     OW32325   3.198   3.149   0.203
 6765SOL    HW132326   3.121   3.087   0.187
 6765SOL    HW232327   3.164   3.242   0.215
 6766SOL     OW32328   1.364   1.819   6.558
 6766SOL    HW132329   1.403   1.759   6.487
 6766SOL    HW232330   1.267   1.800   6.568
 6767SOL     OW32331   5.167   0.267   0.693
 6767SOL    HW132332   5.161   0.300   0.788
 6767SOL    HW232333   5.261   0.244   0.671
 6768SOL     OW32334   2.398   8.312   5.553
 6768SOL    HW132335   2.316   8.314   5.495
 6768SOL    HW232336   2.460   8.386   5.527
 6769SOL     OW32337   2.773   4.514   6.286
 6769SOL    HW132338   2.868   4.482   6.283
 6769SOL    HW232339   2.772   4.612   6.307
 6770SOL     OW32340   4.256   5.125   5.871
 6770SOL    HW132341   4.353   5.102   5.875
 6770SOL    HW232342   4.231   5.146   5.776
 6771SOL     OW32343   6.865   6.973   6.830
 6771SOL    HW132344   6.825   7.026   6.756
 6771SOL    HW232345   6.963   6.989   6.833
 6772SOL     OW32346   1.892   1.950   1.256
 6772SOL    HW132347   1.866   2.046   1.264
 6772SOL    HW232348   1.946   1.923   1.336
 6773SOL     OW32349   2.950   2.102   1.407
 6773SOL    HW132350   2.952   2.180   1.344
 6773SOL    HW232351   2.954   2.017   1.355
 6774SOL     OW32352   4.484   0.261   1.257
 6774SOL    HW132353   4.392   0.290   1.282
 6774SOL    HW232354   4.479   0.188   1.189
 6775SOL     OW32355   3.173   4.376   0.894
 6775SOL    HW132356   3.174   4.280   0.924
 6775SOL    HW232357   3.230   4.386   0.813
 6776SOL     OW32358   2.799   3.317   1.927
 6776SOL    HW132359   2.706   3.307   1.892
 6776SOL    HW232360   2.809   3.405   1.972
 6777SOL     OW32361   7.082   2.354   1.524
 6777SOL    HW132362   7.126   2.441   1.544
 6777SOL    HW232363   6.998   2.370   1.471
 6778SOL     OW32364   0.322   4.580   0.124
 6778SOL    HW132365   0.318   4.509   0.054
 6778SOL    HW232366   0.378   4.656   0.091
 6779SOL     OW32367   5.462   4.517   0.769
 6779SOL    HW132368   5.502   4.468   0.692
 6779SOL    HW232369   5.460   4.615   0.750
 6780SOL     OW32370   9.146   0.085   6.203
 6780SOL    HW132371   9.229   0.029   6.199
 6780SOL    HW232372   9.067   0.025   6.219
 6781SOL     OW32373   6.470   7.483   6.331
 6781SOL    HW132374   6.458   7.431   6.247
 6781SOL    HW232375   6.501   7.422   6.404
 6782SOL     OW32376   3.618   5.908   0.850
 6782SOL    HW132377   3.592   5.950   0.937
 6782SOL    HW232378   3.536   5.891   0.795
 6783SOL     OW32379   2.611   0.647   1.930
 6783SOL    HW132380   2.661   0.611   1.851
 6783SOL    HW232381   2.595   0.573   1.995
 6784SOL     OW32382   3.985   3.467   0.328
 6784SOL    HW132383   3.928   3.490   0.250
 6784SOL    HW232384   4.073   3.515   0.320
 6785SOL     OW32385   5.353   3.136   1.244
 6785SOL    HW132386   5.298   3.113   1.324
 6785SOL    HW232387   5.335   3.069   1.171
 6786SOL     OW32388   3.991   4.327   5.650
 6786SOL    HW132389   4.035   4.239   5.634
 6786SOL    HW232390   3.948   4.359   5.566
 6787SOL     OW32391   9.276   2.547   0.567
 6787SOL    HW132392   9.316   2.638   0.576
 6787SOL    HW232393   9.187   2.545   0.612
 6788SOL     OW32394   4.826   4.402   5.576
 6788SOL    HW132395   4.881   4.352   5.509
 6788SOL    HW232396   4.817   4.347   5.659
 6789SOL     OW32397   7.074   1.971   0.446
 6789SOL    HW132398   6.999   1.940   0.388
 6789SOL    HW232399   7.043   2.047   0.503
 6790SOL     OW32400   7.073   0.119   6.124
 6790SOL    HW132401   7.163   0.108   6.166
 6790SOL    HW232402   7.028   0.029   6.119
 6791SOL     OW32403   4.792   5.393   6.124
 6791SOL    HW132404   4.752   5.331   6.057
 6791SOL    HW232405   4.885   5.364   6.144
 6792SOL     OW32406   8.733   2.088   5.315
 6792SOL    HW132407   8.781   2.120   5.233
 6792SOL    HW232408   8.673   2.011   5.291
 6793SOL     OW32409   3.790   0.775   6.843
 6793SOL    HW132410   3.859   0.815   6.782
 6793SOL    HW232411   3.807   0.676   6.851
 6794SOL     OW32412   3.326   8.019   1.400
 6794SOL    HW132413   3.272   8.080   1.456
 6794SOL    HW232414   3.368   7.948   1.457
 6795SOL     OW32415   8.562   2.077   6.572
 6795SOL    HW132416   8.659   2.060   6.558
 6795SOL    HW232417   8.509   2.029   6.502
 6796SOL     OW32418   5.586   1.877   0.856
 6796SOL    HW132419   5.506   1.928   0.826
 6796SOL    HW232420   5.576   1.781   0.831
 6797SOL     OW32421   5.993   6.074   1.714
 6797SOL    HW132422   6.034   6.027   1.792
 6797SOL    HW232423   5.947   6.158   1.744
 6798SOL     OW32424   8.051   2.072   0.503
 6798SOL    HW132425   8.069   2.094   0.599
 6798SOL    HW232426   7.952   2.072   0.487
 6799SOL     OW32427   4.664   2.552   5.720
 6799SOL    HW132428   4.675   2.526   5.624
 6799SOL    HW232429   4.570   2.533   5.749
 6800SOL     OW32430   5.092   1.228   1.587
 6800SOL    HW132431   5.178   1.222   1.637
 6800SOL    HW232432   5.034   1.297   1.630
 6801SOL     OW32433   5.128   7.312   0.187
 6801SOL    HW132434   5.071   7.353   0.258
 6801SOL    HW232435   5.127   7.369   0.105
 6802SOL     OW32436   5.972   7.970   5.609
 6802SOL    HW132437   6.004   7.974   5.514
 6802SOL    HW232438   6.051   7.959   5.670
 6803SOL     OW32439   8.727   2.877   5.888
 6803SOL    HW132440   8.761   2.954   5.834
 6803SOL    HW232441   8.744   2.895   5.985
 6804SOL     OW32442   8.587   8.038   0.364
 6804SOL    HW132443   8.592   8.079   0.273
 6804SOL    HW232444   8.663   7.974   0.376
 6805SOL     OW32445   1.482   4.323   6.202
 6805SOL    HW132446   1.494   4.244   6.262
 6805SOL    HW232447   1.429   4.296   6.122
 6806SOL     OW32448   5.461   5.630   6.684
 6806SOL    HW132449   5.481   5.728   6.679
 6806SOL    HW232450   5.480   5.596   6.776
 6807SOL     OW32451   8.503   2.453   5.964
 6807SOL    HW132452   8.581   2.509   5.991
 6807SOL    HW232453   8.440   2.508   5.909
 6808SOL     OW32454   0.134   8.231   6.591
 6808SOL    HW132455   0.039   8.207   6.570
 6808SOL    HW232456   0.162   8.185   6.675
 6809SOL     OW32457   0.792   6.786   1.050
 6809SOL    HW132458   0.832   6.877   1.061
 6809SOL    HW232459   0.695   6.795   1.028
 6810SOL     OW32460   6.357   5.992   1.108
 6810SOL    HW132461   6.330   6.042   1.190
 6810SOL    HW232462   6.354   5.893   1.126
 6811SOL     OW32463   7.357   7.394   1.185
 6811SOL    HW132464   7.281   7.402   1.250
 6811SOL    HW232465   7.440   7.369   1.236
 6812SOL     OW32466   4.808   7.403   5.955
 6812SOL    HW132467   4.842   7.496   5.972
 6812SOL    HW232468   4.857   7.365   5.876
 6813SOL     OW32469   4.833   6.293   5.740
 6813SOL    HW132470   4.821   6.195   5.724
 6813SOL    HW232471   4.748   6.341   5.717
 6814SOL     OW32472   4.745   7.532   1.551
 6814SOL    HW132473   4.833   7.578   1.540
 6814SOL    HW232474   4.707   7.554   1.641
 6815SOL     OW32475   7.620   7.324   6.391
 6815SOL    HW132476   7.719   7.328   6.399
 6815SOL    HW232477   7.583   7.265   6.463
 6816SOL     OW32478   0.914   1.098   0.452
 6816SOL    HW132479   0.823   1.130   0.427
 6816SOL    HW232480   0.981   1.132   0.385
 6817SOL     OW32481   8.947   2.739   6.168
 6817SOL    HW132482   8.996   2.688   6.098
 6817SOL    HW232483   8.963   2.697   6.257
 6818SOL     OW32484   1.440   0.505   0.565
 6818SOL    HW132485   1.380   0.507   0.645
 6818SOL    HW232486   1.486   0.593   0.556
 6819SOL     OW32487   9.364   4.699   5.182
 6819SOL    HW132488   9.381   4.797   5.197
 6819SOL    HW232489   9.266   4.684   5.168
 6820SOL     OW32490   0.555   7.168   1.153
 6820SOL    HW132491   0.470   7.198   1.108
 6820SOL    HW232492   0.562   7.069   1.146
 6821SOL     OW32493   5.765   7.552   6.527
 6821SOL    HW132494   5.763   7.589   6.620
 6821SOL    HW232495   5.673   7.525   6.500
 6822SOL     OW32496   2.298   1.464   1.630
 6822SOL    HW132497   2.366   1.445   1.560
 6822SOL    HW232498   2.255   1.553   1.612
 6823SOL     OW32499   4.953   3.548   1.019
 6823SOL    HW132500   4.921   3.592   1.103
 6823SOL    HW232501   5.013   3.472   1.042
 6824SOL     OW32502   8.921   3.543   0.910
 6824SOL    HW132503   8.896   3.447   0.895
 6824SOL    HW232504   8.906   3.595   0.825
 6825SOL     OW32505   3.502   6.917   6.740
 6825SOL    HW132506   3.490   6.978   6.662
 6825SOL    HW232507   3.595   6.927   6.776
 6826SOL     OW32508   8.658   7.048   5.075
 6826SOL    HW132509   8.584   7.006   5.024
 6826SOL    HW232510   8.733   7.070   5.014
 6827SOL     OW32511   8.628   5.132   0.150
 6827SOL    HW132512   8.552   5.196   0.141
 6827SOL    HW232513   8.597   5.052   0.201
 6828SOL     OW32514   4.225   2.156   0.470
 6828SOL    HW132515   4.179   2.124   0.387
 6828SOL    HW232516   4.263   2.247   0.453
 6829SOL     OW32517   0.934   2.687   0.723
 6829SOL    HW132518   0.968   2.722   0.809
 6829SOL    HW232519   0.853   2.739   0.695
 6830SOL     OW32520   0.800   1.214   5.726
 6830SOL    HW132521   0.705   1.242   5.744
 6830SOL    HW232522   0.857   1.296   5.717
 6831SOL     OW32523   6.651   0.955   1.836
 6831SOL    HW132524   6.715   0.880   1.821
 6831SOL    HW232525   6.644   1.011   1.753
 6832SOL     OW32526   1.369   4.745   0.568
 6832SOL    HW132527   1.313   4.662   0.562
 6832SOL    HW232528   1.426   4.752   0.486
 6833SOL     OW32529   6.601   7.817   0.214
 6833SOL    HW132530   6.546   7.734   0.210
 6833SOL    HW232531   6.698   7.793   0.217
 6834SOL     OW32532   5.416   1.842   0.453
 6834SOL    HW132533   5.427   1.941   0.461
 6834SOL    HW232534   5.320   1.820   0.435
 6835SOL     OW32535   7.379   0.867   0.505
 6835SOL    HW132536   7.467   0.851   0.550
 6835SOL    HW232537   7.345   0.958   0.529
 6836SOL     OW32538   1.018   5.770   5.712
 6836SOL    HW132539   0.932   5.719   5.707
 6836SOL    HW232540   0.997   5.867   5.727
 6837SOL     OW32541   8.393   0.723   5.446
 6837SOL    HW132542   8.436   0.633   5.442
 6837SOL    HW232543   8.422   0.776   5.366
 6838SOL     OW32544   6.207   3.635   6.831
 6838SOL    HW132545   6.301   3.648   6.798
 6838SOL    HW232546   6.174   3.545   6.802
 6839SOL     OW32547   7.632   5.868   0.934
 6839SOL    HW132548   7.591   5.951   0.971
 6839SOL    HW232549   7.594   5.789   0.983
 6840SOL     OW32550   2.281   7.786   1.020
 6840SOL    HW132551   2.257   7.798   1.116
 6840SOL    HW232552   2.217   7.836   0.963
 6841SOL     OW32553   4.302   7.596   5.820
 6841SOL    HW132554   4.216   7.644   5.837
 6841SOL    HW232555   4.311   7.575   5.723
 6842SOL     OW32556   9.043   1.453   6.561
 6842SOL    HW132557   9.058   1.365   6.605
 6842SOL    HW232558   8.944   1.471   6.555
 6843SOL     OW32559   4.597   3.715   0.600
 6843SOL    HW132560   4.569   3.701   0.505
 6843SOL    HW232561   4.697   3.721   0.605
 6844SOL     OW32562   8.696   1.149   0.390
 6844SOL    HW132563   8.600   1.139   0.365
 6844SOL    HW232564   8.740   1.214   0.329
 6845SOL     OW32565   7.483   2.664   0.743
 6845SOL    HW132566   7.433   2.696   0.824
 6845SOL    HW232567   7.580   2.655   0.766
 6846SOL     OW32568   6.480   6.878   5.247
 6846SOL    HW132569   6.515   6.786   5.228
 6846SOL    HW232570   6.444   6.882   5.340
 6847SOL     OW32571   4.122   5.733   5.316
 6847SOL    HW132572   4.167   5.810   5.361
 6847SOL    HW232573   4.088   5.762   5.226
 6848SOL     OW32574   8.449   4.186   0.673
 6848SOL    HW132575   8.407   4.123   0.738
 6848SOL    HW232576   8.480   4.135   0.592
 6849SOL     OW32577   4.965   5.802   1.936
 6849SOL    HW132578   4.968   5.867   1.860
 6849SOL    HW232579   5.044   5.741   1.932
 6850SOL     OW32580   3.973   8.013   1.367
 6850SOL    HW132581   3.987   8.110   1.386
 6850SOL    HW232582   4.050   7.960   1.400
 6851SOL     OW32583   5.272   7.045   0.803
 6851SOL    HW132584   5.219   7.129   0.816
 6851SOL    HW232585   5.346   7.062   0.737
 6852SOL     OW32586   8.906   5.952   0.543
 6852SOL    HW132587   8.827   5.901   0.508
 6852SOL    HW232588   8.928   5.921   0.635
 6853SOL     OW32589   9.508   4.934   6.827
 6853SOL    HW132590   9.547   4.891   6.908
 6853SOL    HW232591   9.476   5.026   6.849
 6854SOL     OW32592   7.752   4.053   1.363
 6854SOL    HW132593   7.697   4.124   1.406
 6854SOL    HW232594   7.837   4.039   1.415
 6855SOL     OW32595   2.244   2.449   0.873
 6855SOL    HW132596   2.316   2.443   0.942
 6855SOL    HW232597   2.272   2.513   0.801
 6856SOL     OW32598   8.436   1.052   0.364
 6856SOL    HW132599   8.475   0.960   0.359
 6856SOL    HW232600   8.374   1.058   0.442
 6857SOL     OW32601   8.198   4.387   0.790
 6857SOL    HW132602   8.183   4.341   0.703
 6857SOL    HW232603   8.291   4.422   0.794
 6858SOL     OW32604   9.001   7.792   1.103
 6858SOL    HW132605   9.095   7.760   1.093
 6858SOL    HW232606   8.937   7.716   1.093
 6859SOL     OW32607   5.095   3.611   1.611
 6859SOL    HW132608   5.056   3.597   1.520
 6859SOL    HW232609   5.021   3.609   1.679
 6860SOL     OW32610   3.099   8.224   0.186
 6860SOL    HW132611   3.127   8.206   0.280
 6860SOL    HW232612   3.093   8.138   0.136
 6861SOL     OW32613   9.470   8.133   6.084
 6861SOL    HW132614   9.499   8.228   6.096
 6861SOL    HW232615   9.447   8.117   5.988
 6862SOL     OW32616   5.181   5.691   1.481
 6862SOL    HW132617   5.090   5.725   1.503
 6862SOL    HW232618   5.243   5.709   1.557
 6863SOL     OW32619   3.759   1.645   1.057
 6863SOL    HW132620   3.665   1.664   1.030
 6863SOL    HW232621   3.762   1.564   1.116
 6864SOL     OW32622   2.112   7.906   0.811
 6864SOL    HW132623   2.013   7.896   0.806
 6864SOL    HW232624   2.145   7.952   0.728
 6865SOL     OW32625   6.169   0.149   0.645
 6865SOL    HW132626   6.137   0.201   0.565
 6865SOL    HW232627   6.156   0.051   0.628
 6866SOL     OW32628   7.856   4.300   5.228
 6866SOL    HW132629   7.907   4.230   5.178
 6866SOL    HW232630   7.833   4.375   5.166
 6867SOL     OW32631   4.412   0.641   1.999
 6867SOL    HW132632   4.343   0.627   2.070
 6867SOL    HW232633   4.497   0.671   2.041
 6868SOL     OW32634   7.275   5.782   1.280
 6868SOL    HW132635   7.274   5.718   1.204
 6868SOL    HW232636   7.360   5.834   1.279
 6869SOL     OW32637   7.614   1.156   0.673
 6869SOL    HW132638   7.662   1.185   0.756
 6869SOL    HW232639   7.651   1.206   0.595
 6870SOL     OW32640   6.773   3.022   6.055
 6870SOL    HW132641   6.851   2.960   6.043
 6870SOL    HW232642   6.689   2.974   6.029
 6871SOL     OW32643   3.758   2.854   0.856
 6871SOL    HW132644   3.662   2.879   0.846
 6871SOL    HW232645   3.810   2.892   0.780
 6872SOL     OW32646   5.521   1.218   0.668
 6872SOL    HW132647   5.480   1.256   0.585
 6872SOL    HW232648   5.555   1.292   0.725
 6873SOL     OW32649   6.173   7.057   6.317
 6873SOL    HW132650   6.139   7.146   6.349
 6873SOL    HW232651   6.187   6.997   6.395
 6874SOL     OW32652   9.438   8.093   0.668
 6874SOL    HW132653   9.455   8.007   0.717
 6874SOL    HW232654   9.481   8.169   0.718
 6875SOL     OW32655   2.313   3.113   5.645
 6875SOL    HW132656   2.312   3.183   5.717
 6875SOL    HW232657   2.406   3.077   5.636
 6876SOL     OW32658   6.547   2.816   1.779
 6876SOL    HW132659   6.450   2.827   1.796
 6876SOL    HW232660   6.583   2.743   1.838
 6877SOL     OW32661   1.794   0.255   6.393
 6877SOL    HW132662   1.767   0.347   6.366
 6877SOL    HW232663   1.720   0.191   6.374
 6878SOL     OW32664   2.920   3.534   1.273
 6878SOL    HW132665   2.880   3.497   1.189
 6878SOL    HW232666   2.858   3.600   1.314
 6879SOL     OW32667   5.532  -0.040   0.631
 6879SOL    HW132668   5.452  -0.095   0.611
 6879SOL    HW232669   5.504   0.050   0.664
 6880SOL     OW32670   1.237   2.502   6.806
 6880SOL    HW132671   1.275   2.445   6.880
 6880SOL    HW232672   1.262   2.598   6.822
 6881SOL     OW32673   9.307   3.393   0.287
 6881SOL    HW132674   9.344   3.301   0.279
 6881SOL    HW232675   9.306   3.421   0.383
 6882SOL     OW32676   8.260   0.411   6.369
 6882SOL    HW132677   8.254   0.496   6.421
 6882SOL    HW232678   8.354   0.396   6.340
 6883SOL     OW32679   5.299   7.596   6.476
 6883SOL    HW132680   5.314   7.599   6.574
 6883SOL    HW232681   5.247   7.514   6.452
 6884SOL     OW32682   7.979   5.322   6.294
 6884SOL    HW132683   8.075   5.333   6.269
 6884SOL    HW232684   7.939   5.247   6.242
 6885SOL     OW32685   3.000   0.886   0.179
 6885SOL    HW132686   3.001   0.840   0.268
 6885SOL    HW232687   2.911   0.929   0.164
 6886SOL     OW32688   3.304   3.834   0.949
 6886SOL    HW132689   3.220   3.799   0.990
 6886SOL    HW232690   3.343   3.765   0.887
 6887SOL     OW32691   3.870   1.970   6.668
 6887SOL    HW132692   3.907   1.935   6.582
 6887SOL    HW232693   3.932   2.039   6.705
 6888SOL     OW32694   8.630   4.670   6.407
 6888SOL    HW132695   8.708   4.722   6.440
 6888SOL    HW232696   8.551   4.686   6.466
 6889SOL     OW32697   6.681   6.667   0.468
 6889SOL    HW132698   6.658   6.742   0.405
 6889SOL    HW232699   6.780   6.664   0.482
 6890SOL     OW32700   9.079   7.563   0.321
 6890SOL    HW132701   9.033   7.484   0.363
 6890SOL    HW232702   9.043   7.647   0.361
 6891SOL     OW32703   5.636   1.048   0.870
 6891SOL    HW132704   5.725   1.037   0.826
 6891SOL    HW232705   5.580   1.112   0.817
 6892SOL     OW32706   0.608   1.112   5.981
 6892SOL    HW132707   0.677   1.080   5.917
 6892SOL    HW232708   0.605   1.212   5.979
 6893SOL     OW32709   5.615   4.242   6.360
 6893SOL    HW132710   5.677   4.308   6.316
 6893SOL    HW232711   5.543   4.216   6.295
 6894SOL     OW32712   2.848   4.758   6.349
 6894SOL    HW132713   2.815   4.846   6.385
 6894SOL    HW232714   2.948   4.762   6.339
 6895SOL     OW32715   2.600   3.751   0.310
 6895SOL    HW132716   2.645   3.777   0.224
 6895SOL    HW232717   2.584   3.652   0.310
 6896SOL     OW32718   3.826   0.556   6.153
 6896SOL    HW132719   3.825   0.642   6.203
 6896SOL    HW232720   3.885   0.491   6.200
 6897SOL     OW32721   5.964   7.347   6.578
 6897SOL    HW132722   5.957   7.264   6.632
 6897SOL    HW232723   5.873   7.389   6.569
 6898SOL     OW32724   0.889   3.866   0.237
 6898SOL    HW132725   0.946   3.811   0.177
 6898SOL    HW232726   0.868   3.953   0.192
 6899SOL     OW32727   5.906   1.265   5.841
 6899SOL    HW132728   5.955   1.214   5.770
 6899SOL    HW232729   5.838   1.325   5.798
 6900SOL     OW32730   4.105   0.082   5.180
 6900SOL    HW132731   4.057  -0.006   5.175
 6900SOL    HW232732   4.098   0.129   5.091
 6901SOL     OW32733   9.464   8.074   0.258
 6901SOL    HW132734   9.454   8.153   0.319
 6901SOL    HW232735   9.466   7.990   0.313
 6902SOL     OW32736   4.259   0.428   0.915
 6902SOL    HW132737   4.189   0.431   0.987
 6902SOL    HW232738   4.290   0.334   0.903
 6903SOL     OW32739   8.739   1.308   5.027
 6903SOL    HW132740   8.799   1.384   5.051
 6903SOL    HW232741   8.696   1.326   4.938
 6904SOL     OW32742   7.572   1.472   1.200
 6904SOL    HW132743   7.488   1.493   1.149
 6904SOL    HW232744   7.581   1.373   1.211
 6905SOL     OW32745   4.895   3.389   5.955
 6905SOL    HW132746   4.880   3.326   5.878
 6905SOL    HW232747   4.993   3.401   5.968
 6906SOL     OW32748   6.068   4.708   6.751
 6906SOL    HW132749   6.093   4.753   6.837
 6906SOL    HW232750   6.070   4.609   6.763
 6907SOL     OW32751   5.284   1.154   6.358
 6907SOL    HW132752   5.258   1.108   6.273
 6907SOL    HW232753   5.253   1.101   6.436
 6908SOL     OW32754   9.504   5.822   5.409
 6908SOL    HW132755   9.575   5.848   5.345
 6908SOL    HW232756   9.432   5.892   5.409
 6909SOL     OW32757   4.339   3.856   6.352
 6909SOL    HW132758   4.307   3.855   6.257
 6909SOL    HW232759   4.395   3.937   6.367
 6910SOL     OW32760   2.014   7.505   1.108
 6910SOL    HW132761   1.983   7.412   1.127
 6910SOL    HW232762   2.093   7.526   1.166
 6911SOL     OW32763   5.295   2.855   1.196
 6911SOL    HW132764   5.319   2.758   1.185
 6911SOL    HW232765   5.197   2.863   1.213
 6912SOL     OW32766   8.084   7.713   1.194
 6912SOL    HW132767   8.072   7.731   1.291
 6912SOL    HW232768   8.063   7.617   1.175
 6913SOL     OW32769   3.145   3.251   6.305
 6913SOL    HW132770   3.099   3.293   6.227
 6913SOL    HW232771   3.243   3.272   6.302
 6914SOL     OW32772   2.447   0.658   6.544
 6914SOL    HW132773   2.442   0.636   6.641
 6914SOL    HW232774   2.415   0.579   6.491
 6915SOL     OW32775   4.701   3.949   6.268
 6915SOL    HW132776   4.778   3.910   6.318
 6915SOL    HW232777   4.634   3.986   6.333
 6916SOL     OW32778   9.558   5.763   5.843
 6916SOL    HW132779   9.555   5.701   5.922
 6916SOL    HW232780   9.542   5.711   5.759
 6917SOL     OW32781   3.559   0.870   5.514
 6917SOL    HW132782   3.486   0.923   5.557
 6917SOL    HW232783   3.539   0.860   5.416
 6918SOL     OW32784   6.903   8.155   0.164
 6918SOL    HW132785   6.884   8.127   0.258
 6918SOL    HW232786   6.825   8.206   0.128
 6919SOL     OW32787   5.950   2.652   5.922
 6919SOL    HW132788   5.999   2.673   5.837
 6919SOL    HW232789   5.899   2.732   5.952
 6920SOL     OW32790   7.924   6.128   0.645
 6920SOL    HW132791   7.881   6.141   0.555
 6920SOL    HW232792   7.854   6.134   0.716
 6921SOL     OW32793   4.190   6.031   0.521
 6921SOL    HW132794   4.153   6.099   0.458
 6921SOL    HW232795   4.166   5.939   0.489
 6922SOL     OW32796   9.273   5.341   6.838
 6922SOL    HW132797   9.262   5.439   6.825
 6922SOL    HW232798   9.183   5.297   6.839
 6923SOL     OW32799   4.713   2.245   6.836
 6923SOL    HW132800   4.706   2.312   6.910
 6923SOL    HW232801   4.769   2.168   6.867
 6924SOL     OW32802   9.593   6.722   5.687
 6924SOL    HW132803   9.603   6.819   5.664
 6924SOL    HW232804   9.640   6.703   5.773
 6925SOL     OW32805   6.219   2.759   6.612
 6925SOL    HW132806   6.150   2.808   6.560
 6925SOL    HW232807   6.176   2.687   6.666
 6926SOL     OW32808   8.263   1.888   1.654
 6926SOL    HW132809   8.351   1.910   1.696
 6926SOL    HW232810   8.278   1.841   1.567
 6927SOL     OW32811   3.453   0.444   6.200
 6927SOL    HW132812   3.457   0.431   6.300
 6927SOL    HW232813   3.485   0.535   6.176
 6928SOL     OW32814   1.576   6.604   6.210
 6928SOL    HW132815   1.517   6.549   6.269
 6928SOL    HW232816   1.668   6.563   6.208
 6929SOL     OW32817   4.527   5.757   1.522
 6929SOL    HW132818   4.592   5.768   1.447
 6929SOL    HW232819   4.468   5.678   1.504
 6930SOL     OW32820   4.177   2.595   5.946
 6930SOL    HW132821   4.189   2.694   5.944
 6930SOL    HW232822   4.087   2.573   5.983
 6931SOL     OW32823   0.884   2.097   0.567
 6931SOL    HW132824   0.793   2.064   0.593
 6931SOL    HW232825   0.890   2.195   0.587
 6932SOL     OW32826   9.559   3.368   6.704
 6932SOL    HW132827   9.592   3.355   6.798
 6932SOL    HW232828   9.630   3.414   6.651
 6933SOL     OW32829   0.687  -0.021   0.915
 6933SOL    HW132830   0.607  -0.076   0.890
 6933SOL    HW232831   0.657   0.068   0.949
 6934SOL     OW32832   2.666   6.734   4.878
 6934SOL    HW132833   2.765   6.729   4.867
 6934SOL    HW232834   2.624   6.756   4.790
 6935SOL     OW32835   3.180   2.396   1.329
 6935SOL    HW132836   3.105   2.418   1.392
 6935SOL    HW232837   3.153   2.417   1.235
 6936SOL     OW32838   4.477   1.896   0.632
 6936SOL    HW132839   4.380   1.873   0.635
 6936SOL    HW232840   4.530   1.827   0.681
 6937SOL     OW32841   2.885   6.623   0.408
 6937SOL    HW132842   2.930   6.655   0.491
 6937SOL    HW232843   2.796   6.582   0.432
 6938SOL     OW32844   2.167   5.314   5.869
 6938SOL    HW132845   2.246   5.368   5.843
 6938SOL    HW232846   2.116   5.286   5.787
 6939SOL     OW32847   5.802   2.406   0.993
 6939SOL    HW132848   5.725   2.364   0.946
 6939SOL    HW232849   5.881   2.344   0.991
 6940SOL     OW32850   7.359   2.040   0.616
 6940SOL    HW132851   7.426   2.101   0.573
 6940SOL    HW232852   7.360   1.952   0.570
 6941SOL     OW32853   9.360   1.464   0.778
 6941SOL    HW132854   9.323   1.546   0.734
 6941SOL    HW232855   9.353   1.473   0.877
 6942SOL     OW32856   4.501   7.953   2.161
 6942SOL    HW132857   4.542   8.031   2.209
 6942SOL    HW232858   4.412   7.933   2.201
 6943SOL     OW32859   9.277   3.366   1.227
 6943SOL    HW132860   9.232   3.277   1.227
 6943SOL    HW232861   9.285   3.400   1.321
 6944SOL     OW32862   0.338   5.756   4.588
 6944SOL    HW132863   0.276   5.807   4.647
 6944SOL    HW232864   0.308   5.661   4.581
 6945SOL     OW32865   0.228   8.366   5.778
 6945SOL    HW132866   0.275   8.440   5.826
 6945SOL    HW232867   0.256   8.366   5.682
 6946SOL     OW32868   4.551   1.090   0.877
 6946SOL    HW132869   4.603   1.030   0.936
 6946SOL    HW232870   4.462   1.049   0.857
 6947SOL     OW32871   1.878   4.003   5.183
 6947SOL    HW132872   1.943   3.927   5.191
 6947SOL    HW232873   1.844   4.007   5.089
 6948SOL     OW32874   4.727   6.361   1.382
 6948SOL    HW132875   4.748   6.360   1.285
 6948SOL    HW232876   4.786   6.427   1.429
 6949SOL     OW32877   8.949   1.254   0.962
 6949SOL    HW132878   8.998   1.169   0.943
 6949SOL    HW232879   8.933   1.261   1.060
 6950SOL     OW32880   5.934   4.165   6.853
 6950SOL    HW132881   5.851   4.188   6.802
 6950SOL    HW232882   6.013   4.170   6.792
 6951SOL     OW32883   1.424   6.369   5.776
 6951SOL    HW132884   1.438   6.467   5.790
 6951SOL    HW232885   1.428   6.321   5.863
 6952SOL     OW32886   6.703   5.899   0.156
 6952SOL    HW132887   6.757   5.816   0.138
 6952SOL    HW232888   6.632   5.878   0.223
 6953SOL     OW32889   2.276  -0.053   0.432
 6953SOL    HW132890   2.184  -0.076   0.399
 6953SOL    HW232891   2.282  -0.067   0.530
 6954SOL     OW32892   6.342   3.267   6.783
 6954SOL    HW132893   6.384   3.314   6.706
 6954SOL    HW232894   6.346   3.325   6.864
 6955SOL     OW32895   1.100   3.040   5.558
 6955SOL    HW132896   1.199   3.045   5.569
 6955SOL    HW232897   1.078   3.034   5.461
 6956SOL     OW32898   0.740   6.174   6.532
 6956SOL    HW132899   0.672   6.210   6.469
 6956SOL    HW232900   0.767   6.246   6.597
 6957SOL     OW32901   5.518   2.148   6.482
 6957SOL    HW132902   5.436   2.097   6.510
 6957SOL    HW232903   5.540   2.216   6.552
 6958SOL     OW32904   5.606   0.225   1.592
 6958SOL    HW132905   5.574   0.300   1.533
 6958SOL    HW232906   5.687   0.183   1.551
 6959SOL     OW32907   4.271   7.516   1.141
 6959SOL    HW132908   4.282   7.457   1.222
 6959SOL    HW232909   4.174   7.537   1.128
 6960SOL     OW32910   6.367   0.484   0.932
 6960SOL    HW132911   6.310   0.404   0.948
 6960SOL    HW232912   6.310   0.566   0.928
 6961SOL     OW32913   3.080  -0.009   0.129
 6961SOL    HW132914   3.096  -0.107   0.128
 6961SOL    HW232915   2.990   0.011   0.089
 6962SOL     OW32916   4.408   8.099   5.265
 6962SOL    HW132917   4.451   8.022   5.216
 6962SOL    HW232918   4.324   8.126   5.218
 6963SOL     OW32919   4.091  -0.052   0.238
 6963SOL    HW132920   4.046  -0.132   0.277
 6963SOL    HW232921   4.187  -0.072   0.220
 6964SOL     OW32922   4.469   6.839   0.301
 6964SOL    HW132923   4.377   6.878   0.290
 6964SOL    HW232924   4.519   6.847   0.215
 6965SOL     OW32925   7.196   8.047   0.437
 6965SOL    HW132926   7.244   7.978   0.492
 6965SOL    HW232927   7.185   8.014   0.344
 6966SOL     OW32928   8.063   7.599   0.826
 6966SOL    HW132929   8.029   7.666   0.760
 6966SOL    HW232930   8.162   7.592   0.818
 6967SOL     OW32931   8.133   5.900   6.204
 6967SOL    HW132932   8.057   5.949   6.246
 6967SOL    HW232933   8.142   5.927   6.108
 6968SOL     OW32934   9.111   0.529   6.497
 6968SOL    HW132935   9.099   0.618   6.453
 6968SOL    HW232936   9.126   0.459   6.427
 6969SOL     OW32937   2.678   7.887   5.276
 6969SOL    HW132938   2.771   7.907   5.244
 6969SOL    HW232939   2.619   7.871   5.197
 6970SOL     OW32940   2.218   3.786   0.676
 6970SOL    HW132941   2.137   3.843   0.693
 6970SOL    HW232942   2.190   3.691   0.665
 6971SOL     OW32943   7.236  -0.003   0.911
 6971SOL    HW132944   7.162   0.030   0.969
 6971SOL    HW232945   7.322  -0.001   0.962
 6972SOL     OW32946   2.206   7.241   5.826
 6972SOL    HW132947   2.246   7.220   5.737
 6972SOL    HW232948   2.111   7.211   5.829
 6973SOL     OW32949   9.447   8.419   1.583
 6973SOL    HW132950   9.476   8.512   1.607
 6973SOL    HW232951   9.498   8.353   1.638
 6974SOL     OW32952   2.581   7.002   0.773
 6974SOL    HW132953   2.528   7.064   0.831
 6974SOL    HW232954   2.613   7.052   0.692
 6975SOL     OW32955   8.215   2.165   5.770
 6975SOL    HW132956   8.154   2.095   5.732
 6975SOL    HW232957   8.275   2.201   5.698
 6976SOL     OW32958   7.376   8.397   1.377
 6976SOL    HW132959   7.385   8.472   1.442
 6976SOL    HW232960   7.428   8.318   1.410
 6977SOL     OW32961   8.270   5.935   0.259
 6977SOL    HW132962   8.356   5.986   0.249
 6977SOL    HW232963   8.209   5.985   0.320
 6978SOL     OW32964   1.797   2.044   6.211
 6978SOL    HW132965   1.768   2.127   6.163
 6978SOL    HW232966   1.812   1.971   6.146
 6979SOL     OW32967   0.960   1.292   6.059
 6979SOL    HW132968   0.989   1.216   6.001
 6979SOL    HW232969   0.947   1.374   6.004
 6980SOL     OW32970   6.100   6.065   0.293
 6980SOL    HW132971   6.056   6.107   0.373
 6980SOL    HW232972   6.059   6.103   0.210
 6981SOL     OW32973   8.540   5.002   0.388
 6981SOL    HW132974   8.500   5.090   0.414
 6981SOL    HW232975   8.543   4.942   0.468
 6982SOL     OW32976   1.973   3.337   0.121
 6982SOL    HW132977   2.062   3.298   0.144
 6982SOL    HW232978   1.982   3.435   0.108
 6983SOL     OW32979   6.819   6.105   4.839
 6983SOL    HW132980   6.857   6.063   4.921
 6983SOL    HW232981   6.767   6.036   4.788
 6984SOL     OW32982   8.593   4.472   1.115
 6984SOL    HW132983   8.572   4.398   1.051
 6984SOL    HW232984   8.605   4.434   1.207
 6985SOL     OW32985   6.159   0.046   6.191
 6985SOL    HW132986   6.088   0.116   6.183
 6985SOL    HW232987   6.217   0.049   6.109
 6986SOL     OW32988   5.868   4.871   1.668
 6986SOL    HW132989   5.778   4.873   1.711
 6986SOL    HW232990   5.931   4.929   1.719
 6987SOL     OW32991   6.022   3.425   6.681
 6987SOL    HW132992   6.030   3.439   6.583
 6987SOL    HW232993   6.014   3.327   6.701
 6988SOL     OW32994   4.434   6.895   6.443
 6988SOL    HW132995   4.489   6.930   6.367
 6988SOL    HW232996   4.463   6.802   6.465
 6989SOL     OW32997   4.964   0.196   0.521
 6989SOL    HW132998   5.048   0.238   0.557
 6989SOL    HW232999   4.903   0.172   0.597
 6990SOL     OW33000   0.787   5.310   0.123
 6990SOL    HW133001   0.818   5.406   0.119
 6990SOL    HW233002   0.749   5.283   0.035
 6991SOL     OW33003   3.281   0.326   0.946
 6991SOL    HW133004   3.259   0.315   1.043
 6991SOL    HW233005   3.380   0.325   0.935
 6992SOL     OW33006   8.782   0.327   6.653
 6992SOL    HW133007   8.692   0.295   6.624
 6992SOL    HW233008   8.835   0.354   6.573
 6993SOL     OW33009   1.446   3.567   6.288
 6993SOL    HW133010   1.370   3.532   6.234
 6993SOL    HW233011   1.530   3.563   6.234
 6994SOL     OW33012   5.885   4.094   0.657
 6994SOL    HW133013   5.970   4.053   0.624
 6994SOL    HW233014   5.807   4.042   0.621
 6995SOL     OW33015   8.392   0.866   5.682
 6995SOL    HW133016   8.394   0.957   5.640
 6995SOL    HW233017   8.381   0.797   5.611
 6996SOL     OW33018   7.572   7.655   0.622
 6996SOL    HW133019   7.571   7.706   0.708
 6996SOL    HW233020   7.598   7.560   0.640
 6997SOL     OW33021   8.768   2.093   0.970
 6997SOL    HW133022   8.761   2.193   0.977
 6997SOL    HW233023   8.817   2.058   1.049
 6998SOL     OW33024   4.304   5.240   6.592
 6998SOL    HW133025   4.220   5.244   6.536
 6998SOL    HW233026   4.356   5.324   6.579
 6999SOL     OW33027   8.829   8.052   5.881
 6999SOL    HW133028   8.745   8.106   5.870
 6999SOL    HW233029   8.820   7.967   5.829
 7000SOL     OW33030   4.464   4.969   6.393
 7000SOL    HW133031   4.479   4.997   6.488
 7000SOL    HW233032   4.366   4.961   6.376
 7001SOL     OW33033   9.310   7.507   6.522
 7001SOL    HW133034   9.308   7.569   6.600
 7001SOL    HW233035   9.277   7.555   6.440
 7002SOL     OW33036   2.773   2.531   1.355
 7002SOL    HW133037   2.686   2.508   1.311
 7002SOL    HW233038   2.776   2.488   1.446
 7003SOL     OW33039   4.291   1.593   2.007
 7003SOL    HW133040   4.370   1.532   2.015
 7003SOL    HW233041   4.207   1.540   2.013
 7004SOL     OW33042   4.928   8.431   0.132
 7004SOL    HW133043   5.014   8.474   0.158
 7004SOL    HW233044   4.866   8.499   0.095
 7005SOL     OW33045   6.778   5.060   6.779
 7005SOL    HW133046   6.875   5.036   6.770
 7005SOL    HW233047   6.753   5.124   6.707
 7006SOL     OW33048   2.242   3.240   0.165
 7006SOL    HW133049   2.275   3.157   0.210
 7006SOL    HW233050   2.247   3.229   0.066
 7007SOL     OW33051   8.054   1.749   0.154
 7007SOL    HW133052   8.112   1.670   0.171
 7007SOL    HW233053   8.046   1.804   0.237
 7008SOL     OW33054   1.662   7.618   0.169
 7008SOL    HW133055   1.665   7.518   0.164
 7008SOL    HW233056   1.593   7.652   0.105
 7009SOL     OW33057   0.762   1.730   0.826
 7009SOL    HW133058   0.748   1.751   0.923
 7009SOL    HW233059   0.848   1.771   0.795
 7010SOL     OW33060   5.281   2.027   6.541
 7010SOL    HW133061   5.281   2.028   6.641
 7010SOL    HW233062   5.226   2.102   6.506
 7011SOL     OW33063   4.204   0.284   1.335
 7011SOL    HW133064   4.106   0.275   1.352
 7011SOL    HW233065   4.252   0.301   1.421
 7012SOL     OW33066   2.261   0.254   5.198
 7012SOL    HW133067   2.274   0.306   5.113
 7012SOL    HW233068   2.194   0.182   5.183
 7013SOL     OW33069   1.330   0.195   0.493
 7013SOL    HW133070   1.297   0.120   0.550
 7013SOL    HW233071   1.315   0.282   0.540
 7014SOL     OW33072   2.801   0.743   5.672
 7014SOL    HW133073   2.755   0.828   5.645
 7014SOL    HW233074   2.755   0.665   5.631
 7015SOL     OW33075   0.936   8.410   0.600
 7015SOL    HW133076   0.983   8.468   0.534
 7015SOL    HW233077   0.992   8.329   0.619
 7016SOL     OW33078   3.212   0.724   1.337
 7016SOL    HW133079   3.244   0.634   1.310
 7016SOL    HW233080   3.121   0.740   1.299
 7017SOL     OW33081   2.139   7.251   6.270
 7017SOL    HW133082   2.187   7.208   6.346
 7017SOL    HW233083   2.103   7.340   6.300
 7018SOL     OW33084   0.463   4.427   1.581
 7018SOL    HW133085   0.441   4.523   1.566
 7018SOL    HW233086   0.411   4.392   1.658
 7019SOL     OW33087   2.401   5.791   1.524
 7019SOL    HW133088   2.361   5.703   1.551
 7019SOL    HW233089   2.501   5.782   1.520
 7020SOL     OW33090   4.322   4.283   1.595
 7020SOL    HW133091   4.328   4.381   1.581
 7020SOL    HW233092   4.289   4.264   1.688
 7021SOL     OW33093   1.349   6.588   1.279
 7021SOL    HW133094   1.337   6.590   1.180
 7021SOL    HW233095   1.323   6.676   1.318
 7022SOL     OW33096   6.052   7.047   5.504
 7022SOL    HW133097   6.136   7.059   5.557
 7022SOL    HW233098   6.014   6.956   5.522
 7023SOL     OW33099   1.546   3.968   6.008
 7023SOL    HW133100   1.643   3.945   6.014
 7023SOL    HW233101   1.533   4.039   5.938
 7024SOL     OW33102   7.453   6.062   6.433
 7024SOL    HW133103   7.463   6.155   6.397
 7024SOL    HW233104   7.356   6.038   6.437
 7025SOL     OW33105   1.380   5.626   0.408
 7025SOL    HW133106   1.338   5.635   0.318
 7025SOL    HW233107   1.331   5.683   0.473
 7026SOL     OW33108   7.057   3.249   1.107
 7026SOL    HW133109   6.988   3.294   1.164
 7026SOL    HW233110   7.135   3.310   1.095
 7027SOL     OW33111   8.485   6.010   0.467
 7027SOL    HW133112   8.398   6.061   0.471
 7027SOL    HW233113   8.521   5.998   0.559
 7028SOL     OW33114   4.167   2.813   1.796
 7028SOL    HW133115   4.220   2.837   1.877
 7028SOL    HW233116   4.101   2.742   1.820
 7029SOL     OW33117   7.396   3.410   1.970
 7029SOL    HW133118   7.367   3.470   2.044
 7029SOL    HW233119   7.326   3.407   1.900
 7030SOL     OW33120   7.803   8.395   6.127
 7030SOL    HW133121   7.765   8.485   6.146
 7030SOL    HW233122   7.852   8.397   6.040
 7031SOL     OW33123   5.057   6.876   5.906
 7031SOL    HW133124   5.101   6.794   5.870
 7031SOL    HW233125   4.973   6.849   5.955
 7032SOL     OW33126   2.213   1.971   0.792
 7032SOL    HW133127   2.281   1.899   0.798
 7032SOL    HW233128   2.128   1.941   0.836
 7033SOL     OW33129   0.471   3.552   5.996
 7033SOL    HW133130   0.563   3.561   6.034
 7033SOL    HW233131   0.475   3.496   5.913
 7034SOL     OW33132   1.346   3.817   6.128
 7034SOL    HW133133   1.423   3.876   6.103
 7034SOL    HW233134   1.376   3.749   6.194
 7035SOL     OW33135   9.122   4.701   6.114
 7035SOL    HW133136   9.216   4.692   6.148
 7035SOL    HW233137   9.108   4.639   6.037
 7036SOL     OW33138   1.577   1.434   0.721
 7036SOL    HW133139   1.608   1.392   0.636
 7036SOL    HW233140   1.492   1.390   0.751
 7037SOL     OW33141   8.443   1.950   5.556
 7037SOL    HW133142   8.394   1.866   5.577
 7037SOL    HW233143   8.467   1.952   5.459
 7038SOL     OW33144   3.812   4.702   5.880
 7038SOL    HW133145   3.902   4.740   5.901
 7038SOL    HW233146   3.821   4.607   5.853
 7039SOL     OW33147   5.621   3.193   5.877
 7039SOL    HW133148   5.558   3.246   5.933
 7039SOL    HW233149   5.571   3.151   5.801
 7040SOL     OW33150   8.490   7.771   0.220
 7040SOL    HW133151   8.551   7.766   0.299
 7040SOL    HW233152   8.535   7.820   0.146
 7041SOL     OW33153   1.262   7.490   0.660
 7041SOL    HW133154   1.361   7.483   0.674
 7041SOL    HW233155   1.244   7.553   0.585
 7042SOL     OW33156   4.765   5.333   6.529
 7042SOL    HW133157   4.730   5.253   6.481
 7042SOL    HW233158   4.864   5.337   6.522
 7043SOL     OW33159   3.261   6.135   5.602
 7043SOL    HW133160   3.274   6.100   5.509
 7043SOL    HW233161   3.291   6.065   5.668
 7044SOL     OW33162   7.760   3.139   5.886
 7044SOL    HW133163   7.727   3.228   5.918
 7044SOL    HW233164   7.846   3.152   5.837
 7045SOL     OW33165   8.151   7.057   4.804
 7045SOL    HW133166   8.109   7.042   4.894
 7045SOL    HW233167   8.082   7.092   4.741
 7046SOL     OW33168   6.996   8.103   0.697
 7046SOL    HW133169   7.094   8.104   0.717
 7046SOL    HW233170   6.951   8.034   0.754
 7047SOL     OW33171   4.594   0.541   5.634
 7047SOL    HW133172   4.547   0.530   5.547
 7047SOL    HW233173   4.531   0.577   5.702
 7048SOL     OW33174   3.581   7.738   5.077
 7048SOL    HW133175   3.591   7.646   5.116
 7048SOL    HW233176   3.657   7.756   5.015
 7049SOL     OW33177   6.121   5.573   0.565
 7049SOL    HW133178   6.192   5.643   0.571
 7049SOL    HW233179   6.116   5.523   0.651
 7050SOL     OW33180   0.842   1.769   6.236
 7050SOL    HW133181   0.796   1.843   6.286
 7050SOL    HW233182   0.885   1.806   6.154
 7051SOL     OW33183   7.984   2.684   0.784
 7051SOL    HW133184   8.037   2.604   0.812
 7051SOL    HW233185   8.028   2.727   0.705
 7052SOL     OW33186   8.945   6.692   5.435
 7052SOL    HW133187   9.022   6.629   5.423
 7052SOL    HW233188   8.859   6.642   5.428
 7053SOL     OW33189   5.924   3.728   0.123
 7053SOL    HW133190   5.896   3.666   0.196
 7053SOL    HW233191   5.999   3.686   0.072
 7054SOL     OW33192   5.272   1.337   4.941
 7054SOL    HW133193   5.269   1.417   4.881
 7054SOL    HW233194   5.184   1.289   4.937
 7055SOL     OW33195   1.382   5.349   0.313
 7055SOL    HW133196   1.365   5.441   0.278
 7055SOL    HW233197   1.349   5.343   0.407
 7056SOL     OW33198   5.931   3.241   0.482
 7056SOL    HW133199   5.920   3.256   0.384
 7056SOL    HW233200   5.861   3.177   0.514
 7057SOL     OW33201   3.575   7.876   0.844
 7057SOL    HW133202   3.643   7.854   0.914
 7057SOL    HW233203   3.495   7.917   0.886
 7058SOL     OW33204   0.504   3.175   0.846
 7058SOL    HW133205   0.505   3.267   0.885
 7058SOL    HW233206   0.469   3.111   0.913
 7059SOL     OW33207   6.359   4.639   0.161
 7059SOL    HW133208   6.402   4.717   0.207
 7059SOL    HW233209   6.351   4.657   0.063
 7060SOL     OW33210   2.029   2.720   0.389
 7060SOL    HW133211   2.026   2.704   0.488
 7060SOL    HW233212   1.996   2.638   0.341
 7061SOL     OW33213   7.495   7.774   5.374
 7061SOL    HW133214   7.433   7.779   5.295
 7061SOL    HW233215   7.441   7.761   5.457
 7062SOL     OW33216   1.943   7.152   5.792
 7062SOL    HW133217   1.896   7.235   5.762
 7062SOL    HW233218   1.876   7.079   5.805
 7063SOL     OW33219   3.339   7.800   5.168
 7063SOL    HW133220   3.434   7.784   5.142
 7063SOL    HW233221   3.336   7.863   5.246
 7064SOL     OW33222   9.100   5.436   0.347
 7064SOL    HW133223   9.020   5.377   0.363
 7064SOL    HW233224   9.174   5.407   0.408
 7065SOL     OW33225   4.539   1.445   2.096
 7065SOL    HW133226   4.551   1.346   2.101
 7065SOL    HW233227   4.629   1.489   2.095
 7066SOL     OW33228   8.680   0.286   1.145
 7066SOL    HW133229   8.763   0.239   1.174
 7066SOL    HW233230   8.622   0.303   1.225
 7067SOL     OW33231   2.372   7.701   0.237
 7067SOL    HW133232   2.468   7.694   0.264
 7067SOL    HW233233   2.363   7.768   0.164
 7068SOL     OW33234   9.350  -0.061   6.296
 7068SOL    HW133235   9.448  -0.079   6.293
 7068SOL    HW233236   9.332   0.016   6.357
 7069SOL     OW33237   8.919   5.914   4.590
 7069SOL    HW133238   8.875   5.948   4.507
 7069SOL    HW233239   8.901   5.977   4.665
 7070SOL     OW33240   9.451   6.307   1.453
 7070SOL    HW133241   9.362   6.273   1.420
 7070SOL    HW233242   9.522   6.239   1.435
 7071SOL     OW33243   1.768   5.250   6.700
 7071SOL    HW133244   1.728   5.249   6.791
 7071SOL    HW233245   1.739   5.332   6.651
 7072SOL     OW33246   9.298   3.515   1.903
 7072SOL    HW133247   9.291   3.482   1.997
 7072SOL    HW233248   9.221   3.481   1.850
 7073SOL     OW33249   8.399   2.316   0.444
 7073SOL    HW133250   8.366   2.224   0.420
 7073SOL    HW233251   8.352   2.384   0.388
 7074SOL     OW33252   7.833   7.594   0.958
 7074SOL    HW133253   7.923   7.593   0.914
 7074SOL    HW233254   7.786   7.679   0.934
 7075SOL     OW33255   9.188   4.788   5.800
 7075SOL    HW133256   9.255   4.805   5.873
 7075SOL    HW233257   9.224   4.718   5.738
 7076SOL     OW33258   2.540   1.929   0.701
 7076SOL    HW133259   2.532   1.858   0.772
 7076SOL    HW233260   2.605   1.899   0.631
 7077SOL     OW33261   2.034   2.383   1.553
 7077SOL    HW133262   2.046   2.472   1.596
 7077SOL    HW233263   1.983   2.323   1.615
 7078SOL     OW33264   3.763   2.879   6.729
 7078SOL    HW133265   3.853   2.923   6.734
 7078SOL    HW233266   3.697   2.932   6.782
 7079SOL     OW33267   5.940   3.936   5.847
 7079SOL    HW133268   5.965   3.839   5.845
 7079SOL    HW233269   5.860   3.950   5.789
 7080SOL     OW33270   6.333   4.761   0.896
 7080SOL    HW133271   6.320   4.769   0.797
 7080SOL    HW233272   6.408   4.821   0.924
 7081SOL     OW33273   5.500   1.113   5.509
 7081SOL    HW133274   5.516   1.104   5.608
 7081SOL    HW233275   5.405   1.091   5.489
 7082SOL     OW33276   2.562   7.753   0.618
 7082SOL    HW133277   2.598   7.771   0.710
 7082SOL    HW233278   2.523   7.661   0.615
 7083SOL     OW33279   5.742   3.091   6.134
 7083SOL    HW133280   5.708   3.111   6.042
 7083SOL    HW233281   5.702   3.156   6.199
 7084SOL     OW33282   3.330   5.444   0.789
 7084SOL    HW133283   3.421   5.402   0.782
 7084SOL    HW233284   3.316   5.479   0.882
 7085SOL     OW33285   9.031   5.701   6.827
 7085SOL    HW133286   8.954   5.747   6.784
 7085SOL    HW233287   8.998   5.640   6.899
 7086SOL     OW33288   3.092   8.406   0.420
 7086SOL    HW133289   3.186   8.424   0.446
 7086SOL    HW233290   3.077   8.432   0.325
 7087SOL     OW33291   2.544   2.461   2.377
 7087SOL    HW133292   2.605   2.530   2.339
 7087SOL    HW233293   2.449   2.490   2.363
 7088SOL     OW33294   2.407   1.015   0.667
 7088SOL    HW133295   2.457   1.101   0.674
 7088SOL    HW233296   2.320   1.023   0.716
 7089SOL     OW33297   5.830   7.790   6.791
 7089SOL    HW133298   5.851   7.807   6.887
 7089SOL    HW233299   5.916   7.785   6.739
 7090SOL     OW33300   9.557   5.356   0.676
 7090SOL    HW133301   9.525   5.270   0.637
 7090SOL    HW233302   9.530   5.361   0.772
 7091SOL     OW33303   7.276   5.254   6.560
 7091SOL    HW133304   7.246   5.314   6.486
 7091SOL    HW233305   7.200   5.238   6.623
 7092SOL     OW33306   4.323   5.561   1.499
 7092SOL    HW133307   4.240   5.510   1.477
 7092SOL    HW233308   4.393   5.499   1.534
 7093SOL     OW33309   3.888   0.128   0.758
 7093SOL    HW133310   3.880   0.197   0.830
 7093SOL    HW233311   3.943   0.165   0.683
 7094SOL     OW33312   5.357   3.649   6.096
 7094SOL    HW133313   5.451   3.614   6.101
 7094SOL    HW233314   5.304   3.592   6.033
 7095SOL     OW33315   4.690   5.474   1.102
 7095SOL    HW133316   4.712   5.556   1.048
 7095SOL    HW233317   4.695   5.393   1.043
 7096SOL     OW33318   7.075   7.942   0.200
 7096SOL    HW133319   7.075   7.870   0.130
 7096SOL    HW233320   7.020   8.019   0.168
 7097SOL     OW33321   7.151   2.123   1.307
 7097SOL    HW133322   7.193   2.144   1.219
 7097SOL    HW233323   7.136   2.208   1.358
 7098SOL     OW33324   2.254   0.971   6.788
 7098SOL    HW133325   2.158   0.955   6.809
 7098SOL    HW233326   2.287   1.049   6.841
 7099SOL     OW33327   3.223   2.147   1.847
 7099SOL    HW133328   3.162   2.222   1.870
 7099SOL    HW233329   3.308   2.183   1.809
 7100SOL     OW33330   5.057   5.470   6.836
 7100SOL    HW133331   5.040   5.512   6.925
 7100SOL    HW233332   5.098   5.380   6.848
 7101SOL     OW33333   2.033   4.414   1.244
 7101SOL    HW133334   1.982   4.373   1.169
 7101SOL    HW233335   1.987   4.496   1.276
 7102SOL     OW33336   3.482   4.386   6.628
 7102SOL    HW133337   3.470   4.482   6.653
 7102SOL    HW233338   3.401   4.334   6.655
 7103SOL     OW33339   4.126   4.102   1.153
 7103SOL    HW133340   4.088   4.120   1.244
 7103SOL    HW233341   4.173   4.183   1.119
 7104SOL     OW33342   4.110   4.124   1.456
 7104SOL    HW133343   4.075   4.122   1.550
 7104SOL    HW233344   4.189   4.185   1.452
 7105SOL     OW33345   5.023   7.684   1.541
 7105SOL    HW133346   5.099   7.674   1.606
 7105SOL    HW233347   5.057   7.669   1.448
 7106SOL     OW33348   8.270   1.811   1.262
 7106SOL    HW133349   8.329   1.784   1.338
 7106SOL    HW233350   8.202   1.877   1.294
 7107SOL     OW33351   7.654   4.965   6.104
 7107SOL    HW133352   7.633   4.891   6.168
 7107SOL    HW233353   7.744   5.002   6.125
 7108SOL     OW33354   0.486   6.053   1.027
 7108SOL    HW133355   0.490   5.967   0.977
 7108SOL    HW233356   0.486   6.035   1.125
 7109SOL     OW33357   1.868   4.725   6.805
 7109SOL    HW133358   1.942   4.704   6.740
 7109SOL    HW233359   1.846   4.822   6.801
 7110SOL     OW33360   3.404   0.306   5.584
 7110SOL    HW133361   3.439   0.399   5.584
 7110SOL    HW233362   3.334   0.297   5.655
 7111SOL     OW33363   2.695   8.316   0.408
 7111SOL    HW133364   2.688   8.384   0.481
 7111SOL    HW233365   2.694   8.224   0.448
 7112SOL     OW33366   3.781   7.506   4.928
 7112SOL    HW133367   3.762   7.412   4.898
 7112SOL    HW233368   3.865   7.507   4.981
 7113SOL     OW33369   1.300   4.277   5.997
 7113SOL    HW133370   1.333   4.259   5.905
 7113SOL    HW233371   1.203   4.251   6.003
 7114SOL     OW33372   5.252   7.811   1.646
 7114SOL    HW133373   5.313   7.890   1.646
 7114SOL    HW233374   5.296   7.735   1.695
 7115SOL     OW33375   1.251   6.015   0.987
 7115SOL    HW133376   1.327   6.049   0.932
 7115SOL    HW233377   1.286   5.963   1.065
 7116SOL     OW33378   7.451   6.771   6.558
 7116SOL    HW133379   7.470   6.782   6.461
 7116SOL    HW233380   7.531   6.732   6.603
 7117SOL     OW33381   4.488   5.877   6.565
 7117SOL    HW133382   4.536   5.889   6.478
 7117SOL    HW233383   4.555   5.863   6.638
 7118SOL     OW33384   9.208   5.530   5.834
 7118SOL    HW133385   9.140   5.458   5.852
 7118SOL    HW233386   9.279   5.526   5.905
 7119SOL     OW33387   1.251   7.571   0.387
 7119SOL    HW133388   1.271   7.542   0.293
 7119SOL    HW233389   1.191   7.503   0.430
 7120SOL     OW33390   8.703   2.840   5.307
 7120SOL    HW133391   8.774   2.796   5.252
 7120SOL    HW233392   8.669   2.921   5.258
 7121SOL     OW33393   8.463   7.971   5.262
 7121SOL    HW133394   8.461   8.049   5.199
 7121SOL    HW233395   8.493   7.889   5.214
 7122SOL     OW33396   7.952   3.804   6.562
 7122SOL    HW133397   7.899   3.872   6.612
 7122SOL    HW233398   7.915   3.713   6.578
 7123SOL     OW33399   2.773   1.422   1.152
 7123SOL    HW133400   2.691   1.470   1.180
 7123SOL    HW233401   2.851   1.453   1.206
 7124SOL     OW33402   3.333   7.549   0.438
 7124SOL    HW133403   3.272   7.475   0.468
 7124SOL    HW233404   3.407   7.560   0.505
 7125SOL     OW33405   6.909   5.685   5.764
 7125SOL    HW133406   6.941   5.751   5.832
 7125SOL    HW233407   6.810   5.673   5.774
 7126SOL     OW33408   4.322   0.391   1.549
 7126SOL    HW133409   4.343   0.303   1.590
 7126SOL    HW233410   4.388   0.459   1.579
 7127SOL     OW33411   3.516   2.859   2.222
 7127SOL    HW133412   3.529   2.765   2.254
 7127SOL    HW233413   3.456   2.908   2.285
 7128SOL     OW33414   5.224   6.231   6.305
 7128SOL    HW133415   5.297   6.184   6.355
 7128SOL    HW233416   5.137   6.220   6.354
 7129SOL     OW33417   0.795   5.263   0.641
 7129SOL    HW133418   0.729   5.215   0.700
 7129SOL    HW233419   0.855   5.197   0.596
 7130SOL     OW33420   4.010   7.329   0.859
 7130SOL    HW133421   4.022   7.345   0.762
 7130SOL    HW233422   4.049   7.240   0.883
 7131SOL     OW33423   5.153   1.709   0.602
 7131SOL    HW133424   5.171   1.794   0.652
 7131SOL    HW233425   5.231   1.647   0.613
 7132SOL     OW33426   1.827   0.660   0.480
 7132SOL    HW133427   1.879   0.707   0.550
 7132SOL    HW233428   1.857   0.690   0.389
 7133SOL     OW33429   5.200   8.317   1.896
 7133SOL    HW133430   5.295   8.326   1.925
 7133SOL    HW233431   5.141   8.314   1.976
 7134SOL     OW33432   9.412   0.064   0.431
 7134SOL    HW133433   9.380   0.138   0.372
 7134SOL    HW233434   9.440  -0.014   0.375
 7135SOL     OW33435   4.902   2.090   0.217
 7135SOL    HW133436   4.971   2.021   0.195
 7135SOL    HW233437   4.928   2.137   0.301
 7136SOL     OW33438   3.828   1.936   2.612
 7136SOL    HW133439   3.836   1.837   2.603
 7136SOL    HW233440   3.740   1.959   2.655
 7137SOL     OW33441   5.133   2.244   6.727
 7137SOL    HW133442   5.056   2.242   6.664
 7137SOL    HW233443   5.101   2.225   6.820
 7138SOL     OW33444   8.588   6.656   6.197
 7138SOL    HW133445   8.634   6.587   6.254
 7138SOL    HW233446   8.556   6.613   6.113
 7139SOL     OW33447   5.140   7.162   1.349
 7139SOL    HW133448   5.066   7.094   1.341
 7139SOL    HW233449   5.226   7.121   1.321
 7140SOL     OW33450   8.271   2.365   1.295
 7140SOL    HW133451   8.182   2.333   1.326
 7140SOL    HW233452   8.262   2.404   1.203
 7141SOL     OW33453   0.407   2.579   5.836
 7141SOL    HW133454   0.401   2.660   5.894
 7141SOL    HW233455   0.315   2.549   5.811
 7142SOL     OW33456   7.739   5.791   0.683
 7142SOL    HW133457   7.709   5.818   0.775
 7142SOL    HW233458   7.832   5.824   0.667
 7143SOL     OW33459   3.546   1.972   1.753
 7143SOL    HW133460   3.607   1.964   1.674
 7143SOL    HW233461   3.499   1.886   1.768
 7144SOL     OW33462   3.927   6.841   1.743
 7144SOL    HW133463   3.968   6.828   1.653
 7144SOL    HW233464   3.986   6.899   1.799
 7145SOL     OW33465   7.602   4.761   6.299
 7145SOL    HW133466   7.673   4.715   6.353
 7145SOL    HW233467   7.518   4.769   6.353
 7146SOL     OW33468   5.450   2.208   0.620
 7146SOL    HW133469   5.397   2.289   0.646
 7146SOL    HW233470   5.437   2.137   0.689
 7147SOL     OW33471   5.045   8.312   1.669
 7147SOL    HW133472   5.119   8.272   1.615
 7147SOL    HW233473   5.077   8.331   1.762
 7148SOL     OW33474   9.466   5.717   0.931
 7148SOL    HW133475   9.445   5.734   1.028
 7148SOL    HW233476   9.557   5.751   0.910
 7149SOL     OW33477   0.662   6.811   4.844
 7149SOL    HW133478   0.605   6.770   4.915
 7149SOL    HW233479   0.631   6.779   4.754
 7150SOL     OW33480   7.513   5.245   6.724
 7150SOL    HW133481   7.592   5.209   6.674
 7150SOL    HW233482   7.443   5.276   6.660
 7151SOL     OW33483   2.222   5.717   6.119
 7151SOL    HW133484   2.314   5.683   6.136
 7151SOL    HW233485   2.189   5.765   6.200
 7152SOL     OW33486   9.472   6.083   6.766
 7152SOL    HW133487   9.432   6.172   6.789
 7152SOL    HW233488   9.499   6.082   6.670
 7153SOL     OW33489   1.144   5.793   0.844
 7153SOL    HW133490   1.196   5.856   0.901
 7153SOL    HW233491   1.157   5.699   0.877
 7154SOL     OW33492   8.204   3.899   0.399
 7154SOL    HW133493   8.253   3.817   0.430
 7154SOL    HW233494   8.258   3.945   0.328
 7155SOL     OW33495   0.154   7.908   0.403
 7155SOL    HW133496   0.204   7.845   0.462
 7155SOL    HW233497   0.175   7.887   0.307
 7156SOL     OW33498   7.127   6.818   6.104
 7156SOL    HW133499   7.159   6.832   6.011
 7156SOL    HW233500   7.057   6.885   6.126
 7157SOL     OW33501   7.534   2.031   6.797
 7157SOL    HW133502   7.443   1.993   6.788
 7157SOL    HW233503   7.601   1.968   6.758
 7158SOL     OW33504   1.989   0.337   2.004
 7158SOL    HW133505   1.926   0.270   2.043
 7158SOL    HW233506   1.938   0.404   1.951
 7159SOL     OW33507   1.121   5.118   1.345
 7159SOL    HW133508   1.142   5.216   1.347
 7159SOL    HW233509   1.205   5.066   1.356
 7160SOL     OW33510   3.528   4.668   5.930
 7160SOL    HW133511   3.615   4.666   5.881
 7160SOL    HW233512   3.472   4.591   5.901
 7161SOL     OW33513   5.549   4.791   0.681
 7161SOL    HW133514   5.517   4.832   0.597
 7161SOL    HW233515   5.551   4.860   0.754
 7162SOL     OW33516   7.055   5.533   5.531
 7162SOL    HW133517   7.010   5.598   5.593
 7162SOL    HW233518   7.099   5.460   5.585
 7163SOL     OW33519   3.298   4.403   6.399
 7163SOL    HW133520   3.342   4.434   6.314
 7163SOL    HW233521   3.360   4.418   6.476
 7164SOL     OW33522   1.737   2.665   5.570
 7164SOL    HW133523   1.729   2.645   5.472
 7164SOL    HW233524   1.704   2.757   5.588
 7165SOL     OW33525   0.898   0.696   5.503
 7165SOL    HW133526   0.878   0.705   5.601
 7165SOL    HW233527   0.985   0.743   5.484
 7166SOL     OW33528   6.624   4.344   0.848
 7166SOL    HW133529   6.530   4.378   0.853
 7166SOL    HW233530   6.632   4.279   0.773
 7167SOL     OW33531   2.943   5.114   5.614
 7167SOL    HW133532   2.929   5.195   5.556
 7167SOL    HW233533   2.952   5.033   5.556
 7168SOL     OW33534   1.491   8.140   0.490
 7168SOL    HW133535   1.444   8.212   0.541
 7168SOL    HW233536   1.536   8.078   0.554
 7169SOL     OW33537   1.896   8.335   6.004
 7169SOL    HW133538   1.839   8.400   6.055
 7169SOL    HW233539   1.987   8.374   5.990
 7170SOL     OW33540   6.199   2.528   5.509
 7170SOL    HW133541   6.244   2.535   5.598
 7170SOL    HW233542   6.257   2.572   5.439
 7171SOL     OW33543   0.945   1.878   0.701
 7171SOL    HW133544   0.931   1.964   0.652
 7171SOL    HW233545   1.040   1.849   0.690
 7172SOL     OW33546   3.262   0.433   1.682
 7172SOL    HW133547   3.337   0.389   1.733
 7172SOL    HW233548   3.199   0.362   1.650
 7173SOL     OW33549   2.867   0.225   0.429
 7173SOL    HW133550   2.774   0.221   0.393
 7173SOL    HW233551   2.864   0.229   0.529
 7174SOL     OW33552   6.239   7.470   1.367
 7174SOL    HW133553   6.267   7.474   1.271
 7174SOL    HW233554   6.183   7.550   1.389
 7175SOL     OW33555   0.540   3.016   6.110
 7175SOL    HW133556   0.478   3.075   6.164
 7175SOL    HW233557   0.605   2.971   6.171
 7176SOL     OW33558   9.116   4.759   0.555
 7176SOL    HW133559   9.062   4.821   0.497
 7176SOL    HW233560   9.188   4.717   0.500
 7177SOL     OW33561   2.144   2.689   6.376
 7177SOL    HW133562   2.129   2.671   6.279
 7177SOL    HW233563   2.066   2.654   6.429
 7178SOL     OW33564   0.942   4.429   6.067
 7178SOL    HW133565   0.968   4.509   6.012
 7178SOL    HW233566   1.024   4.392   6.112
 7179SOL     OW33567   3.528   2.236   1.821
 7179SOL    HW133568   3.525   2.139   1.800
 7179SOL    HW233569   3.596   2.253   1.893
 7180SOL     OW33570   9.228   1.822   5.871
 7180SOL    HW133571   9.211   1.889   5.943
 7180SOL    HW233572   9.318   1.781   5.885
 7181SOL     OW33573   5.642   0.213   0.126
 7181SOL    HW133574   5.568   0.278   0.109
 7181SOL    HW233575   5.606   0.134   0.176
 7182SOL     OW33576   0.607   1.629   6.502
 7182SOL    HW133577   0.575   1.595   6.414
 7182SOL    HW233578   0.574   1.568   6.575
 7183SOL     OW33579   1.206   6.346   6.511
 7183SOL    HW133580   1.144   6.383   6.442
 7183SOL    HW233581   1.154   6.309   6.588
 7184SOL     OW33582   3.086   3.928   1.322
 7184SOL    HW133583   3.057   3.994   1.253
 7184SOL    HW233584   3.075   3.968   1.413
 7185SOL     OW33585   5.880   7.300   5.705
 7185SOL    HW133586   5.812   7.236   5.670
 7185SOL    HW233587   5.924   7.346   5.628
 7186SOL     OW33588   6.323   5.652   6.025
 7186SOL    HW133589   6.270   5.582   5.977
 7186SOL    HW233590   6.288   5.661   6.118
 7187SOL     OW33591   0.919   5.068   0.502
 7187SOL    HW133592   0.862   4.990   0.476
 7187SOL    HW233593   0.958   5.109   0.419
 7188SOL     OW33594   8.513   7.835   6.504
 7188SOL    HW133595   8.476   7.755   6.550
 7188SOL    HW233596   8.484   7.834   6.408
 7189SOL     OW33597   1.285   6.708   5.163
 7189SOL    HW133598   1.344   6.651   5.106
 7189SOL    HW233599   1.209   6.653   5.197
 7190SOL     OW33600   9.199   0.114   6.682
 7190SOL    HW133601   9.232   0.125   6.589
 7190SOL    HW233602   9.109   0.157   6.692
 7191SOL     OW33603   0.136   5.026   0.814
 7191SOL    HW133604   0.178   4.938   0.836
 7191SOL    HW233605   0.036   5.016   0.816
 7192SOL     OW33606   8.258   8.282   6.258
 7192SOL    HW133607   8.165   8.308   6.283
 7192SOL    HW233608   8.268   8.182   6.265
 7193SOL     OW33609   4.884   4.507   0.549
 7193SOL    HW133610   4.786   4.509   0.530
 7193SOL    HW233611   4.925   4.595   0.525
 7194SOL     OW33612   5.419   5.637   1.373
 7194SOL    HW133613   5.321   5.641   1.392
 7194SOL    HW233614   5.441   5.699   1.297
 7195SOL     OW33615   1.088   8.213   0.972
 7195SOL    HW133616   1.158   8.282   0.954
 7195SOL    HW233617   1.127   8.122   0.957
 7196SOL     OW33618   6.489   2.046   5.716
 7196SOL    HW133619   6.399   2.075   5.684
 7196SOL    HW233620   6.553   2.047   5.640
 7197SOL     OW33621   2.308   2.833   6.524
 7197SOL    HW133622   2.239   2.768   6.492
 7197SOL    HW233623   2.332   2.896   6.449
 7198SOL     OW33624   5.321   1.822   6.781
 7198SOL    HW133625   5.343   1.902   6.837
 7198SOL    HW233626   5.398   1.802   6.721
 7199SOL     OW33627   3.785   5.957   5.823
 7199SOL    HW133628   3.873   5.949   5.778
 7199SOL    HW233629   3.717   5.993   5.759
 7200SOL     OW33630   8.460   3.274   6.308
 7200SOL    HW133631   8.410   3.354   6.274
 7200SOL    HW233632   8.395   3.207   6.344
 7201SOL     OW33633   1.468   1.062   0.345
 7201SOL    HW133634   1.381   1.107   0.327
 7201SOL    HW233635   1.463   0.967   0.314
 7202SOL     OW33636   4.240   4.384   1.310
 7202SOL    HW133637   4.145   4.408   1.288
 7202SOL    HW233638   4.247   4.366   1.409
 7203SOL     OW33639   9.386   4.671   6.143
 7203SOL    HW133640   9.428   4.712   6.062
 7203SOL    HW233641   9.451   4.608   6.186
 7204SOL     OW33642   1.668   0.047   6.488
 7204SOL    HW133643   1.659  -0.051   6.470
 7204SOL    HW233644   1.750   0.063   6.542
 7205SOL     OW33645   1.878   2.212   1.326
 7205SOL    HW133646   1.813   2.278   1.289
 7205SOL    HW233647   1.936   2.258   1.394
 7206SOL     OW33648   3.326   7.712   1.387
 7206SOL    HW133649   3.351   7.662   1.304
 7206SOL    HW233650   3.301   7.806   1.362
 7207SOL     OW33651   0.353   1.367   5.728
 7207SOL    HW133652   0.336   1.271   5.706
 7207SOL    HW233653   0.286   1.425   5.682
 7208SOL     OW33654   1.185   5.023   1.830
 7208SOL    HW133655   1.196   4.933   1.871
 7208SOL    HW233656   1.254   5.036   1.759
 7209SOL     OW33657   3.821   7.378   5.625
 7209SOL    HW133658   3.894   7.446   5.624
 7209SOL    HW233659   3.844   7.307   5.692
 7210SOL     OW33660   6.125   2.191   6.745
 7210SOL    HW133661   6.221   2.187   6.774
 7210SOL    HW233662   6.067   2.210   6.824
 7211SOL     OW33663   3.802   2.881   2.012
 7211SOL    HW133664   3.825   2.861   2.107
 7211SOL    HW233665   3.715   2.932   2.009
 7212SOL     OW33666   5.942   6.126   6.315
 7212SOL    HW133667   6.002   6.049   6.295
 7212SOL    HW233668   5.848   6.102   6.292
 7213SOL     OW33669   4.184   4.975   6.360
 7213SOL    HW133670   4.205   5.054   6.304
 7213SOL    HW233671   4.085   4.961   6.363
 7214SOL     OW33672   4.377   3.717   1.055
 7214SOL    HW133673   4.465   3.682   1.087
 7214SOL    HW233674   4.375   3.816   1.065
 7215SOL     OW33675   0.314   5.063   1.344
 7215SOL    HW133676   0.321   5.122   1.425
 7215SOL    HW233677   0.400   5.014   1.330
 7216SOL     OW33678   0.933   7.050   6.111
 7216SOL    HW133679   0.989   6.977   6.074
 7216SOL    HW233680   0.919   7.120   6.041
 7217SOL     OW33681   6.035   0.257   6.068
 7217SOL    HW133682   6.060   0.350   6.095
 7217SOL    HW233683   5.980   0.261   5.984
 7218SOL     OW33684   1.043   0.434   0.561
 7218SOL    HW133685   1.080   0.491   0.488
 7218SOL    HW233686   0.953   0.468   0.588
 7219SOL     OW33687   5.103   4.267   1.263
 7219SOL    HW133688   5.194   4.265   1.303
 7219SOL    HW233689   5.079   4.361   1.240
 7220SOL     OW33690   4.803   5.814   5.271
 7220SOL    HW133691   4.747   5.878   5.219
 7220SOL    HW233692   4.797   5.723   5.229
 7221SOL     OW33693   6.062   0.980   5.951
 7221SOL    HW133694   6.087   0.950   5.859
 7221SOL    HW233695   5.980   0.930   5.981
 7222SOL     OW33696   0.814   5.816   4.701
 7222SOL    HW133697   0.719   5.806   4.730
 7222SOL    HW233698   0.826   5.906   4.659
 7223SOL     OW33699   0.431   7.369   0.950
 7223SOL    HW133700   0.395   7.462   0.946
 7223SOL    HW233701   0.368   7.312   1.004
 7224SOL     OW33702   3.885   8.284   0.469
 7224SOL    HW133703   3.832   8.248   0.545
 7224SOL    HW233704   3.950   8.215   0.437
 7225SOL     OW33705   8.967   0.610   0.666
 7225SOL    HW133706   9.004   0.627   0.757
 7225SOL    HW233707   8.915   0.690   0.636
 7226SOL     OW33708   4.157   6.400   5.154
 7226SOL    HW133709   4.219   6.364   5.084
 7226SOL    HW233710   4.068   6.420   5.112
 7227SOL     OW33711   0.606   1.045   5.088
 7227SOL    HW133712   0.570   1.037   4.995
 7227SOL    HW233713   0.681   1.111   5.090
 7228SOL     OW33714   5.239   3.816   0.366
 7228SOL    HW133715   5.184   3.779   0.292
 7228SOL    HW233716   5.179   3.848   0.439
 7229SOL     OW33717   6.687   5.958   6.347
 7229SOL    HW133718   6.600   6.004   6.330
 7229SOL    HW233719   6.681   5.863   6.315
 7230SOL     OW33720   8.659   8.436   0.646
 7230SOL    HW133721   8.622   8.477   0.729
 7230SOL    HW233722   8.635   8.339   0.644
 7231SOL     OW33723   6.317   5.507   5.281
 7231SOL    HW133724   6.292   5.518   5.185
 7231SOL    HW233725   6.248   5.453   5.328
 7232SOL     OW33726   1.017   3.004   5.306
 7232SOL    HW133727   0.940   3.034   5.248
 7232SOL    HW233728   1.099   2.994   5.250
 7233SOL     OW33729   1.127   7.213   4.697
 7233SOL    HW133730   1.199   7.248   4.637
 7233SOL    HW233731   1.139   7.115   4.710
 7234SOL     OW33732   8.031   4.834   6.832
 7234SOL    HW133733   7.965   4.876   6.770
 7234SOL    HW233734   8.061   4.901   6.900
 7235SOL     OW33735   2.792   1.492   1.633
 7235SOL    HW133736   2.744   1.419   1.586
 7235SOL    HW233737   2.751   1.509   1.723
 7236SOL     OW33738   6.644   7.519   6.585
 7236SOL    HW133739   6.637   7.423   6.614
 7236SOL    HW233740   6.576   7.573   6.635
 7237SOL     OW33741   3.499   5.137   5.980
 7237SOL    HW133742   3.416   5.084   5.960
 7237SOL    HW233743   3.576   5.097   5.931
 7238SOL     OW33744   5.569   2.571   0.211
 7238SOL    HW133745   5.520   2.655   0.236
 7238SOL    HW233746   5.666   2.592   0.198
 7239SOL     OW33747   4.134   2.086   6.611
 7239SOL    HW133748   4.174   2.160   6.665
 7239SOL    HW233749   4.205   2.020   6.588
 7240SOL     OW33750   5.605   4.610   0.995
 7240SOL    HW133751   5.584   4.565   0.908
 7240SOL    HW233752   5.654   4.546   1.054
 7241SOL     OW33753   1.126   6.145   0.700
 7241SOL    HW133754   1.154   6.114   0.791
 7241SOL    HW233755   1.205   6.184   0.653
 7242SOL     OW33756   5.828   0.479   1.550
 7242SOL    HW133757   5.913   0.482   1.602
 7242SOL    HW233758   5.828   0.400   1.490
 7243SOL     OW33759   8.498   2.247   5.335
 7243SOL    HW133760   8.594   2.271   5.319
 7243SOL    HW233761   8.481   2.155   5.300
 7244SOL     OW33762   2.003   4.078   6.598
 7244SOL    HW133763   1.929   4.107   6.658
 7244SOL    HW233764   2.055   4.005   6.643
 7245SOL     OW33765   4.121   6.974   1.885
 7245SOL    HW133766   4.053   7.046   1.902
 7245SOL    HW233767   4.177   6.961   1.967
 7246SOL     OW33768   1.291   8.031   6.770
 7246SOL    HW133769   1.239   7.947   6.754
 7246SOL    HW233770   1.352   8.018   6.849
 7247SOL     OW33771   1.339   5.136   6.224
 7247SOL    HW133772   1.302   5.170   6.138
 7247SOL    HW233773   1.304   5.044   6.241
 7248SOL     OW33774   3.021   2.304   6.452
 7248SOL    HW133775   3.000   2.227   6.512
 7248SOL    HW233776   3.001   2.278   6.357
 7249SOL     OW33777   6.816   7.381   0.429
 7249SOL    HW133778   6.742   7.433   0.472
 7249SOL    HW233779   6.780   7.331   0.350
 7250SOL     OW33780   4.603   0.872   1.054
 7250SOL    HW133781   4.642   0.783   1.031
 7250SOL    HW233782   4.518   0.860   1.104
 7251SOL     OW33783   6.850   7.557   5.835
 7251SOL    HW133784   6.859   7.644   5.884
 7251SOL    HW233785   6.814   7.488   5.898
 7252SOL     OW33786   4.517   7.174   0.644
 7252SOL    HW133787   4.433   7.121   0.658
 7252SOL    HW233788   4.500   7.247   0.578
 7253SOL     OW33789   4.457   6.428   1.259
 7253SOL    HW133790   4.533   6.377   1.219
 7253SOL    HW233791   4.400   6.367   1.314
 7254SOL     OW33792   6.683   3.284   6.499
 7254SOL    HW133793   6.743   3.239   6.566
 7254SOL    HW233794   6.693   3.240   6.410
 7255SOL     OW33795   1.950   0.238   6.632
 7255SOL    HW133796   1.936   0.160   6.693
 7255SOL    HW233797   1.888   0.231   6.554
 7256SOL     OW33798   5.930   2.728   6.688
 7256SOL    HW133799   5.844   2.773   6.664
 7256SOL    HW233800   5.964   2.765   6.774
 7257SOL     OW33801   8.827   0.400   5.934
 7257SOL    HW133802   8.887   0.436   6.005
 7257SOL    HW233803   8.812   0.302   5.949
 7258SOL     OW33804   9.332   6.028   5.374
 7258SOL    HW133805   9.365   6.121   5.364
 7258SOL    HW233806   9.277   6.003   5.295
 7259SOL     OW33807   4.502   2.991   6.164
 7259SOL    HW133808   4.510   3.091   6.159
 7259SOL    HW233809   4.576   2.955   6.220
 7260SOL     OW33810   6.514   2.950   5.925
 7260SOL    HW133811   6.433   2.950   5.866
 7260SOL    HW233812   6.589   2.901   5.881
 7261SOL     OW33813   4.041   5.457   6.737
 7261SOL    HW133814   4.001   5.435   6.648
 7261SOL    HW233815   4.140   5.468   6.726
 7262SOL     OW33816   2.012   6.749   1.106
 7262SOL    HW133817   2.103   6.781   1.130
 7262SOL    HW233818   1.943   6.809   1.148
 7263SOL     OW33819   4.825   1.107   0.834
 7263SOL    HW133820   4.727   1.101   0.814
 7263SOL    HW233821   4.840   1.097   0.932
 7264SOL     OW33822   5.967   0.598   6.486
 7264SOL    HW133823   6.057   0.556   6.498
 7264SOL    HW233824   5.969   0.660   6.407
 7265SOL     OW33825   1.616   6.071   5.164
 7265SOL    HW133826   1.668   6.005   5.110
 7265SOL    HW233827   1.577   6.025   5.244
 7266SOL     OW33828   6.758   7.562   0.746
 7266SOL    HW133829   6.818   7.489   0.714
 7266SOL    HW233830   6.764   7.640   0.684
 7267SOL     OW33831   4.734   4.271   1.104
 7267SOL    HW133832   4.707   4.189   1.053
 7267SOL    HW233833   4.828   4.296   1.079
 7268SOL     OW33834   1.396   2.848   6.525
 7268SOL    HW133835   1.345   2.905   6.590
 7268SOL    HW233836   1.346   2.842   6.439
 7269SOL     OW33837   7.762   7.817   1.147
 7269SOL    HW133838   7.712   7.877   1.085
 7269SOL    HW233839   7.714   7.729   1.154
 7270SOL     OW33840   7.389   0.554   5.781
 7270SOL    HW133841   7.413   0.516   5.871
 7270SOL    HW233842   7.456   0.625   5.756
 7271SOL     OW33843   0.221   4.484   6.059
 7271SOL    HW133844   0.164   4.507   6.138
 7271SOL    HW233845   0.241   4.568   6.008
 7272SOL     OW33846   2.041   0.331   6.291
 7272SOL    HW133847   2.019   0.372   6.203
 7272SOL    HW233848   1.960   0.283   6.326
 7273SOL     OW33849   3.646   5.396   0.757
 7273SOL    HW133850   3.680   5.462   0.824
 7273SOL    HW233851   3.690   5.412   0.669
 7274SOL     OW33852   7.164   3.610   6.222
 7274SOL    HW133853   7.217   3.672   6.164
 7274SOL    HW233854   7.078   3.587   6.177
 7275SOL     OW33855   7.171   0.645   0.593
 7275SOL    HW133856   7.153   0.620   0.497
 7275SOL    HW233857   7.190   0.743   0.598
 7276SOL     OW33858   0.964   2.853   1.211
 7276SOL    HW133859   0.890   2.909   1.249
 7276SOL    HW233860   1.006   2.902   1.134
 7277SOL     OW33861   4.551   5.757   0.558
 7277SOL    HW133862   4.491   5.731   0.634
 7277SOL    HW233863   4.533   5.697   0.480
 7278SOL     OW33864   6.810   7.829   5.879
 7278SOL    HW133865   6.822   7.866   5.788
 7278SOL    HW233866   6.740   7.881   5.928
 7279SOL     OW33867   5.182   6.661   5.802
 7279SOL    HW133868   5.214   6.610   5.882
 7279SOL    HW233869   5.145   6.598   5.734
 7280SOL     OW33870   6.861   2.030   2.103
 7280SOL    HW133871   6.931   1.966   2.069
 7280SOL    HW233872   6.774   2.011   2.059
 7281SOL     OW33873   2.913   1.124   6.682
 7281SOL    HW133874   2.874   1.138   6.591
 7281SOL    HW233875   2.841   1.095   6.745
 7282SOL     OW33876   6.433   8.372   6.042
 7282SOL    HW133877   6.404   8.297   6.101
 7282SOL    HW233878   6.532   8.370   6.030
 7283SOL     OW33879   1.903   1.294   6.173
 7283SOL    HW133880   1.988   1.347   6.169
 7283SOL    HW233881   1.918   1.205   6.131
 7284SOL     OW33882   2.321   5.704   0.752
 7284SOL    HW133883   2.228   5.689   0.785
 7284SOL    HW233884   2.386   5.668   0.819
 7285SOL     OW33885   5.553   2.442   6.696
 7285SOL    HW133886   5.650   2.450   6.672
 7285SOL    HW233887   5.539   2.473   6.790
 7286SOL     OW33888   0.421   6.251   6.498
 7286SOL    HW133889   0.325   6.220   6.495
 7286SOL    HW233890   0.437   6.300   6.583
 7287SOL     OW33891   8.932   8.170   0.154
 7287SOL    HW133892   8.946   8.087   0.100
 7287SOL    HW233893   9.017   8.194   0.200
 7288SOL     OW33894   5.519   7.151   0.992
 7288SOL    HW133895   5.612   7.167   0.959
 7288SOL    HW233896   5.503   7.205   1.075
 7289SOL     OW33897   0.943   1.368   5.529
 7289SOL    HW133898   0.858   1.420   5.529
 7289SOL    HW233899   0.947   1.310   5.449
 7290SOL     OW33900   2.991   2.101   0.220
 7290SOL    HW133901   2.901   2.067   0.192
 7290SOL    HW233902   3.057   2.025   0.218
 7291SOL     OW33903   0.715   3.546   6.075
 7291SOL    HW133904   0.776   3.604   6.129
 7291SOL    HW233905   0.707   3.456   6.118
 7292SOL     OW33906   4.797   5.134   5.960
 7292SOL    HW133907   4.859   5.169   5.890
 7292SOL    HW233908   4.848   5.085   6.030
 7293SOL     OW33909   4.203   1.923   1.724
 7293SOL    HW133910   4.157   2.012   1.725
 7293SOL    HW233911   4.299   1.934   1.749
 7294SOL     OW33912   0.485   4.049   6.183
 7294SOL    HW133913   0.494   3.958   6.141
 7294SOL    HW233914   0.488   4.040   6.283
 7295SOL     OW33915   3.753   5.154   0.295
 7295SOL    HW133916   3.673   5.168   0.237
 7295SOL    HW233917   3.831   5.202   0.255
 7296SOL     OW33918   4.373   2.017   5.617
 7296SOL    HW133919   4.289   1.964   5.621
 7296SOL    HW233920   4.382   2.072   5.700
 7297SOL     OW33921   4.957   5.785   5.522
 7297SOL    HW133922   5.046   5.765   5.481
 7297SOL    HW233923   4.892   5.809   5.450
 7298SOL     OW33924   4.550   7.640   6.559
 7298SOL    HW133925   4.643   7.671   6.581
 7298SOL    HW233926   4.497   7.715   6.521
 7299SOL     OW33927   5.881   3.579   0.367
 7299SOL    HW133928   5.980   3.584   0.381
 7299SOL    HW233929   5.849   3.488   0.395
 7300SOL     OW33930   3.762   2.252   0.267
 7300SOL    HW133931   3.745   2.268   0.365
 7300SOL    HW233932   3.690   2.194   0.230
 7301SOL     OW33933   8.593   3.832   0.341
 7301SOL    HW133934   8.675   3.815   0.286
 7301SOL    HW233935   8.520   3.770   0.310
 7302SOL     OW33936   1.622   5.516   0.418
 7302SOL    HW133937   1.634   5.476   0.509
 7302SOL    HW233938   1.530   5.553   0.409
 7303SOL     OW33939   6.892   7.951   1.130
 7303SOL    HW133940   6.793   7.950   1.144
 7303SOL    HW233941   6.938   7.908   1.208
 7304SOL     OW33942   8.285   0.744   5.901
 7304SOL    HW133943   8.313   0.804   5.827
 7304SOL    HW233944   8.186   0.740   5.906
 7305SOL     OW33945   5.476   5.734   0.570
 7305SOL    HW133946   5.553   5.687   0.614
 7305SOL    HW233947   5.500   5.830   0.555
 7306SOL     OW33948   1.719   6.006   0.959
 7306SOL    HW133949   1.781   5.952   0.902
 7306SOL    HW233950   1.747   5.999   1.055
 7307SOL     OW33951   4.367   1.777   0.303
 7307SOL    HW133952   4.332   1.798   0.394
 7307SOL    HW233953   4.378   1.862   0.251
 7308SOL     OW33954   9.362   0.663   6.692
 7308SOL    HW133955   9.439   0.704   6.742
 7308SOL    HW233956   9.291   0.732   6.680
 7309SOL     OW33957   4.416   2.963   5.921
 7309SOL    HW133958   4.394   3.058   5.900
 7309SOL    HW233959   4.468   2.959   6.006
 7310SOL     OW33960   9.063   0.691   5.954
 7310SOL    HW133961   9.121   0.764   5.991
 7310SOL    HW233962   8.977   0.730   5.923
 7311SOL     OW33963   6.909   7.289   5.751
 7311SOL    HW133964   6.948   7.333   5.670
 7311SOL    HW233965   6.959   7.320   5.832
 7312SOL     OW33966   1.510   0.889   6.332
 7312SOL    HW133967   1.494   0.813   6.396
 7312SOL    HW233968   1.567   0.958   6.376
 7313SOL     OW33969   6.087   3.454   0.504
 7313SOL    HW133970   6.041   3.365   0.505
 7313SOL    HW233971   6.089   3.491   0.597
 7314SOL     OW33972   1.289   8.417   0.930
 7314SOL    HW133973   1.280   8.487   1.001
 7314SOL    HW233974   1.372   8.363   0.946
 7315SOL     OW33975   9.253   3.115   5.930
 7315SOL    HW133976   9.330   3.135   5.870
 7315SOL    HW233977   9.174   3.170   5.902
 7316SOL     OW33978   5.610   3.692   1.274
 7316SOL    HW133979   5.518   3.721   1.246
 7316SOL    HW233980   5.652   3.764   1.328
 7317SOL     OW33981   6.141   5.003   5.352
 7317SOL    HW133982   6.073   5.019   5.280
 7317SOL    HW233983   6.209   5.077   5.350
 7318SOL     OW33984   3.006   4.999   6.171
 7318SOL    HW133985   2.913   4.984   6.205
 7318SOL    HW233986   3.054   5.063   6.230
 7319SOL     OW33987   5.703   5.678   0.859
 7319SOL    HW133988   5.671   5.767   0.891
 7319SOL    HW233989   5.717   5.618   0.937
 7320SOL     OW33990   4.507   0.800   6.085
 7320SOL    HW133991   4.427   0.752   6.121
 7320SOL    HW233992   4.587   0.777   6.140
 7321SOL     OW33993   7.652   1.330   0.455
 7321SOL    HW133994   7.740   1.331   0.407
 7321SOL    HW233995   7.597   1.408   0.424
 7322SOL     OW33996   0.238   8.420   0.558
 7322SOL    HW133997   0.266   8.324   0.559
 7322SOL    HW233998   0.141   8.426   0.535
 7323SOL     OW33999   6.112   6.042   1.001
 7323SOL    HW134000   6.208   6.025   1.022
 7323SOL    HW234001   6.056   6.020   1.081
 7324SOL     OW34002   1.277   1.112   6.779
 7324SOL    HW134003   1.211   1.043   6.750
 7324SOL    HW234004   1.236   1.170   6.850
 7325SOL     OW34005   7.926   6.118   6.114
 7325SOL    HW134006   7.887   6.082   6.029
 7325SOL    HW234007   7.882   6.074   6.192
 7326SOL     OW34008   7.877   7.870   0.761
 7326SOL    HW134009   7.910   7.938   0.696
 7326SOL    HW234010   7.778   7.857   0.748
 7327SOL     OW34011   0.948   0.640   1.597
 7327SOL    HW134012   0.983   0.663   1.688
 7327SOL    HW234013   0.861   0.688   1.582
 7328SOL     OW34014   5.234   8.235   0.476
 7328SOL    HW134015   5.203   8.141   0.461
 7328SOL    HW234016   5.334   8.236   0.481
 7329SOL     OW34017   0.350   0.268   4.717
 7329SOL    HW134018   0.413   0.322   4.772
 7329SOL    HW234019   0.296   0.329   4.659
 7330SOL     OW34020   1.344  -0.044   6.238
 7330SOL    HW134021   1.384  -0.066   6.149
 7330SOL    HW234022   1.385  -0.103   6.309
 7331SOL     OW34023   6.313   5.484   1.264
 7331SOL    HW134024   6.375   5.413   1.298
 7331SOL    HW234025   6.274   5.456   1.177
 7332SOL     OW34026   2.266   0.660   0.439
 7332SOL    HW134027   2.314   0.748   0.433
 7332SOL    HW234028   2.319   0.597   0.496
 7333SOL     OW34029   2.717   5.993   0.622
 7333SOL    HW134030   2.759   5.935   0.692
 7333SOL    HW234031   2.713   5.942   0.536
 7334SOL     OW34032   8.958   0.431   0.313
 7334SOL    HW134033   8.905   0.439   0.228
 7334SOL    HW234034   9.050   0.467   0.297
 7335SOL     OW34035   0.158   2.781   6.014
 7335SOL    HW134036   0.164   2.820   5.922
 7335SOL    HW234037   0.062   2.766   6.037
 7336SOL     OW34038   8.742   5.638   5.935
 7336SOL    HW134039   8.838   5.651   5.909
 7336SOL    HW234040   8.727   5.679   6.025
 7337SOL     OW34041   8.414   8.069   0.580
 7337SOL    HW134042   8.329   8.117   0.556
 7337SOL    HW234043   8.478   8.074   0.503
 7338SOL     OW34044   6.626   0.836   1.212
 7338SOL    HW134045   6.703   0.830   1.275
 7338SOL    HW234046   6.585   0.745   1.201
 7339SOL     OW34047   1.916   4.154   0.456
 7339SOL    HW134048   1.959   4.236   0.420
 7339SOL    HW234049   1.829   4.177   0.500
 7340SOL     OW34050   0.740   8.387   0.212
 7340SOL    HW134051   0.653   8.413   0.168
 7340SOL    HW234052   0.733   8.403   0.310
 7341SOL     OW34053   7.096   5.120   1.445
 7341SOL    HW134054   7.042   5.075   1.516
 7341SOL    HW234055   7.117   5.055   1.372
 7342SOL     OW34056   2.074   1.182   1.583
 7342SOL    HW134057   2.155   1.124   1.570
 7342SOL    HW234058   2.089   1.241   1.663
 7343SOL     OW34059   3.414   8.393   1.330
 7343SOL    HW134060   3.441   8.316   1.386
 7343SOL    HW234061   3.492   8.424   1.275
 7344SOL     OW34062   3.910   4.698   6.838
 7344SOL    HW134063   3.852   4.779   6.831
 7344SOL    HW234064   3.871   4.625   6.781
 7345SOL     OW34065   0.383   7.185   4.317
 7345SOL    HW134066   0.418   7.144   4.401
 7345SOL    HW234067   0.384   7.118   4.244
 7346SOL     OW34068   8.866   5.770   6.433
 7346SOL    HW134069   8.835   5.865   6.445
 7346SOL    HW234070   8.908   5.760   6.343
 7347SOL     OW34071   9.574   7.738   5.932
 7347SOL    HW134072   9.567   7.826   5.886
 7347SOL    HW234073   9.621   7.673   5.872
 7348SOL     OW34074   5.527   6.118   0.325
 7348SOL    HW134075   5.586   6.066   0.263
 7348SOL    HW234076   5.511   6.210   0.287
 7349SOL     OW34077   4.180   2.851   5.958
 7349SOL    HW134078   4.110   2.908   5.915
 7349SOL    HW234079   4.271   2.887   5.935
 7350SOL     OW34080   4.994   5.286   5.408
 7350SOL    HW134081   4.994   5.199   5.358
 7350SOL    HW234082   4.908   5.295   5.458
 7351SOL     OW34083   1.489   5.602   1.370
 7351SOL    HW134084   1.570   5.661   1.365
 7351SOL    HW234085   1.502   5.534   1.441
 7352SOL     OW34086   6.353  -0.002   6.434
 7352SOL    HW134087   6.448  -0.012   6.402
 7352SOL    HW234088   6.291  -0.010   6.357
 7353SOL     OW34089   4.175   4.716   6.275
 7353SOL    HW134090   4.193   4.688   6.181
 7353SOL    HW234091   4.206   4.809   6.289
 7354SOL     OW34092   2.911   6.268   0.769
 7354SOL    HW134093   2.945   6.207   0.841
 7354SOL    HW234094   2.859   6.215   0.702
 7355SOL     OW34095   7.492   6.316   1.491
 7355SOL    HW134096   7.451   6.395   1.537
 7355SOL    HW234097   7.590   6.314   1.508
 7356SOL     OW34098   0.458   4.584   6.312
 7356SOL    HW134099   0.517   4.507   6.338
 7356SOL    HW234100   0.363   4.562   6.335
 7357SOL     OW34101   7.760   0.945   5.610
 7357SOL    HW134102   7.679   0.965   5.555
 7357SOL    HW234103   7.840   0.990   5.569
 7358SOL     OW34104   8.346   5.066   5.705
 7358SOL    HW134105   8.322   4.974   5.676
 7358SOL    HW234106   8.264   5.115   5.734
 7359SOL     OW34107   0.205   5.512   5.951
 7359SOL    HW134108   0.251   5.593   5.988
 7359SOL    HW234109   0.264   5.469   5.883
 7360SOL     OW34110   0.964   6.642   1.172
 7360SOL    HW134111   0.955   6.672   1.267
 7360SOL    HW234112   0.895   6.689   1.116
 7361SOL     OW34113   9.311   4.092   1.383
 7361SOL    HW134114   9.357   4.133   1.462
 7361SOL    HW234115   9.254   4.161   1.338
 7362SOL     OW34116   6.076   4.390   6.658
 7362SOL    HW134117   5.982   4.423   6.653
 7362SOL    HW234118   6.113   4.381   6.565
 7363SOL     OW34119   3.676   8.285   6.654
 7363SOL    HW134120   3.754   8.327   6.701
 7363SOL    HW234121   3.618   8.357   6.615
 7364SOL     OW34122   5.249   3.912   1.065
 7364SOL    HW134123   5.170   3.956   1.108
 7364SOL    HW234124   5.324   3.978   1.057
 7365SOL     OW34125   1.155   3.083   0.868
 7365SOL    HW134126   1.111   3.136   0.940
 7365SOL    HW234127   1.132   3.121   0.778
 7366SOL     OW34128   4.451   6.839   0.738
 7366SOL    HW134129   4.395   6.910   0.781
 7366SOL    HW234130   4.394   6.760   0.715
 7367SOL     OW34131   2.560   2.937   0.866
 7367SOL    HW134132   2.575   2.947   0.768
 7367SOL    HW234133   2.578   3.025   0.911
 7368SOL     OW34134   6.832   7.242   0.790
 7368SOL    HW134135   6.931   7.238   0.774
 7368SOL    HW234136   6.812   7.197   0.877
 7369SOL     OW34137   5.443   6.681   5.715
 7369SOL    HW134138   5.501   6.600   5.720
 7369SOL    HW234139   5.370   6.674   5.783
 7370SOL     OW34140   9.521   1.702   5.926
 7370SOL    HW134141   9.521   1.624   5.863
 7370SOL    HW234142   9.563   1.675   6.013
 7371SOL     OW34143   1.939   4.403   0.781
 7371SOL    HW134144   1.859   4.356   0.744
 7371SOL    HW234145   2.001   4.337   0.821
 7372SOL     OW34146   8.880   0.797   6.321
 7372SOL    HW134147   8.818   0.763   6.250
 7372SOL    HW234148   8.869   0.743   6.404
 7373SOL     OW34149   1.109   0.676   1.378
 7373SOL    HW134150   1.047   0.651   1.452
 7373SOL    HW234151   1.203   0.656   1.405
 7374SOL     OW34152   5.588   7.606   1.555
 7374SOL    HW134153   5.669   7.652   1.591
 7374SOL    HW234154   5.519   7.600   1.627
 7375SOL     OW34155   7.761   6.954   6.521
 7375SOL    HW134156   7.694   6.927   6.452
 7375SOL    HW234157   7.851   6.960   6.479
 7376SOL     OW34158   6.417   4.379   1.201
 7376SOL    HW134159   6.373   4.465   1.175
 7376SOL    HW234160   6.425   4.375   1.300
 7377SOL     OW34161   1.817   3.240   6.418
 7377SOL    HW134162   1.885   3.245   6.492
 7377SOL    HW234163   1.735   3.291   6.444
 7378SOL     OW34164   9.452   7.855   0.773
 7378SOL    HW134165   9.365   7.818   0.740
 7378SOL    HW234166   9.508   7.781   0.810
 7379SOL     OW34167   3.554   0.936   2.312
 7379SOL    HW134168   3.587   0.933   2.406
 7379SOL    HW234169   3.514   0.848   2.287
 7380SOL     OW34170   5.127   5.297   5.834
 7380SOL    HW134171   5.080   5.365   5.778
 7380SOL    HW234172   5.127   5.209   5.786
 7381SOL     OW34173   3.138   4.747   6.400
 7381SOL    HW134174   3.228   4.708   6.383
 7381SOL    HW234175   3.148   4.839   6.437
 7382SOL     OW34176   2.567   3.201   6.218
 7382SOL    HW134177   2.657   3.217   6.259
 7382SOL    HW234178   2.579   3.167   6.124
 7383SOL     OW34179   0.411   4.846   6.516
 7383SOL    HW134180   0.416   4.843   6.616
 7383SOL    HW234181   0.502   4.869   6.479
 7384SOL     OW34182   5.166   6.043   6.623
 7384SOL    HW134183   5.114   6.091   6.552
 7384SOL    HW234184   5.187   6.106   6.697
 7385SOL     OW34185   2.248   1.300   6.232
 7385SOL    HW134186   2.205   1.220   6.273
 7385SOL    HW234187   2.298   1.272   6.149
 7386SOL     OW34188   2.629   7.740   5.950
 7386SOL    HW134189   2.574   7.657   5.959
 7386SOL    HW234190   2.710   7.733   6.008
 7387SOL     OW34191   6.123   5.463   5.965
 7387SOL    HW134192   6.202   5.402   5.971
 7387SOL    HW234193   6.059   5.443   6.040
 7388SOL     OW34194   8.404   6.663   1.051
 7388SOL    HW134195   8.504   6.672   1.043
 7388SOL    HW234196   8.382   6.582   1.104
 7389SOL     OW34197   2.212   6.248   6.260
 7389SOL    HW134198   2.294   6.288   6.219
 7389SOL    HW234199   2.130   6.289   6.218
 7390SOL     OW34200   2.553   7.941   0.390
 7390SOL    HW134201   2.539   7.876   0.464
 7390SOL    HW234202   2.615   7.903   0.322
 7391SOL     OW34203   0.553   6.492   4.172
 7391SOL    HW134204   0.650   6.469   4.173
 7391SOL    HW234205   0.536   6.567   4.236
 7392SOL     OW34206   5.449   2.930   0.669
 7392SOL    HW134207   5.374   2.949   0.606
 7392SOL    HW234208   5.452   2.999   0.741
 7393SOL     OW34209   2.386   7.304   6.727
 7393SOL    HW134210   2.467   7.303   6.786
 7393SOL    HW234211   2.344   7.394   6.728
 7394SOL     OW34212   1.400   5.572   5.127
 7394SOL    HW134213   1.483   5.534   5.085
 7394SOL    HW234214   1.344   5.616   5.057
 7395SOL     OW34215   9.538   3.939   1.702
 7395SOL    HW134216   9.475   4.002   1.656
 7395SOL    HW234217   9.565   3.978   1.790
 7396SOL     OW34218   8.988   5.736   6.196
 7396SOL    HW134219   8.962   5.780   6.111
 7396SOL    HW234220   9.013   5.641   6.178
 7397SOL     OW34221   2.278   7.588   6.701
 7397SOL    HW134222   2.335   7.658   6.743
 7397SOL    HW234223   2.274   7.602   6.602
 7398SOL     OW34224   0.216   2.167   6.576
 7398SOL    HW134225   0.194   2.091   6.638
 7398SOL    HW234226   0.303   2.148   6.530
 7399SOL     OW34227   1.946   0.280   5.321
 7399SOL    HW134228   2.018   0.271   5.252
 7399SOL    HW234229   1.955   0.369   5.366
 7400SOL     OW34230   7.078   5.202   5.021
 7400SOL    HW134231   7.032   5.187   4.933
 7400SOL    HW234232   7.177   5.208   5.006
 7401SOL     OW34233   5.419   7.288   0.238
 7401SOL    HW134234   5.469   7.327   0.162
 7401SOL    HW234235   5.330   7.333   0.247
 7402SOL     OW34236   0.526   3.116   0.251
 7402SOL    HW134237   0.454   3.050   0.275
 7402SOL    HW234238   0.511   3.201   0.301
 7403SOL     OW34239   8.971   4.922   5.903
 7403SOL    HW134240   8.957   4.907   6.001
 7403SOL    HW234241   9.047   4.866   5.871
 7404SOL     OW34242   4.497   8.371   0.769
 7404SOL    HW134243   4.593   8.362   0.742
 7404SOL    HW234244   4.486   8.340   0.864
 7405SOL     OW34245   1.956   2.101   5.959
 7405SOL    HW134246   1.972   2.057   6.047
 7405SOL    HW234247   1.860   2.128   5.952
 7406SOL     OW34248   2.227   0.678   6.781
 7406SOL    HW134249   2.253   0.771   6.803
 7406SOL    HW234250   2.138   0.678   6.735
 7407SOL     OW34251   1.221   5.257   5.594
 7407SOL    HW134252   1.306   5.279   5.546
 7407SOL    HW234253   1.203   5.327   5.663
 7408SOL     OW34254   0.671   1.052   1.027
 7408SOL    HW134255   0.642   0.976   0.969
 7408SOL    HW234256   0.653   1.030   1.123
 7409SOL     OW34257   7.036   6.039   0.138
 7409SOL    HW134258   7.096   6.065   0.214
 7409SOL    HW234259   7.029   6.116   0.074
 7410SOL     OW34260   6.605   8.075   0.524
 7410SOL    HW134261   6.559   8.155   0.486
 7410SOL    HW234262   6.689   8.057   0.471
 7411SOL     OW34263   2.229   5.974   0.875
 7411SOL    HW134264   2.316   5.932   0.851
 7411SOL    HW234265   2.194   5.933   0.959
 7412SOL     OW34266   4.222   7.773   0.177
 7412SOL    HW134267   4.264   7.856   0.140
 7412SOL    HW234268   4.123   7.775   0.160
 7413SOL     OW34269   6.830   1.864   6.504
 7413SOL    HW134270   6.763   1.806   6.457
 7413SOL    HW234271   6.921   1.823   6.494
 7414SOL     OW34272   0.217   0.328   6.793
 7414SOL    HW134273   0.219   0.263   6.869
 7414SOL    HW234274   0.303   0.323   6.743
 7415SOL     OW34275   1.834   3.923   5.729
 7415SOL    HW134276   1.783   3.857   5.675
 7415SOL    HW234277   1.800   4.016   5.709
 7416SOL     OW34278   2.529   0.951   6.770
 7416SOL    HW134279   2.436   0.927   6.798
 7416SOL    HW234280   2.528   1.042   6.727
 7417SOL     OW34281   3.086   7.539   5.378
 7417SOL    HW134282   3.107   7.634   5.404
 7417SOL    HW234283   3.170   7.495   5.345
 7418SOL     OW34284   0.594   5.120   0.809
 7418SOL    HW134285   0.501   5.156   0.820
 7418SOL    HW234286   0.589   5.023   0.786
 7419SOL     OW34287   5.990   2.052   0.425
 7419SOL    HW134288   5.943   2.132   0.461
 7419SOL    HW234289   5.942   1.969   0.452
 7420SOL     OW34290   7.125   0.945   5.722
 7420SOL    HW134291   7.044   0.975   5.773
 7420SOL    HW234292   7.118   0.975   5.627
 7421SOL     OW34293   6.231   6.664   1.301
 7421SOL    HW134294   6.317   6.615   1.286
 7421SOL    HW234295   6.173   6.655   1.219
 7422SOL     OW34296   0.781   8.061   5.888
 7422SOL    HW134297   0.756   8.121   5.811
 7422SOL    HW234298   0.880   8.064   5.901
 7423SOL     OW34299   8.382   7.407   6.845
 7423SOL    HW134300   8.336   7.475   6.902
 7423SOL    HW234301   8.476   7.437   6.826
 7424SOL     OW34302   4.122   2.631   6.702
 7424SOL    HW134303   4.057   2.556   6.696
 7424SOL    HW234304   4.149   2.660   6.610
 7425SOL     OW34305   6.049   0.286   5.552
 7425SOL    HW134306   6.122   0.245   5.498
 7425SOL    HW234307   5.973   0.221   5.561
 7426SOL     OW34308   1.715   7.353   6.166
 7426SOL    HW134309   1.745   7.448   6.150
 7426SOL    HW234310   1.667   7.320   6.085
 7427SOL     OW34311   9.109   2.561   6.754
 7427SOL    HW134312   9.111   2.610   6.841
 7427SOL    HW234313   9.029   2.590   6.701
 7428SOL     OW34314   1.110   4.475   5.726
 7428SOL    HW134315   1.201   4.469   5.767
 7428SOL    HW234316   1.118   4.493   5.628
 7429SOL     OW34317   6.597   1.620   6.826
 7429SOL    HW134318   6.637   1.710   6.842
 7429SOL    HW234319   6.641   1.553   6.887
 7430SOL     OW34320   1.941   6.455   1.123
 7430SOL    HW134321   1.896   6.409   1.047
 7430SOL    HW234322   1.968   6.547   1.094
 7431SOL     OW34323   0.169   5.229   6.699
 7431SOL    HW134324   0.230   5.283   6.757
 7431SOL    HW234325   0.176   5.132   6.724
 7432SOL     OW34326   2.225   5.196   0.756
 7432SOL    HW134327   2.288   5.201   0.833
 7432SOL    HW234328   2.186   5.105   0.750
 7433SOL     OW34329   4.022   1.473   1.675
 7433SOL    HW134330   4.089   1.546   1.669
 7433SOL    HW234331   4.068   1.386   1.695
 7434SOL     OW34332   0.345   6.532   5.915
 7434SOL    HW134333   0.297   6.619   5.918
 7434SOL    HW234334   0.284   6.459   5.947
 7435SOL     OW34335   7.745   7.238   1.506
 7435SOL    HW134336   7.742   7.194   1.595
 7435SOL    HW234337   7.807   7.317   1.509
 7436SOL     OW34338   3.951   0.341   6.289
 7436SOL    HW134339   4.038   0.290   6.289
 7436SOL    HW234340   3.896   0.310   6.367
 7437SOL     OW34341   3.439   4.018   0.363
 7437SOL    HW134342   3.361   3.982   0.413
 7437SOL    HW234343   3.433   4.117   0.357
 7438SOL     OW34344   0.147   8.420   6.289
 7438SOL    HW134345   0.183   8.360   6.361
 7438SOL    HW234346   0.185   8.511   6.300
 7439SOL     OW34347   3.773   1.427   1.260
 7439SOL    HW134348   3.795   1.334   1.291
 7439SOL    HW234349   3.814   1.493   1.324
 7440SOL     OW34350   4.164   5.448   1.025
 7440SOL    HW134351   4.109   5.525   1.058
 7440SOL    HW234352   4.179   5.383   1.099
 7441SOL     OW34353   9.477   7.082   5.059
 7441SOL    HW134354   9.496   7.034   4.973
 7441SOL    HW234355   9.532   7.165   5.064
 7442SOL     OW34356   4.942   4.033   6.476
 7442SOL    HW134357   5.036   4.066   6.468
 7442SOL    HW234358   4.938   3.938   6.445
 7443SOL     OW34359   5.734   4.784   5.971
 7443SOL    HW134360   5.644   4.758   5.934
 7443SOL    HW234361   5.790   4.703   5.985
 7444SOL     OW34362   3.239   5.088   5.757
 7444SOL    HW134363   3.294   5.016   5.800
 7444SOL    HW234364   3.215   5.059   5.664
 7445SOL     OW34365   8.355   2.556   1.483
 7445SOL    HW134366   8.388   2.518   1.570
 7445SOL    HW234367   8.335   2.482   1.420
 7446SOL     OW34368   2.742   7.616   1.206
 7446SOL    HW134369   2.803   7.600   1.284
 7446SOL    HW234370   2.648   7.592   1.232
 7447SOL     OW34371   0.262   2.380   0.822
 7447SOL    HW134372   0.319   2.298   0.825
 7447SOL    HW234373   0.317   2.459   0.851
 7448SOL     OW34374   8.803   7.040   5.995
 7448SOL    HW134375   8.771   6.951   5.960
 7448SOL    HW234376   8.735   7.075   6.060
 7449SOL     OW34377   9.434   2.284   0.203
 7449SOL    HW134378   9.477   2.219   0.267
 7449SOL    HW234379   9.501   2.312   0.134
 7450SOL     OW34380   2.118   3.288   5.208
 7450SOL    HW134381   2.174   3.323   5.132
 7450SOL    HW234382   2.059   3.214   5.175
 7451SOL     OW34383   6.921   8.425   6.728
 7451SOL    HW134384   6.932   8.374   6.643
 7451SOL    HW234385   6.845   8.388   6.780
 7452SOL     OW34386   3.240   7.028   6.182
 7452SOL    HW134387   3.263   6.930   6.176
 7452SOL    HW234388   3.154   7.045   6.134
 7453SOL     OW34389   5.757   8.346   6.260
 7453SOL    HW134390   5.670   8.367   6.215
 7453SOL    HW234391   5.783   8.423   6.318
 7454SOL     OW34392   6.381   6.445   0.834
 7454SOL    HW134393   6.445   6.380   0.793
 7454SOL    HW234394   6.310   6.396   0.883
 7455SOL     OW34395   0.521   6.080   5.934
 7455SOL    HW134396   0.489   6.037   6.019
 7455SOL    HW234397   0.540   6.177   5.951
 7456SOL     OW34398   8.828   7.849   5.707
 7456SOL    HW134399   8.880   7.767   5.730
 7456SOL    HW234400   8.732   7.826   5.694
 7457SOL     OW34401   0.818   2.407   1.549
 7457SOL    HW134402   0.813   2.473   1.624
 7457SOL    HW234403   0.913   2.384   1.530
 7458SOL     OW34404   5.660   4.869   2.037
 7458SOL    HW134405   5.638   4.786   2.088
 7458SOL    HW234406   5.609   4.946   2.074
 7459SOL     OW34407   5.359   4.266   1.394
 7459SOL    HW134408   5.433   4.298   1.335
 7459SOL    HW234409   5.397   4.229   1.479
 7460SOL     OW34410   2.636   3.463   0.341
 7460SOL    HW134411   2.725   3.438   0.379
 7460SOL    HW234412   2.565   3.449   0.410
 7461SOL     OW34413   4.126   0.861   5.326
 7461SOL    HW134414   4.205   0.840   5.383
 7461SOL    HW234415   4.051   0.896   5.383
 7462SOL     OW34416   1.559   2.124   1.082
 7462SOL    HW134417   1.589   2.104   1.175
 7462SOL    HW234418   1.506   2.209   1.082
 7463SOL     OW34419   4.567   1.982   6.017
 7463SOL    HW134420   4.551   1.973   5.919
 7463SOL    HW234421   4.567   2.078   6.043
 7464SOL     OW34422   7.971   6.966   6.148
 7464SOL    HW134423   8.035   6.969   6.071
 7464SOL    HW234424   8.021   6.983   6.233
 7465SOL     OW34425   2.904   7.617   6.726
 7465SOL    HW134426   2.957   7.581   6.803
 7465SOL    HW234427   2.937   7.709   6.703
 7466SOL     OW34428   6.488   7.809   5.220
 7466SOL    HW134429   6.570   7.800   5.276
 7466SOL    HW234430   6.493   7.894   5.167
 7467SOL     OW34431   1.655   3.765   0.609
 7467SOL    HW134432   1.728   3.807   0.663
 7467SOL    HW234433   1.570   3.764   0.662
 7468SOL     OW34434   3.022   2.372   5.936
 7468SOL    HW134435   3.079   2.340   5.860
 7468SOL    HW234436   3.026   2.307   6.011
 7469SOL     OW34437   8.061   1.057   6.365
 7469SOL    HW134438   8.083   1.034   6.271
 7469SOL    HW234439   8.024   0.977   6.412
 7470SOL     OW34440   7.873   2.826   6.285
 7470SOL    HW134441   7.894   2.750   6.224
 7470SOL    HW234442   7.788   2.806   6.335
 7471SOL     OW34443   0.728   6.611   6.515
 7471SOL    HW134444   0.664   6.683   6.542
 7471SOL    HW234445   0.803   6.652   6.463
 7472SOL     OW34446   3.107   3.567   0.671
 7472SOL    HW134447   3.187   3.582   0.613
 7472SOL    HW234448   3.029   3.540   0.614
 7473SOL     OW34449   6.476   1.684   1.658
 7473SOL    HW134450   6.451   1.779   1.640
 7473SOL    HW234451   6.430   1.624   1.593
 7474SOL     OW34452   0.245   2.332   0.345
 7474SOL    HW134453   0.184   2.391   0.397
 7474SOL    HW234454   0.295   2.271   0.407
 7475SOL     OW34455   8.444   0.793   6.180
 7475SOL    HW134456   8.429   0.721   6.248
 7475SOL    HW234457   8.389   0.774   6.098
 7476SOL     OW34458   0.439   7.787   0.540
 7476SOL    HW134459   0.418   7.714   0.606
 7476SOL    HW234460   0.528   7.827   0.562
 7477SOL     OW34461   0.986   0.175   1.340
 7477SOL    HW134462   0.958   0.247   1.277
 7477SOL    HW234463   1.001   0.090   1.288
 7478SOL     OW34464   0.675   2.166   6.004
 7478SOL    HW134465   0.623   2.251   6.000
 7478SOL    HW234466   0.771   2.186   6.024
 7479SOL     OW34467   6.810   0.153   6.189
 7479SOL    HW134468   6.908   0.155   6.174
 7479SOL    HW234469   6.766   0.223   6.132
 7480SOL     OW34470   1.208   2.625   6.773
 7480SOL    HW134471   1.251   2.692   6.834
 7480SOL    HW234472   1.242   2.637   6.680
 7481SOL     OW34473   5.819   3.764   6.827
 7481SOL    HW134474   5.898   3.808   6.871
 7481SOL    HW234475   5.845   3.673   6.799
 7482SOL     OW34476   3.936   5.788   6.833
 7482SOL    HW134477   3.924   5.690   6.813
 7482SOL    HW234478   3.909   5.806   6.927
 7483SOL     OW34479   2.267   4.460   6.896
 7483SOL    HW134480   2.202   4.479   6.970
 7483SOL    HW234481   2.265   4.535   6.830
 7484SOL     OW34482   8.349   3.045   6.760
 7484SOL    HW134483   8.257   3.006   6.747
 7484SOL    HW234484   8.409   2.976   6.798
 7485SOL     OW34485   3.427   8.173   6.909
 7485SOL    HW134486   3.407   8.099   6.844
 7485SOL    HW234487   3.356   8.243   6.901
 7486SOL     OW34488   0.974   1.318   6.806
 7486SOL    HW134489   0.964   1.328   6.905
 7486SOL    HW234490   0.887   1.289   6.767
 7487SOL     OW34491   3.947   4.196   6.880
 7487SOL    HW134492   3.903   4.114   6.841
 7487SOL    HW234493   3.985   4.174   6.969
 7488SOL     OW34494   8.905   0.452   6.865
 7488SOL    HW134495   8.998   0.473   6.896
 7488SOL    HW234496   8.907   0.375   6.803
 7489SOL     OW34497   1.721   7.993   6.911
 7489SOL    HW134498   1.763   8.078   6.878
 7489SOL    HW234499   1.630   7.984   6.874
 7490SOL     OW34500   3.631   6.662   6.802
 7490SOL    HW134501   3.580   6.714   6.733
 7490SOL    HW234502   3.680   6.725   6.861
 7491SOL     OW34503   9.345   4.456   6.787
 7491SOL    HW134504   9.250   4.475   6.816
 7491SOL    HW234505   9.394   4.414   6.863
 7492SOL     OW34506   3.902   2.768   6.902
 7492SOL    HW134507   3.950   2.827   6.836
 7492SOL    HW234508   3.821   2.816   6.935
 7493SOL     OW34509   4.096   1.341   6.889
 7493SOL    HW134510   4.062   1.278   6.959
 7493SOL    HW234511   4.022   1.363   6.826
 7494SOL     OW34512   0.132   7.312   6.909
 7494SOL    HW134513   0.154   7.289   6.814
 7494SOL    HW234514   0.050   7.368   6.912
 7495SOL     OW34515   5.801   6.950   6.732
 7495SOL    HW134516   5.737   7.009   6.681
 7495SOL    HW234517   5.756   6.915   6.813
 7496SOL     OW34518   2.621   6.787   6.862
 7496SOL    HW134519   2.581   6.696   6.846
 7496SOL    HW234520   2.670   6.817   6.781
 7497SOL     OW34521   1.686   0.979   6.873
 7497SOL    HW134522   1.603   0.934   6.841
 7497SOL    HW234523   1.662   1.051   6.937
 7498SOL     OW34524   7.873   4.104   6.850
 7498SOL    HW134525   7.958   4.088   6.902
 7498SOL    HW234526   7.801   4.130   6.913
 7499SOL     OW34527   7.108   4.572   6.857
 7499SOL    HW134528   7.097   4.501   6.927
 7499SOL    HW234529   7.201   4.607   6.859
 7500SOL     OW34530   0.773   3.671   6.741
 7500SOL    HW134531   0.673   3.667   6.746
 7500SOL    HW234532   0.808   3.726   6.816
 7501SOL     OW34533   0.521   5.223   6.838
 7501SOL    HW134534   0.519   5.123   6.851
 7501SOL    HW234535   0.441   5.263   6.880
 7502SOL     OW34536   0.212   2.273   6.836
 7502SOL    HW134537   0.283   2.308   6.775
 7502SOL    HW234538   0.140   2.230   6.782
 7503SOL     OW34539   2.508   1.136   6.804
 7503SOL    HW134540   2.456   1.084   6.736
 7503SOL    HW234541   2.527   1.078   6.882
 7504SOL     OW34542   0.480   6.386   6.760
 7504SOL    HW134543   0.570   6.413   6.797
 7504SOL    HW234544   0.483   6.290   6.736
 7505SOL     OW34545   6.385   1.989   6.714
 7505SOL    HW134546   6.442   1.965   6.794
 7505SOL    HW234547   6.321   2.061   6.739
 7506SOL     OW34548   3.105   6.650   6.742
 7506SOL    HW134549   3.066   6.599   6.819
 7506SOL    HW234550   3.200   6.670   6.761
 7507SOL     OW34551   4.934   2.530   6.860
 7507SOL    HW134552   4.953   2.460   6.929
 7507SOL    HW234553   4.994   2.608   6.874
 7508SOL     OW34554   4.744   1.543   6.746
 7508SOL    HW134555   4.760   1.582   6.838
 7508SOL    HW234556   4.683   1.464   6.754
 7509SOL     OW34557   1.603   2.613   6.860
 7509SOL    HW134558   1.511   2.588   6.832
 7509SOL    HW234559   1.637   2.545   6.925
 7510SOL     OW34560   6.819   6.899   6.738
 7510SOL    HW134561   6.798   6.821   6.798
 7510SOL    HW234562   6.883   6.959   6.784
 7511SOL     OW34563   3.088   1.859   6.797
 7511SOL    HW134564   3.049   1.792   6.733
 7511SOL    HW234565   3.068   1.951   6.765
 7512SOL     OW34566   2.867   3.104   6.854
 7512SOL    HW134567   2.865   3.004   6.855
 7512SOL    HW234568   2.796   3.138   6.792
 7513SOL     OW34569   8.492   0.922   6.757
 7513SOL    HW134570   8.448   1.004   6.720
 7513SOL    HW234571   8.530   0.941   6.846
 7514SOL     OW34572   2.339   5.990   6.790
 7514SOL    HW134573   2.328   6.040   6.704
 7514SOL    HW234574   2.401   5.914   6.776
 7515SOL     OW34575   4.875   3.648   6.827
 7515SOL    HW134576   4.856   3.686   6.737
 7515SOL    HW234577   4.873   3.548   6.822
 7516SOL     OW34578   6.779   0.561   6.864
 7516SOL    HW134579   6.770   0.660   6.873
 7516SOL    HW234580   6.693   0.517   6.889
 7517SOL     OW34581   3.393   3.560   6.814
 7517SOL    HW134582   3.427   3.621   6.887
 7517SOL    HW234583   3.317   3.506   6.850
 7518SOL     OW34584   3.326   4.970   6.896
 7518SOL    HW134585   3.364   4.928   6.813
 7518SOL    HW234586   3.230   4.994   6.880
 7519SOL     OW34587   6.309   3.227   6.897
 7519SOL    HW134588   6.245   3.244   6.821
 7519SOL    HW234589   6.378   3.162   6.866
 7520SOL     OW34590   0.986   7.512   6.859
 7520SOL    HW134591   0.916   7.549   6.797
 7520SOL    HW234592   0.966   7.539   6.952
 7521SOL     OW34593   1.493   0.251   6.867
 7521SOL    HW134594   1.549   0.217   6.790
 7521SOL    HW234595   1.400   0.264   6.836
 7522SOL     OW34596   6.239   5.902   6.795
 7522SOL    HW134597   6.148   5.869   6.823
 7522SOL    HW234598   6.302   5.825   6.792
 7523SOL     OW34599   1.942   7.622   6.826
 7523SOL    HW134600   1.970   7.561   6.751
 7523SOL    HW234601   1.867   7.679   6.796
 7524SOL     OW34602   1.577   4.902   6.706
 7524SOL    HW134603   1.524   4.842   6.767
 7524SOL    HW234604   1.622   4.972   6.761
 7525SOL     OW34605   6.943   3.833   6.791
 7525SOL    HW134606   6.853   3.838   6.746
 7525SOL    HW234607   6.954   3.911   6.851
 7526SOL     OW34608   8.327   7.018   6.815
 7526SOL    HW134609   8.355   6.952   6.745
 7526SOL    HW234610   8.273   7.090   6.773
 7527SOL     OW34611   3.193   0.283   6.723
 7527SOL    HW134612   3.192   0.335   6.810
 7527SOL    HW234613   3.125   0.211   6.728
 7528SOL     OW34614   6.676   1.015   6.783
 7528SOL    HW134615   6.648   0.919   6.771
 7528SOL    HW234616   6.775   1.018   6.797
 7529SOL     OW34617   0.353   4.444   6.883
 7529SOL    HW134618   0.320   4.516   6.821
 7529SOL    HW234619   0.426   4.394   6.839
 7530SOL     OW34620   5.707   3.931   6.801
 7530SOL    HW134621   5.659   3.939   6.713
 7530SOL    HW234622   5.683   4.008   6.859
 7531SOL     OW34623   3.568   0.668   6.825
 7531SOL    HW134624   3.615   0.592   6.872
 7531SOL    HW234625   3.605   0.678   6.733
 7532SOL     OW34626   2.525   6.086   6.865
 7532SOL    HW134627   2.477   6.100   6.953
 7532SOL    HW234628   2.566   6.172   6.837
 7533SOL     OW34629   6.651   1.371   6.821
 7533SOL    HW134630   6.577   1.312   6.855
 7533SOL    HW234631   6.682   1.337   6.732
 7534SOL     OW34632   1.822   5.983   6.772
 7534SOL    HW134633   1.773   5.986   6.859
 7534SOL    HW234634   1.761   6.006   6.698
 7535SOL     OW34635   7.892   5.597   6.791
 7535SOL    HW134636   7.851   5.515   6.832
 7535SOL    HW234637   7.991   5.593   6.801
 7536SOL     OW34638   3.924   7.365   6.912
 7536SOL    HW134639   3.871   7.450   6.908
 7536SOL    HW234640   3.883   7.298   6.852
 7537SOL     OW34641   2.066   4.581   6.786
 7537SOL    HW134642   2.113   4.669   6.800
 7537SOL    HW234643   2.018   4.556   6.870
 7538SOL     OW34644   3.050   8.487   6.750
 7538SOL    HW134645   3.084   8.421   6.818
 7538SOL    HW234646   3.050   8.578   6.790
 7539SOL     OW34647   4.232   7.710   6.792
 7539SOL    HW134648   4.214   7.809   6.795
 7539SOL    HW234649   4.161   7.662   6.843
 7540SOL     OW34650   9.338   0.048   6.826
 7540SOL    HW134651   9.412   0.115   6.808
 7540SOL    HW234652   9.342  -0.024   6.758
 7541SOL     OW34653   3.480   0.875   6.816
 7541SOL    HW134654   3.448   0.792   6.863
 7541SOL    HW234655   3.463   0.954   6.875
 7542SOL     OW34656   1.129   0.959   6.826
 7542SOL    HW134657   1.159   1.004   6.742
 7542SOL    HW234658   1.208   0.926   6.876
 7543SOL     OW34659   4.318   5.333   6.840
 7543SOL    HW134660   4.226   5.308   6.810
 7543SOL    HW234661   4.382   5.263   6.812
 7544SOL     OW34662   8.023   5.017   6.883
 7544SOL    HW134663   8.106   5.053   6.841
 7544SOL    HW234664   7.984   4.947   6.825
 7545SOL     OW34665   5.235   0.982   6.773
 7545SOL    HW134666   5.253   1.052   6.843
 7545SOL    HW234667   5.171   0.915   6.809
 7546SOL     OW34668   0.899   0.965   6.902
 7546SOL    HW134669   0.896   0.883   6.843
 7546SOL    HW234670   0.962   1.031   6.864
 7547SOL     OW34671   3.498   5.869   6.761
 7547SOL    HW134672   3.526   5.858   6.665
 7547SOL    HW234673   3.446   5.789   6.790
 7548SOL     OW34674   0.997   8.284   6.907
 7548SOL    HW134675   0.912   8.272   6.854
 7548SOL    HW234676   1.068   8.319   6.847
 7549SOL     OW34677   7.686   4.875   6.760
 7549SOL    HW134678   7.700   4.917   6.670
 7549SOL    HW234679   7.729   4.931   6.830
 7550SOL     OW34680   1.241   6.545   6.874
 7550SOL    HW134681   1.184   6.467   6.900
 7550SOL    HW234682   1.303   6.518   6.802
 7551SOL     OW34683   5.610   6.824   6.938
 7551SOL    HW134684   5.595   6.738   6.888
 7551SOL    HW234685   5.592   6.901   6.878
 7552SOL     OW34686   1.490   1.656   6.866
 7552SOL    HW134687   1.561   1.724   6.846
 7552SOL    HW234688   1.492   1.634   6.963
 7553SOL     OW34689   4.096   0.211   6.774
 7553SOL    HW134690   4.105   0.111   6.771
 7553SOL    HW234691   4.143   0.246   6.854
 7554SOL     OW34692   4.400   1.828   6.862
 7554SOL    HW134693   4.394   1.888   6.782
 7554SOL    HW234694   4.341   1.749   6.847
 7555SOL     OW34695   3.078   4.484   6.768
 7555SOL    HW134696   3.119   4.501   6.857
 7555SOL    HW234697   3.128   4.411   6.722
 7556SOL     OW34698   1.097   4.454   6.812
 7556SOL    HW134699   1.110   4.413   6.722
 7556SOL    HW234700   1.067   4.548   6.802
 7557SOL     OW34701   2.337   1.684   6.776
 7557SOL    HW134702   2.426   1.656   6.738
 7557SOL    HW234703   2.264   1.653   6.716
 7558SOL     OW34704   0.408   4.765   6.801
 7558SOL    HW134705   0.337   4.832   6.777
 7558SOL    HW234706   0.458   4.738   6.720
 7559SOL     OW34707   2.504   3.528   6.749
 7559SOL    HW134708   2.568   3.558   6.820
 7559SOL    HW234709   2.420   3.580   6.757
 7560SOL     OW34710   6.818   2.888   6.866
 7560SOL    HW134711   6.729   2.845   6.881
 7560SOL    HW234712   6.875   2.828   6.811
 7561SOL     OW34713   8.268   7.480   6.823
 7561SOL    HW134714   8.281   7.429   6.909
 7561SOL    HW234715   8.319   7.436   6.751
 7562SOL     OW34716   2.952   0.356   6.857
 7562SOL    HW134717   2.877   0.408   6.899
 7562SOL    HW234718   3.032   0.361   6.916
 7563SOL     OW34719   7.975   3.247   6.786
 7563SOL    HW134720   8.031   3.271   6.706
 7563SOL    HW234721   7.921   3.166   6.765
 7564SOL     OW34722   6.255   6.978   6.880
 7564SOL    HW134723   6.215   7.054   6.829
 7564SOL    HW234724   6.314   7.014   6.952
 7565SOL     OW34725   7.675   0.564   6.777
 7565SOL    HW134726   7.615   0.504   6.831
 7565SOL    HW234727   7.766   0.565   6.817
 7566SOL     OW34728   5.722   3.291   6.801
 7566SOL    HW134729   5.818   3.294   6.831
 7566SOL    HW234730   5.703   3.373   6.747
 7567SOL     OW34731   5.766   5.309   6.783
 7567SOL    HW134732   5.708   5.389   6.764
 7567SOL    HW234733   5.773   5.297   6.882
 7568SOL     OW34734   0.271   8.352   6.779
 7568SOL    HW134735   0.224   8.265   6.797
 7568SOL    HW234736   0.344   8.337   6.713
 7569SOL     OW34737   6.929   8.347   6.823
 7569SOL    HW134738   6.875   8.411   6.769
 7569SOL    HW234739   7.018   8.387   6.843
 7570SOL     OW34740   8.147   4.065   6.855
 7570SOL    HW134741   8.167   3.983   6.800
 7570SOL    HW234742   8.068   4.112   6.816
 7571SOL     OW34743   6.139   5.253   6.824
 7571SOL    HW134744   6.211   5.213   6.766
 7571SOL    HW234745   6.176   5.271   6.914
 7572SOL     OW34746   3.554   7.098   6.849
 7572SOL    HW134747   3.523   7.159   6.776
 7572SOL    HW234748   3.555   7.005   6.816
 7573SOL     OW34749   4.242   6.406   6.725
 7573SOL    HW134750   4.341   6.422   6.717
 7573SOL    HW234751   4.205   6.461   6.799
 7574SOL     OW34752   7.629   1.949   6.888
 7574SOL    HW134753   7.559   1.961   6.960
 7574SOL    HW234754   7.652   1.853   6.881
 7575SOL     OW34755   0.640   7.115   6.887
 7575SOL    HW134756   0.615   7.021   6.862
 7575SOL    HW234757   0.631   7.128   6.985
 7576SOL     OW34758   2.935   6.150   6.797
 7576SOL    HW134759   3.036   6.154   6.798
 7576SOL    HW234760   2.900   6.221   6.737
 7577SOL     OW34761   2.937   1.566   6.861
 7577SOL    HW134762   3.031   1.541   6.838
 7577SOL    HW234763   2.876   1.490   6.842
 7578SOL     OW34764   8.520   3.916   6.786
 7578SOL    HW134765   8.483   4.009   6.790
 7578SOL    HW234766   8.525   3.878   6.878
 7579SOL     OW34767   4.554   8.273   6.859
 7579SOL    HW134768   4.559   8.282   6.959
 7579SOL    HW234769   4.626   8.328   6.818
 7580SOL     OW34770   8.796   2.591   6.830
 7580SOL    HW134771   8.878   2.609   6.884
 7580SOL    HW234772   8.720   2.643   6.867
 7581SOL     OW34773   5.553   6.156   6.943
 7581SOL    HW134774   5.473   6.134   6.885
 7581SOL    HW234775   5.610   6.222   6.896
 7582SOL     OW34776   3.925   6.396   6.809
 7582SOL    HW134777   3.978   6.342   6.744
 7582SOL    HW234778   3.835   6.414   6.771
 7583SOL     OW34779   0.272   3.363   6.761
 7583SOL    HW134780   0.232   3.272   6.774
 7583SOL    HW234781   0.215   3.430   6.807
 7584SOL     OW34782   3.490   0.403   6.767
 7584SOL    HW134783   3.472   0.447   6.678
 7584SOL    HW234784   3.511   0.473   6.834
 7585SOL     OW34785   3.559   4.636   6.893
 7585SOL    HW134786   3.551   4.734   6.870
 7585SOL    HW234787   3.507   4.618   6.976
 7586SOL     OW34788   4.433   0.186   6.722
 7586SOL    HW134789   4.488   0.252   6.775
 7586SOL    HW234790   4.477   0.097   6.726
 7587SOL     OW34791   8.383   7.736   6.865
 7587SOL    HW134792   8.306   7.714   6.804
 7587SOL    HW234793   8.375   7.682   6.948
 7588SOL     OW34794   4.313   6.789   6.923
 7588SOL    HW134795   4.400   6.739   6.922
 7588SOL    HW234796   4.242   6.731   6.882
 7589SOL     OW34797   3.142   5.435   6.902
 7589SOL    HW134798   3.146   5.344   6.861
 7589SOL    HW234799   3.074   5.490   6.855
 7590SOL     OW34800   3.273   2.261   6.723
 7590SOL    HW134801   3.347   2.223   6.778
 7590SOL    HW234802   3.189   2.265   6.777
 7591SOL     OW34803   0.044   4.521   6.830
 7591SOL    HW134804   0.037   4.457   6.907
 7591SOL    HW234805   0.052   4.614   6.866
 7592SOL     OW34806   1.982   5.037   6.907
 7592SOL    HW134807   1.982   5.107   6.835
 7592SOL    HW234808   1.998   4.948   6.866
 7593SOL     OW34809   1.549   6.798   6.847
 7593SOL    HW134810   1.650   6.798   6.850
 7593SOL    HW234811   1.514   6.864   6.913
 7594SOL     OW34812   0.875   7.864   6.747
 7594SOL    HW134813   0.975   7.866   6.753
 7594SOL    HW234814   0.842   7.772   6.765
 7595SOL     OW34815   7.292   5.519   6.874
 7595SOL    HW134816   7.334   5.500   6.785
 7595SOL    HW234817   7.211   5.575   6.861
 7596SOL     OW34818   9.250   6.062   6.875
 7596SOL    HW134819   9.274   5.975   6.831
 7596SOL    HW234820   9.334   6.111   6.897
 7597SOL     OW34821   1.825   2.130   6.848
 7597SOL    HW134822   1.850   2.072   6.770
 7597SOL    HW234823   1.904   2.145   6.905
 7598SOL     OW34824   8.140   0.084   6.860
 7598SOL    HW134825   8.213   0.017   6.872
 7598SOL    HW234826   8.174   0.175   6.881
 7599SOL     OW34827   2.630   5.464   6.839
 7599SOL    HW134828   2.548   5.521   6.852
 7599SOL    HW234829   2.665   5.437   6.928
 7600SOL     OW34830   0.407   2.961   6.745
 7600SOL    HW134831   0.347   3.023   6.797
 7600SOL    HW234832   0.395   2.868   6.779
 7601SOL     OW34833   6.381   7.363   6.792
 7601SOL    HW134834   6.294   7.401   6.758
 7601SOL    HW234835   6.427   7.431   6.848
 7602SOL     OW34836   6.351   5.405   6.785
 7602SOL    HW134837   6.292   5.457   6.722
 7602SOL    HW234838   6.342   5.308   6.765
 7603SOL     OW34839   5.817   4.470   6.756
 7603SOL    HW134840   5.847   4.566   6.746
 7603SOL    HW234841   5.781   4.456   6.847
 7604SOL     OW34842   9.001   0.784   6.785
 7604SOL    HW134843   8.972   0.736   6.868
 7604SOL    HW234844   8.927   0.841   6.752
 7605SOL     OW34845   0.617   1.354   6.723
 7605SOL    HW134846   0.555   1.427   6.754
 7605SOL    HW234847   0.698   1.353   6.780
 7606SOL     OW34848   0.021   4.774   6.843
 7606SOL    HW134849   0.000   4.872   6.829
 7606SOL    HW234850   0.116   4.757   6.818
 7607SOL     OW34851   9.228   5.672   6.732
 7607SOL    HW134852   9.210   5.698   6.827
 7607SOL    HW234853   9.324   5.648   6.722
 7608SOL     OW34854   5.918   3.460   6.831
 7608SOL    HW134855   5.927   3.376   6.885
 7608SOL    HW234856   5.950   3.537   6.885
 7609SOL     OW34857   7.146   1.851   6.901
 7609SOL    HW134858   7.062   1.877   6.950
 7609SOL    HW234859   7.123   1.813   6.812
 7610SOL     OW34860   6.970   4.118   6.842
 7610SOL    HW134861   6.948   4.110   6.940
 7610SOL    HW234862   7.042   4.054   6.819
 7611SOL     OW34863   1.578   8.277   6.826
 7611SOL    HW134864   1.502   8.238   6.879
 7611SOL    HW234865   1.551   8.367   6.792
 7612SOL     OW34866   2.266   2.636   6.867
 7612SOL    HW134867   2.349   2.678   6.903
 7612SOL    HW234868   2.193   2.643   6.935
 7613SOL     OW34869   8.538   0.659   6.797
 7613SOL    HW134870   8.544   0.590   6.724
 7613SOL    HW234871   8.493   0.619   6.876
 7614SOL     OW34872   1.617   5.237   6.889
 7614SOL    HW134873   1.585   5.250   6.795
 7614SOL    HW234874   1.714   5.215   6.887
 7615SOL     OW34875   9.190   6.575   6.729
 7615SOL    HW134876   9.174   6.498   6.790
 7615SOL    HW234877   9.271   6.624   6.758
 7616SOL     OW34878   0.699   8.424   6.868
 7616SOL    HW134879   0.666   8.449   6.777
 7616SOL    HW234880   0.796   8.443   6.874
 7617SOL     OW34881   6.220   2.585   6.926
 7617SOL    HW134882   6.157   2.548   6.856
 7617SOL    HW234883   6.267   2.664   6.889
 7618SOL     OW34884   8.847   3.605   6.804
 7618SOL    HW134885   8.824   3.676   6.736
 7618SOL    HW234886   8.778   3.605   6.876
 7619SOL     OW34887   6.088   4.389   6.773
 7619SOL    HW134888   6.073   4.342   6.861
 7619SOL    HW234889   6.153   4.462   6.785
 7620SOL     OW34890   5.996   2.341   6.933
 7620SOL    HW134891   5.927   2.319   6.863
 7620SOL    HW234892   6.062   2.405   6.895
 7621SOL     OW34893   0.535   2.775   6.717
 7621SOL    HW134894   0.593   2.788   6.798
 7621SOL    HW234895   0.466   2.707   6.736
 7622SOL     OW34896   2.494   2.464   6.708
 7622SOL    HW134897   2.540   2.530   6.768
 7622SOL    HW234898   2.523   2.372   6.732
 7623SOL     OW34899   5.497   1.861   6.817
 7623SOL    HW134900   5.583   1.846   6.867
 7623SOL    HW234901   5.422   1.817   6.865
 7624SOL     OW34902   8.530   4.248   6.779
 7624SOL    HW134903   8.501   4.194   6.700
 7624SOL    HW234904   8.520   4.345   6.760
 7625SOL     OW34905   8.518   8.268   6.756
 7625SOL    HW134906   8.601   8.315   6.787
 7625SOL    HW234907   8.453   8.263   6.831
 7626SOL     OW34908   6.145   0.125   6.793
 7626SOL    HW134909   6.242   0.101   6.786
 7626SOL    HW234910   6.092   0.074   6.727
 7627SOL     OW34911   3.496   3.878   6.727
 7627SOL    HW134912   3.442   3.794   6.714
 7627SOL    HW234913   3.490   3.907   6.821
 7628SOL     OW34914   3.541   5.302   6.851
 7628SOL    HW134915   3.578   5.237   6.918
 7628SOL    HW234916   3.499   5.378   6.899
 7629SOL     OW34917   0.247   7.109   6.838
 7629SOL    HW134918   0.333   7.057   6.838
 7629SOL    HW234919   0.240   7.161   6.923
 7630SOL     OW34920   5.024   4.490   6.833
 7630SOL    HW134921   4.977   4.510   6.746
 7630SOL    HW234922   5.030   4.573   6.887
 7631SOL     OW34923   6.916   2.654   6.899
 7631SOL    HW134924   6.873   2.657   6.990
 7631SOL    HW234925   6.854   2.613   6.833
 7632SOL     OW34926   2.518   6.419   6.823
 7632SOL    HW134927   2.429   6.390   6.786
 7632SOL    HW234928   2.588   6.405   6.755
 7633SOL     OW34929   0.084   7.808   6.837
 7633SOL    HW134930   0.054   7.903   6.832
 7633SOL    HW234931   0.057   7.760   6.754
 7634SOL     OW34932   7.587   3.087   6.763
 7634SOL    HW134933   7.669   3.030   6.765
 7634SOL    HW234934   7.599   3.165   6.823
 7635SOL     OW34935   2.621   0.079   6.723
 7635SOL    HW134936   2.534   0.088   6.773
 7635SOL    HW234937   2.663   0.168   6.714
 7636SOL     OW34938   6.587   6.987   6.789
 7636SOL    HW134939   6.512   7.003   6.724
 7636SOL    HW234940   6.628   7.074   6.814
 7637SOL     OW34941   7.876   7.743   6.775
 7637SOL    HW134942   7.882   7.825   6.717
 7637SOL    HW234943   7.909   7.664   6.724
 7638SOL     OW34944   1.811   2.745   6.850
 7638SOL    HW134945   1.785   2.841   6.862
 7638SOL    HW234946   1.787   2.694   6.932
 7639SOL     OW34947   3.769   4.862   6.761
 7639SOL    HW134948   3.823   4.945   6.748
 7639SOL    HW234949   3.715   4.870   6.844
 7640SOL     OW34950   0.750   6.039   6.794
 7640SOL    HW134951   0.762   6.054   6.695
 7640SOL    HW234952   0.773   6.123   6.842
 7641SOL     OW34953   5.064   6.399   6.778
 7641SOL    HW134954   5.040   6.479   6.834
 7641SOL    HW234955   5.055   6.316   6.832
 7642SOL     OW34956   0.588   6.677   6.859
 7642SOL    HW134957   0.613   6.748   6.793
 7642SOL    HW234958   0.656   6.675   6.932
 7643SOL     OW34959   1.301   6.877   6.780
 7643SOL    HW134960   1.369   6.888   6.853
 7643SOL    HW234961   1.228   6.943   6.793
 7644SOL     OW34962   7.571   6.534   6.861
 7644SOL    HW134963   7.546   6.566   6.770
 7644SOL    HW234964   7.592   6.613   6.919
 7645SOL     OW34965   2.863   5.771   6.846
 7645SOL    HW134966   2.913   5.723   6.773
 7645SOL    HW234967   2.887   5.868   6.843
 7646SOL     OW34968   4.202   2.416   6.796
 7646SOL    HW134969   4.231   2.357   6.719
 7646SOL    HW234970   4.126   2.473   6.766
 7647SOL     OW34971   6.391   4.992   6.862
 7647SOL    HW134972   6.297   5.026   6.871
 7647SOL    HW234973   6.400   4.943   6.776
 7648SOL     OW34974   8.441   1.311   6.898
 7648SOL    HW134975   8.361   1.258   6.870
 7648SOL    HW234976   8.411   1.394   6.945
 7649SOL     OW34977   0.700   1.685   6.904
 7649SOL    HW134978   0.757   1.752   6.855
 7649SOL    HW234979   0.758   1.613   6.941
 7650SOL     OW34980   3.839   3.186   6.835
 7650SOL    HW134981   3.877   3.135   6.757
 7650SOL    HW234982   3.741   3.193   6.825
 7651SOL     OW34983   5.055   0.080   6.889
 7651SOL    HW134984   5.053   0.170   6.845
 7651SOL    HW234985   5.120   0.081   6.965
 7652SOL     OW34986   2.779   0.682   6.841
 7652SOL    HW134987   2.787   0.762   6.902
 7652SOL    HW234988   2.731   0.609   6.888
 7653SOL     OW34989   6.734   1.926   6.837
 7653SOL    HW134990   6.825   1.917   6.878
 7653SOL    HW234991   6.727   2.014   6.791
 7654SOL     OW34992   6.508   3.827   6.799
 7654SOL    HW134993   6.435   3.867   6.743
 7654SOL    HW234994   6.583   3.799   6.740
 7655SOL     OW34995   6.231   1.614   6.752
 7655SOL    HW134996   6.300   1.661   6.808
 7655SOL    HW234997   6.142   1.626   6.793
 7656SOL     OW34998   3.464   2.458   6.836
 7656SOL    HW134999   3.399   2.533   6.826
 7656SOL    HW235000   3.510   2.443   6.749
 7657SOL     OW35001   2.014   1.205   6.800
 7657SOL    HW135002   1.994   1.197   6.702
 7657SOL    HW235003   1.929   1.219   6.850
 7658SOL     OW35004   0.549   4.232   6.846
 7658SOL    HW135005   0.573   4.137   6.864
 7658SOL    HW235006   0.620   4.292   6.882
 7659SOL     OW35007   5.179   3.903   6.780
 7659SOL    HW135008   5.214   3.958   6.857
 7659SOL    HW235009   5.080   3.895   6.788
 7660SOL     OW35010   4.640   5.204   6.944
 7660SOL    HW135011   4.649   5.131   6.876
 7660SOL    HW235012   4.585   5.277   6.906
 7661SOL     OW35013   3.887   0.540   6.898
 7661SOL    HW135014   3.930   0.452   6.919
 7661SOL    HW235015   3.807   0.525   6.841
 7662SOL     OW35016   6.598   0.191   6.831
 7662SOL    HW135017   6.602   0.236   6.741
 7662SOL    HW235018   6.626   0.096   6.821
 7663SOL     OW35019   2.709   5.156   6.772
 7663SOL    HW135020   2.746   5.235   6.722
 7663SOL    HW235021   2.627   5.184   6.821
 7664SOL     OW35022   1.729   3.979   6.889
 7664SOL    HW135023   1.818   4.023   6.876
 7664SOL    HW235024   1.723   3.899   6.830
 7665SOL     OW35025   6.915   4.603   6.853
 7665SOL    HW135026   6.927   4.593   6.754
 7665SOL    HW235027   6.967   4.682   6.884
 7666SOL     OW35028   5.713   1.362   6.853
 7666SOL    HW135029   5.659   1.292   6.806
 7666SOL    HW235030   5.708   1.447   6.802
 7667SOL     OW35031   2.978   2.846   6.857
 7667SOL    HW135032   2.933   2.903   6.927
 7667SOL    HW235033   3.003   2.758   6.897
 7668SOL     OW35034   1.051   5.231   6.850
 7668SOL    HW135035   1.101   5.274   6.775
 7668SOL    HW235036   1.059   5.133   6.844
 7669SOL     OW35037   2.770   2.312   6.846
 7669SOL    HW135038   2.711   2.313   6.765
 7669SOL    HW235039   2.746   2.388   6.905
 7670SOL     OW35040   4.144   4.988   6.862
 7670SOL    HW135041   4.150   4.939   6.775
 7670SOL    HW235042   4.062   5.044   6.863
 7671SOL     OW35043   2.007   3.484   6.860
 7671SOL    HW135044   1.958   3.463   6.945
 7671SOL    HW235045   2.105   3.482   6.878
 7672SOL     OW35046   9.099   7.945   6.842
 7672SOL    HW135047   9.027   7.877   6.827
 7672SOL    HW235048   9.107   8.003   6.762
 7673SOL     OW35049   0.610   0.918   6.870
 7673SOL    HW135050   0.710   0.913   6.877
 7673SOL    HW235051   0.584   0.991   6.808
 7674SOL     OW35052   7.652   3.908   6.798
 7674SOL    HW135053   7.628   3.975   6.726
 7674SOL    HW235054   7.702   3.832   6.758
 7675SOL     OW35055   2.872   6.576   6.829
 7675SOL    HW135056   2.869   6.526   6.742
 7675SOL    HW235057   2.780   6.586   6.864
 7676SOL     OW35058   5.384   2.786   6.941
 7676SOL    HW135059   5.430   2.842   6.872
 7676SOL    HW235060   5.363   2.696   6.902
 7677SOL     OW35061   8.342   2.457   6.914
 7677SOL    HW135062   8.327   2.488   6.820
 7677SOL    HW235063   8.352   2.536   6.974
 7678SOL     OW35064   2.060   7.817   6.870
 7678SOL    HW135065   2.067   7.776   6.962
 7678SOL    HW235066   1.981   7.876   6.866
 7679SOL     OW35067   7.979   3.631   6.867
 7679SOL    HW135068   7.970   3.625   6.767
 7679SOL    HW235069   8.073   3.616   6.893
 7680SOL     OW35070   4.526   7.500   6.842
 7680SOL    HW135071   4.507   7.592   6.807
 7680SOL    HW235072   4.624   7.490   6.857
 7681SOL     OW35073   8.284   5.853   6.832
 7681SOL    HW135074   8.226   5.901   6.897
 7681SOL    HW235075   8.283   5.755   6.852
 7682SOL     OW35076   8.765   5.626   6.804
 7682SOL    HW135077   8.689   5.561   6.803
 7682SOL    HW235078   8.787   5.650   6.898
 7683SOL     OW35079   7.033   2.246   6.855
 7683SOL    HW135080   6.981   2.228   6.771
 7683SOL    HW235081   7.115   2.191   6.855
 7684SOL     OW35082   1.054   2.849   6.863
 7684SOL    HW135083   0.988   2.830   6.789
 7684SOL    HW235084   1.121   2.914   6.830
 7685SOL     OW35085   5.677   5.579   6.860
 7685SOL    HW135086   5.610   5.598   6.933
 7685SOL    HW235087   5.725   5.663   6.836
 7686SOL     OW35088   3.050   3.704   6.765
 7686SOL    HW135089   2.951   3.689   6.753
 7686SOL    HW235090   3.080   3.779   6.707
 7687SOL     OW35091   7.307   7.035   6.808
 7687SOL    HW135092   7.208   7.044   6.828
 7687SOL    HW235093   7.347   7.125   6.802
 7688SOL     OW35094   8.537   8.469   6.716
 7688SOL    HW135095   8.505   8.440   6.807
 7688SOL    HW235096   8.590   8.553   6.725
 7689SOL     OW35097   6.022   4.779   6.757
 7689SOL    HW135098   5.972   4.741   6.835
 7689SOL    HW235099   6.109   4.733   6.748
 7690SOL     OW35100   2.256   4.034   6.791
 7690SOL    HW135101   2.168   4.065   6.828
 7690SOL    HW235102   2.329   4.059   6.854
 7691SOL     OW35103   7.275   4.336   6.864
 7691SOL    HW135104   7.223   4.411   6.823
 7691SOL    HW235105   7.214   4.261   6.884
 7692SOL     OW35106   3.556   2.958   6.843
 7692SOL    HW135107   3.575   3.027   6.913
 7692SOL    HW235108   3.497   2.888   6.882
 7693SOL     OW35109   8.702   4.417   6.729
 7693SOL    HW135110   8.749   4.333   6.756
 7693SOL    HW235111   8.703   4.482   6.804
 7694SOL     OW35112   8.978   4.702   6.740
 7694SOL    HW135113   8.959   4.680   6.836
 7694SOL    HW235114   8.923   4.644   6.682
 7695SOL     OW35115   1.946   5.737   6.802
 7695SOL    HW135116   1.999   5.707   6.882
 7695SOL    HW235117   1.856   5.693   6.803
 7696SOL     OW35118   3.628   7.462   6.753
 7696SOL    HW135119   3.636   7.542   6.814
 7696SOL    HW235120   3.662   7.381   6.800
 7697SOL     OW35121   5.207   5.507   6.793
 7697SOL    HW135122   5.162   5.448   6.860
 7697SOL    HW235123   5.195   5.469   6.702
 7698SOL     OW35124   4.919   5.078   6.832
 7698SOL    HW135125   4.861   5.030   6.899
 7698SOL    HW235126   5.015   5.061   6.853
 7699SOL     OW35127   3.341   1.426   6.710
 7699SOL    HW135128   3.379   1.491   6.777
 7699SOL    HW235129   3.260   1.382   6.748
 7700SOL     OW35130   7.767   7.940   6.755
 7700SOL    HW135131   7.776   7.898   6.664
 7700SOL    HW235132   7.673   7.932   6.786
 7701SOL     OW35133   4.167   3.965   6.750
 7701SOL    HW135134   4.216   3.984   6.836
 7701SOL    HW235135   4.075   4.000   6.756
 7702SOL     OW35136   3.727   2.368   6.789
 7702SOL    HW135137   3.750   2.358   6.886
 7702SOL    HW235138   3.670   2.291   6.761
 7703SOL     OW35139   5.517   6.332   6.794
 7703SOL    HW135140   5.490   6.290   6.706
 7703SOL    HW235141   5.452   6.307   6.864
 7704SOL     OW35142   7.626   5.306   6.849
 7704SOL    HW135143   7.644   5.209   6.829
 7704SOL    HW235144   7.624   5.319   6.948
 7705SOL     OW35145   9.474   0.745   6.866
 7705SOL    HW135146   9.479   0.746   6.766
 7705SOL    HW235147   9.427   0.827   6.897
 7706SOL     OW35148   2.531   0.261   6.883
 7706SOL    HW135149   2.612   0.314   6.856
 7706SOL    HW235150   2.473   0.317   6.940
 7707SOL     OW35151   9.259   7.144   6.870
 7707SOL    HW135152   9.196   7.209   6.914
 7707SOL    HW235153   9.256   7.157   6.772
 7708SOL     OW35154   7.274   6.097   6.776
 7708SOL    HW135155   7.347   6.073   6.711
 7708SOL    HW235156   7.279   6.037   6.855
 7709SOL     OW35157   0.780   4.982   6.945
 7709SOL    HW135158   0.806   5.050   6.876
 7709SOL    HW235159   0.789   4.891   6.906
 7710SOL     OW35160   6.505   0.443   6.721
 7710SOL    HW135161   6.463   0.532   6.740
 7710SOL    HW235162   6.534   0.401   6.807
 7711SOL     OW35163   9.309   4.850   6.876
 7711SOL    HW135164   9.229   4.901   6.909
 7711SOL    HW235165   9.292   4.752   6.888
 7712SOL     OW35166   5.030   1.457   6.842
 7712SOL    HW135167   5.068   1.547   6.866
 7712SOL    HW235168   5.103   1.389   6.841
 7713SOL     OW35169   3.341   8.445   6.809
 7713SOL    HW135170   3.388   8.381   6.871
 7713SOL    HW235171   3.321   8.529   6.858
 7714SOL     OW35172   0.768   3.476   6.842
 7714SOL    HW135173   0.770   3.390   6.791
 7714SOL    HW235174   0.808   3.462   6.932
 7715SOL     OW35175   2.931   1.066   6.891
 7715SOL    HW135176   2.892   1.066   6.799
 7715SOL    HW235177   2.862   1.097   6.956
 7716SOL     OW35178   3.704   2.734   6.829
 7716SOL    HW135179   3.631   2.786   6.874
 7716SOL    HW235180   3.737   2.663   6.890
 7717SOL     OW35181   1.724   3.294   6.781
 7717SOL    HW135182   1.797   3.258   6.840
 7717SOL    HW235183   1.638   3.295   6.831
 7718SOL     OW35184   1.993   0.175   6.776
 7718SOL    HW135185   2.031   0.175   6.683
 7718SOL    HW235186   1.951   0.087   6.795
 7719SOL     OW35187   3.295   3.173   6.821
 7719SOL    HW135188   3.255   3.265   6.814
 7719SOL    HW235189   3.359   3.159   6.746
 7720SOL     OW35190   9.447   3.096   6.874
 7720SOL    HW135191   9.514   3.161   6.838
 7720SOL    HW235192   9.425   3.119   6.968
 7721SOL     OW35193   7.920   6.075   6.823
 7721SOL    HW135194   7.882   5.982   6.828
 7721SOL    HW235195   8.015   6.071   6.794
 7722SOL     OW35196   2.319   2.174   6.778
 7722SOL    HW135197   2.258   2.099   6.751
 7722SOL    HW235198   2.333   2.235   6.701
 7723SOL     OW35199   8.840   0.177   6.728
 7723SOL    HW135200   8.910   0.134   6.785
 7723SOL    HW235201   8.796   0.250   6.779
 7724SOL     OW35202   9.414   3.463   6.700
 7724SOL    HW135203   9.371   3.525   6.766
 7724SOL    HW235204   9.419   3.372   6.740
 7725SOL     OW35205   0.981   2.032   6.813
 7725SOL    HW135206   0.980   1.951   6.752
 7725SOL    HW235207   0.944   2.110   6.764
 7726SOL     OW35208   4.857   4.171   6.735
 7726SOL    HW135209   4.931   4.172   6.667
 7726SOL    HW235210   4.881   4.111   6.809
 7727SOL     OW35211   0.930   1.680   6.774
 7727SOL    HW135212   0.946   1.588   6.810
 7727SOL    HW235213   1.014   1.716   6.736
 7728SOL     OW35214   6.048   3.221   6.830
 7728SOL    HW135215   6.053   3.315   6.794
 7728SOL    HW235216   6.005   3.222   6.919
 7729SOL     OW35217   5.854   2.615   6.765
 7729SOL    HW135218   5.885   2.650   6.854
 7729SOL    HW235219   5.819   2.690   6.710
 7730SOL     OW35220   6.609   8.053   6.715
 7730SOL    HW135221   6.624   8.153   6.709
 7730SOL    HW235222   6.659   8.017   6.793
 7731SOL     OW35223   6.184   6.149   6.769
 7731SOL    HW135224   6.241   6.191   6.841
 7731SOL    HW235225   6.090   6.177   6.782
 7732SOL     OW35226   7.776   6.625   6.834
 7732SOL    HW135227   7.792   6.696   6.764
 7732SOL    HW235228   7.795   6.536   6.794
 7733SOL     OW35229   3.631   1.013   6.776
 7733SOL    HW135230   3.633   0.937   6.711
 7733SOL    HW235231   3.541   1.056   6.774
 7734SOL     OW35232   5.537   4.356   6.892
 7734SOL    HW135233   5.563   4.403   6.807
 7734SOL    HW235234   5.522   4.260   6.873
 7735SOL     OW35235   0.747   4.669   6.703
 7735SOL    HW135236   0.807   4.630   6.774
 7735SOL    HW235237   0.722   4.762   6.730
 7736SOL     OW35238   9.014   4.406   6.793
 7736SOL    HW135239   9.033   4.472   6.867
 7736SOL    HW235240   8.960   4.332   6.829
 7737SOL     OW35241   6.359   4.118   6.843
 7737SOL    HW135242   6.328   4.102   6.749
 7737SOL    HW235243   6.319   4.050   6.903
 7738SOL     OW35244   4.451   0.512   6.762
 7738SOL    HW135245   4.464   0.468   6.672
 7738SOL    HW235246   4.474   0.447   6.833
 7739SOL     OW35247   4.717   6.416   6.870
 7739SOL    HW135248   4.653   6.415   6.947
 7739SOL    HW235249   4.810   6.414   6.905
 7740SOL     OW35250   2.406   8.015   6.831
 7740SOL    HW135251   2.357   7.955   6.895
 7740SOL    HW235252   2.342   8.050   6.764
 7741SOL     OW35253   3.584   0.184   6.734
 7741SOL    HW135254   3.612   0.278   6.713
 7741SOL    HW235255   3.662   0.133   6.769
 7742SOL     OW35256   7.326   1.929   6.772
 7742SOL    HW135257   7.402   1.912   6.709
 7742SOL    HW235258   7.358   1.924   6.866
 7743SOL     OW35259   1.085   0.775   6.757
 7743SOL    HW135260   1.094   0.743   6.851
 7743SOL    HW235261   1.049   0.702   6.700
 7744SOL     OW35262   3.540   1.268   6.749
 7744SOL    HW135263   3.548   1.197   6.820
 7744SOL    HW235264   3.567   1.355   6.787
 7745SOL     OW35265   2.200   8.437   6.935
 7745SOL    HW135266   2.261   8.399   6.865
 7745SOL    HW235267   2.109   8.448   6.897
 7746SOL     OW35268   1.721   5.788   6.825
 7746SOL    HW135269   1.701   5.691   6.842
 7746SOL    HW235270   1.675   5.843   6.894
 7747SOL     OW35271   1.159   3.306   6.800
 7747SOL    HW135272   1.127   3.285   6.707
 7747SOL    HW235273   1.219   3.385   6.797
 7748SOL     OW35274   3.558   3.373   6.825
 7748SOL    HW135275   3.588   3.407   6.914
 7748SOL    HW235276   3.553   3.449   6.761
 7749SOL     OW35277   5.090   3.645   6.789
 7749SOL    HW135278   5.036   3.706   6.847
 7749SOL    HW235279   5.160   3.698   6.741
 7750SOL     OW35280   7.135   3.549   6.869
 7750SOL    HW135281   7.136   3.533   6.770
 7750SOL    HW235282   7.094   3.470   6.914
 7751SOL     OW35283   2.728   8.044   6.856
 7751SOL    HW135284   2.716   8.126   6.912
 7751SOL    HW235285   2.824   8.031   6.835
 7752SOL     OW35286   5.754   0.796   6.842
 7752SOL    HW135287   5.723   0.847   6.761
 7752SOL    HW235288   5.832   0.740   6.818
 7753SOL     OW35289   5.401   5.028   6.893
 7753SOL    HW135290   5.407   5.101   6.824
 7753SOL    HW235291   5.365   4.946   6.851
 7754SOL     OW35292   1.339   1.756   6.802
 7754SOL    HW135293   1.327   1.683   6.869
 7754SOL    HW235294   1.396   1.828   6.842
 7755SOL     OW35295   3.712   7.983   6.823
 7755SOL    HW135296   3.777   8.034   6.765
 7755SOL    HW235297   3.721   7.886   6.805
 7756SOL     OW35298   4.808   4.581   6.805
 7756SOL    HW135299   4.838   4.560   6.711
 7756SOL    HW235300   4.768   4.672   6.806
 7757SOL     OW35301   4.547   7.051   6.808
 7757SOL    HW135302   4.499   7.120   6.863
 7757SOL    HW235303   4.587   6.983   6.869
 7758SOL     OW35304   6.233   2.917   6.814
 7758SOL    HW135305   6.312   2.898   6.754
 7758SOL    HW235306   6.253   2.996   6.871
 7759SOL     OW35307   4.045   8.369   6.878
 7759SOL    HW135308   3.985   8.450   6.883
 7759SOL    HW235309   3.991   8.289   6.854
 7760SOL     OW35310   0.766   5.794   6.799
 7760SOL    HW135311   0.767   5.865   6.870
 7760SOL    HW235312   0.679   5.746   6.801
 7761SOL     OW35313   1.167   0.555   6.829
 7761SOL    HW135314   1.132   0.514   6.744
 7761SOL    HW235315   1.257   0.594   6.812
 7762SOL     OW35316   4.324   7.536   6.745
 7762SOL    HW135317   4.301   7.475   6.668
 7762SOL    HW235318   4.242   7.555   6.798
 7763SOL     OW35319   6.446   2.327   6.864
 7763SOL    HW135320   6.471   2.333   6.961
 7763SOL    HW235321   6.482   2.407   6.816
 7764SOL     OW35322   3.101   2.560   6.858
 7764SOL    HW135323   3.119   2.648   6.904
 7764SOL    HW235324   3.149   2.558   6.772
 7765SOL     OW35325   1.449   2.181   6.786
 7765SOL    HW135326   1.438   2.248   6.860
 7765SOL    HW235327   1.422   2.091   6.819
 7766SOL     OW35328   2.174   2.973   6.723
 7766SOL    HW135329   2.241   2.988   6.796
 7766SOL    HW235330   2.115   2.897   6.748
 7767SOL     OW35331   6.119   4.168   6.876
 7767SOL    HW135332   6.117   4.160   6.775
 7767SOL    HW235333   6.205   4.210   6.903
 7768SOL     OW35334   2.660   4.313   6.899
 7768SOL    HW135335   2.630   4.234   6.844
 7768SOL    HW235336   2.739   4.287   6.953
 7769SOL     OW35337   8.633   8.001   6.834
 7769SOL    HW135338   8.552   7.942   6.835
 7769SOL    HW235339   8.606   8.094   6.812
 7770SOL     OW35340   9.084   3.464   6.825
 7770SOL    HW135341   9.082   3.530   6.750
 7770SOL    HW235342   9.142   3.387   6.800
 7771SOL     OW35343   2.510   7.112   6.908
 7771SOL    HW135344   2.507   7.209   6.934
 7771SOL    HW235345   2.563   7.101   6.825
 7772SOL     OW35346   3.560   7.819   6.756
 7772SOL    HW135347   3.543   7.827   6.855
 7772SOL    HW235348   3.480   7.850   6.706
 7773SOL     OW35349   3.162   7.667   6.871
 7773SOL    HW135350   3.216   7.751   6.882
 7773SOL    HW235351   3.210   7.590   6.913
 7774SOL     OW35352   9.072   6.831   6.857
 7774SOL    HW135353   9.037   6.870   6.943
 7774SOL    HW235354   8.996   6.797   6.803
 7775SOL     OW35355   1.178   4.116   6.857
 7775SOL    HW135356   1.226   4.138   6.942
 7775SOL    HW235357   1.122   4.193   6.830
 7776SOL     OW35358   6.429   3.647   6.810
 7776SOL    HW135359   6.475   3.698   6.883
 7776SOL    HW235360   6.353   3.595   6.848
 7777SOL     OW35361   7.761   6.280   6.774
 7777SOL    HW135362   7.780   6.186   6.801
 7777SOL    HW235363   7.825   6.308   6.703
 7778SOL     OW35364   0.134   2.871   6.735
 7778SOL    HW135365   0.189   2.788   6.746
 7778SOL    HW235366   0.163   2.939   6.802
 7779SOL     OW35367   7.464   6.824   6.754
 7779SOL    HW135368   7.409   6.756   6.705
 7779SOL    HW235369   7.406   6.877   6.815
 7780SOL     OW35370   6.196   6.615   6.769
 7780SOL    HW135371   6.191   6.684   6.696
 7780SOL    HW235372   6.291   6.602   6.795
 7781SOL     OW35373   3.978   1.049   6.767
 7781SOL    HW135374   3.917   1.018   6.694
 7781SOL    HW235375   4.012   0.970   6.817
 7782SOL     OW35376   9.092   3.770   6.733
 7782SOL    HW135377   9.090   3.861   6.774
 7782SOL    HW235378   9.058   3.703   6.800
 7783SOL     OW35379   4.584   6.231   6.820
 7783SOL    HW135380   4.495   6.213   6.863
 7783SOL    HW235381   4.611   6.153   6.766
 7784SOL     OW35382   2.595   2.065   6.767
 7784SOL    HW135383   2.530   1.992   6.794
 7784SOL    HW235384   2.673   2.063   6.828
 7785SOL     OW35385   8.851   4.088   6.795
 7785SOL    HW135386   8.938   4.127   6.826
 7785SOL    HW235387   8.779   4.115   6.857
 7786SOL     OW35388   5.760   8.509   6.703
 7786SOL    HW135389   5.846   8.490   6.753
 7786SOL    HW235390   5.684   8.466   6.750
 7787SOL     OW35391   8.780   4.906   6.934
 7787SOL    HW135392   8.854   4.916   6.867
 7787SOL    HW235393   8.724   4.828   6.910
 7788SOL     OW35394   9.436   1.369   6.746
 7788SOL    HW135395   9.466   1.292   6.803
 7788SOL    HW235396   9.353   1.408   6.784
 7789SOL     OW35397   2.876   7.826   6.856
 7789SOL    HW135398   2.921   7.892   6.795
 7789SOL    HW235399   2.898   7.734   6.827
 7790SOL     OW35400   1.212   6.156   6.873
 7790SOL    HW135401   1.178   6.165   6.779
 7790SOL    HW235402   1.149   6.203   6.935
 7791SOL     OW35403   7.284   1.699   6.780
 7791SOL    HW135404   7.273   1.714   6.681
 7791SOL    HW235405   7.371   1.656   6.798
 7792SOL     OW35406   0.006   3.935   6.719
 7792SOL    HW135407  -0.079   3.941   6.772
 7792SOL    HW235408   0.079   3.904   6.779
 7793SOL     OW35409   0.814   4.399   6.911
 7793SOL    HW135410   0.869   4.441   6.839
 7793SOL    HW235411   0.771   4.316   6.876
 7794SOL     OW35412   1.447   3.033   6.868
 7794SOL    HW135413   1.468   2.962   6.935
 7794SOL    HW235414   1.349   3.033   6.848
 7795SOL     OW35415   5.986   8.006   6.758
 7795SOL    HW135416   5.943   7.957   6.681
 7795SOL    HW235417   5.971   7.955   6.842
 7796SOL     OW35418   2.802   4.798   6.844
 7796SOL    HW135419   2.792   4.873   6.909
 7796SOL    HW235420   2.754   4.718   6.879
 7797SOL     OW35421   2.187   7.030   6.875
 7797SOL    HW135422   2.201   6.943   6.923
 7797SOL    HW235423   2.099   7.029   6.828
 7798SOL     OW35424   2.088   8.019   6.896
 7798SOL    HW135425   2.118   8.017   6.800
 7798SOL    HW235426   2.092   8.113   6.929
 7799SOL     OW35427   8.269   3.732   6.852
 7799SOL    HW135428   8.274   3.686   6.941
 7799SOL    HW235429   8.329   3.811   6.853
 7800SOL     OW35430   0.934   4.083   6.793
 7800SOL    HW135431   0.943   4.067   6.695
 7800SOL    HW235432   0.931   4.181   6.810
 7801SOL     OW35433   1.216   8.169   6.861
 7801SOL    HW135434   1.221   8.069   6.873
 7801SOL    HW235435   1.127   8.193   6.824
 7802SOL     OW35436   2.565   4.672   6.874
 7802SOL    HW135437   2.613   4.699   6.958
 7802SOL    HW235438   2.602   4.723   6.797
 7803SOL     OW35439   4.510   3.846   6.854
 7803SOL    HW135440   4.551   3.778   6.792
 7803SOL    HW235441   4.430   3.886   6.811
 7804SOL     OW35442   7.545   0.163   6.856
 7804SOL    HW135443   7.529   0.232   6.927
 7804SOL    HW235444   7.515   0.074   6.888
 7805SOL     OW35445   4.875   0.714   6.848
 7805SOL    HW135446   4.787   0.725   6.801
 7805SOL    HW235447   4.922   0.801   6.849
 7806SOL     OW35448   0.453   1.899   6.852
 7806SOL    HW135449   0.501   1.880   6.766
 7806SOL    HW235450   0.377   1.960   6.835
 7807SOL     OW35451   5.271   4.836   6.914
 7807SOL    HW135452   5.324   4.796   6.838
 7807SOL    HW235453   5.184   4.790   6.921
 7808SOL     OW35454   8.826   3.252   6.822
 7808SOL    HW135455   8.805   3.350   6.826
 7808SOL    HW235456   8.741   3.200   6.824
 7809SOL     OW35457   8.128   6.324   6.869
 7809SOL    HW135458   8.205   6.269   6.839
 7809SOL    HW235459   8.159   6.394   6.932
 7810SOL     OW35460   0.918   6.376   6.850
 7810SOL    HW135461   0.838   6.404   6.904
 7810SOL    HW235462   1.001   6.405   6.897
 7811SOL     OW35463   0.836   2.417   6.791
 7811SOL    HW135464   0.743   2.396   6.824
 7811SOL    HW235465   0.851   2.372   6.704
 7812SOL     OW35466   1.813   0.553   6.738
 7812SOL    HW135467   1.795   0.646   6.703
 7812SOL    HW235468   1.751   0.533   6.813
 7813SOL     OW35469   7.533   6.117   6.726
 7813SOL    HW135470   7.573   6.072   6.806
 7813SOL    HW235471   7.508   6.210   6.750
 7814SOL     OW35472   6.885   3.600   6.871
 7814SOL    HW135473   6.943   3.545   6.811
 7814SOL    HW235474   6.797   3.615   6.828
 7815SOL     OW35475   9.340   1.804   6.802
 7815SOL    HW135476   9.401   1.801   6.722
 7815SOL    HW235477   9.270   1.734   6.793
 7816SOL     OW35478   4.468   1.466   6.789
 7816SOL    HW135479   4.397   1.412   6.743
 7816SOL    HW235480   4.507   1.413   6.863
 7817SOL     OW35481   4.970   5.975   6.855
 7817SOL    HW135482   5.060   5.985   6.900
 7817SOL    HW235483   4.900   6.015   6.913
 7818SOL     OW35484   1.588   5.430   6.733
 7818SOL    HW135485   1.568   5.528   6.722
 7818SOL    HW235486   1.559   5.401   6.824
 7819SOL     OW35487   5.718   6.685   6.795
 7819SOL    HW135488   5.749   6.753   6.728
 7819SOL    HW235489   5.732   6.594   6.759
 7820SOL     OW35490   5.390   3.851   6.848
 7820SOL    HW135491   5.449   3.869   6.769
 7820SOL    HW235492   5.313   3.795   6.820
 7821SOL     OW35493   6.478   7.857   6.863
 7821SOL    HW135494   6.578   7.857   6.875
 7821SOL    HW235495   6.436   7.916   6.931
 7822SOL     OW35496   5.896   1.525   6.756
 7822SOL    HW135497   5.940   1.550   6.843
 7822SOL    HW235498   5.855   1.606   6.716
 7823SOL     OW35499   8.879   7.205   6.812
 7823SOL    HW135500   8.975   7.228   6.830
 7823SOL    HW235501   8.864   7.108   6.832
 7824SOL     OW35502   0.055   2.043   6.775
 7824SOL    HW135503  -0.029   2.044   6.721
 7824SOL    HW235504   0.034   2.054   6.871
 7825SOL     OW35505   0.826   0.368   6.799
 7825SOL    HW135506   0.899   0.360   6.730
 7825SOL    HW235507   0.740   0.338   6.759
 7826SOL     OW35508   1.748   1.270   6.858
 7826SOL    HW135509   1.712   1.177   6.865
 7826SOL    HW235510   1.701   1.319   6.785
 7827SOL     OW35511   3.697   3.972   6.848
 7827SOL    HW135512   3.708   4.069   6.825
 7827SOL    HW235513   3.757   3.949   6.924
 7828SOL     OW35514   1.274   5.820   6.814
 7828SOL    HW135515   1.193   5.766   6.787
 7828SOL    HW235516   1.303   5.876   6.737
 7829SOL     OW35517   5.926   2.999   6.911
 7829SOL    HW135518   5.950   2.916   6.861
 7829SOL    HW235519   5.865   3.055   6.855
 7830SOL     OW35520   6.783   4.958   6.745
 7830SOL    HW135521   6.847   4.918   6.811
 7830SOL    HW235522   6.726   5.024   6.791
 7831SOL     OW35523   0.223   0.486   6.794
 7831SOL    HW135524   0.153   0.492   6.865
 7831SOL    HW235525   0.302   0.436   6.828
 7832SOL     OW35526   6.061   5.441   6.916
 7832SOL    HW135527   6.079   5.540   6.913
 7832SOL    HW235528   6.050   5.408   6.823
 7833SOL     OW35529   3.779   6.223   6.809
 7833SOL    HW135530   3.837   6.215   6.891
 7833SOL    HW235531   3.700   6.279   6.830
 7834SOL     OW35532   5.744   0.298   6.829
 7834SOL    HW135533   5.803   0.268   6.753
 7834SOL    HW235534   5.652   0.313   6.795
 7835SOL     OW35535   1.859   7.108   6.828
 7835SOL    HW135536   1.929   7.176   6.854
 7835SOL    HW235537   1.831   7.124   6.734
 7836SOL     OW35538   4.091   1.831   6.852
 7836SOL    HW135539   4.107   1.763   6.780
 7836SOL    HW235540   4.033   1.904   6.817
 7837SOL     OW35541   0.383   7.759   6.761
 7837SOL    HW135542   0.311   7.689   6.771
 7837SOL    HW235543   0.368   7.831   6.828
 7838SOL     OW35544   7.516   3.369   6.844
 7838SOL    HW135545   7.569   3.394   6.762
 7838SOL    HW235546   7.562   3.294   6.891
 7839SOL     OW35547   8.045   4.315   6.760
 7839SOL    HW135548   8.069   4.393   6.701
 7839SOL    HW235549   8.061   4.340   6.855
 7840SOL     OW35550   4.983   5.348   6.857
 7840SOL    HW135551   4.981   5.396   6.769
 7840SOL    HW235552   5.076   5.326   6.881
 7841SOL     OW35553   2.261   5.426   6.778
 7841SOL    HW135554   2.214   5.339   6.758
 7841SOL    HW235555   2.256   5.486   6.699
 7842SOL     OW35556   4.736   7.112   6.783
 7842SOL    HW135557   4.831   7.095   6.813
 7842SOL    HW235558   4.695   7.181   6.842
 7843SOL     OW35559   7.050   5.819   6.845
 7843SOL    HW135560   7.070   5.729   6.886
 7843SOL    HW235561   7.130   5.878   6.853
 7844SOL     OW35562   7.425   2.552   6.771
 7844SOL    HW135563   7.403   2.650   6.766
 7844SOL    HW235564   7.479   2.525   6.692
 7845SOL     OW35565   9.214   2.617   6.776
 7845SOL    HW135566   9.148   2.692   6.793
 7845SOL    HW235567   9.167   2.542   6.732
 7846SOL     OW35568   4.360   4.306   6.775
 7846SOL    HW135569   4.458   4.327   6.785
 7846SOL    HW235570   4.313   4.387   6.742
 7847SOL     OW35571   5.675   4.860   6.872
 7847SOL    HW135572   5.587   4.909   6.872
 7847SOL    HW235573   5.676   4.794   6.798
 7848SOL     OW35574   4.481   2.636   6.881
 7848SOL    HW135575   4.383   2.647   6.898
 7848SOL    HW235576   4.496   2.611   6.786
 7849SOL     OW35577   3.684   1.566   6.821
 7849SOL    HW135578   3.676   1.645   6.882
 7849SOL    HW235579   3.766   1.515   6.844
 7850SOL     OW35580   8.663   1.116   6.852
 7850SOL    HW135581   8.654   1.177   6.773
 7850SOL    HW235582   8.666   1.022   6.822
 7851SOL     OW35583   8.213   4.704   6.832
 7851SOL    HW135584   8.274   4.662   6.900
 7851SOL    HW235585   8.160   4.776   6.875
 7852SOL     OW35586   7.589   6.333   6.824
 7852SOL    HW135587   7.611   6.333   6.726
 7852SOL    HW235588   7.491   6.345   6.835
 7853SOL     OW35589   5.638   7.232   6.743
 7853SOL    HW135590   5.649   7.190   6.833
 7853SOL    HW235591   5.703   7.192   6.680
 7854SOL     OW35592   2.254   1.341   6.816
 7854SOL    HW135593   2.227   1.417   6.877
 7854SOL    HW235594   2.251   1.256   6.867
 7855SOL     OW35595   7.533   1.051   6.819
 7855SOL    HW135596   7.499   0.986   6.888
 7855SOL    HW235597   7.607   1.105   6.858
 7856SOL     OW35598   4.010   4.756   6.821
 7856SOL    HW135599   4.080   4.746   6.750
 7856SOL    HW235600   3.922   4.730   6.784
 7857SOL     OW35601   7.294   6.563   6.795
 7857SOL    HW135602   7.262   6.516   6.712
 7857SOL    HW235603   7.394   6.567   6.795
 7858SOL     OW35604   7.010   5.368   6.920
 7858SOL    HW135605   7.032   5.466   6.917
 7858SOL    HW235606   7.075   5.318   6.864
 7859SOL     OW35607   9.112   7.478   6.819
 7859SOL    HW135608   9.028   7.503   6.769
 7859SOL    HW235609   9.190   7.523   6.777
 7860SOL     OW35610   4.234   8.080   6.876
 7860SOL    HW135611   4.146   8.114   6.841
 7860SOL    HW235612   4.308   8.111   6.818
 7861SOL     OW35613   0.728   7.411   6.792
 7861SOL    HW135614   0.731   7.484   6.723
 7861SOL    HW235615   0.734   7.451   6.883
 7862SOL     OW35616   4.952   1.681   6.886
 7862SOL    HW135617   5.028   1.709   6.945
 7862SOL    HW235618   4.985   1.665   6.794
 7863SOL     OW35619   3.233   4.618   6.851
 7863SOL    HW135620   3.171   4.668   6.912
 7863SOL    HW235621   3.266   4.536   6.897
 7864SOL     OW35622   6.302   4.652   6.891
 7864SOL    HW135623   6.290   4.746   6.857
 7864SOL    HW235624   6.289   4.651   6.989
 7865SOL     OW35625   8.742   5.371   6.810
 7865SOL    HW135626   8.796   5.287   6.820
 7865SOL    HW235627   8.778   5.423   6.733
 7866SOL     OW35628   6.790   5.966   6.873
 7866SOL    HW135629   6.845   6.032   6.924
 7866SOL    HW235630   6.847   5.891   6.842
 7867SOL     OW35631   9.210   7.756   6.727
 7867SOL    HW135632   9.248   7.723   6.814
 7867SOL    HW235633   9.145   7.689   6.693
 7868SOL     OW35634   2.815   3.924   6.917
 7868SOL    HW135635   2.770   3.895   6.832
 7868SOL    HW235636   2.862   3.846   6.957
 7869SOL     OW35637   0.613   2.309   6.908
 7869SOL    HW135638   0.660   2.270   6.828
 7869SOL    HW235639   0.595   2.405   6.893
 7870SOL     OW35640   4.092   5.999   6.875
 7870SOL    HW135641   4.005   6.043   6.854
 7870SOL    HW235642   4.133   6.043   6.955
 7871SOL     OW35643   3.084   3.001   6.809
 7871SOL    HW135644   3.039   2.994   6.719
 7871SOL    HW235645   3.123   2.913   6.833
 7872SOL     OW35646   8.949   3.890   6.875
 7872SOL    HW135647   8.947   3.990   6.881
 7872SOL    HW235648   8.932   3.852   6.965
 7873SOL     OW35649   0.328   2.557   6.871
 7873SOL    HW135650   0.240   2.607   6.870
 7873SOL    HW235651   0.320   2.477   6.928
 7874SOL     OW35652   0.658   0.125   6.794
 7874SOL    HW135653   0.755   0.123   6.823
 7874SOL    HW235654   0.600   0.132   6.874
 7875SOL     OW35655   6.456   1.442   6.780
 7875SOL    HW135656   6.441   1.518   6.844
 7875SOL    HW235657   6.420   1.358   6.819
 7876SOL     OW35658   6.497   7.611   6.761
 7876SOL    HW135659   6.532   7.588   6.852
 7876SOL    HW235660   6.401   7.585   6.755
 7877SOL     OW35661   2.003   2.516   6.862
 7877SOL    HW135662   2.044   2.477   6.945
 7877SOL    HW235663   1.933   2.582   6.888
 7878SOL     OW35664   5.011   1.966   6.832
 7878SOL    HW135665   4.967   1.913   6.759
 7878SOL    HW235666   5.058   2.044   6.793
 7879SOL     OW35667   6.643   4.208   6.769
 7879SOL    HW135668   6.574   4.202   6.696
 7879SOL    HW235669   6.597   4.224   6.856
 7880SOL     OW35670   4.750   7.653   6.771
 7880SOL    HW135671   4.741   7.689   6.864
 7880SOL    HW235672   4.798   7.565   6.774
 7881SOL     OW35673   3.849   3.408   6.861
 7881SOL    HW135674   3.849   3.497   6.908
 7881SOL    HW235675   3.784   3.411   6.786
 7882SOL     OW35676   2.188   7.588   6.718
 7882SOL    HW135677   2.128   7.648   6.772
 7882SOL    HW235678   2.168   7.493   6.738
 7883SOL     OW35679   0.248   1.444   6.866
 7883SOL    HW135680   0.316   1.479   6.799
 7883SOL    HW235681   0.194   1.373   6.823
 7884SOL     OW35682   2.433   0.751   6.873
 7884SOL    HW135683   2.483   0.676   6.828
 7884SOL    HW235684   2.433   0.830   6.813
 7885SOL     OW35685   6.947   7.825   6.898
 7885SOL    HW135686   6.899   7.767   6.964
 7885SOL    HW235687   6.916   7.804   6.806
 7886SOL     OW35688   7.135   0.322   6.738
 7886SOL    HW135689   7.203   0.335   6.811
 7886SOL    HW235690   7.102   0.410   6.707
 7887SOL     OW35691   5.350   5.273   6.869
 7887SOL    HW135692   5.274   5.298   6.807
 7887SOL    HW235693   5.425   5.237   6.815
 7888SOL     OW35694   7.040   0.562   6.805
 7888SOL    HW135695   6.988   0.478   6.789
 7888SOL    HW235696   7.022   0.626   6.731
 7889SOL     OW35697   1.011   5.794   6.897
 7889SOL    HW135698   1.019   5.841   6.808
 7889SOL    HW235699   0.940   5.837   6.951
 7890SOL     OW35700   0.239   6.311   6.856
 7890SOL    HW135701   0.263   6.407   6.872
 7890SOL    HW235702   0.320   6.255   6.867
 7891SOL     OW35703   0.050   6.089   6.742
 7891SOL    HW135704  -0.011   6.077   6.821
 7891SOL    HW235705   0.095   6.177   6.747
 7892SOL     OW35706   5.368   3.533   6.716
 7892SOL    HW135707   5.310   3.544   6.798
 7892SOL    HW235708   5.446   3.594   6.723
 7893SOL     OW35709   9.231   3.012   6.927
 7893SOL    HW135710   9.242   3.049   6.834
 7893SOL    HW235711   9.143   3.040   6.963
 7894SOL     OW35712   8.652   1.411   6.813
 7894SOL    HW135713   8.702   1.487   6.856
 7894SOL    HW235714   8.703   1.377   6.736
 7895SOL     OW35715   8.618   7.079   6.794
 7895SOL    HW135716   8.598   7.077   6.892
 7895SOL    HW235717   8.699   7.135   6.778
 7896SOL     OW35718   1.911   1.465   6.747
 7896SOL    HW135719   1.891   1.561   6.723
 7896SOL    HW235720   1.827   1.420   6.774
 7897SOL     OW35721   5.818   5.141   6.894
 7897SOL    HW135722   5.799   5.068   6.827
 7897SOL    HW235723   5.781   5.115   6.983
 7898SOL     OW35724   5.247   1.790   6.796
 7898SOL    HW135725   5.211   1.786   6.702
 7898SOL    HW235726   5.258   1.885   6.823
 7899SOL     OW35727   6.114   7.415   6.829
 7899SOL    HW135728   6.172   7.334   6.823
 7899SOL    HW235729   6.131   7.462   6.915
 7900SOL     OW35730   7.383   3.576   6.841
 7900SOL    HW135731   7.341   3.557   6.751
 7900SOL    HW235732   7.478   3.549   6.839
 7901SOL     OW35733   0.528   8.077   6.749
 7901SOL    HW135734   0.588   8.039   6.820
 7901SOL    HW235735   0.576   8.079   6.662
 7902SOL     OW35736   7.324   4.045   6.894
 7902SOL    HW135737   7.263   4.063   6.816
 7902SOL    HW235738   7.345   3.948   6.899
 7903SOL     OW35739   6.284   1.859   6.784
 7903SOL    HW135740   6.221   1.913   6.840
 7903SOL    HW235741   6.339   1.801   6.843
 7904SOL     OW35742   5.192   2.807   6.736
 7904SOL    HW135743   5.243   2.859   6.804
 7904SOL    HW235744   5.214   2.710   6.745
 7905SOL     OW35745   9.068   1.620   6.901
 7905SOL    HW135746   9.023   1.659   6.982
 7905SOL    HW235747   9.044   1.675   6.821
 7906SOL     OW35748   0.967   7.050   6.792
 7906SOL    HW135749   0.908   7.094   6.723
 7906SOL    HW235750   1.055   7.028   6.751
 7907SOL     OW35751   1.476   6.636   6.731
 7907SOL    HW135752   1.405   6.702   6.756
 7907SOL    HW235753   1.457   6.548   6.775
 7908SOL     OW35754   2.343   7.376   6.837
 7908SOL    HW135755   2.307   7.406   6.926
 7908SOL    HW235756   2.439   7.404   6.830
 7909SOL     OW35757   6.777   7.569   6.774
 7909SOL    HW135758   6.821   7.587   6.863
 7909SOL    HW235759   6.772   7.655   6.723
 7910SOL     OW35760   6.228   0.476   6.795
 7910SOL    HW135761   6.255   0.528   6.714
 7910SOL    HW235762   6.308   0.458   6.851
 7911SOL     OW35763   2.733   1.005   6.853
 7911SOL    HW135764   2.776   0.959   6.932
 7911SOL    HW235765   2.681   1.083   6.886
 7912SOL     OW35766   0.100   5.437   6.760
 7912SOL    HW135767   0.139   5.512   6.814
 7912SOL    HW235768   0.163   5.360   6.760
 7913SOL     OW35769   6.974   0.900   6.768
 7913SOL    HW135770   6.996   0.994   6.740
 7913SOL    HW235771   7.051   0.862   6.819
 7914SOL     OW35772   3.657   8.253   6.943
 7914SOL    HW135773   3.599   8.295   6.872
 7914SOL    HW235774   3.743   8.225   6.902
 7915SOL     OW35775   1.376   4.235   6.722
 7915SOL    HW135776   1.353   4.207   6.816
 7915SOL    HW235777   1.310   4.301   6.690
 7916SOL     OW35778   1.616   6.991   6.725
 7916SOL    HW135779   1.592   6.987   6.822
 7916SOL    HW235780   1.703   7.038   6.715
 7917SOL     OW35781   9.057   6.359   6.750
 7917SOL    HW135782   9.029   6.429   6.816
 7917SOL    HW235783   9.080   6.276   6.799
 7918SOL     OW35784   4.110   2.995   6.728
 7918SOL    HW135785   4.178   2.953   6.789
 7918SOL    HW235786   4.027   2.941   6.729
 7919SOL     OW35787   5.668   7.509   6.757
 7919SOL    HW135788   5.749   7.494   6.814
 7919SOL    HW235789   5.651   7.607   6.749
 7920SOL     OW35790   6.139   7.798   6.786
 7920SOL    HW135791   6.218   7.738   6.802
 7920SOL    HW235792   6.151   7.882   6.838
 7921SOL     OW35793   1.247   0.393   6.848
 7921SOL    HW135794   1.179   0.367   6.916
 7921SOL    HW235795   1.249   0.325   6.775
 7922SOL     OW35796   4.576   7.852   6.725
 7922SOL    HW135797   4.548   7.945   6.751
 7922SOL    HW235798   4.656   7.825   6.779
 7923SOL     OW35799   3.740   5.104   6.809
 7923SOL    HW135800   3.718   5.043   6.733
 7923SOL    HW235801   3.687   5.078   6.889
 7924SOL     OW35802   3.338   6.810   6.766
 7924SOL    HW135803   3.281   6.767   6.696
 7924SOL    HW235804   3.433   6.782   6.753
 7925SOL     OW35805   5.279   4.426   6.791
 7925SOL    HW135806   5.301   4.502   6.729
 7925SOL    HW235807   5.181   4.409   6.789
 7926SOL     OW35808   3.002   4.857   6.853
 7926SOL    HW135809   3.015   4.942   6.799
 7926SOL    HW235810   3.027   4.779   6.796
 7927SOL     OW35811   1.642   6.390   6.773
 7927SOL    HW135812   1.619   6.363   6.679
 7927SOL    HW235813   1.594   6.332   6.837
 7928SOL     OW35814   0.272   5.949   6.823
 7928SOL    HW135815   0.247   6.004   6.904
 7928SOL    HW235816   0.224   5.862   6.827
 7929SOL     OW35817   0.965   3.460   6.904
 7929SOL    HW135818   0.940   3.381   6.847
 7929SOL    HW235819   1.044   3.437   6.960
 7930SOL     OW35820   9.116   7.059   6.818
 7930SOL    HW135821   9.154   7.003   6.743
 7930SOL    HW235822   9.086   6.999   6.891
 7931SOL     OW35823   7.987   5.274   6.809
 7931SOL    HW135824   8.004   5.189   6.861
 7931SOL    HW235825   8.034   5.349   6.854
 7932SOL     OW35826   5.130   6.174   6.797
 7932SOL    HW135827   5.126   6.146   6.701
 7932SOL    HW235828   5.187   6.255   6.805
 7933SOL     OW35829   3.990   1.563   6.723
 7933SOL    HW135830   3.926   1.550   6.800
 7933SOL    HW235831   4.081   1.533   6.750
 7934SOL     OW35832   5.997   1.831   6.822
 7934SOL    HW135833   5.911   1.881   6.828
 7934SOL    HW235834   6.001   1.762   6.893
 7935SOL     OW35835   0.613   3.942   6.716
 7935SOL    HW135836   0.677   3.865   6.719
 7935SOL    HW235837   0.585   3.966   6.808
 7936SOL     OW35838   8.044   6.889   6.727
 7936SOL    HW135839   8.072   6.944   6.805
 7936SOL    HW235840   8.020   6.797   6.758
 7937SOL     OW35841   1.276   5.137   6.923
 7937SOL    HW135842   1.245   5.079   6.847
 7937SOL    HW235843   1.308   5.224   6.887
 7938SOL     OW35844   1.762   0.265   6.827
 7938SOL    HW135845   1.821   0.340   6.858
 7938SOL    HW235846   1.743   0.205   6.904
 7939SOL     OW35847   9.398   7.452   6.732
 7939SOL    HW135848   9.326   7.420   6.794
 7939SOL    HW235849   9.367   7.534   6.686
 7940SOL     OW35850   9.137   1.119   6.755
 7940SOL    HW135851   9.170   1.186   6.822
 7940SOL    HW235852   9.061   1.068   6.793
 7941SOL     OW35853   5.413   3.106   6.815
 7941SOL    HW135854   5.449   3.039   6.880
 7941SOL    HW235855   5.338   3.064   6.764
 7942SOL     OW35856   3.402   1.744   6.916
 7942SOL    HW135857   3.450   1.683   6.852
 7942SOL    HW235858   3.306   1.752   6.889
 7943SOL     OW35859   8.581   5.773   6.794
 7943SOL    HW135860   8.531   5.768   6.882
 7943SOL    HW235861   8.517   5.794   6.721
 7944SOL     OW35862   3.187   1.013   6.868
 7944SOL    HW135863   3.247   1.016   6.948
 7944SOL    HW235864   3.098   1.051   6.892
 7945SOL     OW35865   1.363   6.217   6.805
 7945SOL    HW135866   1.402   6.124   6.808
 7945SOL    HW235867   1.429   6.279   6.764
 7946SOL     OW35868   0.446   3.843   6.873
 7946SOL    HW135869   0.357   3.827   6.917
 7946SOL    HW235870   0.519   3.816   6.935
 7947SOL     OW35871   0.534   1.613   6.841
 7947SOL    HW135872   0.439   1.612   6.810
 7947SOL    HW235873   0.591   1.561   6.778
 7948SOL     OW35874   5.676   5.843   6.780
 7948SOL    HW135875   5.640   5.936   6.765
 7948SOL    HW235876   5.601   5.784   6.810
 7949SOL     OW35877   5.015   7.599   6.825
 7949SOL    HW135878   5.086   7.534   6.796
 7949SOL    HW235879   4.997   7.587   6.922
 7950SOL     OW35880   5.278   0.370   6.783
 7950SOL    HW135881   5.234   0.414   6.862
 7950SOL    HW235882   5.295   0.274   6.802
 7951SOL     OW35883   1.220   1.270   6.877
 7951SOL    HW135884   1.211   1.344   6.810
 7951SOL    HW235885   1.271   1.195   6.836
 7952SOL     OW35886   0.175   0.760   6.850
 7952SOL    HW135887   0.260   0.722   6.888
 7952SOL    HW235888   0.136   0.825   6.915
 7953SOL     OW35889   7.981   0.628   6.791
 7953SOL    HW135890   8.064   0.674   6.758
 7953SOL    HW235891   7.964   0.546   6.737
 7954SOL     OW35892   6.603   7.346   6.777
 7954SOL    HW135893   6.689   7.397   6.776
 7954SOL    HW235894   6.608   7.271   6.711
 7955SOL     OW35895   0.238   8.099   6.748
 7955SOL    HW135896   0.154   8.075   6.797
 7955SOL    HW235897   0.300   8.021   6.749
 7956SOL     OW35898   3.591   1.928   6.877
 7956SOL    HW135899   3.574   1.869   6.797
 7956SOL    HW235900   3.687   1.954   6.878
 7957SOL     OW35901   6.308   6.461   6.884
 7957SOL    HW135902   6.339   6.453   6.979
 7957SOL    HW235903   6.304   6.370   6.843
 7958SOL     OW35904   7.091   1.422   6.770
 7958SOL    HW135905   7.047   1.433   6.681
 7958SOL    HW235906   7.189   1.418   6.758
 7959SOL     OW35907   8.549   3.312   6.880
 7959SOL    HW135908   8.642   3.344   6.897
 7959SOL    HW235909   8.541   3.283   6.786
 7960SOL     OW35910   3.080   8.089   6.775
 7960SOL    HW135911   3.116   8.178   6.803
 7960SOL    HW235912   3.112   8.019   6.838
 7961SOL     OW35913   2.764   1.752   6.737
 7961SOL    HW135914   2.695   1.813   6.777
 7961SOL    HW235915   2.731   1.658   6.741
 7962SOL     OW35916   4.613   6.708   6.799
 7962SOL    HW135917   4.558   6.640   6.849
 7962SOL    HW235918   4.554   6.781   6.767
 7963SOL     OW35919   2.209   8.195   6.839
 7963SOL    HW135920   2.129   8.239   6.798
 7963SOL    HW235921   2.221   8.228   6.932
 7964SOL     OW35922   3.486   2.671   6.758
 7964SOL    HW135923   3.443   2.701   6.844
 7964SOL    HW235924   3.580   2.643   6.777
 7965SOL     OW35925   6.558   3.034   6.748
 7965SOL    HW135926   6.589   3.098   6.677
 7965SOL    HW235927   6.520   3.085   6.824
 7966SOL     OW35928   8.861   7.427   6.757
 7966SOL    HW135929   8.916   7.440   6.840
 7966SOL    HW235930   8.896   7.348   6.707
 7967SOL     OW35931   0.087   0.101   6.773
 7967SOL    HW135932   0.064   0.183   6.828
 7967SOL    HW235933   0.178   0.071   6.796
 7968SOL     OW35934   5.528   0.429   6.824
 7968SOL    HW135935   5.492   0.429   6.730
 7968SOL    HW235936   5.460   0.391   6.885
 7969SOL     OW35937   9.186   0.870   6.814
 7969SOL    HW135938   9.242   0.873   6.897
 7969SOL    HW235939   9.096   0.907   6.833
 7970SOL     OW35940   3.039   0.685   6.922
 7970SOL    HW135941   3.037   0.612   6.853
 7970SOL    HW235942   3.002   0.768   6.883
 7971SOL     OW35943   1.379   7.455   6.818
 7971SOL    HW135944   1.430   7.465   6.904
 7971SOL    HW235945   1.371   7.544   6.774
 7972SOL     OW35946   4.409   4.866   6.802
 7972SOL    HW135947   4.436   4.928   6.877
 7972SOL    HW235948   4.330   4.813   6.830
 7973SOL     OW35949   6.952   0.120   6.874
 7973SOL    HW135950   6.875   0.056   6.870
 7973SOL    HW235951   6.923   0.208   6.838
 7974SOL     OW35952   7.398   1.360   6.810
 7974SOL    HW135953   7.450   1.297   6.869
 7974SOL    HW235954   7.461   1.415   6.757
 7975SOL     OW35955   4.713   1.882   6.909
 7975SOL    HW135956   4.722   1.952   6.837
 7975SOL    HW235957   4.748   1.796   6.875
 7976SOL     OW35958   4.201   1.176   6.756
 7976SOL    HW135959   4.222   1.227   6.839
 7976SOL    HW235960   4.270   1.105   6.742
 7977SOL     OW35961   7.928   8.335   6.854
 7977SOL    HW135962   7.926   8.435   6.843
 7977SOL    HW235963   8.022   8.304   6.862
 7978SOL     OW35964   8.163   3.458   6.755
 7978SOL    HW135965   8.064   3.472   6.761
 7978SOL    HW235966   8.205   3.535   6.708
 7979SOL     OW35967   5.506   1.062   6.820
 7979SOL    HW135968   5.528   0.983   6.762
 7979SOL    HW235969   5.433   1.114   6.777
 7980SOL     OW35970   5.885   7.605   6.791
 7980SOL    HW135971   5.964   7.554   6.827
 7980SOL    HW235972   5.849   7.663   6.863
 7981SOL     OW35973   7.724   7.588   6.789
 7981SOL    HW135974   7.642   7.529   6.790
 7981SOL    HW235975   7.790   7.552   6.854
 7982SOL     OW35976   0.300   1.214   6.844
 7982SOL    HW135977   0.350   1.144   6.792
 7982SOL    HW235978   0.213   1.232   6.800
 7983SOL     OW35979   1.477   3.851   6.858
 7983SOL    HW135980   1.413   3.867   6.934
 7983SOL    HW235981   1.561   3.810   6.894
 7984SOL     OW35982   7.881   2.561   6.871
 7984SOL    HW135983   7.970   2.516   6.863
 7984SOL    HW235984   7.808   2.497   6.849
 7985SOL     OW35985   5.529   6.511   6.848
 7985SOL    HW135986   5.445   6.493   6.796
 7985SOL    HW235987   5.603   6.534   6.785
 7986SOL     OW35988   5.425   7.146   6.814
 7986SOL    HW135989   5.417   7.212   6.890
 7986SOL    HW235990   5.361   7.071   6.829
 7987SOL     OW35991   5.701   8.241   6.737
 7987SOL    HW135992   5.787   8.276   6.775
 7987SOL    HW235993   5.624   8.279   6.788
 7988SOL     OW35994   7.812   4.658   6.809
 7988SOL    HW135995   7.842   4.576   6.759
 7988SOL    HW235996   7.879   4.681   6.878
 7989SOL     OW35997   3.799   1.240   6.874
 7989SOL    HW135998   3.755   1.150   6.870
 7989SOL    HW235999   3.884   1.232   6.925
 7990SOL     OW36000   3.419   6.216   6.784
 7990SOL    HW136001   3.473   6.185   6.863
 7990SOL    HW236002   3.463   6.295   6.743
 7991SOL     OW36003   6.071   8.249   6.875
 7991SOL    HW136004   6.138   8.254   6.949
 7991SOL    HW236005   5.984   8.284   6.907
 7992SOL     OW36006   0.113   5.151   6.826
 7992SOL    HW136007   0.064   5.152   6.914
 7992SOL    HW236008   0.191   5.212   6.831
 7993SOL     OW36009   8.711   2.172   6.805
 7993SOL    HW136010   8.659   2.189   6.889
 7993SOL    HW236011   8.776   2.247   6.791
 7994SOL     OW36012   6.336   0.277   6.818
 7994SOL    HW136013   6.397   0.268   6.739
 7994SOL    HW236014   6.373   0.223   6.893
 7995SOL     OW36015   6.489   0.781   6.769
 7995SOL    HW136016   6.449   0.856   6.716
 7995SOL    HW236017   6.580   0.762   6.736
 7996SOL     OW36018   4.583   4.222   6.813
 7996SOL    HW136019   4.683   4.212   6.821
 7996SOL    HW236020   4.552   4.182   6.727
 7997SOL     OW36021   1.266   1.918   6.868
 7997SOL    HW136022   1.280   2.018   6.861
 7997SOL    HW236023   1.169   1.898   6.860
 7998SOL     OW36024   7.081   5.096   6.766
 7998SOL    HW136025   7.156   5.150   6.804
 7998SOL    HW236026   7.014   5.078   6.837
 7999SOL     OW36027   9.413   6.427   6.796
 7999SOL    HW136028   9.503   6.469   6.812
 7999SOL    HW236029   9.425   6.335   6.760
 8000SOL     OW36030   6.838   4.332   6.863
 8000SOL    HW136031   6.793   4.411   6.905
 8000SOL    HW236032   6.889   4.282   6.933
 8001SOL     OW36033   6.266   2.275   6.759
 8001SOL    HW136034   6.270   2.305   6.855
 8001SOL    HW236035   6.242   2.179   6.755
 8002SOL     OW36036   0.057   5.783   6.877
 8002SOL    HW136037   0.068   5.856   6.946
 8002SOL    HW236038   0.031   5.824   6.790
 8003SOL     OW36039   1.996   0.379   6.832
 8003SOL    HW136040   2.015   0.347   6.926
 8003SOL    HW236041   2.050   0.461   6.814
 8004SOL     OW36042   7.713   4.325   6.793
 8004SOL    HW136043   7.671   4.314   6.703
 8004SOL    HW236044   7.681   4.253   6.854
 8005SOL     OW36045   1.539   2.829   6.808
 8005SOL    HW136046   1.460   2.817   6.747
 8005SOL    HW236047   1.610   2.880   6.761
 8006SOL     OW36048   0.532   0.375   6.740
 8006SOL    HW136049   0.449   0.428   6.763
 8006SOL    HW236050   0.506   0.286   6.704
 8007SOL     OW36051   7.310   0.515   6.745
 8007SOL    HW136052   7.360   0.547   6.825
 8007SOL    HW236053   7.238   0.580   6.723
 8008SOL     OW36054   2.066   0.688   6.788
 8008SOL    HW136055   1.975   0.714   6.824
 8008SOL    HW236056   2.101   0.612   6.841
 8009SOL     OW36057   4.860   0.393   6.940
 8009SOL    HW136058   4.795   0.367   6.868
 8009SOL    HW236059   4.916   0.468   6.908
 8010SOL     OW36060   6.315   0.944   6.759
 8010SOL    HW136061   6.326   1.044   6.758
 8010SOL    HW236062   6.277   0.916   6.846
 8011SOL     OW36063   7.090   2.433   6.917
 8011SOL    HW136064   7.156   2.441   6.841
 8011SOL    HW236065   7.001   2.411   6.881
 8012SOL     OW36066   2.043   3.823   6.791
 8012SOL    HW136067   2.111   3.803   6.720
 8012SOL    HW236068   1.988   3.901   6.763
 8013SOL     OW36069   8.351   8.032   6.808
 8013SOL    HW136070   8.407   8.079   6.877
 8013SOL    HW236071   8.330   8.095   6.735
 8014SOL     OW36072   4.242   7.162   6.855
 8014SOL    HW136073   4.216   7.091   6.921
 8014SOL    HW236074   4.282   7.239   6.904
 8015SOL     OW36075   4.605   2.415   6.771
 8015SOL    HW136076   4.560   2.441   6.857
 8015SOL    HW236077   4.697   2.452   6.769
 8016SOL     OW36078   7.777   6.912   6.852
 8016SOL    HW136079   7.721   6.858   6.915
 8016SOL    HW236080   7.838   6.970   6.904
 8017SOL     OW36081   9.130   8.394   6.861
 8017SOL    HW136082   9.124   8.494   6.868
 8017SOL    HW236083   9.047   8.354   6.896
 8018SOL     OW36084   6.722   1.513   6.747
 8018SOL    HW136085   6.718   1.609   6.718
 8018SOL    HW236086   6.811   1.494   6.788
 8019SOL     OW36087   1.698   2.324   6.733
 8019SOL    HW136088   1.636   2.279   6.797
 8019SOL    HW236089   1.697   2.422   6.749
 8020SOL     OW36090   7.306   0.177   6.770
 8020SOL    HW136091   7.383   0.164   6.834
 8020SOL    HW236092   7.221   0.153   6.816
 8021SOL     OW36093   2.622   7.869   6.902
 8021SOL    HW136094   2.599   7.930   6.826
 8021SOL    HW236095   2.539   7.842   6.950
 8022SOL     OW36096   0.898   0.544   6.817
 8022SOL    HW136097   0.948   0.609   6.759
 8022SOL    HW236098   0.802   0.543   6.791
 8023SOL     OW36099   3.856   6.776   6.939
 8023SOL    HW136100   3.826   6.692   6.892
 8023SOL    HW236101   3.828   6.855   6.885
 8024SOL     OW36102   4.977   6.856   6.774
 8024SOL    HW136103   5.056   6.840   6.713
 8024SOL    HW236104   4.958   6.953   6.778
 8025SOL     OW36105   1.422   3.614   6.895
 8025SOL    HW136106   1.342   3.668   6.868
 8025SOL    HW236107   1.396   3.518   6.903
 8026SOL     OW36108   5.383   7.415   6.896
 8026SOL    HW136109   5.465   7.363   6.870
 8026SOL    HW236110   5.313   7.404   6.826
 8027SOL     OW36111   5.601   2.526   6.861
 8027SOL    HW136112   5.559   2.464   6.928
 8027SOL    HW236113   5.677   2.573   6.904
 8028SOL     OW36114   2.279   0.280   6.877
 8028SOL    HW136115   2.236   0.292   6.787
 8028SOL    HW236116   2.222   0.322   6.946
 8029SOL     OW36117   2.085   6.050   6.721
 8029SOL    HW136118   2.158   6.047   6.790
 8029SOL    HW236119   2.004   6.092   6.760
 8030SOL     OW36120   5.226   3.272   6.779
 8030SOL    HW136121   5.174   3.191   6.808
 8030SOL    HW236122   5.258   3.321   6.860
 8031SOL     OW36123   3.681   5.939   6.818
 8031SOL    HW136124   3.686   5.936   6.919
 8031SOL    HW236125   3.660   6.031   6.789
 8032SOL     OW36126   8.703   3.918   6.821
 8032SOL    HW136127   8.698   3.845   6.752
 8032SOL    HW236128   8.717   4.005   6.777
 8033SOL     OW36129   4.916   4.848   6.884
 8033SOL    HW136130   4.924   4.768   6.824
 8033SOL    HW236131   4.962   4.831   6.970
 8034SOL     OW36132   6.693   5.629   6.844
 8034SOL    HW136133   6.621   5.622   6.774
 8034SOL    HW236134   6.771   5.677   6.806
 8035SOL     OW36135   1.805   1.749   6.772
 8035SOL    HW136136   1.776   1.673   6.712
 8035SOL    HW236137   1.789   1.835   6.726
 8036SOL     OW36138   8.176   7.696   6.714
 8036SOL    HW136139   8.164   7.758   6.792
 8036SOL    HW236140   8.108   7.624   6.718
 8037SOL     OW36141   0.477   3.423   6.798
 8037SOL    HW136142   0.415   3.501   6.784
 8037SOL    HW236143   0.441   3.365   6.870
 8038SOL     OW36144   1.418   4.481   6.866
 8038SOL    HW136145   1.450   4.391   6.898
 8038SOL    HW236146   1.362   4.468   6.784
 8039SOL     OW36147   2.626   5.855   6.888
 8039SOL    HW136148   2.681   5.800   6.951
 8039SOL    HW236149   2.629   5.814   6.798
 8040SOL     OW36150   0.074   0.988   6.745
 8040SOL    HW136151   0.094   0.985   6.843
 8040SOL    HW236152   0.020   1.069   6.725
 8041SOL     OW36153   2.693   2.881   6.784
 8041SOL    HW136154   2.671   2.951   6.853
 8041SOL    HW236155   2.742   2.806   6.827
 8042SOL     OW36156   9.071   8.205   6.821
 8042SOL    HW136157   9.088   8.178   6.726
 8042SOL    HW236158   8.976   8.186   6.844
 8043SOL     OW36159   7.795   0.985   6.890
 8043SOL    HW136160   7.883   0.937   6.890
 8043SOL    HW236161   7.811   1.083   6.895
 8044SOL     OW36162   7.933   0.206   6.832
 8044SOL    HW136163   7.863   0.157   6.779
 8044SOL    HW236164   7.901   0.222   6.924
 8045SOL     OW36165   0.298   5.733   6.732
 8045SOL    HW136166   0.347   5.798   6.791
 8045SOL    HW236167   0.274   5.652   6.784
 8046SOL     OW36168   8.133   7.909   6.770
 8046SOL    HW136169   8.112   7.953   6.859
 8046SOL    HW236170   8.175   7.976   6.710
 8047SOL     OW36171   5.207   2.098   6.871
 8047SOL    HW136172   5.179   2.002   6.881
 8047SOL    HW236173   5.216   2.120   6.774
 8048SOL     OW36174   8.275   1.624   6.813
 8048SOL    HW136175   8.187   1.671   6.822
 8048SOL    HW236176   8.347   1.691   6.797
 8049SOL     OW36177   8.680   7.630   6.778
 8049SOL    HW136178   8.615   7.609   6.852
 8049SOL    HW236179   8.766   7.584   6.796
 8050SOL     OW36180   1.362   5.565   6.884
 8050SOL    HW136181   1.267   5.559   6.852
 8050SOL    HW236182   1.362   5.594   6.979
 8051SOL     OW36183   7.394   5.229   6.748
 8051SOL    HW136184   7.388   5.261   6.843
 8051SOL    HW236185   7.486   5.243   6.714
 8052SOL     OW36186   4.549   5.823   6.871
 8052SOL    HW136187   4.534   5.798   6.775
 8052SOL    HW236188   4.589   5.914   6.876
 8053SOL     OW36189   7.345   8.257   6.858
 8053SOL    HW136190   7.419   8.286   6.919
 8053SOL    HW236191   7.267   8.227   6.911
 8054SOL     OW36192   7.373   4.709   6.942
 8054SOL    HW136193   7.370   4.661   6.854
 8054SOL    HW236194   7.368   4.807   6.926
 8055SOL     OW36195   0.281   4.057   6.889
 8055SOL    HW136196   0.214   3.982   6.886
 8055SOL    HW236197   0.279   4.106   6.803
 8056SOL     OW36198   8.444   2.259   6.864
 8056SOL    HW136199   8.514   2.199   6.823
 8056SOL    HW236200   8.468   2.354   6.847
 8057SOL     OW36201   5.303   2.506   6.754
 8057SOL    HW136202   5.283   2.427   6.695
 8057SOL    HW236203   5.290   2.479   6.849
 8058SOL     OW36204   2.883   2.070   6.772
 8058SOL    HW136205   2.870   1.986   6.719
 8058SOL    HW236206   2.819   2.140   6.739
 8059SOL     OW36207   2.660   8.302   6.852
 8059SOL    HW136208   2.711   8.341   6.929
 8059SOL    HW236209   2.562   8.310   6.870
 8060SOL     OW36210   0.072   4.155   6.854
 8060SOL    HW136211   0.085   4.115   6.945
 8060SOL    HW236212   0.153   4.205   6.827
 8061SOL     OW36213   3.013   4.099   6.721
 8061SOL    HW136214   3.055   4.188   6.742
 8061SOL    HW236215   3.073   4.026   6.753
 8062SOL     OW36216   2.459   3.165   6.946
 8062SOL    HW136217   2.444   3.102   6.870
 8062SOL    HW236218   2.486   3.253   6.911
 8063SOL     OW36219   8.770   2.989   6.828
 8063SOL    HW136220   8.728   2.914   6.881
 8063SOL    HW236221   8.839   2.952   6.768
 8064SOL     OW36222   7.191   6.259   6.899
 8064SOL    HW136223   7.111   6.229   6.847
 8064SOL    HW236224   7.198   6.358   6.894
 8065SOL     OW36225   2.045   7.406   6.864
 8065SOL    HW136226   1.966   7.397   6.925
 8065SOL    HW236227   2.068   7.316   6.827
 8066SOL     OW36228   4.978   5.775   6.915
 8066SOL    HW136229   4.990   5.675   6.909
 8066SOL    HW236230   5.029   5.819   6.842
 8067SOL     OW36231   7.989   1.226   6.889
 8067SOL    HW136232   7.997   1.231   6.789
 8067SOL    HW236233   7.974   1.317   6.925
 8068SOL     OW36234   3.981   5.509   6.919
 8068SOL    HW136235   3.908   5.514   6.850
 8068SOL    HW236236   4.065   5.544   6.880
 8069SOL     OW36237   0.480   7.339   6.849
 8069SOL    HW136238   0.535   7.423   6.852
 8069SOL    HW236239   0.421   7.335   6.929
 8070SOL     OW36240   6.570   6.814   6.764
 8070SOL    HW136241   6.523   6.757   6.832
 8070SOL    HW236242   6.665   6.786   6.757
 8071SOL     OW36243   5.888   1.236   6.809
 8071SOL    HW136244   5.865   1.210   6.903
 8071SOL    HW236245   5.981   1.206   6.789
 8072SOL     OW36246   3.764   2.106   6.878
 8072SOL    HW136247   3.833   2.122   6.949
 8072SOL    HW236248   3.791   2.151   6.794
 8073SOL     OW36249   9.509   2.620   6.774
 8073SOL    HW136250   9.485   2.659   6.685
 8073SOL    HW236251   9.425   2.602   6.825
 8074SOL     OW36252   2.536   5.044   6.933
 8074SOL    HW136253   2.527   4.969   6.867
 8074SOL    HW236254   2.501   5.128   6.892
 8075SOL     OW36255   0.201   6.869   6.886
 8075SOL    HW136256   0.136   6.796   6.866
 8075SOL    HW236257   0.155   6.957   6.883
 8076X2IT   H1836258   2.789   4.314   6.558
 8076X2IT    N436259   2.695   4.293   6.530
 8076X2IT   H1736260   2.670   4.195   6.520
 8076X2IT   C1436261   2.599   4.382   6.569
 8076X2IT    O536262   2.620   4.495   6.609
 8076X2IT    O436263   2.475   4.327   6.552
 8076X2IT   C1336264   2.363   4.413   6.583
 8076X2IT   C1036265   2.328   4.505   6.464
 8076X2IT    C936266   2.207   4.592   6.490
 8076X2IT    C436267   2.111   4.568   6.394
 8076X2IT    C536268   1.977   4.637   6.391
 8076X2IT    O136269   1.898   4.613   6.298
 8076X2IT    C636270   1.950   4.730   6.497
 8076X2IT   C1236271   1.817   4.803   6.500
 8076X2IT    C736272   2.047   4.755   6.593
 8076X2IT    C836273   2.183   4.684   6.595
 8076X2IT    O236274   2.261   4.710   6.688
 8076X2IT    N336275   2.032   4.841   6.695
 8076X2IT   H1536276   1.948   4.894   6.710
 8076X2IT   H1636277   2.110   4.849   6.760
 8076X2IT    N236278   2.153   4.482   6.298
 8076X2IT    C336279   2.074   4.383   6.223
 8076X2IT    C236280   2.141   4.252   6.261
 8076X2IT    H236281   2.128   4.164   6.198
 8076X2IT    N136282   2.154   4.235   6.407
 8076X2IT   H1436283   2.166   4.136   6.429
 8076X2IT    C136284   2.270   4.280   6.329
 8076X2IT    H136285   2.358   4.217   6.318
 8076X2IT   C1136286   2.290   4.431   6.331
 8076X2IT    O336287   2.381   4.455   6.226
 8076X2IT   C1536288   2.391   4.590   6.177
 8077X2IT   H1836289   3.544   8.077   6.457
 8077X2IT    N436290   3.570   8.101   6.363
 8077X2IT   H1736291   3.669   8.105   6.343
 8077X2IT   C1436292   3.483   8.064   6.264
 8077X2IT    O536293   3.367   8.031   6.281
 8077X2IT    O436294   3.544   8.075   6.142
 8077X2IT   C1336295   3.463   8.046   6.027
 8077X2IT   C1036296   3.379   8.168   5.985
 8077X2IT    C936297   3.296   8.144   5.861
 8077X2IT    C436298   3.329   8.236   5.763
 8077X2IT    C536299   3.267   8.239   5.627
 8077X2IT    O136300   3.300   8.328   5.547
 8077X2IT    C636301   3.169   8.137   5.598
 8077X2IT   C1236302   3.103   8.134   5.462
 8077X2IT    C736303   3.136   8.045   5.696
 8077X2IT    C836304   3.200   8.043   5.835
 8077X2IT    O236305   3.165   7.954   5.913
 8077X2IT    N336306   3.045   7.948   5.679
 8077X2IT   H1536307   2.995   7.933   5.593
 8077X2IT   H1636308   3.030   7.884   5.758
 8077X2IT    N236309   3.419   8.328   5.808
 8077X2IT    C336310   3.525   8.395   5.731
 8077X2IT    C236311   3.651   8.353   5.805
 8077X2IT    H236312   3.742   8.411   5.795
 8077X2IT    N136313   3.659   8.206   5.822
 8077X2IT   H1436314   3.756   8.179   5.839
 8077X2IT    C136315   3.613   8.290   5.935
 8077X2IT    H136316   3.672   8.300   6.025
 8077X2IT   C1136317   3.461   8.296   5.947
 8077X2IT    O336318   3.438   8.405   6.035
 8077X2IT   C1536319   3.306   8.461   6.037
 8078X2IT   H1836320   4.307   4.497   6.066
 8078X2IT    N436321   4.217   4.482   6.106
 8078X2IT   H1736322   4.143   4.546   6.080
 8078X2IT   C1436323   4.185   4.352   6.136
 8078X2IT    O536324   4.264   4.260   6.144
 8078X2IT    O436325   4.051   4.342   6.160
 8078X2IT   C1336326   4.003   4.211   6.199
 8078X2IT   C1036327   4.022   4.187   6.350
 8078X2IT    C936328   3.968   4.054   6.397
 8078X2IT    C436329   3.873   4.074   6.495
 8078X2IT    C536330   3.798   3.962   6.563
 8078X2IT    O136331   3.717   3.989   6.653
 8078X2IT    C636332   3.827   3.829   6.517
 8078X2IT   C1236333   3.755   3.711   6.581
 8078X2IT    C736334   3.923   3.809   6.419
 8078X2IT    C836335   3.999   3.924   6.352
 8078X2IT    O236336   4.079   3.895   6.262
 8078X2IT    N336337   3.958   3.689   6.372
 8078X2IT   H1536338   3.916   3.603   6.404
 8078X2IT   H1636339   4.029   3.686   6.298
 8078X2IT    N236340   3.861   4.205   6.530
 8078X2IT    C336341   3.740   4.276   6.574
 8078X2IT    C236342   3.726   4.384   6.467
 8078X2IT    H236343   3.666   4.473   6.488
 8078X2IT    N136344   3.729   4.329   6.330
 8078X2IT   H1436345   3.685   4.395   6.266
 8078X2IT    C136346   3.850   4.391   6.387
 8078X2IT    H136347   3.889   4.483   6.346
 8078X2IT   C1136348   3.948   4.290   6.444
 8078X2IT    O336349   4.037   4.368   6.522
 8078X2IT   C1536350   4.117   4.300   6.619
 8079X2IT   H1836351   7.309   7.103   7.368
 8079X2IT    N436352   7.350   7.189   7.335
 8079X2IT   H1736353   7.443   7.210   7.366
 8079X2IT   C1436354   7.310   7.231   7.211
 8079X2IT    O536355   7.212   7.191   7.151
 8079X2IT    O436356   7.394   7.328   7.166
 8079X2IT   C1336357   7.360   7.387   7.038
 8079X2IT   C1036358   7.255   7.499   7.054
 8079X2IT    C936359   7.222   7.568   6.924
 8079X2IT    C436360   7.247   7.703   6.934
 8079X2IT    C536361   7.226   7.801   6.822
 8079X2IT    O136362   7.247   7.922   6.842
 8079X2IT    C636363   7.179   7.747   6.697
 8079X2IT   C1236364   7.156   7.840   6.580
 8079X2IT    C736365   7.153   7.612   6.687
 8079X2IT    C836366   7.175   7.513   6.802
 8079X2IT    O236367   7.153   7.393   6.781
 8079X2IT    N336368   7.108   7.552   6.575
 8079X2IT   H1536369   7.091   7.602   6.490
 8079X2IT   H1636370   7.094   7.451   6.579
 8079X2IT    N236371   7.286   7.739   7.059
 8079X2IT    C336372   7.379   7.846   7.099
 8079X2IT    C236373   7.487   7.768   7.172
 8079X2IT    H236374   7.554   7.820   7.242
 8079X2IT    N136375   7.539   7.654   7.093
 8079X2IT   H1436376   7.632   7.628   7.128
 8079X2IT    C136377   7.440   7.630   7.199
 8079X2IT    H136378   7.466   7.574   7.288
 8079X2IT   C1136379   7.297   7.619   7.147
 8079X2IT    O336380   7.217   7.630   7.263
 8079X2IT   C1536381   7.079   7.662   7.244
 8080X2IT   H1836382   1.984   7.508   6.017
 8080X2IT    N436383   1.950   7.589   6.067
 8080X2IT   H1736384   1.981   7.600   6.162
 8080X2IT   C1436385   1.923   7.700   5.992
 8080X2IT    O536386   1.910   7.701   5.870
 8080X2IT    O436387   1.908   7.808   6.073
 8080X2IT   C1336388   1.873   7.932   6.008
 8080X2IT   C1036389   1.721   7.941   5.983
 8080X2IT    C936390   1.679   8.073   5.921
 8080X2IT    C436391   1.587   8.136   6.003
 8080X2IT    C536392   1.525   8.269   5.971
 8080X2IT    O136393   1.440   8.317   6.048
 8080X2IT    C636394   1.569   8.333   5.849
 8080X2IT   C1236395   1.511   8.468   5.811
 8080X2IT    C736396   1.660   8.269   5.768
 8080X2IT    C836397   1.722   8.133   5.801
 8080X2IT    O236398   1.806   8.087   5.722
 8080X2IT    N336399   1.706   8.320   5.652
 8080X2IT   H1536400   1.677   8.410   5.616
 8080X2IT   H1636401   1.774   8.265   5.600
 8080X2IT    N236402   1.553   8.061   6.110
 8080X2IT    C336403   1.517   8.107   6.245
 8080X2IT    C236404   1.623   8.040   6.331
 8080X2IT    H236405   1.606   8.027   6.438
 8080X2IT    N136406   1.760   8.067   6.282
 8080X2IT   H1436407   1.827   8.052   6.358
 8080X2IT    C136408   1.695   7.938   6.251
 8080X2IT    H136409   1.733   7.846   6.293
 8080X2IT   C1136410   1.632   7.934   6.113
 8080X2IT    O336411   1.548   7.820   6.116
 8080X2IT   C1536412   1.446   7.810   6.016
 8081X2IT   H1836413   4.371   1.801   6.293
 8081X2IT    N436414   4.367   1.707   6.259
 8081X2IT   H1736415   4.455   1.659   6.244
 8081X2IT   C1436416   4.257   1.634   6.294
 8081X2IT    O536417   4.153   1.680   6.339
 8081X2IT    O436418   4.278   1.502   6.267
 8081X2IT   C1336419   4.167   1.413   6.294
 8081X2IT   C1036420   4.068   1.411   6.176
 8081X2IT    C936421   3.954   1.314   6.197
 8081X2IT    C436422   3.951   1.222   6.094
 8081X2IT    C536423   3.850   1.111   6.084
 8081X2IT    O136424   3.852   1.035   5.986
 8081X2IT    C636425   3.755   1.100   6.192
 8081X2IT   C1236426   3.650   0.990   6.188
 8081X2IT    C736427   3.757   1.193   6.294
 8081X2IT    C836428   3.860   1.307   6.302
 8081X2IT    O236429   3.856   1.382   6.401
 8081X2IT    N336430   3.671   1.193   6.397
 8081X2IT   H1536431   3.599   1.124   6.408
 8081X2IT   H1636432   3.684   1.266   6.468
 8081X2IT    N236433   4.044   1.248   5.999
 8081X2IT    C336434   4.118   1.152   5.915
 8081X2IT    C236435   4.262   1.181   5.953
 8081X2IT    H236436   4.343   1.151   5.886
 8081X2IT    N136437   4.284   1.179   6.099
 8081X2IT   H1436438   4.383   1.164   6.119
 8081X2IT    C136439   4.269   1.308   6.030
 8081X2IT    H136440   4.352   1.377   6.023
 8081X2IT   C1136441   4.128   1.365   6.038
 8081X2IT    O336442   4.126   1.467   5.940
 8081X2IT   C1536443   3.998   1.513   5.896
 8082X2IT   H1836444   6.084   6.547   0.014
 8082X2IT    N436445   6.077   6.638   0.056
 8082X2IT   H1736446   6.157   6.699   0.046
 8082X2IT   C1436447   5.952   6.692   0.063
 8082X2IT    O536448   5.847   6.631   0.050
 8082X2IT    O436449   5.961   6.825   0.092
 8082X2IT   C1336450   5.835   6.895   0.109
 8082X2IT   C1036451   5.780   6.877   0.252
 8082X2IT    C936452   5.653   6.954   0.276
 8082X2IT    C436453   5.669   7.042   0.382
 8082X2IT    C536454   5.562   7.134   0.432
 8082X2IT    O136455   5.585   7.207   0.530
 8082X2IT    C636456   5.436   7.131   0.361
 8082X2IT   C1236457   5.324   7.222   0.406
 8082X2IT    C736458   5.419   7.043   0.256
 8082X2IT    C836459   5.529   6.949   0.207
 8082X2IT    O236460   5.505   6.877   0.108
 8082X2IT    N336461   5.306   7.032   0.185
 8082X2IT   H1536462   5.224   7.088   0.203
 8082X2IT   H1636463   5.305   6.964   0.109
 8082X2IT    N236464   5.791   7.029   0.440
 8082X2IT    C336465   5.873   7.134   0.503
 8082X2IT    C236466   6.000   7.130   0.419
 8082X2IT    H236467   6.092   7.172   0.460
 8082X2IT    N136468   5.972   7.140   0.274
 8082X2IT   H1436469   6.056   7.172   0.226
 8082X2IT    C136470   6.000   7.008   0.335
 8082X2IT    H136471   6.090   6.954   0.309
 8082X2IT   C1136472   5.874   6.929   0.367
 8082X2IT    O336473   5.920   6.826   0.452
 8082X2IT   C1536474   5.821   6.757   0.531
 8083X2IT   H1836475   6.603   2.089   0.019
 8083X2IT    N436476   6.554   2.031   0.084
 8083X2IT   H1736477   6.537   1.935   0.056
 8083X2IT   C1436478   6.571   2.060   0.217
 8083X2IT    O536479   6.616   2.164   0.260
 8083X2IT    O436480   6.525   1.957   0.293
 8083X2IT   C1336481   6.530   1.976   0.436
 8083X2IT   C1036482   6.408   2.055   0.487
 8083X2IT    C936483   6.407   2.072   0.637
 8083X2IT    C436484   6.291   2.018   0.689
 8083X2IT    C536485   6.258   2.017   0.836
 8083X2IT    O136486   6.149   1.971   0.874
 8083X2IT    C636487   6.356   2.074   0.925
 8083X2IT   C1236488   6.330   2.076   1.074
 8083X2IT    C736489   6.472   2.128   0.872
 8083X2IT    C836490   6.504   2.129   0.722
 8083X2IT    O236491   6.613   2.176   0.686
 8083X2IT    N336492   6.569   2.184   0.946
 8083X2IT   H1536493   6.565   2.190   1.046
 8083X2IT   H1636494   6.651   2.219   0.897
 8083X2IT    N236495   6.206   1.974   0.593
 8083X2IT    C336496   6.113   1.860   0.599
 8083X2IT    C236497   6.164   1.771   0.486
 8083X2IT    H236498   6.098   1.696   0.442
 8083X2IT    N136499   6.309   1.744   0.495
 8083X2IT   H1436500   6.332   1.660   0.442
 8083X2IT    C136501   6.260   1.848   0.402
 8083X2IT    H136502   6.269   1.834   0.295
 8083X2IT   C1136503   6.268   1.989   0.458
 8083X2IT    O336504   6.188   2.066   0.371
 8083X2IT   C1536505   6.144   2.194   0.418
 8084X2IT   H1836506   3.006   1.827   1.764
 8084X2IT    N436507   3.063   1.816   1.682
 8084X2IT   H1736508   3.151   1.768   1.693
 8084X2IT   C1436509   2.996   1.807   1.563
 8084X2IT    O536510   2.880   1.838   1.545
 8084X2IT    O436511   3.081   1.762   1.466
 8084X2IT   C1336512   3.027   1.754   1.333
 8084X2IT   C1036513   3.031   1.890   1.261
 8084X2IT    C936514   2.981   1.884   1.119
 8084X2IT    C436515   3.080   1.927   1.032
 8084X2IT    C536516   3.063   1.933   0.883
 8084X2IT    O136517   3.155   1.977   0.812
 8084X2IT    C636518   2.937   1.887   0.830
 8084X2IT   C1236519   2.914   1.889   0.680
 8084X2IT    C736520   2.838   1.844   0.917
 8084X2IT    C836521   2.856   1.840   1.069
 8084X2IT    O236522   2.762   1.796   1.137
 8084X2IT    N336523   2.717   1.802   0.878
 8084X2IT   H1536524   2.689   1.796   0.781
 8084X2IT   H1636525   2.652   1.771   0.951
 8084X2IT    N236526   3.190   1.971   1.097
 8084X2IT    C336527   3.331   1.962   1.054
 8084X2IT    C236528   3.394   1.880   1.165
 8084X2IT    H236529   3.502   1.884   1.181
 8084X2IT    N136530   3.320   1.754   1.191
 8084X2IT   H1436531   3.382   1.688   1.239
 8084X2IT    C136532   3.299   1.871   1.280
 8084X2IT    H136533   3.331   1.868   1.383
 8084X2IT   C1136534   3.175   1.952   1.244
 8084X2IT    O336535   3.192   2.073   1.316
 8084X2IT   C1536536   3.112   2.185   1.274
 8085X2IT   H1836537   8.585   1.901   7.476
 8085X2IT    N436538   8.528   1.941   7.403
 8085X2IT   H1736539   8.479   2.026   7.425
 8085X2IT   C1436540   8.569   1.919   7.275
 8085X2IT    O536541   8.650   1.834   7.241
 8085X2IT    O436542   8.503   2.002   7.190
 8085X2IT   C1336543   8.531   1.985   7.049
 8085X2IT   C1036544   8.447   1.871   6.988
 8085X2IT    C936545   8.469   1.855   6.840
 8085X2IT    C436546   8.349   1.868   6.772
 8085X2IT    C536547   8.335   1.858   6.623
 8085X2IT    O136548   8.223   1.868   6.571
 8085X2IT    C636549   8.457   1.836   6.548
 8085X2IT   C1236550   8.450   1.826   6.397
 8085X2IT    C736551   8.576   1.822   6.616
 8085X2IT    C836552   8.589   1.831   6.768
 8085X2IT    O236553   8.702   1.821   6.818
 8085X2IT    N336554   8.694   1.799   6.555
 8085X2IT   H1536555   8.704   1.792   6.456
 8085X2IT   H1636556   8.777   1.791   6.615
 8085X2IT    N236557   8.244   1.884   6.857
 8085X2IT    C336558   8.122   1.963   6.836
 8085X2IT    C236559   8.127   2.063   6.950
 8085X2IT    H236560   8.036   2.113   6.983
 8085X2IT    N136561   8.257   2.134   6.956
 8085X2IT   H1436562   8.245   2.221   7.008
 8085X2IT    C136563   8.232   2.021   7.047
 8085X2IT    H136564   8.223   2.037   7.154
 8085X2IT   C1136565   8.291   1.890   6.998
 8085X2IT    O336566   8.229   1.791   7.079
 8085X2IT   C1536567   8.234   1.656   7.033
 8086X2IT   H1836568   5.295   8.020   6.982
 8086X2IT    N436569   5.229   8.066   6.922
 8086X2IT   H1736570   5.176   8.142   6.962
 8086X2IT   C1436571   5.259   8.069   6.789
 8086X2IT    O536572   5.343   7.999   6.734
 8086X2IT    O436573   5.179   8.160   6.725
 8086X2IT   C1336574   5.196   8.169   6.582
 8086X2IT   C1036575   5.115   8.060   6.509
 8086X2IT    C936576   5.124   8.071   6.358
 8086X2IT    C436577   4.998   8.085   6.304
 8086X2IT    C536578   4.971   8.099   6.157
 8086X2IT    O136579   4.854   8.107   6.117
 8086X2IT    C636580   5.086   8.101   6.070
 8086X2IT   C1236581   5.067   8.115   5.921
 8086X2IT    C736582   5.213   8.086   6.124
 8086X2IT    C836583   5.239   8.071   6.275
 8086X2IT    O236584   5.356   8.062   6.313
 8086X2IT    N336585   5.326   8.085   6.052
 8086X2IT   H1536586   5.327   8.095   5.952
 8086X2IT   H1636587   5.414   8.074   6.103
 8086X2IT    N236588   4.900   8.076   6.398
 8086X2IT    C336589   4.771   8.146   6.401
 8086X2IT    C236590   4.780   8.226   6.530
 8086X2IT    H236591   4.689   8.262   6.578
 8086X2IT    N136592   4.903   8.307   6.538
 8086X2IT   H1436593   4.890   8.382   6.606
 8086X2IT    C136594   4.896   8.178   6.610
 8086X2IT    H136595   4.896   8.174   6.718
 8086X2IT   C1136596   4.960   8.063   6.534
 8086X2IT    O336597   4.913   7.947   6.601
 8086X2IT   C1536598   4.924   7.822   6.531
 8087X2IT   H1836599   4.076   6.392   1.576
 8087X2IT    N436600   4.002   6.455   1.601
 8087X2IT   H1736601   4.004   6.492   1.696
 8087X2IT   C1436602   3.950   6.532   1.501
 8087X2IT    O536603   3.965   6.511   1.382
 8087X2IT    O436604   3.875   6.633   1.553
 8087X2IT   C1336605   3.808   6.718   1.458
 8087X2IT   C1036606   3.675   6.656   1.411
 8087X2IT    C936607   3.598   6.745   1.316
 8087X2IT    C436608   3.472   6.772   1.367
 8087X2IT    C536609   3.371   6.858   1.299
 8087X2IT    O136610   3.259   6.874   1.350
 8087X2IT    C636611   3.411   6.918   1.174
 8087X2IT   C1236612   3.313   7.007   1.099
 8087X2IT    C736613   3.536   6.891   1.122
 8087X2IT    C836614   3.639   6.802   1.193
 8087X2IT    O236615   3.750   6.788   1.140
 8087X2IT    N336616   3.582   6.940   1.006
 8087X2IT   H1536617   3.528   7.002   0.948
 8087X2IT   H1636618   3.677   6.915   0.978
 8087X2IT    N236619   3.449   6.704   1.483
 8087X2IT    C336620   3.368   6.747   1.598
 8087X2IT    C236621   3.470   6.747   1.711
 8087X2IT    H236622   3.436   6.742   1.814
 8087X2IT    N136623   3.591   6.825   1.677
 8087X2IT   H1436624   3.640   6.851   1.763
 8087X2IT    C136625   3.593   6.677   1.666
 8087X2IT    H136626   3.655   6.618   1.732
 8087X2IT   C1136627   3.570   6.627   1.524
 8087X2IT    O336628   3.542   6.490   1.541
 8087X2IT   C1536629   3.478   6.422   1.431
 8088X2IT   H1836630   4.267   3.779   6.668
 8088X2IT    N436631   4.315   3.698   6.633
 8088X2IT   H1736632   4.339   3.698   6.535
 8088X2IT   C1436633   4.394   3.631   6.722
 8088X2IT    O536634   4.391   3.644   6.843
 8088X2IT    O436635   4.476   3.544   6.655
 8088X2IT   C1336636   4.561   3.462   6.737
 8088X2IT   C1036637   4.487   3.337   6.788
 8088X2IT    C936638   4.575   3.244   6.869
 8088X2IT    C436639   4.577   3.119   6.812
 8088X2IT    C536640   4.655   3.003   6.866
 8088X2IT    O136641   4.648   2.892   6.810
 8088X2IT    C636642   4.735   3.029   6.983
 8088X2IT   C1236643   4.817   2.916   7.043
 8088X2IT    C736644   4.733   3.154   7.041
 8088X2IT    C836645   4.652   3.271   6.985
 8088X2IT    O236646   4.660   3.381   7.042
 8088X2IT    N336647   4.802   3.187   7.151
 8088X2IT   H1536648   4.862   3.123   7.200
 8088X2IT   H1636649   4.794   3.284   7.184
 8088X2IT    N236650   4.493   3.110   6.705
 8088X2IT    C336651   4.509   3.029   6.584
 8088X2IT    C236652   4.510   3.134   6.474
 8088X2IT    H236653   4.488   3.106   6.371
 8088X2IT    N136654   4.608   3.242   6.501
 8088X2IT   H1436655   4.631   3.290   6.413
 8088X2IT    C136656   4.465   3.264   6.530
 8088X2IT    H136657   4.407   3.336   6.474
 8088X2IT   C1136658   4.430   3.242   6.677
 8088X2IT    O336659   4.289   3.234   6.677
 8088X2IT   C1536660   4.227   3.176   6.793
 8089X2IT   H1836661   5.839   5.815   6.543
 8089X2IT    N436662   5.924   5.774   6.509
 8089X2IT   H1736663   5.953   5.687   6.552
 8089X2IT   C1436664   5.955   5.797   6.378
 8089X2IT    O536665   5.905   5.884   6.309
 8089X2IT    O436666   6.054   5.712   6.338
 8089X2IT   C1336667   6.102   5.729   6.203
 8089X2IT   C1036668   6.208   5.840   6.195
 8089X2IT    C936669   6.266   5.857   6.056
 8089X2IT    C436670   6.403   5.840   6.060
 8089X2IT    C536671   6.491   5.849   5.939
 8089X2IT    O136672   6.614   5.836   5.951
 8089X2IT    C636673   6.426   5.874   5.813
 8089X2IT   C1236674   6.509   5.884   5.686
 8089X2IT    C736675   6.289   5.892   5.810
 8089X2IT    C836676   6.200   5.883   5.934
 8089X2IT    O236677   6.077   5.897   5.919
 8089X2IT    N336678   6.219   5.918   5.698
 8089X2IT   H1536679   6.262   5.925   5.607
 8089X2IT   H1636680   6.118   5.928   5.707
 8089X2IT    N236681   6.449   5.821   6.186
 8089X2IT    C336682   6.563   5.739   6.230
 8089X2IT    C236683   6.497   5.640   6.324
 8089X2IT    H236684   6.557   5.587   6.398
 8089X2IT    N136685   6.381   5.572   6.261
 8089X2IT   H1436686   6.362   5.485   6.311
 8089X2IT    C136687   6.359   5.685   6.354
 8089X2IT    H136688   6.311   5.669   6.450
 8089X2IT   C1136689   6.336   5.817   6.283
 8089X2IT    O336690   6.351   5.914   6.386
 8089X2IT   C1536691   6.374   6.050   6.345
 8090X2IT   H1836692   1.928   4.700  -0.029
 8090X2IT    N436693   1.841   4.742  -0.003
 8090X2IT   H1736694   1.769   4.750  -0.074
 8090X2IT   C1436695   1.803   4.727   0.128
 8090X2IT    O536696   1.876   4.693   0.219
 8090X2IT    O436697   1.671   4.761   0.142
 8090X2IT   C1336698   1.619   4.756   0.277
 8090X2IT   C1036699   1.651   4.885   0.354
 8090X2IT    C936700   1.592   4.887   0.493
 8090X2IT    C436701   1.509   4.997   0.508
 8090X2IT    C536702   1.433   5.028   0.634
 8090X2IT    O136703   1.364   5.130   0.640
 8090X2IT    C636704   1.448   4.934   0.743
 8090X2IT   C1236705   1.375   4.960   0.873
 8090X2IT    C736706   1.532   4.826   0.729
 8090X2IT    C836707   1.609   4.795   0.600
 8090X2IT    O236708   1.678   4.692   0.596
 8090X2IT    N336709   1.554   4.735   0.825
 8090X2IT   H1536710   1.510   4.738   0.915
 8090X2IT   H1636711   1.617   4.657   0.802
 8090X2IT    N236712   1.509   5.077   0.399
 8090X2IT    C336713   1.398   5.157   0.345
 8090X2IT    C236714   1.381   5.099   0.205
 8090X2IT    H236715   1.331   5.157   0.128
 8090X2IT    N136716   1.367   4.951   0.207
 8090X2IT   H1436717   1.323   4.921   0.120
 8090X2IT    C136718   1.498   5.012   0.173
 8090X2IT    H136719   1.539   5.003   0.074
 8090X2IT   C1136720   1.594   5.018   0.291
 8090X2IT    O336721   1.695   5.107   0.249
 8090X2IT   C1536722   1.779   5.163   0.350
 8091X2IT   H1836723   6.918   6.247   0.556
 8091X2IT    N436724   6.920   6.289   0.464
 8091X2IT   H1736725   7.003   6.341   0.440
 8091X2IT   C1436726   6.851   6.224   0.366
 8091X2IT    O536727   6.766   6.138   0.384
 8091X2IT    O436728   6.888   6.272   0.244
 8091X2IT   C1336729   6.818   6.217   0.130
 8091X2IT   C1036730   6.684   6.288   0.107
 8091X2IT    C936731   6.610   6.238  -0.015
 8091X2IT    C436732   6.587   6.342  -0.103
 8091X2IT    C536733   6.517   6.327  -0.235
 8091X2IT    O136734   6.497   6.427  -0.305
 8091X2IT    C636735   6.476   6.193  -0.271
 8091X2IT   C1236736   6.405   6.170  -0.403
 8091X2IT    C736737   6.498   6.089  -0.183
 8091X2IT    C836738   6.569   6.106  -0.048
 8091X2IT    O236739   6.588   6.005   0.021
 8091X2IT    N336740   6.462   5.962  -0.206
 8091X2IT   H1536741   6.416   5.932  -0.291
 8091X2IT   H1636742   6.486   5.892  -0.135
 8091X2IT    N236743   6.627   6.461  -0.052
 8091X2IT    C336744   6.681   6.577  -0.126
 8091X2IT    C236745   6.819   6.593  -0.063
 8091X2IT    H236746   6.872   6.688  -0.071
 8091X2IT    N136747   6.896   6.467  -0.064
 8091X2IT   H1436748   6.996   6.488  -0.055
 8091X2IT    C136749   6.828   6.510   0.060
 8091X2IT    H136750   6.885   6.539   0.147
 8091X2IT   C1136751   6.693   6.443   0.080
 8091X2IT    O336752   6.631   6.520   0.181
 8091X2IT   C1536753   6.489   6.507   0.196
 8092X2IT   H1836754   3.172   0.533   0.212
 8092X2IT    N436755   3.221   0.485   0.284
 8092X2IT   H1736756   3.321   0.481   0.277
 8092X2IT   C1436757   3.163   0.487   0.408
 8092X2IT    O536758   3.047   0.517   0.432
 8092X2IT    O436759   3.253   0.445   0.502
 8092X2IT   C1336760   3.204   0.436   0.638
 8092X2IT   C1036761   3.131   0.302   0.662
 8092X2IT    C936762   3.084   0.285   0.805
 8092X2IT    C436763   3.139   0.171   0.860
 8092X2IT    C536764   3.114   0.125   1.000
 8092X2IT    O136765   3.164   0.019   1.040
 8092X2IT    C636766   3.029   0.210   1.081
 8092X2IT   C1236767   2.999   0.170   1.224
 8092X2IT    C736768   2.973   0.323   1.026
 8092X2IT    C836769   2.999   0.368   0.882
 8092X2IT    O236770   2.948   0.475   0.844
 8092X2IT    N336771   2.892   0.407   1.092
 8092X2IT   H1536772   2.866   0.393   1.188
 8092X2IT   H1636773   2.858   0.489   1.042
 8092X2IT    N236774   3.212   0.101   0.769
 8092X2IT    C336775   3.333   0.020   0.794
 8092X2IT    C236776   3.437   0.089   0.706
 8092X2IT    H236777   3.526   0.036   0.676
 8092X2IT    N136778   3.443   0.235   0.731
 8092X2IT   H1436779   3.533   0.271   0.699
 8092X2IT    C136780   3.368   0.184   0.614
 8092X2IT    H136781   3.402   0.204   0.514
 8092X2IT   C1136782   3.218   0.173   0.639
 8092X2IT    O336783   3.172   0.093   0.532
 8092X2IT   C1536784   3.043   0.033   0.547
 8093X2IT   H1836785   2.879   5.672   5.823
 8093X2IT    N436786   2.790   5.716   5.810
 8093X2IT   H1736787   2.717   5.661   5.768
 8093X2IT   C1436788   2.756   5.812   5.901
 8093X2IT    O536789   2.834   5.867   5.977
 8093X2IT    O436790   2.623   5.841   5.891
 8093X2IT   C1336791   2.574   5.946   5.977
 8093X2IT   C1036792   2.600   6.085   5.916
 8093X2IT    C936793   2.544   6.198   5.999
 8093X2IT    C436794   2.454   6.272   5.925
 8093X2IT    C536795   2.379   6.391   5.978
 8093X2IT    O136796   2.303   6.454   5.904
 8093X2IT    C636797   2.403   6.425   6.117
 8093X2IT   C1236798   2.331   6.544   6.177
 8093X2IT    C736799   2.494   6.352   6.190
 8093X2IT    C836800   2.570   6.231   6.134
 8093X2IT    O236801   2.646   6.170   6.211
 8093X2IT    N336802   2.524   6.377   6.319
 8093X2IT   H1536803   2.482   6.451   6.371
 8093X2IT   H1636804   2.592   6.315   6.364
 8093X2IT    N236805   2.447   6.230   5.796
 8093X2IT    C336806   2.329   6.231   5.707
 8093X2IT    C236807   2.313   6.083   5.674
 8093X2IT    H236808   2.257   6.054   5.585
 8093X2IT    N136809   2.309   5.998   5.795
 8093X2IT   H1436810   2.265   5.909   5.773
 8093X2IT    C136811   2.434   6.009   5.718
 8093X2IT    H136812   2.474   5.924   5.664
 8093X2IT   C1136813   2.532   6.110   5.775
 8093X2IT    O336814   2.627   6.130   5.671
 8093X2IT   C1536815   2.709   6.247   5.680
 8094X2IT   H1836816   4.473   7.358   6.099
 8094X2IT    N436817   4.389   7.352   6.154
 8094X2IT   H1736818   4.400   7.353   6.255
 8094X2IT   C1436819   4.277   7.407   6.099
 8094X2IT    O536820   4.263   7.435   5.982
 8094X2IT    O436821   4.180   7.420   6.195
 8094X2IT   C1336822   4.052   7.470   6.149
 8094X2IT   C1036823   3.965   7.358   6.090
 8094X2IT    C936824   3.828   7.405   6.048
 8094X2IT    C436825   3.730   7.334   6.115
 8094X2IT    C536826   3.583   7.357   6.097
 8094X2IT    O136827   3.502   7.285   6.158
 8094X2IT    C636828   3.545   7.462   6.006
 8094X2IT   C1236829   3.398   7.490   5.983
 8094X2IT    C736830   3.643   7.533   5.938
 8094X2IT    C836831   3.792   7.508   5.957
 8094X2IT    O236832   3.872   7.580   5.895
 8094X2IT    N336833   3.617   7.631   5.850
 8094X2IT   H1536834   3.524   7.661   5.828
 8094X2IT   H1636835   3.697   7.677   5.808
 8094X2IT    N236836   3.783   7.236   6.193
 8094X2IT    C336837   3.732   7.185   6.321
 8094X2IT    C236838   3.847   7.214   6.416
 8094X2IT    H236839   3.855   7.159   6.510
 8094X2IT    N136840   3.893   7.355   6.409
 8094X2IT   H1436841   3.943   7.378   6.494
 8094X2IT    C136842   3.968   7.250   6.337
 8094X2IT    H136843   4.068   7.224   6.367
 8094X2IT   C1136844   3.932   7.240   6.189
 8094X2IT    O336845   3.987   7.116   6.148
 8094X2IT   C1536846   3.938   7.060   6.026
 8095X2IT   H1836847   4.526   1.483   0.387
 8095X2IT    N436848   4.558   1.426   0.310
 8095X2IT   H1736849   4.583   1.474   0.225
 8095X2IT   C1436850   4.623   1.311   0.344
 8095X2IT    O536851   4.621   1.258   0.454
 8095X2IT    O436852   4.688   1.261   0.235
 8095X2IT   C1336853   4.756   1.135   0.254
 8095X2IT   C1036854   4.659   1.016   0.240
 8095X2IT    C936855   4.728   0.882   0.252
 8095X2IT    C436856   4.707   0.807   0.138
 8095X2IT    C536857   4.762   0.668   0.117
 8095X2IT    O136858   4.734   0.607   0.013
 8095X2IT    C636859   4.844   0.615   0.223
 8095X2IT   C1236860   4.904   0.477   0.208
 8095X2IT    C736861   4.865   0.690   0.337
 8095X2IT    C836862   4.807   0.831   0.358
 8095X2IT    O236863   4.836   0.891   0.463
 8095X2IT    N336864   4.939   0.649   0.442
 8095X2IT   H1536865   4.985   0.560   0.444
 8095X2IT   H1636866   4.948   0.713   0.521
 8095X2IT    N236867   4.624   0.869   0.051
 8095X2IT    C336868   4.626   0.862  -0.096
 8095X2IT    C236869   4.647   1.008  -0.135
 8095X2IT    H236870   4.620   1.042  -0.235
 8095X2IT    N136871   4.763   1.068  -0.065
 8095X2IT   H1436872   4.795   1.150  -0.117
 8095X2IT    C136873   4.626   1.094  -0.015
 8095X2IT    H136874   4.583   1.193  -0.021
 8095X2IT   C1136875   4.587   1.004   0.101
 8095X2IT    O336876   4.446   1.020   0.110
 8095X2IT   C1536877   4.374   0.921   0.184
 8096X2IT   H1836878   3.856   6.015   0.550
 8096X2IT    N436879   3.780   6.035   0.487
 8096X2IT   H1736880   3.752   6.131   0.478
 8096X2IT   C1436881   3.767   5.951   0.380
 8096X2IT    O536882   3.819   5.841   0.370
 8096X2IT    O436883   3.682   6.006   0.288
 8096X2IT   C1336884   3.654   5.925   0.172
 8096X2IT   C1036885   3.541   5.824   0.201
 8096X2IT    C936886   3.503   5.742   0.079
 8096X2IT    C436887   3.369   5.758   0.051
 8096X2IT    C536888   3.299   5.692  -0.064
 8096X2IT    O136889   3.177   5.709  -0.079
 8096X2IT    C636890   3.380   5.609  -0.149
 8096X2IT   C1236891   3.316   5.539  -0.267
 8096X2IT    C736892   3.514   5.591  -0.120
 8096X2IT    C836893   3.584   5.660  -0.003
 8096X2IT    O236894   3.706   5.641   0.011
 8096X2IT    N336895   3.597   5.515  -0.193
 8096X2IT   H1536896   3.568   5.465  -0.275
 8096X2IT   H1636897   3.695   5.511  -0.163
 8096X2IT    N236898   3.306   5.836   0.144
 8096X2IT    C336899   3.194   5.928   0.123
 8096X2IT    C236900   3.253   6.061   0.167
 8096X2IT    H236901   3.187   6.143   0.196
 8096X2IT    N136902   3.382   6.091   0.101
 8096X2IT   H1436903   3.400   6.191   0.105
 8096X2IT    C136904   3.381   6.037   0.238
 8096X2IT    H136905   3.416   6.097   0.321
 8096X2IT   C1136906   3.404   5.887   0.244
 8096X2IT    O336907   3.366   5.852   0.376
 8096X2IT   C1536908   3.339   5.713   0.402
 8097X2IT   H1836909   2.012   6.722   7.462
 8097X2IT    N436910   2.018   6.646   7.396
 8097X2IT   H1736911   1.993   6.554   7.429
 8097X2IT   C1436912   1.995   6.678   7.265
 8097X2IT    O536913   1.997   6.791   7.219
 8097X2IT    O436914   1.975   6.565   7.192
 8097X2IT   C1336915   1.957   6.583   7.050
 8097X2IT   C1036916   2.091   6.595   6.977
 8097X2IT    C936917   2.077   6.607   6.827
 8097X2IT    C436918   2.145   6.505   6.764
 8097X2IT    C536919   2.150   6.487   6.615
 8097X2IT    O136920   2.217   6.394   6.567
 8097X2IT    C636921   2.075   6.582   6.536
 8097X2IT   C1236922   2.076   6.569   6.385
 8097X2IT    C736923   2.008   6.685   6.599
 8097X2IT    C836924   2.004   6.702   6.751
 8097X2IT    O236925   1.937   6.795   6.797
 8097X2IT    N336926   1.937   6.779   6.534
 8097X2IT   H1536927   1.928   6.781   6.435
 8097X2IT   H1636928   1.890   6.849   6.592
 8097X2IT    N236929   2.214   6.427   6.852
 8097X2IT    C336930   2.241   6.283   6.843
 8097X2IT    C236931   2.174   6.229   6.969
 8097X2IT    H236932   2.204   6.132   7.009
 8097X2IT    N136933   2.034   6.274   6.981
 8097X2IT   H1436934   1.984   6.210   7.044
 8097X2IT    C136935   2.139   6.343   7.058
 8097X2IT    H136936   2.142   6.336   7.166
 8097X2IT   C1136937   2.188   6.471   6.992
 8097X2IT    O336938   2.307   6.502   7.061
 8097X2IT   C1536939   2.397   6.594   6.998
 8098X2IT   H1836940   6.645   3.669   6.255
 8098X2IT    N436941   6.733   3.645   6.296
 8098X2IT   H1736942   6.812   3.704   6.275
 8098X2IT   C1436943   6.727   3.583   6.418
 8098X2IT    O536944   6.628   3.530   6.466
 8098X2IT    O436945   6.851   3.584   6.476
 8098X2IT   C1336946   6.862   3.515   6.603
 8098X2IT   C1036947   6.882   3.364   6.584
 8098X2IT    C936948   6.901   3.290   6.714
 8098X2IT    C436949   7.022   3.223   6.714
 8098X2IT    C536950   7.072   3.140   6.829
 8098X2IT    O136951   7.181   3.081   6.818
 8098X2IT    C636952   6.988   3.135   6.946
 8098X2IT   C1236953   7.033   3.053   7.065
 8098X2IT    C736954   6.867   3.201   6.946
 8098X2IT    C836955   6.817   3.284   6.828
 8098X2IT    O236956   6.708   3.343   6.840
 8098X2IT    N336957   6.781   3.200   7.049
 8098X2IT   H1536958   6.800   3.151   7.135
 8098X2IT   H1636959   6.695   3.254   7.038
 8098X2IT    N236960   7.087   3.235   6.595
 8098X2IT    C336961   7.232   3.240   6.571
 8098X2IT    C236962   7.248   3.376   6.503
 8098X2IT    H236963   7.337   3.396   6.443
 8098X2IT    N136964   7.185   3.485   6.581
 8098X2IT   H1436965   7.227   3.574   6.553
 8098X2IT    C136966   7.115   3.428   6.464
 8098X2IT    H136967   7.098   3.487   6.375
 8098X2IT   C1136968   7.011   3.323   6.502
 8098X2IT    O336969   6.981   3.259   6.380
 8098X2IT   C1536970   6.916   3.131   6.388
 8099X2IT   H1836971   0.969   1.713   5.999
 8099X2IT    N436972   1.060   1.672   5.993
 8099X2IT   H1736973   1.079   1.614   5.912
 8099X2IT   C1436974   1.162   1.741   6.051
 8099X2IT    O536975   1.149   1.832   6.131
 8099X2IT    O436976   1.282   1.691   6.010
 8099X2IT   C1336977   1.400   1.751   6.068
 8099X2IT   C1036978   1.432   1.690   6.205
 8099X2IT    C936979   1.559   1.745   6.267
 8099X2IT    C436980   1.648   1.643   6.291
 8099X2IT    C536981   1.784   1.663   6.351
 8099X2IT    O136982   1.857   1.565   6.373
 8099X2IT    C636983   1.822   1.799   6.381
 8099X2IT   C1236984   1.958   1.827   6.441
 8099X2IT    C736985   1.732   1.902   6.357
 8099X2IT    C836986   1.593   1.879   6.297
 8099X2IT    O236987   1.522   1.979   6.276
 8099X2IT    N336988   1.757   2.031   6.383
 8099X2IT   H1536989   1.844   2.063   6.421
 8099X2IT   H1636990   1.683   2.098   6.360
 8099X2IT    N236991   1.596   1.521   6.262
 8099X2IT    C336992   1.667   1.402   6.211
 8099X2IT    C236993   1.595   1.377   6.079
 8099X2IT    H236994   1.601   1.278   6.033
 8099X2IT    N136995   1.590   1.498   5.994
 8099X2IT   H1436996   1.575   1.470   5.897
 8099X2IT    C136997   1.472   1.459   6.073
 8099X2IT    H136998   1.381   1.426   6.024
 8099X2IT   C1136999   1.460   1.535   6.204
 8099X2IT    O337000   1.363   1.461   6.278
 8099X2IT   C1537001   1.358   1.484   6.419
 8100X2IT   H1837002   8.638   5.999   7.344
 8100X2IT    N437003   8.661   6.083   7.294
 8100X2IT   H1737004   8.746   6.131   7.320
 8100X2IT   C1437005   8.618   6.089   7.164
 8100X2IT    O537006   8.534   6.016   7.114
 8100X2IT    O437007   8.681   6.191   7.099
 8100X2IT   C1337008   8.640   6.214   6.962
 8100X2IT   C1037009   8.512   6.299   6.955
 8100X2IT    C937010   8.471   6.331   6.813
 8100X2IT    C437011   8.465   6.468   6.795
 8100X2IT    C537012   8.427   6.534   6.665
 8100X2IT    O137013   8.421   6.657   6.659
 8100X2IT    C637014   8.400   6.446   6.554
 8100X2IT   C1237015   8.362   6.505   6.420
 8100X2IT    C737016   8.405   6.309   6.573
 8100X2IT    C837017   8.442   6.243   6.706
 8100X2IT    O237018   8.448   6.119   6.710
 8100X2IT    N337019   8.379   6.219   6.476
 8100X2IT   H1537020   8.354   6.245   6.382
 8100X2IT   H1637021   8.387   6.120   6.501
 8100X2IT    N237022   8.489   6.536   6.910
 8100X2IT    C337023   8.555   6.667   6.925
 8100X2IT    C237024   8.674   6.632   7.014
 8100X2IT    H237025   8.724   6.711   7.070
 8100X2IT    N137026   8.753   6.520   6.959
 8100X2IT   H1437027   8.848   6.522   6.999
 8100X2IT    C137028   8.657   6.495   7.069
 8100X2IT    H137029   8.691   6.467   7.167
 8100X2IT   C1137030   8.523   6.442   7.020
 8100X2IT    O337031   8.437   6.458   7.132
 8100X2IT   C1537032   8.296   6.454   7.107
 8101X2IT   H1837033   9.204   4.606   6.436
 8101X2IT    N437034   9.256   4.691   6.426
 8101X2IT   H1737035   9.349   4.684   6.386
 8101X2IT   C1437036   9.183   4.805   6.406
 8101X2IT    O537037   9.064   4.816   6.426
 8101X2IT    O437038   9.265   4.906   6.365
 8101X2IT   C1337039   9.203   5.035   6.346
 8101X2IT   C1037040   9.191   5.111   6.479
 8101X2IT    C937041   9.133   5.250   6.462
 8101X2IT    C437042   9.221   5.345   6.510
 8101X2IT    C537043   9.194   5.493   6.508
 8101X2IT    O137044   9.277   5.571   6.556
 8101X2IT    C637045   9.069   5.535   6.449
 8101X2IT   C1237046   9.036   5.682   6.444
 8101X2IT    C737047   8.980   5.439   6.403
 8101X2IT    C837048   9.009   5.289   6.406
 8101X2IT    O237049   8.924   5.213   6.357
 8101X2IT    N337050   8.861   5.469   6.348
 8101X2IT   H1537051   8.827   5.562   6.336
 8101X2IT   H1637052   8.804   5.390   6.316
 8101X2IT    N237053   9.331   5.289   6.566
 8101X2IT    C337054   9.469   5.342   6.567
 8101X2IT    C237055   9.546   5.232   6.495
 8101X2IT    H237056   9.654   5.224   6.509
 8101X2IT    N137057   9.485   5.196   6.365
 8101X2IT   H1437058   9.555   5.151   6.306
 8101X2IT    C137059   9.460   5.111   6.483
 8101X2IT    H137060   9.499   5.010   6.488
 8101X2IT   C1137061   9.328   5.141   6.552
 8101X2IT    O337062   9.338   5.075   6.677
 8101X2IT   C1537063   9.247   5.116   6.780
 8102X2IT   H1837064   2.202   1.592   0.891
 8102X2IT    N437065   2.231   1.652   0.816
 8102X2IT   H1737066   2.261   1.746   0.841
 8102X2IT   C1437067   2.287   1.591   0.708
 8102X2IT    O537068   2.279   1.472   0.682
 8102X2IT    O437069   2.350   1.684   0.629
 8102X2IT   C1337070   2.408   1.634   0.507
 8102X2IT   C1037071   2.303   1.623   0.395
 8102X2IT    C937072   2.361   1.578   0.263
 8102X2IT    C437073   2.336   1.673   0.165
 8102X2IT    C537074   2.381   1.659   0.022
 8102X2IT    O137075   2.351   1.747  -0.060
 8102X2IT    C637076   2.457   1.542  -0.011
 8102X2IT   C1237077   2.506   1.522  -0.153
 8102X2IT    C737078   2.482   1.447   0.087
 8102X2IT    C837079   2.434   1.461   0.232
 8102X2IT    O237080   2.466   1.372   0.312
 8102X2IT    N337081   2.550   1.333   0.066
 8102X2IT   H1537082   2.590   1.309  -0.023
 8102X2IT   H1637083   2.563   1.271   0.146
 8102X2IT    N237084   2.259   1.775   0.211
 8102X2IT    C337085   2.263   1.916   0.170
 8102X2IT    C237086   2.296   1.986   0.301
 8102X2IT    H237087   2.273   2.092   0.313
 8102X2IT    N137088   2.415   1.929   0.368
 8102X2IT   H1437089   2.454   1.997   0.433
 8102X2IT    C137090   2.280   1.891   0.414
 8102X2IT    H137091   2.245   1.920   0.512
 8102X2IT   C1137092   2.231   1.758   0.356
 8102X2IT    O337093   2.093   1.757   0.384
 8102X2IT   C1537094   2.012   1.666   0.309
 8103X2IT   H1837095   6.705   3.101   1.185
 8103X2IT    N437096   6.616   3.082   1.142
 8103X2IT   H1737097   6.536   3.082   1.203
 8103X2IT   C1437098   6.602   3.121   1.012
 8103X2IT    O537099   6.693   3.150   0.937
 8103X2IT    O437100   6.470   3.118   0.977
 8103X2IT   C1337101   6.439   3.150   0.840
 8103X2IT   C1037102   6.457   3.028   0.748
 8103X2IT    C937103   6.419   3.056   0.604
 8103X2IT    C437104   6.320   2.969   0.563
 8103X2IT    C537105   6.259   2.971   0.426
 8103X2IT    O137106   6.172   2.887   0.397
 8103X2IT    C637107   6.307   3.071   0.335
 8103X2IT   C1237108   6.250   3.079   0.195
 8103X2IT    C737109   6.408   3.157   0.376
 8103X2IT    C837110   6.470   3.154   0.516
 8103X2IT    O237111   6.556   3.239   0.543
 8103X2IT    N337112   6.461   3.253   0.298
 8103X2IT   H1537113   6.431   3.270   0.203
 8103X2IT   H1637114   6.534   3.311   0.339
 8103X2IT    N237115   6.288   2.878   0.659
 8103X2IT    C337116   6.157   2.818   0.687
 8103X2IT    C237117   6.132   2.860   0.831
 8103X2IT    H237118   6.060   2.805   0.892
 8103X2IT    N137119   6.147   3.006   0.850
 8103X2IT   H1437120   6.097   3.035   0.934
 8103X2IT    C137121   6.257   2.915   0.889
 8103X2IT    H137122   6.285   2.903   0.993
 8103X2IT   C1137123   6.366   2.904   0.784
 8103X2IT    O337124   6.441   2.791   0.824
 8103X2IT   C1537125   6.527   2.731   0.725
 8104X2IT   H1837126   2.885  -0.158   5.922
 8104X2IT    N437127   2.896  -0.059   5.909
 8104X2IT   H1737128   2.881  -0.024   5.815
 8104X2IT   C1437129   2.866   0.021   6.015
 8104X2IT    O537130   2.855  -0.017   6.131
 8104X2IT    O437131   2.855   0.151   5.974
 8104X2IT   C1337132   2.830   0.248   6.078
 8104X2IT   C1037133   2.961   0.291   6.148
 8104X2IT    C937134   2.940   0.398   6.252
 8104X2IT    C437135   3.016   0.509   6.222
 8104X2IT    C537136   3.018   0.634   6.306
 8104X2IT    O137137   3.092   0.728   6.273
 8104X2IT    C637138   2.932   0.636   6.421
 8104X2IT   C1237139   2.928   0.759   6.510
 8104X2IT    C737140   2.856   0.524   6.452
 8104X2IT    C837141   2.856   0.397   6.367
 8104X2IT    O237142   2.781   0.304   6.401
 8104X2IT    N337143   2.775   0.515   6.558
 8104X2IT   H1537144   2.762   0.591   6.624
 8104X2IT   H1637145   2.722   0.428   6.570
 8104X2IT    N237146   3.095   0.490   6.114
 8104X2IT    C337147   3.136   0.589   6.013
 8104X2IT    C237148   3.079   0.530   5.884
 8104X2IT    H237149   3.120   0.561   5.788
 8104X2IT    N137150   2.935   0.497   5.896
 8104X2IT   H1437151   2.894   0.492   5.803
 8104X2IT    C137152   3.036   0.390   5.909
 8104X2IT    H137153   3.043   0.312   5.835
 8104X2IT   C1137154   3.069   0.356   6.054
 8104X2IT    O337155   3.187   0.278   6.044
 8104X2IT   C1537156   3.265   0.263   6.164
 8105X2IT   H1837157   8.190   3.204   1.211
 8105X2IT    N437158   8.137   3.252   1.141
 8105X2IT   H1737159   8.109   3.347   1.162
 8105X2IT   C1437160   8.160   3.217   1.011
 8105X2IT    O537161   8.218   3.115   0.976
 8105X2IT    O437162   8.105   3.309   0.927
 8105X2IT   C1337163   8.117   3.281   0.786
 8105X2IT   C1037164   8.006   3.186   0.739
 8105X2IT    C937165   8.010   3.159   0.590
 8105X2IT    C437166   7.890   3.196   0.532
 8105X2IT    C537167   7.861   3.183   0.385
 8105X2IT    O137168   7.749   3.215   0.342
 8105X2IT    C637169   7.967   3.133   0.302
 8105X2IT   C1237170   7.945   3.118   0.153
 8105X2IT    C737171   8.087   3.095   0.361
 8105X2IT    C837172   8.115   3.108   0.511
 8105X2IT    O237173   8.228   3.075   0.551
 8105X2IT    N337174   8.191   3.046   0.292
 8105X2IT   H1537175   8.191   3.033   0.192
 8105X2IT   H1637176   8.276   3.023   0.346
 8105X2IT    N237177   7.798   3.237   0.624
 8105X2IT    C337178   7.694   3.339   0.608
 8105X2IT    C237179   7.731   3.440   0.716
 8105X2IT    H237180   7.656   3.510   0.753
 8105X2IT    N137181   7.873   3.482   0.707
 8105X2IT   H1437182   7.884   3.572   0.755
 8105X2IT    C137183   7.833   3.380   0.806
 8105X2IT    H137184   7.837   3.402   0.912
 8105X2IT   C1137185   7.858   3.238   0.760
 8105X2IT    O337186   7.784   3.158   0.851
 8105X2IT   C1537187   7.757   3.023   0.812
 8106X2IT   H1837188   2.856   7.266   6.445
 8106X2IT    N437189   2.906   7.216   6.517
 8106X2IT   H1737190   2.980   7.154   6.487
 8106X2IT   C1437191   2.915   7.278   6.638
 8106X2IT    O537192   2.847   7.372   6.675
 8106X2IT    O437193   3.009   7.215   6.715
 8106X2IT   C1337194   3.025   7.265   6.849
 8106X2IT   C1037195   2.920   7.205   6.945
 8106X2IT    C937196   2.938   7.250   7.088
 8106X2IT    C437197   2.956   7.141   7.171
 8106X2IT    C537198   2.977   7.150   7.319
 8106X2IT    O137199   2.988   7.046   7.386
 8106X2IT    C637200   2.982   7.283   7.375
 8106X2IT   C1237201   3.004   7.300   7.524
 8106X2IT    C737202   2.963   7.392   7.293
 8106X2IT    C837203   2.941   7.381   7.142
 8106X2IT    O237204   2.930   7.487   7.077
 8106X2IT    N337205   2.965   7.519   7.336
 8106X2IT   H1537206   2.980   7.545   7.432
 8106X2IT   H1637207   2.951   7.593   7.266
 8106X2IT    N237208   2.943   7.023   7.103
 8106X2IT    C337209   3.014   6.897   7.129
 8106X2IT    C237210   3.087   6.874   6.997
 8106X2IT    H237211   3.121   6.774   6.971
 8106X2IT    N137212   3.167   6.992   6.956
 8106X2IT   H1437213   3.239   6.962   6.890
 8106X2IT    C137214   3.035   6.967   6.894
 8106X2IT    H137215   3.026   6.941   6.790
 8106X2IT   C1137216   2.923   7.048   6.958
 8106X2IT    O337217   2.804   6.987   6.910
 8106X2IT   C1537218   2.683   7.015   6.981
 8107X2IT   H1837219   5.952   6.561   6.195
 8107X2IT    N437220   6.017   6.600   6.129
 8107X2IT   H1737221   6.039   6.545   6.047
 8107X2IT   C1437222   6.018   6.736   6.119
 8107X2IT    O537223   5.969   6.813   6.200
 8107X2IT    O437224   6.086   6.774   6.006
 8107X2IT   C1337225   6.101   6.916   5.986
 8107X2IT   C1037226   6.220   6.972   6.066
 8107X2IT    C937227   6.244   7.119   6.042
 8107X2IT    C437228   6.372   7.140   5.994
 8107X2IT    C537229   6.428   7.275   5.959
 8107X2IT    O137230   6.545   7.284   5.920
 8107X2IT    C637231   6.339   7.387   5.975
 8107X2IT   C1237232   6.388   7.526   5.941
 8107X2IT    C737233   6.211   7.367   6.024
 8107X2IT    C837234   6.156   7.229   6.060
 8107X2IT    O237235   6.038   7.221   6.099
 8107X2IT    N337236   6.122   7.465   6.043
 8107X2IT   H1537237   6.141   7.562   6.023
 8107X2IT   H1637238   6.030   7.438   6.078
 8107X2IT    N237239   6.444   7.025   5.990
 8107X2IT    C337240   6.548   6.987   5.893
 8107X2IT    C237241   6.490   6.860   5.831
 8107X2IT    H237242   6.556   6.790   5.780
 8107X2IT    N137243   6.352   6.880   5.782
 8107X2IT   H1437244   6.330   6.808   5.712
 8107X2IT    C137245   6.375   6.814   5.912
 8107X2IT    H137246   6.351   6.710   5.926
 8107X2IT   C1137247   6.360   6.909   6.030
 8107X2IT    O337248   6.418   6.838   6.139
 8107X2IT   C1537249   6.454   6.913   6.255
   9.48825   8.49895   7.01248
