256-Lipid DPPC Bilayer in water | solvent-stripped DPPC template
43730
    1DPPC    C1    1   5.809   5.563   5.552
    1DPPC    C2    2   5.821   5.721   5.387
    1DPPC    C3    3   5.683   5.541   5.335
    1DPPC    N4    4   5.727   5.626   5.447
    1DPPC    C5    5   5.620   5.699   5.516
    1DPPC    C6    6   5.531   5.797   5.441
    1DPPC    O7    7   5.586   5.924   5.406
    1DPPC    P8    8   5.463   6.027   5.399
    1DPPC    O9    9   5.548   6.147   5.389
    1DPPC   O10   10   5.390   5.988   5.522
    1DPPC   O11   11   5.380   6.000   5.263
    1DPPC   C12   12   5.406   6.111   5.177
    1DPPC   C13   13   5.362   6.089   5.032
    1DPPC   O14   14   5.227   6.129   5.004
    1DPPC   C15   15   5.209   6.261   4.980
    1DPPC   O16   16   5.296   6.336   5.025
    1DPPC   C17   17   5.073   6.309   4.930
    1DPPC   C18   18   5.077   6.427   4.833
    1DPPC   C19   19   4.962   6.436   4.733
    1DPPC   C20   20   4.964   6.559   4.641
    1DPPC   C21   21   5.079   6.543   4.541
    1DPPC   C22   22   5.074   6.645   4.427
    1DPPC   C23   23   5.184   6.592   4.334
    1DPPC   C24   24   5.176   6.674   4.206
    1DPPC   C25   25   5.258   6.595   4.103
    1DPPC   C26   26   5.242   6.671   3.971
    1DPPC   C27   27   5.301   6.602   3.848
    1DPPC   C28   28   5.268   6.679   3.719
    1DPPC   C29   29   5.326   6.610   3.596
    1DPPC   C30   30   5.276   6.660   3.461
    1DPPC   C31   31   5.303   6.811   3.452
    1DPPC   C32   32   5.409   5.949   4.990
    1DPPC   O33   33   5.503   5.958   4.884
    1DPPC   C34   34   5.592   5.855   4.871
    1DPPC   O35   35   5.592   5.772   4.962
    1DPPC   C36   36   5.683   5.853   4.748
    1DPPC   C37   37   5.665   5.720   4.675
    1DPPC   C38   38   5.752   5.709   4.550
    1DPPC   C39   39   5.896   5.707   4.603
    1DPPC   C40   40   6.002   5.702   4.493
    1DPPC   C41   41   5.995   5.577   4.406
    1DPPC   C42   42   6.048   5.615   4.267
    1DPPC   C43   43   6.033   5.491   4.179
    1DPPC   C44   44   6.088   5.520   4.039
    1DPPC   C45   45   6.065   5.411   3.934
    1DPPC   C46   46   6.106   5.475   3.801
    1DPPC   C47   47   6.018   5.591   3.753
    1DPPC   C48   48   6.082   5.658   3.631
    1DPPC   C49   49   5.991   5.758   3.559
    1DPPC   C50   50   5.966   5.868   3.663
    2DPPC    C1   51   3.473   0.842   1.699
    2DPPC    C2   52   3.629   0.950   1.570
    2DPPC    C3   53   3.424   1.056   1.626
    2DPPC    N4   54   3.534   0.975   1.680
    2DPPC    C5   55   3.583   1.026   1.808
    2DPPC    C6   56   3.647   1.165   1.808
    2DPPC    O7   57   3.668   1.213   1.941
    2DPPC    P8   58   3.762   1.343   1.948
    2DPPC    O9   59   3.698   1.433   1.850
    2DPPC   O10   60   3.905   1.308   1.963
    2DPPC   O11   61   3.711   1.383   2.096
    2DPPC   C12   62   3.781   1.311   2.199
    2DPPC   C13   63   3.763   1.349   2.346
    2DPPC   O14   64   3.868   1.285   2.421
    2DPPC   C15   65   3.992   1.333   2.395
    2DPPC   O16   66   4.007   1.451   2.364
    2DPPC   C17   67   4.106   1.251   2.455
    2DPPC   C18   68   4.073   1.185   2.589
    2DPPC   C19   69   4.174   1.075   2.621
    2DPPC   C20   70   4.152   1.014   2.760
    2DPPC   C21   71   4.274   0.924   2.778
    2DPPC   C22   72   4.250   0.847   2.908
    2DPPC   C23   73   4.205   0.935   3.025
    2DPPC   C24   74   4.181   0.834   3.138
    2DPPC   C25   75   4.153   0.914   3.265
    2DPPC   C26   76   4.050   0.840   3.350
    2DPPC   C27   77   3.995   0.943   3.450
    2DPPC   C28   78   3.914   0.862   3.551
    2DPPC   C29   79   3.907   0.954   3.673
    2DPPC   C30   80   3.827   0.885   3.783
    2DPPC   C31   81   3.683   0.871   3.733
    2DPPC   C32   82   3.619   1.312   2.380
    2DPPC   O33   83   3.594   1.352   2.515
    2DPPC   C34   84   3.467   1.331   2.559
    2DPPC   O35   85   3.373   1.312   2.482
    2DPPC   C36   86   3.438   1.370   2.704
    2DPPC   C37   87   3.306   1.319   2.763
    2DPPC   C38   88   3.296   1.362   2.909
    2DPPC   C39   89   3.424   1.321   2.982
    2DPPC   C40   90   3.417   1.406   3.109
    2DPPC   C41   91   3.415   1.555   3.074
    2DPPC   C42   92   3.451   1.654   3.185
    2DPPC   C43   93   3.408   1.796   3.148
    2DPPC   C44   94   3.256   1.800   3.129
    2DPPC   C45   95   3.207   1.944   3.113
    2DPPC   C46   96   3.071   1.945   3.043
    2DPPC   C47   97   3.036   2.087   2.999
    2DPPC   C48   98   2.910   2.059   2.918
    2DPPC   C49   99   2.785   2.002   2.985
    2DPPC   C50  100   2.683   1.962   2.878
    3DPPC    C1  101   6.441   4.485   5.148
    3DPPC    C2  102   6.465   4.495   5.388
    3DPPC    C3  103   6.535   4.312   5.270
    3DPPC    N4  104   6.530   4.459   5.262
    3DPPC    C5  105   6.651   4.538   5.235
    3DPPC    C6  106   6.652   4.683   5.283
    3DPPC    O7  107   6.564   4.773   5.216
    3DPPC    P8  108   6.577   4.922   5.277
    3DPPC    O9  109   6.626   4.904   5.415
    3DPPC   O10  110   6.460   5.004   5.236
    3DPPC   O11  111   6.711   4.965   5.198
    3DPPC   C12  112   6.667   4.989   5.064
    3DPPC   C13  113   6.779   5.038   4.971
    3DPPC   O14  114   6.725   5.081   4.845
    3DPPC   C15  115   6.790   5.163   4.758
    3DPPC   O16  116   6.874   5.238   4.808
    3DPPC   C17  117   6.726   5.185   4.621
    3DPPC   C18  118   6.812   5.170   4.496
    3DPPC   C19  119   6.747   5.149   4.359
    3DPPC   C20  120   6.827   5.222   4.251
    3DPPC   C21  121   6.798   5.148   4.120
    3DPPC   C22  122   6.865   5.213   3.999
    3DPPC   C23  123   6.830   5.130   3.876
    3DPPC   C24  124   6.877   4.985   3.893
    3DPPC   C25  125   6.824   4.900   3.778
    3DPPC   C26  126   6.890   4.763   3.762
    3DPPC   C27  127   6.833   4.673   3.652
    3DPPC   C28  128   6.878   4.527   3.662
    3DPPC   C29  129   6.838   4.470   3.798
    3DPPC   C30  130   6.887   4.327   3.819
    3DPPC   C31  131   6.810   4.244   3.716
    3DPPC   C32  132   6.874   4.918   4.974
    3DPPC   O33  133   6.817   4.815   4.892
    3DPPC   C34  134   6.889   4.702   4.873
    3DPPC   O35  135   7.003   4.699   4.920
    3DPPC   C36  136   6.852   4.595   4.770
    3DPPC   C37  137   6.751   4.502   4.836
    3DPPC   C38  138   6.712   4.383   4.747
    3DPPC   C39  139   6.666   4.443   4.614
    3DPPC   C40  140   6.651   4.332   4.509
    3DPPC   C41  141   6.647   4.384   4.365
    3DPPC   C42  142   6.776   4.461   4.337
    3DPPC   C43  143   6.798   4.509   4.193
    3DPPC   C44  144   6.853   4.650   4.171
    3DPPC   C45  145   7.004   4.656   4.196
    3DPPC   C46  146   7.058   4.798   4.209
    3DPPC   C47  147   7.199   4.805   4.267
    3DPPC   C48  148   7.202   4.760   4.413
    3DPPC   C49  149   7.163   4.875   4.507
    3DPPC   C50  150   7.166   4.833   4.654
    4DPPC    C1  151   8.532   4.077   1.685
    4DPPC    C2  152   8.440   4.205   1.541
    4DPPC    C3  153   8.347   3.979   1.545
    4DPPC    N4  154   8.399   4.091   1.625
    4DPPC    C5  155   8.303   4.135   1.728
    4DPPC    C6  156   8.165   4.170   1.672
    4DPPC    O7  157   8.144   4.275   1.577
    4DPPC    P8  158   7.992   4.270   1.523
    4DPPC    O9  159   7.942   4.131   1.534
    4DPPC   O10  160   7.985   4.351   1.400
    4DPPC   O11  161   7.906   4.346   1.635
    4DPPC   C12  162   7.969   4.474   1.652
    4DPPC   C13  163   7.883   4.588   1.597
    4DPPC   O14  164   7.940   4.717   1.627
    4DPPC   C15  165   7.871   4.827   1.588
    4DPPC   O16  166   7.786   4.814   1.499
    4DPPC   C17  167   7.927   4.960   1.636
    4DPPC   C18  168   7.844   5.015   1.752
    4DPPC   C19  169   7.819   4.917   1.867
    4DPPC   C20  170   7.946   4.893   1.949
    4DPPC   C21  171   7.901   4.818   2.075
    4DPPC   C22  172   7.822   4.928   2.147
    4DPPC   C23  173   7.765   4.869   2.276
    4DPPC   C24  174   7.699   4.980   2.358
    4DPPC   C25  175   7.621   4.923   2.476
    4DPPC   C26  176   7.498   4.851   2.419
    4DPPC   C27  177   7.412   4.785   2.527
    4DPPC   C28  178   7.342   4.887   2.617
    4DPPC   C29  179   7.275   4.799   2.723
    4DPPC   C30  180   7.176   4.896   2.787
    4DPPC   C31  181   7.057   4.810   2.829
    4DPPC   C32  182   7.744   4.556   1.654
    4DPPC   O33  183   7.730   4.578   1.794
    4DPPC   C34  184   7.619   4.521   1.847
    4DPPC   O35  185   7.567   4.421   1.797
    4DPPC   C36  186   7.578   4.568   1.986
    4DPPC   C37  187   7.525   4.447   2.064
    4DPPC   C38  188   7.541   4.450   2.216
    4DPPC   C39  189   7.496   4.310   2.258
    4DPPC   C40  190   7.506   4.286   2.409
    4DPPC   C41  191   7.426   4.372   2.508
    4DPPC   C42  192   7.446   4.325   2.652
    4DPPC   C43  193   7.348   4.407   2.736
    4DPPC   C44  194   7.354   4.361   2.881
    4DPPC   C45  195   7.322   4.212   2.896
    4DPPC   C46  196   7.305   4.174   3.043
    4DPPC   C47  197   7.415   4.216   3.141
    4DPPC   C48  198   7.415   4.155   3.281
    4DPPC   C49  199   7.274   4.162   3.340
    4DPPC   C50  200   7.279   4.185   3.491
    5DPPC    C1  201   8.665   4.759   5.545
    5DPPC    C2  202   8.842   4.914   5.559
    5DPPC    C3  203   8.823   4.745   5.717
    5DPPC    N4  204   8.809   4.772   5.573
    5DPPC    C5  205   8.894   4.687   5.488
    5DPPC    C6  206   8.841   4.547   5.458
    5DPPC    O7  207   8.825   4.459   5.569
    5DPPC    P8  208   8.751   4.324   5.523
    5DPPC    O9  209   8.713   4.220   5.621
    5DPPC   O10  210   8.778   4.290   5.381
    5DPPC   O11  211   8.615   4.410   5.519
    5DPPC   C12  212   8.530   4.320   5.446
    5DPPC   C13  213   8.399   4.377   5.394
    5DPPC   O14  214   8.319   4.270   5.341
    5DPPC   C15  215   8.190   4.287   5.301
    5DPPC   O16  216   8.139   4.398   5.286
    5DPPC   C17  217   8.118   4.162   5.250
    5DPPC   C18  218   8.152   4.141   5.102
    5DPPC   C19  219   8.079   4.017   5.049
    5DPPC   C20  220   8.116   3.992   4.903
    5DPPC   C21  221   8.263   3.949   4.907
    5DPPC   C22  222   8.313   3.936   4.763
    5DPPC   C23  223   8.304   4.074   4.698
    5DPPC   C24  224   8.299   4.062   4.545
    5DPPC   C25  225   8.443   4.032   4.501
    5DPPC   C26  226   8.429   4.039   4.349
    5DPPC   C27  227   8.556   3.994   4.277
    5DPPC   C28  228   8.524   3.992   4.127
    5DPPC   C29  229   8.638   3.923   4.052
    5DPPC   C30  230   8.599   3.900   3.906
    5DPPC   C31  231   8.684   3.794   3.834
    5DPPC   C32  232   8.449   4.491   5.304
    5DPPC   O33  233   8.513   4.443   5.186
    5DPPC   C34  234   8.596   4.529   5.122
    5DPPC   O35  235   8.644   4.619   5.191
    5DPPC   C36  236   8.657   4.488   4.988
    5DPPC   C37  237   8.806   4.507   4.962
    5DPPC   C38  238   8.845   4.474   4.817
    5DPPC   C39  239   8.997   4.469   4.800
    5DPPC   C40  240   9.049   4.405   4.672
    5DPPC   C41  241   9.020   4.255   4.665
    5DPPC   C42  242   9.123   4.190   4.574
    5DPPC   C43  243   9.127   4.253   4.434
    5DPPC   C44  244   9.021   4.193   4.341
    5DPPC   C45  245   9.021   4.287   4.220
    5DPPC   C46  246   8.898   4.252   4.137
    5DPPC   C47  247   8.914   4.315   3.998
    5DPPC   C48  248   8.909   4.200   3.896
    5DPPC   C49  249   8.892   4.261   3.757
    5DPPC   C50  250   8.888   4.162   3.640
    6DPPC    C1  251   6.199   0.628   5.470
    6DPPC    C2  252   6.203   0.811   5.330
    6DPPC    C3  253   6.394   0.678   5.336
    6DPPC    N4  254   6.247   0.672   5.338
    6DPPC    C5  255   6.205   0.593   5.222
    6DPPC    C6  256   6.171   0.446   5.247
    6DPPC    O7  257   6.290   0.377   5.285
    6DPPC    P8  258   6.251   0.222   5.308
    6DPPC    O9  259   6.177   0.166   5.193
    6DPPC   O10  260   6.184   0.235   5.440
    6DPPC   O11  261   6.393   0.149   5.326
    6DPPC   C12  262   6.422   0.080   5.204
    6DPPC   C13  263   6.562   0.018   5.206
    6DPPC   O14  264   6.655   0.082   5.118
    6DPPC   C15  265   6.787   0.086   5.149
    6DPPC   O16  266   6.833   0.048   5.257
    6DPPC   C17  267   6.864   0.184   5.059
    6DPPC   C18  268   7.016   0.167   5.062
    6DPPC   C19  269   7.080   0.253   4.954
    6DPPC   C20  270   7.231   0.262   4.977
    6DPPC   C21  271   7.309   0.337   4.869
    6DPPC   C22  272   7.418   0.424   4.932
    6DPPC   C23  273   7.467   0.525   4.828
    6DPPC   C24  274   7.515   0.462   4.697
    6DPPC   C25  275   7.550   0.582   4.609
    6DPPC   C26  276   7.596   0.545   4.467
    6DPPC   C27  277   7.652   0.664   4.388
    6DPPC   C28  278   7.787   0.706   4.445
    6DPPC   C29  279   7.858   0.823   4.377
    6DPPC   C30  280   7.986   0.845   4.458
    6DPPC   C31  281   7.956   0.911   4.593
    6DPPC   C32  282   6.536  -0.133   5.195
    6DPPC   O33  283   6.461  -0.154   5.075
    6DPPC   C34  284   6.445  -0.284   5.037
    6DPPC   O35  285   6.486  -0.371   5.113
    6DPPC   C36  286   6.361  -0.318   4.914
    6DPPC   C37  287   6.401  -0.265   4.776
    6DPPC   C38  288   6.301  -0.327   4.678
    6DPPC   C39  289   6.327  -0.297   4.531
    6DPPC   C40  290   6.211  -0.330   4.437
    6DPPC   C41  291   6.255  -0.382   4.300
    6DPPC   C42  292   6.343  -0.507   4.294
    6DPPC   C43  293   6.472  -0.484   4.216
    6DPPC   C44  294   6.501  -0.596   4.116
    6DPPC   C45  295   6.602  -0.561   4.007
    6DPPC   C46  296   6.632  -0.696   3.942
    6DPPC   C47  297   6.764  -0.691   3.864
    6DPPC   C48  298   6.763  -0.596   3.744
    6DPPC   C49  299   6.909  -0.576   3.702
    6DPPC   C50  300   6.904  -0.472   3.590
    7DPPC    C1  301   2.931   1.575   5.498
    7DPPC    C2  302   2.739   1.533   5.628
    7DPPC    C3  303   2.753   1.517   5.376
    7DPPC    N4  304   2.813   1.489   5.508
    7DPPC    C5  305   2.858   1.350   5.517
    7DPPC    C6  306   2.754   1.244   5.556
    7DPPC    O7  307   2.674   1.224   5.439
    7DPPC    P8  308   2.551   1.130   5.482
    7DPPC    O9  309   2.461   1.235   5.536
    7DPPC   O10  310   2.616   1.029   5.568
    7DPPC   O11  311   2.529   1.082   5.330
    7DPPC   C12  312   2.479   1.183   5.243
    7DPPC   C13  313   2.489   1.131   5.099
    7DPPC   O14  314   2.380   1.052   5.052
    7DPPC   C15  315   2.258   1.106   5.024
    7DPPC   O16  316   2.216   1.209   5.075
    7DPPC   C17  317   2.158   1.010   4.958
    7DPPC   C18  318   2.206   1.005   4.813
    7DPPC   C19  319   2.147   0.890   4.731
    7DPPC   C20  320   1.998   0.923   4.724
    7DPPC   C21  321   1.924   0.835   4.623
    7DPPC   C22  322   1.992   0.836   4.486
    7DPPC   C23  323   2.002   0.969   4.411
    7DPPC   C24  324   2.072   0.961   4.275
    7DPPC   C25  325   2.089   1.100   4.212
    7DPPC   C26  326   1.951   1.151   4.169
    7DPPC   C27  327   1.961   1.271   4.074
    7DPPC   C28  328   2.040   1.241   3.947
    7DPPC   C29  329   1.966   1.135   3.864
    7DPPC   C30  330   2.047   1.129   3.735
    7DPPC   C31  331   2.016   1.248   3.645
    7DPPC   C32  332   2.626   1.062   5.092
    7DPPC   O33  333   2.722   1.167   5.107
    7DPPC   C34  334   2.850   1.122   5.102
    7DPPC   O35  335   2.888   1.005   5.113
    7DPPC   C36  336   2.959   1.230   5.100
    7DPPC   C37  337   2.943   1.322   4.979
    7DPPC   C38  338   3.044   1.436   4.982
    7DPPC   C39  339   3.027   1.521   4.855
    7DPPC   C40  340   2.885   1.576   4.861
    7DPPC   C41  341   2.851   1.631   4.722
    7DPPC   C42  342   2.864   1.523   4.615
    7DPPC   C43  343   2.833   1.548   4.467
    7DPPC   C44  344   2.841   1.424   4.377
    7DPPC   C45  345   2.802   1.467   4.235
    7DPPC   C46  346   2.825   1.355   4.134
    7DPPC   C47  347   2.782   1.402   3.995
    7DPPC   C48  348   2.806   1.305   3.878
    7DPPC   C49  349   2.770   1.359   3.740
    7DPPC   C50  350   2.774   1.250   3.632
    8DPPC    C1  351   8.482   5.852   4.610
    8DPPC    C2  352   8.671   5.789   4.746
    8DPPC    C3  353   8.523   5.969   4.803
    8DPPC    N4  354   8.531   5.833   4.747
    8DPPC    C5  355   8.440   5.747   4.824
    8DPPC    C6  356   8.449   5.701   4.969
    8DPPC    O7  357   8.568   5.628   5.003
    8DPPC    P8  358   8.553   5.573   5.153
    8DPPC    O9  359   8.494   5.681   5.237
    8DPPC   O10  360   8.674   5.498   5.195
    8DPPC   O11  361   8.431   5.471   5.134
    8DPPC   C12  362   8.468   5.384   5.027
    8DPPC   C13  363   8.376   5.269   4.986
    8DPPC   O14  364   8.437   5.170   4.902
    8DPPC   C15  365   8.481   5.053   4.954
    8DPPC   O16  366   8.503   5.034   5.074
    8DPPC   C17  367   8.512   4.952   4.844
    8DPPC   C18  368   8.392   4.901   4.763
    8DPPC   C19  369   8.315   5.008   4.685
    8DPPC   C20  370   8.240   4.940   4.570
    8DPPC   C21  371   8.094   4.917   4.608
    8DPPC   C22  372   8.022   4.890   4.476
    8DPPC   C23  373   8.061   4.997   4.374
    8DPPC   C24  374   7.989   4.981   4.241
    8DPPC   C25  375   8.025   5.104   4.157
    8DPPC   C26  376   7.973   5.099   4.014
    8DPPC   C27  377   8.022   5.221   3.936
    8DPPC   C28  378   8.173   5.214   3.915
    8DPPC   C29  379   8.211   5.100   3.820
    8DPPC   C30  380   8.350   5.104   3.756
    8DPPC   C31  381   8.403   4.966   3.720
    8DPPC   C32  382   8.250   5.328   4.922
    8DPPC   O33  383   8.255   5.442   4.835
    8DPPC   C34  384   8.133   5.482   4.792
    8DPPC   O35  385   8.025   5.452   4.842
    8DPPC   C36  386   8.141   5.571   4.668
    8DPPC   C37  387   8.211   5.512   4.545
    8DPPC   C38  388   8.243   5.606   4.429
    8DPPC   C39  389   8.141   5.569   4.321
    8DPPC   C40  390   8.192   5.633   4.192
    8DPPC   C41  391   8.095   5.601   4.077
    8DPPC   C42  392   8.162   5.660   3.952
    8DPPC   C43  393   8.078   5.642   3.826
    8DPPC   C44  394   8.146   5.707   3.705
    8DPPC   C45  395   8.065   5.658   3.586
    8DPPC   C46  396   8.015   5.514   3.599
    8DPPC   C47  397   7.971   5.451   3.466
    8DPPC   C48  398   7.898   5.321   3.499
    8DPPC   C49  399   7.871   5.240   3.372
    8DPPC   C50  400   7.843   5.093   3.402
    9DPPC    C1  401   3.150   2.978   6.037
    9DPPC    C2  402   3.014   2.817   6.165
    9DPPC    C3  403   2.943   3.040   6.128
    9DPPC    N4  404   3.015   2.927   6.068
    9DPPC    C5  405   2.950   2.874   5.947
    9DPPC    C6  406   2.891   2.978   5.853
    9DPPC    O7  407   2.981   3.035   5.758
    9DPPC    P8  408   2.895   3.082   5.630
    9DPPC    O9  409   2.966   3.202   5.584
    9DPPC   O10  410   2.756   3.089   5.681
    9DPPC   O11  411   2.897   2.952   5.535
    9DPPC   C12  412   3.020   2.977   5.466
    9DPPC   C13  413   3.082   2.842   5.426
    9DPPC   O14  414   3.208   2.860   5.362
    9DPPC   C15  415   3.293   2.754   5.357
    9DPPC   O16  416   3.304   2.683   5.457
    9DPPC   C17  417   3.406   2.768   5.255
    9DPPC   C18  418   3.370   2.728   5.112
    9DPPC   C19  419   3.493   2.719   5.022
    9DPPC   C20  420   3.456   2.716   4.874
    9DPPC   C21  421   3.578   2.690   4.785
    9DPPC   C22  422   3.552   2.661   4.637
    9DPPC   C23  423   3.685   2.652   4.562
    9DPPC   C24  424   3.677   2.575   4.430
    9DPPC   C25  425   3.815   2.562   4.366
    9DPPC   C26  426   3.795   2.444   4.271
    9DPPC   C27  427   3.912   2.435   4.173
    9DPPC   C28  428   3.898   2.319   4.074
    9DPPC   C29  429   4.027   2.322   3.991
    9DPPC   C30  430   4.154   2.284   4.067
    9DPPC   C31  431   4.258   2.265   3.956
    9DPPC   C32  432   2.973   2.781   5.338
    9DPPC   O33  433   2.947   2.857   5.219
    9DPPC   C34  434   2.851   2.813   5.134
    9DPPC   O35  435   2.765   2.726   5.153
    9DPPC   C36  436   2.862   2.891   5.003
    9DPPC   C37  437   2.845   2.795   4.885
    9DPPC   C38  438   2.852   2.875   4.755
    9DPPC   C39  439   2.747   2.986   4.763
    9DPPC   C40  440   2.750   3.069   4.635
    9DPPC   C41  441   2.630   3.163   4.636
    9DPPC   C42  442   2.617   3.252   4.512
    9DPPC   C43  443   2.506   3.356   4.528
    9DPPC   C44  444   2.487   3.449   4.408
    9DPPC   C45  445   2.388   3.402   4.301
    9DPPC   C46  446   2.245   3.381   4.352
    9DPPC   C47  447   2.164   3.321   4.237
    9DPPC   C48  448   2.221   3.185   4.197
    9DPPC   C49  449   2.109   3.080   4.196
    9DPPC   C50  450   2.158   2.942   4.154
   10DPPC    C1  451   8.361   6.256   5.412
   10DPPC    C2  452   8.470   6.449   5.355
   10DPPC    C3  453   8.468   6.278   5.198
   10DPPC    N4  454   8.383   6.346   5.297
   10DPPC    C5  455   8.263   6.414   5.246
   10DPPC    C6  456   8.154   6.330   5.178
   10DPPC    O7  457   8.043   6.409   5.134
   10DPPC    P8  458   7.949   6.298   5.065
   10DPPC    O9  459   7.857   6.388   4.991
   10DPPC   O10  460   7.909   6.185   5.152
   10DPPC   O11  461   8.057   6.240   4.961
   10DPPC   C12  462   8.052   6.324   4.845
   10DPPC   C13  463   8.180   6.307   4.763
   10DPPC   O14  464   8.209   6.426   4.688
   10DPPC   C15  465   8.331   6.445   4.631
   10DPPC   O16  466   8.427   6.386   4.679
   10DPPC   C17  467   8.336   6.534   4.507
   10DPPC   C18  468   8.346   6.444   4.384
   10DPPC   C19  469   8.472   6.359   4.370
   10DPPC   C20  470   8.442   6.266   4.252
   10DPPC   C21  471   8.390   6.132   4.305
   10DPPC   C22  472   8.388   6.043   4.180
   10DPPC   C23  473   8.529   6.039   4.120
   10DPPC   C24  474   8.522   5.985   3.977
   10DPPC   C25  475   8.657   5.999   3.909
   10DPPC   C26  476   8.659   5.918   3.779
   10DPPC   C27  477   8.796   5.919   3.710
   10DPPC   C28  478   8.901   5.862   3.805
   10DPPC   C29  479   9.042   5.887   3.752
   10DPPC   C30  480   9.094   6.030   3.770
   10DPPC   C31  481   9.240   6.040   3.725
   10DPPC   C32  482   8.181   6.170   4.695
   10DPPC   O33  483   8.062   6.149   4.617
   10DPPC   C34  484   8.062   6.038   4.539
   10DPPC   O35  485   8.164   5.972   4.521
   10DPPC   C36  486   7.957   6.045   4.428
   10DPPC   C37  487   7.949   5.935   4.322
   10DPPC   C38  488   7.833   5.968   4.228
   10DPPC   C39  489   7.835   5.868   4.112
   10DPPC   C40  490   7.755   5.939   4.001
   10DPPC   C41  491   7.760   5.853   3.875
   10DPPC   C42  492   7.662   5.933   3.790
   10DPPC   C43  493   7.651   5.871   3.650
   10DPPC   C44  494   7.707   5.960   3.540
   10DPPC   C45  495   7.687   5.888   3.407
   10DPPC   C46  496   7.734   5.742   3.412
   10DPPC   C47  497   7.715   5.680   3.274
   10DPPC   C48  498   7.811   5.729   3.166
   10DPPC   C49  499   7.770   5.674   3.029
   10DPPC   C50  500   7.881   5.685   2.924
   11DPPC    C1  501   6.406   7.656   5.499
   11DPPC    C2  502   6.488   7.733   5.705
   11DPPC    C3  503   6.526   7.500   5.643
   11DPPC    N4  504   6.516   7.639   5.596
   11DPPC    C5  505   6.632   7.665   5.510
   11DPPC    C6  506   6.716   7.792   5.528
   11DPPC    O7  507   6.645   7.895   5.459
   11DPPC    P8  508   6.702   8.035   5.515
   11DPPC    O9  509   6.752   8.011   5.652
   11DPPC   O10  510   6.597   8.139   5.501
   11DPPC   O11  511   6.816   8.046   5.403
   11DPPC   C12  512   6.757   8.098   5.283
   11DPPC   C13  513   6.860   8.102   5.170
   11DPPC   O14  514   6.837   8.201   5.070
   11DPPC   C15  515   6.949   8.240   5.003
   11DPPC   O16  516   7.057   8.241   5.063
   11DPPC   C17  517   6.919   8.339   4.891
   11DPPC   C18  518   6.792   8.304   4.813
   11DPPC   C19  519   6.775   8.393   4.689
   11DPPC   C20  520   6.780   8.536   4.742
   11DPPC   C21  521   6.814   8.627   4.624
   11DPPC   C22  522   6.778   8.775   4.644
   11DPPC   C23  523   6.796   8.849   4.512
   11DPPC   C24  524   6.756   8.997   4.522
   11DPPC   C25  525   6.742   9.068   4.387
   11DPPC   C26  526   6.646   9.187   4.385
   11DPPC   C27  527   6.509   9.120   4.371
   11DPPC   C28  528   6.473   9.036   4.248
   11DPPC   C29  529   6.329   8.984   4.253
   11DPPC   C30  530   6.305   8.896   4.130
   11DPPC   C31  531   6.159   8.851   4.124
   11DPPC   C32  532   6.886   7.953   5.147
   11DPPC   O33  533   6.763   7.897   5.101
   11DPPC   C34  534   6.775   7.769   5.058
   11DPPC   O35  535   6.867   7.697   5.096
   11DPPC   C36  536   6.664   7.724   4.962
   11DPPC   C37  537   6.669   7.815   4.838
   11DPPC   C38  538   6.551   7.797   4.744
   11DPPC   C39  539   6.574   7.897   4.630
   11DPPC   C40  540   6.719   7.930   4.591
   11DPPC   C41  541   6.711   8.033   4.479
   11DPPC   C42  542   6.852   8.079   4.440
   11DPPC   C43  543   6.894   7.982   4.329
   11DPPC   C44  544   7.038   8.028   4.302
   11DPPC   C45  545   7.036   8.173   4.254
   11DPPC   C46  546   6.961   8.177   4.121
   11DPPC   C47  547   6.973   8.323   4.075
   11DPPC   C48  548   7.118   8.350   4.034
   11DPPC   C49  549   7.121   8.501   4.013
   11DPPC   C50  550   7.262   8.561   4.006
   12DPPC    C1  551   9.289   1.831   5.004
   12DPPC    C2  552   9.504   1.906   5.007
   12DPPC    C3  553   9.398   1.861   5.213
   12DPPC    N4  554   9.416   1.811   5.076
   12DPPC    C5  555   9.465   1.673   5.056
   12DPPC    C6  556   9.401   1.549   5.117
   12DPPC    O7  557   9.424   1.442   5.024
   12DPPC    P8  558   9.371   1.309   5.098
   12DPPC    O9  559   9.377   1.316   5.246
   12DPPC   O10  560   9.424   1.193   5.024
   12DPPC   O11  561   9.214   1.337   5.071
   12DPPC   C12  562   9.177   1.268   4.951
   12DPPC   C13  563   9.028   1.284   4.920
   12DPPC   O14  564   8.978   1.204   4.812
   12DPPC   C15  565   8.949   1.073   4.835
   12DPPC   O16  566   8.944   1.030   4.950
   12DPPC   C17  567   8.885   1.004   4.714
   12DPPC   C18  568   8.842   1.081   4.590
   12DPPC   C19  569   8.735   1.188   4.613
   12DPPC   C20  570   8.714   1.255   4.477
   12DPPC   C21  571   8.613   1.370   4.480
   12DPPC   C22  572   8.591   1.448   4.350
   12DPPC   C23  573   8.528   1.359   4.242
   12DPPC   C24  574   8.473   1.445   4.128
   12DPPC   C25  575   8.363   1.540   4.178
   12DPPC   C26  576   8.333   1.632   4.059
   12DPPC   C27  577   8.245   1.585   3.944
   12DPPC   C28  578   8.101   1.543   3.973
   12DPPC   C29  579   8.022   1.479   3.859
   12DPPC   C30  580   7.881   1.444   3.907
   12DPPC   C31  581   7.892   1.342   4.021
   12DPPC   C32  582   8.999   1.431   4.892
   12DPPC   O33  583   9.075   1.466   4.776
   12DPPC   C34  584   9.057   1.592   4.727
   12DPPC   O35  585   9.005   1.683   4.791
   12DPPC   C36  586   9.148   1.631   4.610
   12DPPC   C37  587   9.095   1.580   4.475
   12DPPC   C38  588   8.977   1.660   4.419
   12DPPC   C39  589   8.972   1.629   4.270
   12DPPC   C40  590   8.856   1.678   4.182
   12DPPC   C41  591   8.867   1.660   4.030
   12DPPC   C42  592   8.771   1.748   3.950
   12DPPC   C43  593   8.763   1.693   3.808
   12DPPC   C44  594   8.652   1.768   3.733
   12DPPC   C45  595   8.688   1.911   3.694
   12DPPC   C46  596   8.575   1.992   3.631
   12DPPC   C47  597   8.448   2.005   3.716
   12DPPC   C48  598   8.368   2.130   3.680
   12DPPC   C49  599   8.234   2.114   3.752
   12DPPC   C50  600   8.161   1.987   3.706
   13DPPC    C1  601   1.596   1.646   5.051
   13DPPC    C2  602   1.728   1.506   5.206
   13DPPC    C3  603   1.565   1.625   5.297
   13DPPC    N4  604   1.595   1.559   5.169
   13DPPC    C5  605   1.516   1.436   5.156
   13DPPC    C6  606   1.366   1.452   5.180
   13DPPC    O7  607   1.271   1.362   5.123
   13DPPC    P8  608   1.123   1.419   5.152
   13DPPC    O9  609   1.114   1.442   5.298
   13DPPC   O10  610   1.033   1.321   5.087
   13DPPC   O11  611   1.126   1.566   5.087
   13DPPC   C12  612   1.032   1.573   4.980
   13DPPC   C13  613   1.031   1.712   4.917
   13DPPC   O14  614   0.944   1.732   4.805
   13DPPC   C15  615   0.810   1.731   4.827
   13DPPC   O16  616   0.766   1.717   4.941
   13DPPC   C17  617   0.719   1.731   4.703
   13DPPC   C18  618   0.701   1.591   4.646
   13DPPC   C19  619   0.608   1.609   4.526
   13DPPC   C20  620   0.558   1.476   4.470
   13DPPC   C21  621   0.448   1.497   4.366
   13DPPC   C22  622   0.305   1.510   4.419
   13DPPC   C23  623   0.201   1.515   4.307
   13DPPC   C24  624   0.062   1.484   4.364
   13DPPC   C25  625  -0.032   1.510   4.246
   13DPPC   C26  626  -0.014   1.650   4.187
   13DPPC   C27  627  -0.106   1.648   4.064
   13DPPC   C28  628  -0.093   1.772   3.977
   13DPPC   C29  629  -0.227   1.795   3.906
   13DPPC   C30  630  -0.199   1.894   3.793
   13DPPC   C31  631  -0.154   2.031   3.843
   13DPPC   C32  632   1.179   1.730   4.881
   13DPPC   O33  633   1.237   1.622   4.808
   13DPPC   C34  634   1.349   1.657   4.739
   13DPPC   O35  635   1.424   1.744   4.781
   13DPPC   C36  636   1.387   1.562   4.624
   13DPPC   C37  637   1.313   1.602   4.496
   13DPPC   C38  638   1.182   1.524   4.483
   13DPPC   C39  639   1.107   1.556   4.354
   13DPPC   C40  640   0.975   1.478   4.346
   13DPPC   C41  641   0.896   1.516   4.221
   13DPPC   C42  642   0.776   1.421   4.216
   13DPPC   C43  643   0.742   1.409   4.068
   13DPPC   C44  644   0.619   1.319   4.056
   13DPPC   C45  645   0.646   1.180   4.114
   13DPPC   C46  646   0.723   1.090   4.017
   13DPPC   C47  647   0.741   0.955   4.088
   13DPPC   C48  648   0.796   0.850   3.992
   13DPPC   C49  649   0.802   0.705   4.042
   13DPPC   C50  650   0.878   0.692   4.174
   14DPPC    C1  651   8.468   3.425   5.556
   14DPPC    C2  652   8.431   3.593   5.725
   14DPPC    C3  653   8.644   3.520   5.668
   14DPPC    N4  654   8.513   3.554   5.610
   14DPPC    C5  655   8.514   3.669   5.518
   14DPPC    C6  656   8.585   3.656   5.384
   14DPPC    O7  657   8.723   3.620   5.398
   14DPPC    P8  658   8.767   3.527   5.274
   14DPPC    O9  659   8.663   3.421   5.274
   14DPPC   O10  660   8.911   3.494   5.275
   14DPPC   O11  661   8.752   3.649   5.170
   14DPPC   C12  662   8.680   3.601   5.055
   14DPPC   C13  663   8.554   3.685   5.034
   14DPPC   O14  664   8.470   3.625   4.934
   14DPPC   C15  665   8.371   3.544   4.979
   14DPPC   O16  666   8.348   3.536   5.100
   14DPPC   C17  667   8.296   3.467   4.871
   14DPPC   C18  668   8.387   3.361   4.809
   14DPPC   C19  669   8.336   3.294   4.681
   14DPPC   C20  670   8.332   3.390   4.562
   14DPPC   C21  671   8.280   3.336   4.429
   14DPPC   C22  672   8.256   3.447   4.327
   14DPPC   C23  673   8.384   3.527   4.301
   14DPPC   C24  674   8.359   3.636   4.196
   14DPPC   C25  675   8.305   3.569   4.070
   14DPPC   C26  676   8.312   3.674   3.959
   14DPPC   C27  677   8.282   3.621   3.819
   14DPPC   C28  678   8.268   3.726   3.707
   14DPPC   C29  679   8.167   3.833   3.747
   14DPPC   C30  680   8.138   3.904   3.615
   14DPPC   C31  681   8.273   3.954   3.563
   14DPPC   C32  682   8.608   3.817   4.980
   14DPPC   O33  683   8.720   3.812   4.891
   14DPPC   C34  684   8.758   3.936   4.850
   14DPPC   O35  685   8.709   4.035   4.904
   14DPPC   C36  686   8.879   3.935   4.757
   14DPPC   C37  687   8.885   3.819   4.657
   14DPPC   C38  688   8.789   3.855   4.544
   14DPPC   C39  689   8.829   3.774   4.421
   14DPPC   C40  690   8.807   3.623   4.434
   14DPPC   C41  691   8.876   3.553   4.316
   14DPPC   C42  692   8.824   3.410   4.295
   14DPPC   C43  693   8.873   3.347   4.165
   14DPPC   C44  694   8.783   3.238   4.106
   14DPPC   C45  695   8.853   3.109   4.064
   14DPPC   C46  696   8.757   3.032   3.973
   14DPPC   C47  697   8.828   2.900   3.943
   14DPPC   C48  698   8.872   2.893   3.797
   14DPPC   C49  699   8.952   2.765   3.767
   14DPPC   C50  700   8.979   2.734   3.620
   15DPPC    C1  701   5.264   8.182   4.988
   15DPPC    C2  702   5.437   8.295   4.862
   15DPPC    C3  703   5.208   8.375   4.906
   15DPPC    N4  704   5.328   8.311   4.960
   15DPPC    C5  705   5.356   8.371   5.091
   15DPPC    C6  706   5.435   8.286   5.189
   15DPPC    O7  707   5.574   8.276   5.159
   15DPPC    P8  708   5.639   8.142   5.219
   15DPPC    O9  709   5.548   8.036   5.171
   15DPPC   O10  710   5.640   8.185   5.361
   15DPPC   O11  711   5.779   8.155   5.140
   15DPPC   C12  712   5.733   8.141   5.006
   15DPPC   C13  713   5.843   8.197   4.915
   15DPPC   O14  714   5.806   8.214   4.777
   15DPPC   C15  715   5.890   8.278   4.691
   15DPPC   O16  716   5.975   8.350   4.742
   15DPPC   C17  717   5.829   8.306   4.553
   15DPPC   C18  718   5.831   8.455   4.519
   15DPPC   C19  719   5.758   8.536   4.627
   15DPPC   C20  720   5.762   8.685   4.591
   15DPPC   C21  721   5.908   8.729   4.575
   15DPPC   C22  722   5.924   8.876   4.535
   15DPPC   C23  723   5.857   8.897   4.399
   15DPPC   C24  724   5.890   9.041   4.360
   15DPPC   C25  725   5.821   9.073   4.227
   15DPPC   C26  726   5.669   9.074   4.241
   15DPPC   C27  727   5.620   9.116   4.102
   15DPPC   C28  728   5.471   9.149   4.107
   15DPPC   C29  729   5.437   9.228   3.980
   15DPPC   C30  730   5.291   9.267   3.960
   15DPPC   C31  731   5.248   9.352   4.079
   15DPPC   C32  732   5.967   8.111   4.938
   15DPPC   O33  733   5.974   7.991   4.861
   15DPPC   C34  734   6.078   7.906   4.884
   15DPPC   O35  735   6.155   7.930   4.977
   15DPPC   C36  736   6.079   7.781   4.797
   15DPPC   C37  737   6.043   7.652   4.872
   15DPPC   C38  738   6.027   7.530   4.782
   15DPPC   C39  739   5.943   7.567   4.659
   15DPPC   C40  740   5.893   7.449   4.576
   15DPPC   C41  741   6.001   7.346   4.544
   15DPPC   C42  742   5.922   7.235   4.475
   15DPPC   C43  743   6.003   7.153   4.375
   15DPPC   C44  744   5.907   7.056   4.306
   15DPPC   C45  745   5.991   6.960   4.221
   15DPPC   C46  746   6.032   7.037   4.096
   15DPPC   C47  747   5.921   7.098   4.010
   15DPPC   C48  748   5.976   7.168   3.886
   15DPPC   C49  749   5.867   7.233   3.801
   15DPPC   C50  750   5.808   7.349   3.880
   16DPPC    C1  751   9.219   0.907   5.057
   16DPPC    C2  752   9.165   0.910   5.297
   16DPPC    C3  753   9.044   0.767   5.134
   16DPPC    N4  754   9.170   0.831   5.173
   16DPPC    C5  755   9.261   0.717   5.189
   16DPPC    C6  756   9.242   0.625   5.311
   16DPPC    O7  757   9.303   0.496   5.309
   16DPPC    P8  758   9.202   0.389   5.374
   16DPPC    O9  759   9.144   0.471   5.483
   16DPPC   O10  760   9.263   0.258   5.404
   16DPPC   O11  761   9.112   0.366   5.243
   16DPPC   C12  762   9.193   0.298   5.147
   16DPPC   C13  763   9.159   0.338   5.003
   16DPPC   O14  764   9.221   0.459   4.958
   16DPPC   C15  765   9.345   0.447   4.902
   16DPPC   O16  766   9.420   0.360   4.944
   16DPPC   C17  767   9.406   0.558   4.816
   16DPPC   C18  768   9.327   0.688   4.801
   16DPPC   C19  769   9.363   0.760   4.670
   16DPPC   C20  770   9.280   0.700   4.557
   16DPPC   C21  771   9.133   0.717   4.597
   16DPPC   C22  772   9.031   0.659   4.499
   16DPPC   C23  773   9.003   0.745   4.375
   16DPPC   C24  774   8.898   0.669   4.294
   16DPPC   C25  775   8.821   0.727   4.175
   16DPPC   C26  776   8.759   0.616   4.090
   16DPPC   C27  777   8.699   0.683   3.965
   16DPPC   C28  778   8.570   0.605   3.940
   16DPPC   C29  779   8.488   0.634   3.814
   16DPPC   C30  780   8.574   0.582   3.698
   16DPPC   C31  781   8.519   0.608   3.557
   16DPPC   C32  782   9.006   0.345   5.000
   16DPPC   O33  783   8.947   0.215   5.003
   16DPPC   C34  784   8.814   0.208   4.976
   16DPPC   O35  785   8.741   0.283   5.041
   16DPPC   C36  786   8.767   0.066   4.942
   16DPPC   C37  787   8.716   0.082   4.799
   16DPPC   C38  788   8.741  -0.050   4.726
   16DPPC   C39  789   8.721  -0.043   4.574
   16DPPC   C40  790   8.786  -0.161   4.501
   16DPPC   C41  791   8.767  -0.156   4.349
   16DPPC   C42  792   8.623  -0.189   4.308
   16DPPC   C43  793   8.626  -0.219   4.158
   16DPPC   C44  794   8.497  -0.300   4.143
   16DPPC   C45  795   8.457  -0.326   3.997
   16DPPC   C46  796   8.316  -0.381   4.019
   16DPPC   C47  797   8.238  -0.426   3.895
   16DPPC   C48  798   8.108  -0.474   3.961
   16DPPC   C49  799   8.013  -0.548   3.867
   16DPPC   C50  800   7.894  -0.610   3.940
   17DPPC    C1  801   1.569   0.612   5.342
   17DPPC    C2  802   1.628   0.615   5.119
   17DPPC    C3  803   1.492   0.448   5.192
   17DPPC    N4  804   1.513   0.592   5.207
   17DPPC    C5  805   1.394   0.671   5.173
   17DPPC    C6  806   1.422   0.821   5.162
   17DPPC    O7  807   1.304   0.901   5.159
   17DPPC    P8  808   1.323   1.061   5.155
   17DPPC    O9  809   1.468   1.076   5.177
   17DPPC   O10  810   1.219   1.112   5.247
   17DPPC   O11  811   1.286   1.074   4.999
   17DPPC   C12  812   1.407   1.131   4.948
   17DPPC   C13  813   1.382   1.170   4.802
   17DPPC   O14  814   1.489   1.240   4.737
   17DPPC   C15  815   1.576   1.159   4.671
   17DPPC   O16  816   1.540   1.045   4.643
   17DPPC   C17  817   1.705   1.221   4.615
   17DPPC   C18  818   1.727   1.355   4.686
   17DPPC   C19  819   1.813   1.448   4.600
   17DPPC   C20  820   1.931   1.370   4.542
   17DPPC   C21  821   2.011   1.471   4.460
   17DPPC   C22  822   2.144   1.406   4.422
   17DPPC   C23  823   2.231   1.514   4.358
   17DPPC   C24  824   2.365   1.457   4.311
   17DPPC   C25  825   2.336   1.359   4.197
   17DPPC   C26  826   2.450   1.279   4.134
   17DPPC   C27  827   2.393   1.203   4.014
   17DPPC   C28  828   2.493   1.094   3.975
   17DPPC   C29  829   2.438   1.008   3.861
   17DPPC   C30  830   2.435   1.079   3.725
   17DPPC   C31  831   2.403   0.978   3.615
   17DPPC   C32  832   1.254   1.254   4.800
   17DPPC   O33  833   1.169   1.251   4.684
   17DPPC   C34  834   1.100   1.142   4.642
   17DPPC   O35  835   1.125   1.031   4.689
   17DPPC   C36  836   1.040   1.148   4.502
   17DPPC   C37  837   1.130   1.080   4.399
   17DPPC   C38  838   1.042   1.012   4.295
   17DPPC   C39  839   1.119   0.967   4.170
   17DPPC   C40  840   1.152   1.094   4.092
   17DPPC   C41  841   1.210   1.057   3.955
   17DPPC   C42  842   1.287   1.175   3.895
   17DPPC   C43  843   1.352   1.164   3.757
   17DPPC   C44  844   1.421   1.293   3.712
   17DPPC   C45  845   1.472   1.279   3.568
   17DPPC   C46  846   1.519   1.415   3.514
   17DPPC   C47  847   1.645   1.460   3.587
   17DPPC   C48  848   1.697   1.599   3.549
   17DPPC   C49  849   1.817   1.656   3.625
   17DPPC   C50  850   1.830   1.806   3.596
   18DPPC    C1  851   1.891   7.217   5.469
   18DPPC    C2  852   1.961   7.016   5.544
   18DPPC    C3  853   1.748   7.029   5.428
   18DPPC    N4  854   1.888   7.075   5.431
   18DPPC    C5  855   1.954   7.070   5.300
   18DPPC    C6  856   1.983   6.927   5.254
   18DPPC    O7  857   2.053   6.924   5.130
   18DPPC    P8  858   2.052   6.775   5.068
   18DPPC    O9  859   1.914   6.732   5.099
   18DPPC   O10  860   2.166   6.694   5.116
   18DPPC   O11  861   2.063   6.799   4.909
   18DPPC   C12  862   2.106   6.681   4.842
   18DPPC   C13  863   2.129   6.692   4.691
   18DPPC   O14  864   2.132   6.568   4.619
   18DPPC   C15  865   2.015   6.506   4.589
   18DPPC   O16  866   1.912   6.508   4.656
   18DPPC   C17  867   2.024   6.384   4.498
   18DPPC   C18  868   1.902   6.381   4.405
   18DPPC   C19  869   1.945   6.320   4.271
   18DPPC   C20  870   1.822   6.302   4.182
   18DPPC   C21  871   1.851   6.216   4.058
   18DPPC   C22  872   1.720   6.205   3.981
   18DPPC   C23  873   1.741   6.112   3.861
   18DPPC   C24  874   1.612   6.112   3.779
   18DPPC   C25  875   1.480   6.082   3.852
   18DPPC   C26  876   1.462   5.939   3.903
   18DPPC   C27  877   1.339   5.948   3.994
   18DPPC   C28  878   1.213   5.985   3.916
   18DPPC   C29  879   1.165   5.881   3.815
   18DPPC   C30  880   1.035   5.921   3.746
   18DPPC   C31  881   1.004   5.801   3.655
   18DPPC   C32  882   2.246   6.789   4.675
   18DPPC   O33  883   2.278   6.819   4.538
   18DPPC   C34  884   2.408   6.853   4.517
   18DPPC   O35  885   2.485   6.857   4.612
   18DPPC   C36  886   2.432   6.883   4.368
   18DPPC   C37  887   2.485   6.759   4.295
   18DPPC   C38  888   2.507   6.800   4.149
   18DPPC   C39  889   2.587   6.702   4.062
   18DPPC   C40  890   2.731   6.679   4.106
   18DPPC   C41  891   2.797   6.585   4.005
   18DPPC   C42  892   2.882   6.475   4.068
   18DPPC   C43  893   2.949   6.395   3.956
   18DPPC   C44  894   2.996   6.258   4.004
   18DPPC   C45  895   3.110   6.279   4.103
   18DPPC   C46  896   3.156   6.165   4.194
   18DPPC   C47  897   3.263   6.213   4.292
   18DPPC   C48  898   3.202   6.301   4.402
   18DPPC   C49  899   3.318   6.340   4.494
   18DPPC   C50  900   3.278   6.420   4.618
   19DPPC    C1  901   2.618   5.762   5.604
   19DPPC    C2  902   2.405   5.814   5.546
   19DPPC    C3  903   2.576   5.822   5.375
   19DPPC    N4  904   2.524   5.749   5.492
   19DPPC    C5  905   2.485   5.612   5.455
   19DPPC    C6  906   2.590   5.508   5.417
   19DPPC    O7  907   2.663   5.530   5.296
   19DPPC    P8  908   2.793   5.435   5.294
   19DPPC    O9  909   2.832   5.431   5.437
   19DPPC   O10  910   2.874   5.496   5.186
   19DPPC   O11  911   2.726   5.308   5.222
   19DPPC   C12  912   2.764   5.291   5.085
   19DPPC   C13  913   2.682   5.175   5.028
   19DPPC   O14  914   2.757   5.094   4.937
   19DPPC   C15  915   2.722   4.962   4.938
   19DPPC   O16  916   2.646   4.908   5.018
   19DPPC   C17  917   2.796   4.877   4.834
   19DPPC   C18  918   2.929   4.815   4.878
   19DPPC   C19  919   2.990   4.747   4.756
   19DPPC   C20  920   2.909   4.621   4.727
   19DPPC   C21  921   2.973   4.544   4.611
   19DPPC   C22  922   2.891   4.419   4.577
   19DPPC   C23  923   2.958   4.362   4.452
   19DPPC   C24  924   3.101   4.310   4.466
   19DPPC   C25  925   3.160   4.270   4.331
   19DPPC   C26  926   3.129   4.379   4.228
   19DPPC   C27  927   3.192   4.335   4.095
   19DPPC   C28  928   3.140   4.424   3.983
   19DPPC   C29  929   3.208   4.390   3.850
   19DPPC   C30  930   3.130   4.439   3.729
   19DPPC   C31  931   3.125   4.591   3.742
   19DPPC   C32  932   2.542   5.227   4.993
   19DPPC   O33  933   2.548   5.326   4.891
   19DPPC   C34  934   2.438   5.356   4.816
   19DPPC   O35  935   2.332   5.298   4.839
   19DPPC   C36  936   2.448   5.460   4.704
   19DPPC   C37  937   2.340   5.427   4.601
   19DPPC   C38  938   2.374   5.473   4.459
   19DPPC   C39  939   2.267   5.469   4.350
   19DPPC   C40  940   2.305   5.553   4.228
   19DPPC   C41  941   2.207   5.576   4.113
   19DPPC   C42  942   2.262   5.678   4.013
   19DPPC   C43  943   2.408   5.638   3.989
   19DPPC   C44  944   2.471   5.728   3.883
   19DPPC   C45  945   2.615   5.677   3.869
   19DPPC   C46  946   2.675   5.737   3.742
   19DPPC   C47  947   2.826   5.711   3.731
   19DPPC   C48  948   2.895   5.765   3.856
   19DPPC   C49  949   3.048   5.770   3.840
   19DPPC   C50  950   3.123   5.814   3.966
   20DPPC    C1  951   6.768   5.505   5.027
   20DPPC    C2  952   6.585   5.463   4.886
   20DPPC    C3  953   6.570   5.374   5.095
   20DPPC    N4  954   6.622   5.492   5.025
   20DPPC    C5  955   6.543   5.607   5.074
   20DPPC    C6  956   6.614   5.727   5.135
   20DPPC    O7  957   6.690   5.811   5.047
   20DPPC    P8  958   6.774   5.920   5.128
   20DPPC    O9  959   6.852   5.823   5.208
   20DPPC   O10  960   6.681   6.019   5.187
   20DPPC   O11  961   6.872   5.999   5.027
   20DPPC   C12  962   6.969   5.902   4.988
   20DPPC   C13  963   7.097   5.950   4.918
   20DPPC   O14  964   7.085   6.036   4.804
   20DPPC   C15  965   7.086   6.172   4.792
   20DPPC   O16  966   7.126   6.236   4.888
   20DPPC   C17  967   7.062   6.237   4.655
   20DPPC   C18  968   7.137   6.366   4.619
   20DPPC   C19  969   7.082   6.407   4.482
   20DPPC   C20  970   6.931   6.430   4.495
   20DPPC   C21  971   6.880   6.474   4.358
   20DPPC   C22  972   6.955   6.597   4.306
   20DPPC   C23  973   6.945   6.615   4.154
   20DPPC   C24  974   7.031   6.725   4.092
   20DPPC   C25  975   7.038   6.699   3.941
   20DPPC   C26  976   7.119   6.794   3.852
   20DPPC   C27  977   7.266   6.782   3.894
   20DPPC   C28  978   7.355   6.874   3.812
   20DPPC   C29  979   7.504   6.839   3.813
   20DPPC   C30  980   7.593   6.924   3.722
   20DPPC   C31  981   7.733   6.862   3.722
   20DPPC   C32  982   7.183   5.826   4.896
   20DPPC   O33  983   7.108   5.715   4.848
   20DPPC   C34  984   7.166   5.592   4.848
   20DPPC   O35  985   7.266   5.561   4.913
   20DPPC   C36  986   7.110   5.504   4.736
   20DPPC   C37  987   7.225   5.434   4.664
   20DPPC   C38  988   7.170   5.374   4.534
   20DPPC   C39  989   7.271   5.297   4.448
   20DPPC   C40  990   7.227   5.278   4.303
   20DPPC   C41  991   7.331   5.216   4.209
   20DPPC   C42  992   7.251   5.206   4.079
   20DPPC   C43  993   7.342   5.150   3.969
   20DPPC   C44  994   7.260   5.093   3.853
   20DPPC   C45  995   7.349   5.020   3.753
   20DPPC   C46  996   7.262   4.972   3.637
   20DPPC   C47  997   7.192   5.084   3.560
   20DPPC   C48  998   7.096   5.023   3.458
   20DPPC   C49  999   7.003   5.119   3.384
   20DPPC   C50 1000   7.084   5.207   3.288
   21DPPC    C1 1001   3.223   2.262   6.170
   21DPPC    C2 1002   3.388   2.211   6.003
   21DPPC    C3 1003   3.433   2.156   6.223
   21DPPC    N4 1004   3.323   2.164   6.126
   21DPPC    C5 1005   3.273   2.026   6.116
   21DPPC    C6 1006   3.136   2.000   6.051
   21DPPC    O7 1007   3.132   2.013   5.909
   21DPPC    P8 1008   2.985   2.049   5.852
   21DPPC    O9 1009   2.916   2.140   5.945
   21DPPC   O10 1010   2.944   1.914   5.808
   21DPPC   O11 1011   3.032   2.122   5.716
   21DPPC   C12 1012   3.041   2.018   5.619
   21DPPC   C13 1013   3.039   2.076   5.477
   21DPPC   O14 1014   3.027   1.982   5.369
   21DPPC   C15 1015   2.901   1.946   5.336
   21DPPC   O16 1016   2.811   1.938   5.421
   21DPPC   C17 1017   2.896   1.880   5.198
   21DPPC   C18 1018   2.992   1.957   5.106
   21DPPC   C19 1019   2.961   1.924   4.960
   21DPPC   C20 1020   3.033   2.025   4.871
   21DPPC   C21 1021   2.971   2.005   4.733
   21DPPC   C22 1022   3.029   2.104   4.631
   21DPPC   C23 1023   2.975   2.078   4.490
   21DPPC   C24 1024   3.059   2.140   4.379
   21DPPC   C25 1025   2.972   2.145   4.253
   21DPPC   C26 1026   3.047   2.186   4.126
   21DPPC   C27 1027   2.966   2.174   3.997
   21DPPC   C28 1028   3.055   2.208   3.878
   21DPPC   C29 1029   2.987   2.193   3.742
   21DPPC   C30 1030   3.098   2.156   3.644
   21DPPC   C31 1031   3.064   2.164   3.495
   21DPPC   C32 1032   3.167   2.159   5.472
   21DPPC   O33 1033   3.196   2.242   5.359
   21DPPC   C34 1034   3.128   2.358   5.337
   21DPPC   O35 1035   3.032   2.393   5.406
   21DPPC   C36 1036   3.168   2.434   5.210
   21DPPC   C37 1037   3.086   2.399   5.086
   21DPPC   C38 1038   3.133   2.486   4.970
   21DPPC   C39 1039   3.050   2.449   4.846
   21DPPC   C40 1040   3.081   2.532   4.722
   21DPPC   C41 1041   2.995   2.491   4.602
   21DPPC   C42 1042   3.048   2.549   4.471
   21DPPC   C43 1043   3.200   2.546   4.452
   21DPPC   C44 1044   3.254   2.631   4.337
   21DPPC   C45 1045   3.207   2.578   4.201
   21DPPC   C46 1046   3.237   2.670   4.082
   21DPPC   C47 1047   3.194   2.610   3.949
   21DPPC   C48 1048   3.248   2.697   3.835
   21DPPC   C49 1049   3.177   2.646   3.710
   21DPPC   C50 1050   3.185   2.744   3.593
   22DPPC    C1 1051   1.644   2.057   5.553
   22DPPC    C2 1052   1.828   2.151   5.433
   22DPPC    C3 1053   1.863   2.046   5.652
   22DPPC    N4 1054   1.787   2.044   5.525
   22DPPC    C5 1055   1.803   1.918   5.452
   22DPPC    C6 1056   1.930   1.886   5.372
   22DPPC    O7 1057   1.918   1.767   5.294
   22DPPC    P8 1058   2.065   1.731   5.238
   22DPPC    O9 1059   2.054   1.607   5.158
   22DPPC   O10 1060   2.159   1.743   5.351
   22DPPC   O11 1061   2.069   1.862   5.144
   22DPPC   C12 1062   2.015   1.840   5.013
   22DPPC   C13 1063   1.997   1.975   4.945
   22DPPC   O14 1064   1.937   1.965   4.814
   22DPPC   C15 1065   1.803   1.948   4.807
   22DPPC   O16 1066   1.735   1.934   4.909
   22DPPC   C17 1067   1.743   1.952   4.666
   22DPPC   C18 1068   1.804   1.847   4.574
   22DPPC   C19 1069   1.739   1.851   4.436
   22DPPC   C20 1070   1.781   1.738   4.342
   22DPPC   C21 1071   1.678   1.720   4.230
   22DPPC   C22 1072   1.699   1.591   4.149
   22DPPC   C23 1073   1.570   1.560   4.073
   22DPPC   C24 1074   1.525   1.669   3.975
   22DPPC   C25 1075   1.408   1.597   3.907
   22DPPC   C26 1076   1.358   1.697   3.803
   22DPPC   C27 1077   1.224   1.651   3.745
   22DPPC   C28 1078   1.122   1.621   3.854
   22DPPC   C29 1079   0.995   1.562   3.792
   22DPPC   C30 1080   1.020   1.431   3.717
   22DPPC   C31 1081   0.899   1.368   3.648
   22DPPC   C32 1082   2.129   2.053   4.951
   22DPPC   O33 1083   2.245   1.979   4.915
   22DPPC   C34 1084   2.356   2.056   4.905
   22DPPC   O35 1085   2.339   2.178   4.910
   22DPPC   C36 1086   2.477   2.002   4.829
   22DPPC   C37 1087   2.447   1.887   4.733
   22DPPC   C38 1088   2.550   1.900   4.621
   22DPPC   C39 1089   2.526   1.804   4.504
   22DPPC   C40 1090   2.608   1.847   4.383
   22DPPC   C41 1091   2.580   1.767   4.255
   22DPPC   C42 1092   2.665   1.807   4.135
   22DPPC   C43 1093   2.628   1.735   4.005
   22DPPC   C44 1094   2.727   1.791   3.903
   22DPPC   C45 1095   2.703   1.739   3.761
   22DPPC   C46 1096   2.762   1.823   3.647
   22DPPC   C47 1097   2.724   1.763   3.511
   22DPPC   C48 1098   2.797   1.634   3.472
   22DPPC   C49 1099   2.772   1.579   3.331
   22DPPC   C50 1100   2.808   1.682   3.223
   23DPPC    C1 1101   1.402   7.359   5.035
   23DPPC    C2 1102   1.497   7.161   5.097
   23DPPC    C3 1103   1.348   7.145   4.924
   23DPPC    N4 1104   1.452   7.233   4.977
   23DPPC    C5 1105   1.564   7.245   4.883
   23DPPC    C6 1106   1.560   7.320   4.749
   23DPPC    O7 1107   1.483   7.273   4.638
   23DPPC    P8 1108   1.419   7.395   4.554
   23DPPC    O9 1109   1.464   7.523   4.615
   23DPPC   O10 1110   1.279   7.361   4.525
   23DPPC   O11 1111   1.509   7.369   4.424
   23DPPC   C12 1112   1.463   7.250   4.359
   23DPPC   C13 1113   1.491   7.240   4.209
   23DPPC   O14 1114   1.631   7.243   4.181
   23DPPC   C15 1115   1.676   7.133   4.114
   23DPPC   O16 1116   1.611   7.029   4.118
   23DPPC   C17 1117   1.821   7.157   4.069
   23DPPC   C18 1118   1.837   7.251   3.950
   23DPPC   C19 1119   1.975   7.313   3.933
   23DPPC   C20 1120   1.981   7.429   3.834
   23DPPC   C21 1121   1.963   7.562   3.908
   23DPPC   C22 1122   1.950   7.660   3.792
   23DPPC   C23 1123   1.924   7.804   3.837
   23DPPC   C24 1124   1.901   7.902   3.722
   23DPPC   C25 1125   1.874   8.037   3.788
   23DPPC   C26 1126   1.881   8.152   3.686
   23DPPC   C27 1127   1.836   8.292   3.728
   23DPPC   C28 1128   1.685   8.288   3.749
   23DPPC   C29 1129   1.632   8.272   3.607
   23DPPC   C30 1130   1.481   8.248   3.618
   23DPPC   C31 1131   1.420   8.240   3.477
   23DPPC   C32 1132   1.419   7.365   4.157
   23DPPC   O33 1133   1.449   7.390   4.020
   23DPPC   C34 1134   1.389   7.493   3.955
   23DPPC   O35 1135   1.310   7.562   4.018
   23DPPC   C36 1136   1.441   7.519   3.813
   23DPPC   C37 1137   1.555   7.621   3.810
   23DPPC   C38 1138   1.609   7.642   3.668
   23DPPC   C39 1139   1.666   7.509   3.619
   23DPPC   C40 1140   1.696   7.526   3.470
   23DPPC   C41 1141   1.749   7.400   3.401
   23DPPC   C42 1142   1.633   7.303   3.376
   23DPPC   C43 1143   1.670   7.155   3.385
   23DPPC   C44 1144   1.558   7.071   3.324
   23DPPC   C45 1145   1.531   7.128   3.184
   23DPPC   C46 1146   1.429   7.035   3.119
   23DPPC   C47 1147   1.399   7.073   2.973
   23DPPC   C48 1148   1.310   6.983   2.888
   23DPPC   C49 1149   1.177   6.943   2.952
   23DPPC   C50 1150   1.061   6.990   2.865
   24DPPC    C1 1151   3.207   5.411   5.157
   24DPPC    C2 1152   3.367   5.448   5.326
   24DPPC    C3 1153   3.210   5.614   5.279
   24DPPC    N4 1154   3.225   5.469   5.291
   24DPPC    C5 1155   3.142   5.408   5.396
   24DPPC    C6 1156   3.157   5.258   5.421
   24DPPC    O7 1157   3.059   5.181   5.350
   24DPPC    P8 1158   3.095   5.027   5.379
   24DPPC    O9 1159   2.989   4.949   5.311
   24DPPC   O10 1160   3.129   5.023   5.523
   24DPPC   O11 1161   3.234   5.012   5.300
   24DPPC   C12 1162   3.196   4.991   5.163
   24DPPC   C13 1163   3.315   4.985   5.067
   24DPPC   O14 1164   3.256   4.998   4.937
   24DPPC   C15 1165   3.228   5.119   4.882
   24DPPC   O16 1166   3.286   5.221   4.919
   24DPPC   C17 1167   3.160   5.112   4.745
   24DPPC   C18 1168   3.253   5.155   4.632
   24DPPC   C19 1169   3.350   5.047   4.584
   24DPPC   C20 1170   3.492   5.106   4.592
   24DPPC   C21 1171   3.579   5.009   4.511
   24DPPC   C22 1172   3.721   5.057   4.481
   24DPPC   C23 1173   3.784   4.971   4.372
   24DPPC   C24 1174   3.922   5.018   4.328
   24DPPC   C25 1175   3.979   4.957   4.199
   24DPPC   C26 1176   4.106   5.035   4.166
   24DPPC   C27 1177   4.169   4.989   4.034
   24DPPC   C28 1178   4.276   5.091   3.996
   24DPPC   C29 1179   4.372   5.032   3.892
   24DPPC   C30 1180   4.485   5.129   3.859
   24DPPC   C31 1181   4.586   5.174   3.965
   24DPPC   C32 1182   3.368   4.844   5.088
   24DPPC   O33 1183   3.280   4.732   5.080
   24DPPC   C34 1184   3.333   4.607   5.089
   24DPPC   O35 1185   3.448   4.593   5.130
   24DPPC   C36 1186   3.257   4.487   5.033
   24DPPC   C37 1187   3.313   4.439   4.899
   24DPPC   C38 1188   3.307   4.548   4.792
   24DPPC   C39 1189   3.356   4.498   4.656
   24DPPC   C40 1190   3.394   4.610   4.558
   24DPPC   C41 1191   3.416   4.553   4.418
   24DPPC   C42 1192   3.480   4.660   4.330
   24DPPC   C43 1193   3.533   4.605   4.197
   24DPPC   C44 1194   3.618   4.713   4.131
   24DPPC   C45 1195   3.692   4.681   4.000
   24DPPC   C46 1196   3.788   4.790   3.953
   24DPPC   C47 1197   3.883   4.735   3.846
   24DPPC   C48 1198   3.944   4.839   3.752
   24DPPC   C49 1199   4.017   4.778   3.632
   24DPPC   C50 1200   4.105   4.666   3.687
   25DPPC    C1 1201   3.936   5.440   5.279
   25DPPC    C2 1202   3.889   5.602   5.112
   25DPPC    C3 1203   3.746   5.410   5.167
   25DPPC    N4 1204   3.829   5.520   5.218
   25DPPC    C5 1205   3.774   5.597   5.331
   25DPPC    C6 1206   3.708   5.732   5.300
   25DPPC    O7 1207   3.595   5.711   5.214
   25DPPC    P8 1208   3.499   5.836   5.185
   25DPPC    O9 1209   3.600   5.923   5.120
   25DPPC   O10 1210   3.420   5.885   5.301
   25DPPC   O11 1211   3.410   5.753   5.080
   25DPPC   C12 1212   3.504   5.719   4.978
   25DPPC   C13 1213   3.465   5.659   4.843
   25DPPC   O14 1214   3.570   5.595   4.769
   25DPPC   C15 1215   3.627   5.476   4.802
   25DPPC   O16 1216   3.603   5.427   4.912
   25DPPC   C17 1217   3.717   5.412   4.696
   25DPPC   C18 1218   3.794   5.524   4.627
   25DPPC   C19 1219   3.829   5.465   4.490
   25DPPC   C20 1220   3.942   5.362   4.500
   25DPPC   C21 1221   4.087   5.411   4.509
   25DPPC   C22 1222   4.182   5.303   4.458
   25DPPC   C23 1223   4.316   5.325   4.529
   25DPPC   C24 1224   4.433   5.254   4.462
   25DPPC   C25 1225   4.556   5.230   4.550
   25DPPC   C26 1226   4.674   5.205   4.456
   25DPPC   C27 1227   4.771   5.323   4.450
   25DPPC   C28 1228   4.888   5.277   4.363
   25DPPC   C29 1229   4.971   5.403   4.336
   25DPPC   C30 1230   5.069   5.354   4.229
   25DPPC   C31 1231   4.998   5.285   4.113
   25DPPC   C32 1232   3.404   5.781   4.773
   25DPPC   O33 1233   3.496   5.889   4.756
   25DPPC   C34 1234   3.439   6.003   4.707
   25DPPC   O35 1235   3.325   6.039   4.737
   25DPPC   C36 1236   3.542   6.105   4.660
   25DPPC   C37 1237   3.557   6.090   4.509
   25DPPC   C38 1238   3.655   5.976   4.476
   25DPPC   C39 1239   3.715   5.979   4.335
   25DPPC   C40 1240   3.621   5.918   4.231
   25DPPC   C41 1241   3.678   5.914   4.089
   25DPPC   C42 1242   3.808   5.835   4.081
   25DPPC   C43 1243   3.802   5.687   4.119
   25DPPC   C44 1244   3.921   5.596   4.088
   25DPPC   C45 1245   3.940   5.569   3.939
   25DPPC   C46 1246   4.059   5.483   3.896
   25DPPC   C47 1247   4.044   5.423   3.756
   25DPPC   C48 1248   4.161   5.335   3.711
   25DPPC   C49 1249   4.130   5.251   3.587
   25DPPC   C50 1250   4.261   5.184   3.544
   26DPPC    C1 1251   3.625   2.707   5.816
   26DPPC    C2 1252   3.620   2.558   5.642
   26DPPC    C3 1253   3.619   2.775   5.581
   26DPPC    N4 1254   3.680   2.686   5.680
   26DPPC    C5 1255   3.825   2.677   5.663
   26DPPC    C6 1256   3.901   2.806   5.697
   26DPPC    O7 1257   3.914   2.901   5.590
   26DPPC    P8 1258   3.972   3.036   5.655
   26DPPC    O9 1259   3.942   3.032   5.800
   26DPPC   O10 1260   3.973   3.162   5.577
   26DPPC   O11 1261   4.123   2.979   5.656
   26DPPC   C12 1262   4.210   3.030   5.555
   26DPPC   C13 1263   4.347   2.963   5.557
   26DPPC   O14 1264   4.423   2.998   5.440
   26DPPC   C15 1265   4.490   3.114   5.418
   26DPPC   O16 1266   4.474   3.200   5.504
   26DPPC   C17 1267   4.536   3.144   5.275
   26DPPC   C18 1268   4.686   3.174   5.279
   26DPPC   C19 1269   4.739   3.197   5.137
   26DPPC   C20 1270   4.887   3.234   5.125
   26DPPC   C21 1271   4.914   3.223   4.974
   26DPPC   C22 1272   4.912   3.076   4.932
   26DPPC   C23 1273   4.925   3.075   4.780
   26DPPC   C24 1274   4.895   2.945   4.704
   26DPPC   C25 1275   4.927   2.945   4.554
   26DPPC   C26 1276   4.890   2.813   4.486
   26DPPC   C27 1277   4.904   2.823   4.334
   26DPPC   C28 1278   4.865   2.704   4.246
   26DPPC   C29 1279   4.852   2.750   4.101
   26DPPC   C30 1280   4.827   2.629   4.011
   26DPPC   C31 1281   4.848   2.655   3.862
   26DPPC   C32 1282   4.314   2.814   5.557
   26DPPC   O33 1283   4.227   2.770   5.453
   26DPPC   C34 1284   4.171   2.646   5.465
   26DPPC   O35 1285   4.174   2.603   5.580
   26DPPC   C36 1286   4.095   2.601   5.340
   26DPPC   C37 1287   4.176   2.514   5.243
   26DPPC   C38 1288   4.091   2.489   5.119
   26DPPC   C39 1289   4.045   2.621   5.058
   26DPPC   C40 1290   4.026   2.590   4.909
   26DPPC   C41 1291   3.998   2.718   4.830
   26DPPC   C42 1292   4.001   2.685   4.681
   26DPPC   C43 1293   4.003   2.817   4.605
   26DPPC   C44 1294   4.143   2.877   4.609
   26DPPC   C45 1295   4.141   3.000   4.519
   26DPPC   C46 1296   4.088   2.962   4.380
   26DPPC   C47 1297   4.044   3.076   4.288
   26DPPC   C48 1298   3.992   3.039   4.149
   26DPPC   C49 1299   3.962   3.156   4.054
   26DPPC   C50 1300   3.873   3.265   4.115
   27DPPC    C1 1301   3.723   0.244   5.365
   27DPPC    C2 1302   3.611   0.430   5.294
   27DPPC    C3 1303   3.793   0.360   5.159
   27DPPC    N4 1304   3.682   0.311   5.241
   27DPPC    C5 1305   3.585   0.221   5.178
   27DPPC    C6 1306   3.629   0.082   5.132
   27DPPC    O7 1307   3.741   0.075   5.043
   27DPPC    P8 1308   3.790  -0.078   5.053
   27DPPC    O9 1309   3.680  -0.158   5.112
   27DPPC   O10 1310   3.927  -0.074   5.109
   27DPPC   O11 1311   3.797  -0.121   4.898
   27DPPC   C12 1312   3.906  -0.048   4.841
   27DPPC   C13 1313   3.901  -0.030   4.689
   27DPPC   O14 1314   3.831   0.090   4.654
   27DPPC   C15 1315   3.907   0.182   4.589
   27DPPC   O16 1316   4.021   0.206   4.630
   27DPPC   C17 1317   3.822   0.298   4.536
   27DPPC   C18 1318   3.883   0.366   4.413
   27DPPC   C19 1319   3.798   0.487   4.372
   27DPPC   C20 1320   3.865   0.546   4.248
   27DPPC   C21 1321   3.844   0.453   4.128
   27DPPC   C22 1322   3.953   0.475   4.022
   27DPPC   C23 1323   3.953   0.417   3.881
   27DPPC   C24 1324   4.054   0.487   3.790
   27DPPC   C25 1325   4.055   0.408   3.659
   27DPPC   C26 1326   4.136   0.283   3.692
   27DPPC   C27 1327   4.122   0.179   3.581
   27DPPC   C28 1328   4.193   0.045   3.599
   27DPPC   C29 1329   4.173  -0.069   3.498
   27DPPC   C30 1330   4.022  -0.070   3.474
   27DPPC   C31 1331   3.965  -0.209   3.503
   27DPPC   C32 1332   3.831  -0.155   4.636
   27DPPC   O33 1333   3.902  -0.278   4.644
   27DPPC   C34 1334   3.832  -0.392   4.619
   27DPPC   O35 1335   3.710  -0.408   4.611
   27DPPC   C36 1336   3.924  -0.514   4.610
   27DPPC   C37 1337   3.972  -0.562   4.473
   27DPPC   C38 1338   4.055  -0.452   4.407
   27DPPC   C39 1339   4.094  -0.499   4.267
   27DPPC   C40 1340   4.203  -0.398   4.228
   27DPPC   C41 1341   4.260  -0.437   4.091
   27DPPC   C42 1342   4.345  -0.321   4.038
   27DPPC   C43 1343   4.417  -0.361   3.909
   27DPPC   C44 1344   4.514  -0.253   3.860
   27DPPC   C45 1345   4.573  -0.308   3.729
   27DPPC   C46 1346   4.471  -0.295   3.616
   27DPPC   C47 1347   4.538  -0.350   3.490
   27DPPC   C48 1348   4.453  -0.349   3.363
   27DPPC   C49 1349   4.561  -0.397   3.267
   27DPPC   C50 1350   4.580  -0.549   3.255
   28DPPC    C1 1351   8.696   2.528   5.445
   28DPPC    C2 1352   8.754   2.530   5.674
   28DPPC    C3 1353   8.702   2.734   5.563
   28DPPC    N4 1354   8.666   2.592   5.574
   28DPPC    C5 1355   8.536   2.538   5.617
   28DPPC    C6 1356   8.411   2.602   5.556
   28DPPC    O7 1357   8.364   2.695   5.654
   28DPPC    P8 1358   8.237   2.783   5.609
   28DPPC    O9 1359   8.248   2.899   5.700
   28DPPC   O10 1360   8.131   2.680   5.615
   28DPPC   O11 1361   8.309   2.811   5.468
   28DPPC   C12 1362   8.213   2.836   5.365
   28DPPC   C13 1363   8.287   2.900   5.247
   28DPPC   O14 1364   8.202   2.959   5.147
   28DPPC   C15 1365   8.240   3.075   5.087
   28DPPC   O16 1366   8.356   3.114   5.102
   28DPPC   C17 1367   8.151   3.123   4.972
   28DPPC   C18 1368   8.011   3.162   5.020
   28DPPC   C19 1369   7.903   3.165   4.912
   28DPPC   C20 1370   7.935   3.263   4.800
   28DPPC   C21 1371   7.847   3.238   4.677
   28DPPC   C22 1372   7.881   3.345   4.574
   28DPPC   C23 1373   7.796   3.306   4.453
   28DPPC   C24 1374   7.790   3.426   4.359
   28DPPC   C25 1375   7.737   3.389   4.220
   28DPPC   C26 1376   7.787   3.498   4.125
   28DPPC   C27 1377   7.720   3.488   3.988
   28DPPC   C28 1378   7.739   3.618   3.909
   28DPPC   C29 1379   7.627   3.631   3.806
   28DPPC   C30 1380   7.650   3.752   3.715
   28DPPC   C31 1381   7.542   3.747   3.606
   28DPPC   C32 1382   8.386   2.795   5.196
   28DPPC   O33 1383   8.322   2.674   5.157
   28DPPC   C34 1384   8.395   2.567   5.113
   28DPPC   O35 1385   8.510   2.552   5.154
   28DPPC   C36 1386   8.316   2.450   5.053
   28DPPC   C37 1387   8.290   2.471   4.904
   28DPPC   C38 1388   8.183   2.576   4.873
   28DPPC   C39 1389   8.166   2.586   4.722
   28DPPC   C40 1390   8.076   2.704   4.684
   28DPPC   C41 1391   8.046   2.710   4.534
   28DPPC   C42 1392   7.976   2.844   4.510
   28DPPC   C43 1393   7.928   2.863   4.366
   28DPPC   C44 1394   7.999   2.982   4.302
   28DPPC   C45 1395   7.969   3.004   4.153
   28DPPC   C46 1396   8.022   3.138   4.100
   28DPPC   C47 1397   7.986   3.127   3.951
   28DPPC   C48 1398   8.017   3.263   3.889
   28DPPC   C49 1399   7.961   3.257   3.747
   28DPPC   C50 1400   7.999   3.374   3.656
   29DPPC    C1 1401   0.497   4.854   5.148
   29DPPC    C2 1402   0.434   4.765   4.948
   29DPPC    C3 1403   0.269   4.858   5.047
   29DPPC    N4 1404   0.413   4.884   5.032
   29DPPC    C5 1405   0.452   5.003   4.955
   29DPPC    C6 1406   0.430   5.136   5.027
   29DPPC    O7 1407   0.497   5.241   4.957
   29DPPC    P8 1408   0.445   5.385   5.008
   29DPPC    O9 1409   0.554   5.430   5.098
   29DPPC   O10 1410   0.315   5.354   5.071
   29DPPC   O11 1411   0.462   5.456   4.865
   29DPPC   C12 1412   0.373   5.404   4.766
   29DPPC   C13 1413   0.396   5.468   4.630
   29DPPC   O14 1414   0.293   5.430   4.537
   29DPPC   C15 1415   0.185   5.510   4.516
   29DPPC   O16 1416   0.163   5.610   4.584
   29DPPC   C17 1417   0.099   5.483   4.392
   29DPPC   C18 1418   0.176   5.522   4.266
   29DPPC   C19 1419   0.105   5.461   4.145
   29DPPC   C20 1420   0.203   5.446   4.028
   29DPPC   C21 1421   0.135   5.423   3.893
   29DPPC   C22 1422   0.019   5.518   3.862
   29DPPC   C23 1423  -0.069   5.492   3.740
   29DPPC   C24 1424  -0.150   5.612   3.691
   29DPPC   C25 1425  -0.211   5.610   3.551
   29DPPC   C26 1426  -0.333   5.519   3.535
   29DPPC   C27 1427  -0.414   5.530   3.406
   29DPPC   C28 1428  -0.538   5.440   3.395
   29DPPC   C29 1429  -0.606   5.460   3.260
   29DPPC   C30 1430  -0.665   5.601   3.270
   29DPPC   C31 1431  -0.746   5.646   3.148
   29DPPC   C32 1432   0.540   5.433   4.592
   29DPPC   O33 1433   0.578   5.295   4.588
   29DPPC   C34 1434   0.705   5.274   4.546
   29DPPC   O35 1435   0.769   5.369   4.499
   29DPPC   C36 1436   0.758   5.132   4.566
   29DPPC   C37 1437   0.842   5.095   4.444
   29DPPC   C38 1438   0.927   4.969   4.455
   29DPPC   C39 1439   1.016   4.951   4.332
   29DPPC   C40 1440   0.943   4.941   4.198
   29DPPC   C41 1441   1.039   4.906   4.084
   29DPPC   C42 1442   0.970   4.930   3.949
   29DPPC   C43 1443   1.060   4.917   3.826
   29DPPC   C44 1444   0.987   4.954   3.697
   29DPPC   C45 1445   1.068   4.930   3.569
   29DPPC   C46 1446   0.997   5.003   3.455
   29DPPC   C47 1447   1.067   4.977   3.322
   29DPPC   C48 1448   1.020   5.067   3.208
   29DPPC   C49 1449   1.114   5.056   3.088
   29DPPC   C50 1450   1.068   5.137   2.967
   30DPPC    C1 1451   6.783   1.967   6.029
   30DPPC    C2 1452   6.967   1.945   5.869
   30DPPC    C3 1453   6.771   2.020   5.786
   30DPPC    N4 1454   6.849   2.022   5.910
   30DPPC    C5 1455   6.903   2.157   5.934
   30DPPC    C6 1456   6.806   2.258   5.995
   30DPPC    O7 1457   6.862   2.390   6.003
   30DPPC    P8 1458   6.764   2.489   5.922
   30DPPC    O9 1459   6.811   2.627   5.945
   30DPPC   O10 1460   6.621   2.460   5.945
   30DPPC   O11 1461   6.793   2.454   5.768
   30DPPC   C12 1462   6.748   2.569   5.696
   30DPPC   C13 1463   6.824   2.574   5.564
   30DPPC   O14 1464   6.779   2.670   5.467
   30DPPC   C15 1465   6.857   2.781   5.456
   30DPPC   O16 1466   6.935   2.818   5.544
   30DPPC   C17 1467   6.830   2.868   5.332
   30DPPC   C18 1468   6.772   3.008   5.355
   30DPPC   C19 1469   6.753   3.094   5.231
   30DPPC   C20 1470   6.887   3.151   5.183
   30DPPC   C21 1471   6.875   3.221   5.047
   30DPPC   C22 1472   7.005   3.295   5.014
   30DPPC   C23 1473   6.978   3.386   4.894
   30DPPC   C24 1474   6.854   3.475   4.909
   30DPPC   C25 1475   6.860   3.561   4.783
   30DPPC   C26 1476   6.928   3.693   4.820
   30DPPC   C27 1477   6.961   3.767   4.690
   30DPPC   C28 1478   6.839   3.799   4.604
   30DPPC   C29 1479   6.760   3.903   4.683
   30DPPC   C30 1480   6.609   3.880   4.669
   30DPPC   C31 1481   6.573   3.896   4.522
   30DPPC   C32 1482   6.818   2.436   5.497
   30DPPC   O33 1483   6.896   2.411   5.380
   30DPPC   C34 1484   6.920   2.283   5.340
   30DPPC   O35 1485   6.829   2.212   5.382
   30DPPC   C36 1486   7.043   2.251   5.255
   30DPPC   C37 1487   7.012   2.225   5.108
   30DPPC   C38 1488   6.988   2.349   5.020
   30DPPC   C39 1489   6.989   2.310   4.872
   30DPPC   C40 1490   6.967   2.437   4.790
   30DPPC   C41 1491   6.933   2.392   4.648
   30DPPC   C42 1492   6.824   2.488   4.599
   30DPPC   C43 1493   6.794   2.496   4.449
   30DPPC   C44 1494   6.676   2.590   4.426
   30DPPC   C45 1495   6.662   2.619   4.276
   30DPPC   C46 1496   6.535   2.697   4.245
   30DPPC   C47 1497   6.520   2.815   4.341
   30DPPC   C48 1498   6.406   2.909   4.302
   30DPPC   C49 1499   6.414   3.032   4.394
   30DPPC   C50 1500   6.305   3.125   4.342
   31DPPC    C1 1501   5.956   7.132   5.157
   31DPPC    C2 1502   6.090   7.128   4.959
   31DPPC    C3 1503   6.175   7.154   5.187
   31DPPC    N4 1504   6.082   7.082   5.099
   31DPPC    C5 1505   6.094   6.939   5.131
   31DPPC    C6 1506   6.030   6.834   5.041
   31DPPC    O7 1507   5.888   6.846   5.047
   31DPPC    P8 1508   5.806   6.768   5.161
   31DPPC    O9 1509   5.795   6.867   5.271
   31DPPC   O10 1510   5.889   6.649   5.191
   31DPPC   O11 1511   5.665   6.739   5.090
   31DPPC   C12 1512   5.694   6.672   4.967
   31DPPC   C13 1513   5.601   6.555   4.934
   31DPPC   O14 1514   5.640   6.472   4.823
   31DPPC   C15 1515   5.631   6.339   4.847
   31DPPC   O16 1516   5.660   6.305   4.962
   31DPPC   C17 1517   5.647   6.250   4.723
   31DPPC   C18 1518   5.511   6.222   4.660
   31DPPC   C19 1519   5.541   6.181   4.515
   31DPPC   C20 1520   5.421   6.174   4.421
   31DPPC   C21 1521   5.464   6.121   4.284
   31DPPC   C22 1522   5.334   6.089   4.210
   31DPPC   C23 1523   5.243   6.212   4.208
   31DPPC   C24 1524   5.132   6.187   4.107
   31DPPC   C25 1525   5.052   6.317   4.093
   31DPPC   C26 1526   4.979   6.308   3.959
   31DPPC   C27 1527   4.934   6.452   3.932
   31DPPC   C28 1528   4.829   6.487   4.038
   31DPPC   C29 1529   4.757   6.616   3.996
   31DPPC   C30 1530   4.641   6.639   4.092
   31DPPC   C31 1531   4.702   6.678   4.227
   31DPPC   C32 1532   5.461   6.616   4.933
   31DPPC   O33 1533   5.443   6.718   4.835
   31DPPC   C34 1534   5.333   6.798   4.839
   31DPPC   O35 1535   5.238   6.767   4.911
   31DPPC   C36 1536   5.341   6.917   4.744
   31DPPC   C37 1537   5.304   6.881   4.600
   31DPPC   C38 1538   5.320   7.007   4.515
   31DPPC   C39 1539   5.283   6.959   4.374
   31DPPC   C40 1540   5.304   7.062   4.263
   31DPPC   C41 1541   5.429   7.144   4.293
   31DPPC   C42 1542   5.451   7.248   4.183
   31DPPC   C43 1543   5.591   7.311   4.179
   31DPPC   C44 1544   5.621   7.410   4.291
   31DPPC   C45 1545   5.523   7.526   4.268
   31DPPC   C46 1546   5.544   7.626   4.382
   31DPPC   C47 1547   5.492   7.572   4.515
   31DPPC   C48 1548   5.347   7.525   4.504
   31DPPC   C49 1549   5.278   7.541   4.639
   31DPPC   C50 1550   5.146   7.463   4.644
   32DPPC    C1 1551   1.092   7.650   4.702
   32DPPC    C2 1552   0.975   7.855   4.684
   32DPPC    C3 1553   0.960   7.676   4.517
   32DPPC    N4 1554   0.965   7.710   4.660
   32DPPC    C5 1555   0.861   7.640   4.737
   32DPPC    C6 1556   0.729   7.711   4.765
   32DPPC    O7 1557   0.655   7.736   4.645
   32DPPC    P8 1558   0.543   7.850   4.666
   32DPPC    O9 1559   0.613   7.980   4.674
   32DPPC   O10 1560   0.441   7.810   4.765
   32DPPC   O11 1561   0.482   7.828   4.518
   32DPPC   C12 1562   0.578   7.867   4.421
   32DPPC   C13 1563   0.544   7.809   4.283
   32DPPC   O14 1564   0.641   7.827   4.178
   32DPPC   C15 1565   0.618   7.744   4.074
   32DPPC   O16 1566   0.563   7.637   4.099
   32DPPC   C17 1567   0.684   7.773   3.939
   32DPPC   C18 1568   0.797   7.675   3.910
   32DPPC   C19 1569   0.878   7.705   3.784
   32DPPC   C20 1570   1.028   7.712   3.812
   32DPPC   C21 1571   1.116   7.726   3.688
   32DPPC   C22 1572   1.094   7.608   3.593
   32DPPC   C23 1573   1.188   7.607   3.473
   32DPPC   C24 1574   1.160   7.500   3.367
   32DPPC   C25 1575   1.165   7.367   3.443
   32DPPC   C26 1576   1.140   7.258   3.339
   32DPPC   C27 1577   0.999   7.277   3.282
   32DPPC   C28 1578   0.961   7.162   3.188
   32DPPC   C29 1579   0.951   7.031   3.267
   32DPPC   C30 1580   0.819   7.026   3.344
   32DPPC   C31 1581   0.810   6.880   3.391
   32DPPC   C32 1582   0.403   7.857   4.248
   32DPPC   O33 1583   0.395   7.995   4.212
   32DPPC   C34 1584   0.268   8.037   4.187
   32DPPC   O35 1585   0.174   7.958   4.176
   32DPPC   C36 1586   0.248   8.188   4.170
   32DPPC   C37 1587   0.144   8.232   4.067
   32DPPC   C38 1588   0.157   8.381   4.037
   32DPPC   C39 1589   0.034   8.414   3.952
   32DPPC   C40 1590   0.041   8.558   3.899
   32DPPC   C41 1591  -0.015   8.572   3.757
   32DPPC   C42 1592  -0.020   8.716   3.708
   32DPPC   C43 1593  -0.039   8.727   3.556
   32DPPC   C44 1594  -0.174   8.678   3.505
   32DPPC   C45 1595  -0.164   8.695   3.354
   32DPPC   C46 1596  -0.294   8.668   3.277
   32DPPC   C47 1597  -0.272   8.683   3.126
   32DPPC   C48 1598  -0.397   8.643   3.046
   32DPPC   C49 1599  -0.379   8.624   2.896
   32DPPC   C50 1600  -0.269   8.518   2.884
   33DPPC    C1 1601   2.305   2.398   5.217
   33DPPC    C2 1602   2.186   2.586   5.174
   33DPPC    C3 1603   2.302   2.493   4.991
   33DPPC    N4 1604   2.224   2.459   5.111
   33DPPC    C5 1605   2.114   2.377   5.057
   33DPPC    C6 1606   2.001   2.329   5.148
   33DPPC    O7 1607   1.886   2.269   5.088
   33DPPC    P8 1608   1.762   2.368   5.060
   33DPPC    O9 1609   1.786   2.473   5.161
   33DPPC   O10 1610   1.644   2.279   5.057
   33DPPC   O11 1611   1.804   2.423   4.915
   33DPPC   C12 1612   1.760   2.335   4.811
   33DPPC   C13 1613   1.772   2.400   4.673
   33DPPC   O14 1614   1.697   2.329   4.572
   33DPPC   C15 1615   1.574   2.384   4.552
   33DPPC   O16 1616   1.551   2.490   4.609
   33DPPC   C17 1617   1.497   2.338   4.428
   33DPPC   C18 1618   1.419   2.449   4.356
   33DPPC   C19 1619   1.361   2.420   4.218
   33DPPC   C20 1620   1.280   2.539   4.167
   33DPPC   C21 1621   1.196   2.505   4.043
   33DPPC   C22 1622   1.095   2.392   4.063
   33DPPC   C23 1623   1.022   2.382   3.929
   33DPPC   C24 1624   1.117   2.337   3.818
   33DPPC   C25 1625   1.032   2.337   3.691
   33DPPC   C26 1626   1.105   2.251   3.588
   33DPPC   C27 1627   1.249   2.300   3.608
   33DPPC   C28 1628   1.341   2.228   3.509
   33DPPC   C29 1629   1.492   2.237   3.529
   33DPPC   C30 1630   1.564   2.153   3.422
   33DPPC   C31 1631   1.649   2.230   3.320
   33DPPC   C32 1632   1.923   2.409   4.651
   33DPPC   O33 1633   2.002   2.290   4.663
   33DPPC   C34 1634   2.137   2.304   4.654
   33DPPC   O35 1635   2.185   2.416   4.672
   33DPPC   C36 1636   2.234   2.197   4.604
   33DPPC   C37 1637   2.162   2.072   4.552
   33DPPC   C38 1638   2.143   2.080   4.400
   33DPPC   C39 1639   2.093   1.946   4.345
   33DPPC   C40 1640   2.088   1.949   4.193
   33DPPC   C41 1641   2.072   1.809   4.133
   33DPPC   C42 1642   2.065   1.826   3.981
   33DPPC   C43 1643   2.192   1.901   3.939
   33DPPC   C44 1644   2.208   1.900   3.786
   33DPPC   C45 1645   2.127   2.022   3.742
   33DPPC   C46 1646   2.161   2.059   3.597
   33DPPC   C47 1647   2.086   2.180   3.540
   33DPPC   C48 1648   2.137   2.218   3.401
   33DPPC   C49 1649   2.039   2.326   3.354
   33DPPC   C50 1650   2.055   2.350   3.203
   34DPPC    C1 1651   2.936   4.433   5.399
   34DPPC    C2 1652   2.858   4.566   5.237
   34DPPC    C3 1653   2.870   4.675   5.449
   34DPPC    N4 1654   2.935   4.575   5.362
   34DPPC    C5 1655   3.068   4.628   5.330
   34DPPC    C6 1656   3.170   4.613   5.443
   34DPPC    O7 1657   3.276   4.705   5.418
   34DPPC    P8 1658   3.379   4.696   5.541
   34DPPC    O9 1659   3.302   4.693   5.668
   34DPPC   O10 1660   3.511   4.762   5.532
   34DPPC   O11 1661   3.403   4.538   5.521
   34DPPC   C12 1662   3.505   4.512   5.423
   34DPPC   C13 1663   3.569   4.374   5.426
   34DPPC   O14 1664   3.664   4.336   5.325
   34DPPC   C15 1665   3.788   4.390   5.331
   34DPPC   O16 1666   3.816   4.485   5.404
   34DPPC   C17 1667   3.899   4.338   5.239
   34DPPC   C18 1668   3.936   4.413   5.110
   34DPPC   C19 1669   3.818   4.430   5.015
   34DPPC   C20 1670   3.844   4.518   4.893
   34DPPC   C21 1671   3.715   4.559   4.822
   34DPPC   C22 1672   3.743   4.625   4.688
   34DPPC   C23 1673   3.795   4.528   4.582
   34DPPC   C24 1674   3.838   4.611   4.461
   34DPPC   C25 1675   3.886   4.521   4.346
   34DPPC   C26 1676   4.022   4.564   4.292
   34DPPC   C27 1677   4.092   4.451   4.216
   34DPPC   C28 1678   4.225   4.506   4.164
   34DPPC   C29 1679   4.298   4.415   4.065
   34DPPC   C30 1680   4.446   4.447   4.038
   34DPPC   C31 1681   4.457   4.586   3.974
   34DPPC   C32 1682   3.451   4.279   5.452
   34DPPC   O33 1683   3.346   4.278   5.354
   34DPPC   C34 1684   3.255   4.178   5.358
   34DPPC   O35 1685   3.221   4.149   5.473
   34DPPC   C36 1686   3.176   4.160   5.228
   34DPPC   C37 1687   3.177   4.013   5.185
   34DPPC   C38 1688   3.117   4.017   5.044
   34DPPC   C39 1689   3.222   4.067   4.945
   34DPPC   C40 1690   3.166   4.057   4.803
   34DPPC   C41 1691   3.250   3.969   4.711
   34DPPC   C42 1692   3.161   3.930   4.593
   34DPPC   C43 1693   3.258   3.879   4.486
   34DPPC   C44 1694   3.200   3.863   4.345
   34DPPC   C45 1695   3.311   3.797   4.264
   34DPPC   C46 1696   3.266   3.790   4.117
   34DPPC   C47 1697   3.283   3.927   4.052
   34DPPC   C48 1698   3.250   3.920   3.903
   34DPPC   C49 1699   3.297   4.052   3.841
   34DPPC   C50 1700   3.287   4.045   3.688
   35DPPC    C1 1701   1.456   2.749   1.352
   35DPPC    C2 1702   1.357   2.952   1.438
   35DPPC    C3 1703   1.420   2.770   1.584
   35DPPC    N4 1704   1.455   2.845   1.463
   35DPPC    C5 1705   1.590   2.902   1.475
   35DPPC    C6 1706   1.648   2.979   1.356
   35DPPC    O7 1707   1.765   3.053   1.391
   35DPPC    P8 1708   1.765   3.187   1.303
   35DPPC    O9 1709   1.685   3.171   1.180
   35DPPC   O10 1710   1.880   3.280   1.313
   35DPPC   O11 1711   1.643   3.249   1.388
   35DPPC   C12 1712   1.698   3.312   1.505
   35DPPC   C13 1713   1.573   3.374   1.567
   35DPPC   O14 1714   1.604   3.490   1.646
   35DPPC   C15 1715   1.671   3.595   1.592
   35DPPC   O16 1716   1.653   3.614   1.472
   35DPPC   C17 1717   1.724   3.699   1.692
   35DPPC   C18 1718   1.612   3.739   1.788
   35DPPC   C19 1719   1.675   3.767   1.925
   35DPPC   C20 1720   1.576   3.816   2.031
   35DPPC   C21 1721   1.655   3.829   2.161
   35DPPC   C22 1722   1.560   3.854   2.279
   35DPPC   C23 1723   1.643   3.882   2.405
   35DPPC   C24 1724   1.546   3.947   2.504
   35DPPC   C25 1725   1.623   4.045   2.593
   35DPPC   C26 1726   1.525   4.134   2.670
   35DPPC   C27 1727   1.465   4.047   2.781
   35DPPC   C28 1728   1.371   4.128   2.871
   35DPPC   C29 1729   1.333   4.040   2.990
   35DPPC   C30 1730   1.262   4.127   3.094
   35DPPC   C31 1731   1.350   4.248   3.125
   35DPPC   C32 1732   1.490   3.273   1.647
   35DPPC   O33 1733   1.570   3.173   1.711
   35DPPC   C34 1734   1.498   3.076   1.772
   35DPPC   O35 1735   1.386   3.046   1.729
   35DPPC   C36 1736   1.571   2.983   1.869
   35DPPC   C37 1737   1.675   3.054   1.956
   35DPPC   C38 1738   1.604   3.159   2.041
   35DPPC   C39 1739   1.707   3.212   2.141
   35DPPC   C40 1740   1.640   3.321   2.226
   35DPPC   C41 1741   1.677   3.327   2.374
   35DPPC   C42 1742   1.586   3.438   2.428
   35DPPC   C43 1743   1.580   3.435   2.580
   35DPPC   C44 1744   1.486   3.535   2.647
   35DPPC   C45 1745   1.487   3.527   2.800
   35DPPC   C46 1746   1.401   3.650   2.832
   35DPPC   C47 1747   1.256   3.607   2.809
   35DPPC   C48 1748   1.162   3.727   2.794
   35DPPC   C49 1749   1.020   3.670   2.789
   35DPPC   C50 1750   0.965   3.621   2.923
   36DPPC    C1 1751   6.132   6.432   1.707
   36DPPC    C2 1752   6.293   6.433   1.867
   36DPPC    C3 1753   6.309   6.595   1.683
   36DPPC    N4 1754   6.221   6.525   1.778
   36DPPC    C5 1755   6.144   6.617   1.864
   36DPPC    C6 1756   6.062   6.733   1.806
   36DPPC    O7 1757   6.135   6.840   1.746
   36DPPC    P8 1758   6.023   6.953   1.721
   36DPPC    O9 1759   5.897   6.881   1.691
   36DPPC   O10 1760   6.080   7.050   1.625
   36DPPC   O11 1761   6.013   7.011   1.871
   36DPPC   C12 1762   6.144   7.032   1.925
   36DPPC   C13 1763   6.159   7.105   2.059
   36DPPC   O14 1764   6.289   7.078   2.113
   36DPPC   C15 1765   6.382   7.175   2.091
   36DPPC   O16 1766   6.379   7.255   1.997
   36DPPC   C17 1767   6.516   7.171   2.164
   36DPPC   C18 1768   6.476   7.165   2.312
   36DPPC   C19 1769   6.601   7.157   2.399
   36DPPC   C20 1770   6.574   7.170   2.549
   36DPPC   C21 1771   6.690   7.167   2.649
   36DPPC   C22 1772   6.638   7.183   2.792
   36DPPC   C23 1773   6.757   7.171   2.886
   36DPPC   C24 1774   6.730   7.228   3.025
   36DPPC   C25 1775   6.854   7.292   3.088
   36DPPC   C26 1776   6.815   7.355   3.222
   36DPPC   C27 1777   6.741   7.252   3.309
   36DPPC   C28 1778   6.673   7.303   3.436
   36DPPC   C29 1779   6.765   7.367   3.540
   36DPPC   C30 1780   6.693   7.412   3.667
   36DPPC   C31 1781   6.805   7.464   3.757
   36DPPC   C32 1782   6.040   7.050   2.137
   36DPPC   O33 1783   5.996   7.131   2.246
   36DPPC   C34 1784   5.917   7.080   2.344
   36DPPC   O35 1785   5.851   6.980   2.316
   36DPPC   C36 1786   5.896   7.158   2.474
   36DPPC   C37 1787   6.017   7.138   2.566
   36DPPC   C38 1788   6.000   7.186   2.710
   36DPPC   C39 1789   5.886   7.108   2.774
   36DPPC   C40 1790   5.937   7.087   2.917
   36DPPC   C41 1791   5.821   7.036   3.002
   36DPPC   C42 1792   5.841   7.034   3.154
   36DPPC   C43 1793   5.753   6.928   3.222
   36DPPC   C44 1794   5.788   6.920   3.371
   36DPPC   C45 1795   5.677   6.858   3.456
   36DPPC   C46 1796   5.735   6.821   3.592
   36DPPC   C47 1797   5.635   6.874   3.696
   36DPPC   C48 1798   5.647   6.792   3.825
   36DPPC   C49 1799   5.564   6.863   3.932
   36DPPC   C50 1800   5.604   6.793   4.061
   37DPPC    C1 1801   8.450   3.090   1.583
   37DPPC    C2 1802   8.529   3.078   1.364
   37DPPC    C3 1803   8.338   3.208   1.393
   37DPPC    N4 1804   8.463   3.168   1.459
   37DPPC    C5 1805   8.557   3.279   1.477
   37DPPC    C6 1806   8.506   3.388   1.571
   37DPPC    O7 1807   8.600   3.496   1.577
   37DPPC    P8 1808   8.527   3.622   1.645
   37DPPC    O9 1809   8.422   3.561   1.729
   37DPPC   O10 1810   8.494   3.688   1.516
   37DPPC   O11 1811   8.655   3.689   1.716
   37DPPC   C12 1812   8.677   3.612   1.834
   37DPPC   C13 1813   8.741   3.687   1.951
   37DPPC   O14 1814   8.798   3.605   2.054
   37DPPC   C15 1815   8.906   3.525   2.031
   37DPPC   O16 1816   8.962   3.529   1.921
   37DPPC   C17 1817   8.957   3.436   2.144
   37DPPC   C18 1818   9.058   3.328   2.105
   37DPPC   C19 1819   9.091   3.251   2.234
   37DPPC   C20 1820   9.169   3.128   2.189
   37DPPC   C21 1821   9.193   3.022   2.297
   37DPPC   C22 1822   9.298   2.925   2.244
   37DPPC   C23 1823   9.326   2.832   2.362
   37DPPC   C24 1824   9.393   2.892   2.486
   37DPPC   C25 1825   9.537   2.935   2.461
   37DPPC   C26 1826   9.609   2.969   2.591
   37DPPC   C27 1827   9.654   2.852   2.678
   37DPPC   C28 1828   9.685   2.902   2.819
   37DPPC   C29 1829   9.702   2.785   2.916
   37DPPC   C30 1830   9.765   2.804   3.055
   37DPPC   C31 1831   9.673   2.889   3.142
   37DPPC   C32 1832   8.634   3.789   1.991
   37DPPC   O33 1833   8.512   3.723   2.025
   37DPPC   C34 1834   8.405   3.777   1.962
   37DPPC   O35 1835   8.412   3.848   1.861
   37DPPC   C36 1836   8.264   3.735   2.004
   37DPPC   C37 1837   8.255   3.732   2.156
   37DPPC   C38 1838   8.306   3.859   2.226
   37DPPC   C39 1839   8.248   3.888   2.364
   37DPPC   C40 1840   8.292   3.778   2.460
   37DPPC   C41 1841   8.204   3.781   2.585
   37DPPC   C42 1842   8.293   3.710   2.689
   37DPPC   C43 1843   8.246   3.727   2.834
   37DPPC   C44 1844   8.364   3.673   2.915
   37DPPC   C45 1845   8.344   3.711   3.062
   37DPPC   C46 1846   8.461   3.654   3.142
   37DPPC   C47 1847   8.462   3.692   3.290
   37DPPC   C48 1848   8.572   3.619   3.367
   37DPPC   C49 1849   8.680   3.723   3.396
   37DPPC   C50 1850   8.804   3.647   3.444
   38DPPC    C1 1851   3.409   4.326   1.405
   38DPPC    C2 1852   3.405   4.560   1.345
   38DPPC    C3 1853   3.225   4.427   1.279
   38DPPC    N4 1854   3.324   4.444   1.386
   38DPPC    C5 1855   3.246   4.487   1.503
   38DPPC    C6 1856   3.153   4.391   1.578
   38DPPC    O7 1857   3.225   4.287   1.645
   38DPPC    P8 1858   3.122   4.173   1.692
   38DPPC    O9 1859   3.191   4.072   1.775
   38DPPC   O10 1860   3.055   4.136   1.565
   38DPPC   O11 1861   3.024   4.267   1.779
   38DPPC   C12 1862   3.063   4.275   1.917
   38DPPC   C13 1863   3.161   4.389   1.941
   38DPPC   O14 1864   3.238   4.362   2.059
   38DPPC   C15 1865   3.329   4.445   2.115
   38DPPC   O16 1866   3.388   4.532   2.050
   38DPPC   C17 1867   3.373   4.395   2.253
   38DPPC   C18 1868   3.370   4.511   2.353
   38DPPC   C19 1869   3.432   4.467   2.485
   38DPPC   C20 1870   3.427   4.588   2.579
   38DPPC   C21 1871   3.490   4.545   2.711
   38DPPC   C22 1872   3.412   4.441   2.792
   38DPPC   C23 1873   3.471   4.387   2.922
   38DPPC   C24 1874   3.516   4.505   3.009
   38DPPC   C25 1875   3.399   4.597   3.044
   38DPPC   C26 1876   3.462   4.703   3.136
   38DPPC   C27 1877   3.357   4.810   3.165
   38DPPC   C28 1878   3.412   4.923   3.253
   38DPPC   C29 1879   3.314   5.040   3.256
   38DPPC   C30 1880   3.363   5.141   3.360
   38DPPC   C31 1881   3.248   5.237   3.391
   38DPPC   C32 1882   3.087   4.523   1.931
   38DPPC   O33 1883   2.976   4.532   2.020
   38DPPC   C34 1884   2.916   4.654   2.029
   38DPPC   O35 1885   2.963   4.763   1.996
   38DPPC   C36 1886   2.792   4.645   2.119
   38DPPC   C37 1887   2.807   4.618   2.269
   38DPPC   C38 1888   2.711   4.508   2.313
   38DPPC   C39 1889   2.763   4.445   2.442
   38DPPC   C40 1890   2.656   4.347   2.493
   38DPPC   C41 1891   2.705   4.254   2.604
   38DPPC   C42 1892   2.768   4.323   2.725
   38DPPC   C43 1893   2.784   4.231   2.846
   38DPPC   C44 1894   2.848   4.321   2.952
   38DPPC   C45 1895   3.001   4.329   2.943
   38DPPC   C46 1896   3.052   4.423   3.052
   38DPPC   C47 1897   3.018   4.370   3.192
   38DPPC   C48 1898   3.084   4.460   3.297
   38DPPC   C49 1899   3.018   4.598   3.287
   38DPPC   C50 1900   3.050   4.691   3.404
   39DPPC    C1 1901   4.209   8.061   1.918
   39DPPC    C2 1902   4.290   8.079   1.686
   39DPPC    C3 1903   4.246   7.867   1.802
   39DPPC    N4 1904   4.204   8.006   1.781
   39DPPC    C5 1905   4.071   8.008   1.721
   39DPPC    C6 1906   3.979   8.129   1.738
   39DPPC    O7 1907   3.850   8.109   1.679
   39DPPC    P8 1908   3.731   8.187   1.754
   39DPPC    O9 1909   3.618   8.202   1.660
   39DPPC   O10 1910   3.778   8.316   1.811
   39DPPC   O11 1911   3.691   8.074   1.862
   39DPPC   C12 1912   3.549   8.069   1.875
   39DPPC   C13 1913   3.494   8.013   2.007
   39DPPC   O14 1914   3.352   8.022   2.023
   39DPPC   C15 1915   3.289   7.903   2.036
   39DPPC   O16 1916   3.332   7.811   1.966
   39DPPC   C17 1917   3.146   7.915   2.088
   39DPPC   C18 1918   3.101   7.780   2.145
   39DPPC   C19 1919   2.950   7.780   2.172
   39DPPC   C20 1920   2.889   7.650   2.225
   39DPPC   C21 1921   2.756   7.677   2.296
   39DPPC   C22 1922   2.715   7.547   2.365
   39DPPC   C23 1923   2.572   7.567   2.417
   39DPPC   C24 1924   2.479   7.607   2.302
   39DPPC   C25 1925   2.343   7.647   2.359
   39DPPC   C26 1926   2.280   7.536   2.443
   39DPPC   C27 1927   2.134   7.519   2.400
   39DPPC   C28 1928   2.053   7.398   2.448
   39DPPC   C29 1929   1.907   7.413   2.403
   39DPPC   C30 1930   1.887   7.424   2.252
   39DPPC   C31 1931   1.740   7.412   2.211
   39DPPC   C32 1932   3.589   8.079   2.108
   39DPPC   O33 1933   3.580   8.221   2.120
   39DPPC   C34 1934   3.641   8.267   2.232
   39DPPC   O35 1935   3.729   8.204   2.290
   39DPPC   C36 1936   3.609   8.405   2.290
   39DPPC   C37 1937   3.482   8.411   2.375
   39DPPC   C38 1938   3.508   8.335   2.506
   39DPPC   C39 1939   3.381   8.328   2.591
   39DPPC   C40 1940   3.386   8.285   2.738
   39DPPC   C41 1941   3.259   8.315   2.818
   39DPPC   C42 1942   3.240   8.239   2.950
   39DPPC   C43 1943   3.104   8.279   3.008
   39DPPC   C44 1944   3.109   8.247   3.157
   39DPPC   C45 1945   2.986   8.311   3.222
   39DPPC   C46 1946   2.940   8.237   3.348
   39DPPC   C47 1947   2.815   8.304   3.406
   39DPPC   C48 1948   2.757   8.222   3.522
   39DPPC   C49 1949   2.832   8.247   3.653
   39DPPC   C50 1950   2.789   8.155   3.768
   40DPPC    C1 1951   3.140   7.222   2.103
   40DPPC    C2 1952   3.259   7.128   1.935
   40DPPC    C3 1953   3.231   7.008   2.146
   40DPPC    N4 1954   3.166   7.091   2.044
   40DPPC    C5 1955   3.043   7.030   1.993
   40DPPC    C6 1956   3.034   6.932   1.875
   40DPPC    O7 1957   3.118   6.818   1.895
   40DPPC    P8 1958   3.092   6.700   1.789
   40DPPC    O9 1959   3.206   6.607   1.803
   40DPPC   O10 1960   3.033   6.729   1.657
   40DPPC   O11 1961   2.974   6.649   1.887
   40DPPC   C12 1962   3.039   6.560   1.979
   40DPPC   C13 1963   2.954   6.528   2.102
   40DPPC   O14 1964   2.848   6.440   2.062
   40DPPC   C15 1965   2.873   6.307   2.044
   40DPPC   O16 1966   2.982   6.250   2.034
   40DPPC   C17 1967   2.741   6.231   2.039
   40DPPC   C18 1968   2.677   6.230   2.178
   40DPPC   C19 1969   2.542   6.159   2.175
   40DPPC   C20 1970   2.495   6.140   2.319
   40DPPC   C21 1971   2.484   6.265   2.407
   40DPPC   C22 1972   2.437   6.224   2.547
   40DPPC   C23 1973   2.436   6.338   2.649
   40DPPC   C24 1974   2.377   6.289   2.781
   40DPPC   C25 1975   2.369   6.409   2.876
   40DPPC   C26 1976   2.262   6.503   2.820
   40DPPC   C27 1977   2.219   6.582   2.944
   40DPPC   C28 1978   2.146   6.496   3.046
   40DPPC   C29 1979   2.198   6.490   3.190
   40DPPC   C30 1980   2.141   6.391   3.291
   40DPPC   C31 1981   2.165   6.430   3.437
   40DPPC   C32 1982   2.906   6.659   2.164
   40DPPC   O33 1983   2.979   6.688   2.284
   40DPPC   C34 1984   2.965   6.818   2.322
   40DPPC   O35 1985   2.933   6.912   2.250
   40DPPC   C36 1986   3.010   6.849   2.465
   40DPPC   C37 1987   2.970   6.989   2.513
   40DPPC   C38 1988   3.004   7.001   2.662
   40DPPC   C39 1989   2.873   7.027   2.737
   40DPPC   C40 1990   2.896   7.042   2.888
   40DPPC   C41 1991   2.750   7.072   2.923
   40DPPC   C42 1992   2.737   7.129   3.065
   40DPPC   C43 1993   2.809   7.033   3.160
   40DPPC   C44 1994   2.803   7.096   3.299
   40DPPC   C45 1995   2.659   7.137   3.333
   40DPPC   C46 1996   2.643   7.187   3.477
   40DPPC   C47 1997   2.507   7.254   3.494
   40DPPC   C48 1998   2.499   7.327   3.629
   40DPPC   C49 1999   2.363   7.391   3.657
   40DPPC   C50 2000   2.323   7.507   3.566
   41DPPC    C1 2001   3.096   5.787   1.776
   41DPPC    C2 2002   2.987   5.980   1.805
   41DPPC    C3 2003   3.215   5.980   1.729
   41DPPC    N4 2004   3.083   5.919   1.712
   41DPPC    C5 2005   3.052   5.907   1.568
   41DPPC    C6 2006   2.950   5.812   1.506
   41DPPC    O7 2007   2.812   5.835   1.537
   41DPPC    P8 2008   2.717   5.762   1.429
   41DPPC    O9 2009   2.799   5.740   1.308
   41DPPC   O10 2010   2.594   5.843   1.426
   41DPPC   O11 2011   2.691   5.619   1.499
   41DPPC   C12 2012   2.598   5.618   1.608
   41DPPC   C13 2013   2.528   5.485   1.635
   41DPPC   O14 2014   2.402   5.484   1.704
   41DPPC   C15 2015   2.283   5.537   1.664
   41DPPC   O16 2016   2.289   5.607   1.563
   41DPPC   C17 2017   2.178   5.547   1.775
   41DPPC   C18 2018   2.171   5.407   1.836
   41DPPC   C19 2019   2.061   5.398   1.941
   41DPPC   C20 2020   2.048   5.269   2.022
   41DPPC   C21 2021   1.913   5.283   2.092
   41DPPC   C22 2022   1.867   5.149   2.150
   41DPPC   C23 2023   1.742   5.181   2.233
   41DPPC   C24 2024   1.672   5.060   2.295
   41DPPC   C25 2025   1.560   5.096   2.393
   41DPPC   C26 2026   1.509   4.963   2.450
   41DPPC   C27 2027   1.418   5.005   2.565
   41DPPC   C28 2028   1.513   5.078   2.660
   41DPPC   C29 2029   1.441   5.113   2.790
   41DPPC   C30 2030   1.540   5.138   2.903
   41DPPC   C31 2031   1.470   5.141   3.039
   41DPPC   C32 2032   2.635   5.402   1.707
   41DPPC   O33 2033   2.713   5.483   1.796
   41DPPC   C34 2034   2.818   5.417   1.850
   41DPPC   O35 2035   2.861   5.305   1.823
   41DPPC   C36 2036   2.889   5.490   1.964
   41DPPC   C37 2037   2.871   5.394   2.082
   41DPPC   C38 2038   2.939   5.447   2.209
   41DPPC   C39 2039   2.918   5.362   2.335
   41DPPC   C40 2040   3.021   5.393   2.444
   41DPPC   C41 2041   2.973   5.297   2.554
   41DPPC   C42 2042   3.061   5.301   2.679
   41DPPC   C43 2043   3.185   5.213   2.667
   41DPPC   C44 2044   3.268   5.237   2.794
   41DPPC   C45 2045   3.380   5.133   2.792
   41DPPC   C46 2046   3.467   5.143   2.666
   41DPPC   C47 2047   3.568   5.028   2.671
   41DPPC   C48 2048   3.690   5.071   2.590
   41DPPC   C49 2049   3.771   5.185   2.653
   41DPPC   C50 2050   3.892   5.207   2.561
   42DPPC    C1 2051   1.939   4.526   1.799
   42DPPC    C2 2052   2.080   4.555   1.597
   42DPPC    C3 2053   2.081   4.358   1.717
   42DPPC    N4 2054   1.992   4.467   1.675
   42DPPC    C5 2055   1.887   4.411   1.588
   42DPPC    C6 2056   1.772   4.505   1.552
   42DPPC    O7 2057   1.800   4.606   1.454
   42DPPC    P8 2058   1.665   4.691   1.436
   42DPPC    O9 2059   1.548   4.602   1.420
   42DPPC   O10 2060   1.699   4.790   1.332
   42DPPC   O11 2061   1.678   4.757   1.583
   42DPPC   C12 2062   1.749   4.881   1.575
   42DPPC   C13 2063   1.788   4.932   1.713
   42DPPC   O14 2064   1.899   4.872   1.782
   42DPPC   C15 2065   2.026   4.903   1.747
   42DPPC   O16 2066   2.055   4.951   1.637
   42DPPC   C17 2067   2.130   4.866   1.853
   42DPPC   C18 2068   2.091   4.896   1.998
   42DPPC   C19 2069   2.004   4.782   2.050
   42DPPC   C20 2070   2.004   4.767   2.203
   42DPPC   C21 2071   1.932   4.635   2.231
   42DPPC   C22 2072   1.934   4.632   2.383
   42DPPC   C23 2073   1.883   4.504   2.448
   42DPPC   C24 2074   1.863   4.539   2.596
   42DPPC   C25 2075   1.819   4.415   2.673
   42DPPC   C26 2076   1.816   4.446   2.823
   42DPPC   C27 2077   1.774   4.333   2.918
   42DPPC   C28 2078   1.765   4.379   3.063
   42DPPC   C29 2079   1.902   4.429   3.110
   42DPPC   C30 2080   1.901   4.474   3.256
   42DPPC   C31 2081   1.845   4.616   3.256
   42DPPC   C32 2082   1.661   4.949   1.797
   42DPPC   O33 2083   1.594   5.073   1.772
   42DPPC   C34 2084   1.494   5.085   1.863
   42DPPC   O35 2085   1.445   4.986   1.917
   42DPPC   C36 2086   1.434   5.223   1.890
   42DPPC   C37 2087   1.374   5.237   2.030
   42DPPC   C38 2088   1.349   5.382   2.072
   42DPPC   C39 2089   1.222   5.435   2.004
   42DPPC   C40 2090   1.174   5.553   2.088
   42DPPC   C41 2091   1.038   5.518   2.150
   42DPPC   C42 2092   1.024   5.609   2.272
   42DPPC   C43 2093   0.912   5.569   2.369
   42DPPC   C44 2094   0.922   5.656   2.495
   42DPPC   C45 2095   0.839   5.588   2.605
   42DPPC   C46 2096   0.829   5.663   2.738
   42DPPC   C47 2097   0.719   5.604   2.826
   42DPPC   C48 2098   0.722   5.685   2.956
   42DPPC   C49 2099   0.606   5.669   3.054
   42DPPC   C50 2100   0.629   5.749   3.182
   43DPPC    C1 2101   1.676   6.537   1.598
   43DPPC    C2 2102   1.453   6.614   1.589
   43DPPC    C3 2103   1.636   6.738   1.691
   43DPPC    N4 2104   1.593   6.656   1.577
   43DPPC    C5 2105   1.647   6.714   1.453
   43DPPC    C6 2106   1.560   6.822   1.388
   43DPPC    O7 2107   1.530   6.926   1.481
   43DPPC    P8 2108   1.397   7.002   1.433
   43DPPC    O9 2109   1.336   6.944   1.311
   43DPPC   O10 2110   1.421   7.148   1.438
   43DPPC   O11 2111   1.316   6.951   1.562
   43DPPC   C12 2112   1.212   7.038   1.608
   43DPPC   C13 2113   1.141   6.980   1.730
   43DPPC   O14 2114   1.085   7.079   1.820
   43DPPC   C15 2115   0.951   7.076   1.839
   43DPPC   O16 2116   0.879   7.039   1.747
   43DPPC   C17 2117   0.908   7.162   1.958
   43DPPC   C18 2118   0.959   7.306   1.948
   43DPPC   C19 2119   0.903   7.385   2.066
   43DPPC   C20 2120   0.983   7.514   2.078
   43DPPC   C21 2121   0.911   7.604   2.178
   43DPPC   C22 2122   0.892   7.527   2.309
   43DPPC   C23 2123   0.811   7.605   2.412
   43DPPC   C24 2124   0.828   7.529   2.543
   43DPPC   C25 2125   0.974   7.523   2.588
   43DPPC   C26 2126   0.962   7.471   2.732
   43DPPC   C27 2127   1.090   7.412   2.791
   43DPPC   C28 2128   1.196   7.509   2.845
   43DPPC   C29 2129   1.307   7.439   2.924
   43DPPC   C30 2130   1.415   7.538   2.968
   43DPPC   C31 2131   1.517   7.475   3.063
   43DPPC   C32 2132   1.244   6.892   1.800
   43DPPC   O33 2133   1.215   6.799   1.905
   43DPPC   C34 2134   1.309   6.731   1.975
   43DPPC   O35 2135   1.412   6.688   1.922
   43DPPC   C36 2136   1.261   6.651   2.096
   43DPPC   C37 2137   1.263   6.732   2.226
   43DPPC   C38 2138   1.180   6.645   2.321
   43DPPC   C39 2139   1.129   6.732   2.436
   43DPPC   C40 2140   1.046   6.846   2.376
   43DPPC   C41 2141   0.975   6.933   2.479
   43DPPC   C42 2142   0.858   7.007   2.414
   43DPPC   C43 2143   0.762   7.070   2.515
   43DPPC   C44 2144   0.716   6.985   2.633
   43DPPC   C45 2145   0.631   7.083   2.714
   43DPPC   C46 2146   0.699   7.156   2.830
   43DPPC   C47 2147   0.596   7.227   2.918
   43DPPC   C48 2148   0.681   7.311   3.014
   43DPPC   C49 2149   0.598   7.429   3.062
   43DPPC   C50 2150   0.568   7.524   2.945
   44DPPC    C1 2151   4.884   1.727   1.409
   44DPPC    C2 2152   4.671   1.810   1.376
   44DPPC    C3 2153   4.758   1.812   1.590
   44DPPC    N4 2154   4.795   1.836   1.450
   44DPPC    C5 2155   4.864   1.965   1.434
   44DPPC    C6 2156   4.784   2.095   1.453
   44DPPC    O7 2157   4.733   2.121   1.584
   44DPPC    P8 2158   4.713   2.281   1.588
   44DPPC    O9 2159   4.604   2.301   1.687
   44DPPC   O10 2160   4.686   2.333   1.452
   44DPPC   O11 2161   4.860   2.319   1.642
   44DPPC   C12 2162   4.872   2.289   1.781
   44DPPC   C13 2163   5.020   2.260   1.804
   44DPPC   O14 2164   5.049   2.179   1.919
   44DPPC   C15 2165   5.170   2.117   1.922
   44DPPC   O16 2166   5.224   2.110   1.812
   44DPPC   C17 2167   5.210   2.033   2.044
   44DPPC   C18 2168   5.362   2.039   2.061
   44DPPC   C19 2169   5.389   2.002   2.207
   44DPPC   C20 2170   5.541   2.003   2.230
   44DPPC   C21 2171   5.583   1.985   2.376
   44DPPC   C22 2172   5.734   1.982   2.404
   44DPPC   C23 2173   5.764   1.963   2.553
   44DPPC   C24 2174   5.705   1.838   2.618
   44DPPC   C25 2175   5.720   1.838   2.770
   44DPPC   C26 2176   5.845   1.768   2.823
   44DPPC   C27 2177   5.829   1.735   2.971
   44DPPC   C28 2178   5.929   1.624   3.007
   44DPPC   C29 2179   5.930   1.583   3.154
   44DPPC   C30 2180   6.047   1.486   3.171
   44DPPC   C31 2181   6.060   1.437   3.315
   44DPPC   C32 2182   5.080   2.401   1.807
   44DPPC   O33 2183   5.015   2.492   1.896
   44DPPC   C34 2184   5.065   2.618   1.903
   44DPPC   O35 2185   5.156   2.659   1.831
   44DPPC   C36 2186   4.995   2.706   2.007
   44DPPC   C37 2187   5.074   2.831   2.045
   44DPPC   C38 2188   5.174   2.783   2.150
   44DPPC   C39 2189   5.102   2.765   2.284
   44DPPC   C40 2190   5.212   2.718   2.379
   44DPPC   C41 2191   5.146   2.684   2.513
   44DPPC   C42 2192   5.260   2.654   2.611
   44DPPC   C43 2193   5.202   2.582   2.733
   44DPPC   C44 2194   5.315   2.556   2.832
   44DPPC   C45 2195   5.262   2.500   2.964
   44DPPC   C46 2196   5.371   2.512   3.071
   44DPPC   C47 2197   5.326   2.426   3.190
   44DPPC   C48 2198   5.437   2.456   3.291
   44DPPC   C49 2199   5.566   2.421   3.217
   44DPPC   C50 2200   5.682   2.407   3.316
   45DPPC    C1 2201   0.215   4.354   1.293
   45DPPC    C2 2202   0.255   4.415   1.068
   45DPPC    C3 2203   0.434   4.389   1.222
   45DPPC    N4 2204   0.305   4.332   1.179
   45DPPC    C5 2205   0.322   4.189   1.148
   45DPPC    C6 2206   0.346   4.096   1.267
   45DPPC    O7 2207   0.483   4.060   1.290
   45DPPC    P8 2208   0.491   3.958   1.414
   45DPPC    O9 2209   0.637   3.935   1.412
   45DPPC   O10 2210   0.389   3.858   1.373
   45DPPC   O11 2211   0.440   4.031   1.547
   45DPPC   C12 2212   0.552   4.051   1.633
   45DPPC   C13 2213   0.529   4.151   1.747
   45DPPC   O14 2214   0.624   4.146   1.854
   45DPPC   C15 2215   0.721   4.242   1.851
   45DPPC   O16 2216   0.785   4.260   1.748
   45DPPC   C17 2217   0.773   4.264   1.993
   45DPPC   C18 2218   0.674   4.357   2.064
   45DPPC   C19 2219   0.703   4.378   2.213
   45DPPC   C20 2220   0.597   4.475   2.265
   45DPPC   C21 2221   0.633   4.570   2.379
   45DPPC   C22 2222   0.518   4.671   2.389
   45DPPC   C23 2223   0.383   4.607   2.419
   45DPPC   C24 2224   0.270   4.710   2.413
   45DPPC   C25 2225   0.164   4.635   2.494
   45DPPC   C26 2226   0.046   4.732   2.501
   45DPPC   C27 2227  -0.051   4.679   2.607
   45DPPC   C28 2228   0.025   4.634   2.732
   45DPPC   C29 2229  -0.061   4.590   2.851
   45DPPC   C30 2230   0.021   4.555   2.975
   45DPPC   C31 2231  -0.053   4.463   3.072
   45DPPC   C32 2232   0.385   4.130   1.793
   45DPPC   O33 2233   0.347   4.239   1.878
   45DPPC   C34 2234   0.219   4.234   1.924
   45DPPC   O35 2235   0.138   4.157   1.873
   45DPPC   C36 2236   0.189   4.333   2.037
   45DPPC   C37 2237   0.092   4.270   2.137
   45DPPC   C38 2238   0.107   4.348   2.267
   45DPPC   C39 2239   0.013   4.289   2.373
   45DPPC   C40 2240   0.048   4.148   2.421
   45DPPC   C41 2241  -0.054   4.102   2.525
   45DPPC   C42 2242  -0.079   4.176   2.657
   45DPPC   C43 2243  -0.178   4.086   2.731
   45DPPC   C44 2244  -0.115   3.946   2.730
   45DPPC   C45 2245  -0.224   3.848   2.776
   45DPPC   C46 2246  -0.272   3.887   2.916
   45DPPC   C47 2247  -0.369   3.789   2.983
   45DPPC   C48 2248  -0.510   3.790   2.923
   45DPPC   C49 2249  -0.583   3.659   2.951
   45DPPC   C50 2250  -0.714   3.642   2.873
   46DPPC    C1 2251   9.333   1.777   1.189
   46DPPC    C2 2252   9.338   1.833   1.405
   46DPPC    C3 2253   9.545   1.823   1.267
   46DPPC    N4 2254   9.406   1.867   1.279
   46DPPC    C5 2255   9.392   2.007   1.237
   46DPPC    C6 2256   9.374   2.129   1.328
   46DPPC    O7 2257   9.257   2.137   1.410
   46DPPC    P8 2258   9.250   2.282   1.480
   46DPPC    O9 2259   9.114   2.310   1.533
   46DPPC   O10 2260   9.331   2.378   1.403
   46DPPC   O11 2261   9.345   2.254   1.607
   46DPPC   C12 2262   9.279   2.183   1.712
   46DPPC   C13 2263   9.384   2.165   1.821
   46DPPC   O14 2264   9.370   2.045   1.899
   46DPPC   C15 2265   9.423   1.932   1.845
   46DPPC   O16 2266   9.459   1.923   1.728
   46DPPC   C17 2267   9.423   1.812   1.940
   46DPPC   C18 2268   9.356   1.829   2.077
   46DPPC   C19 2269   9.305   1.698   2.137
   46DPPC   C20 2270   9.253   1.726   2.278
   46DPPC   C21 2271   9.208   1.595   2.344
   46DPPC   C22 2272   9.127   1.611   2.473
   46DPPC   C23 2273   9.087   1.471   2.519
   46DPPC   C24 2274   8.989   1.448   2.634
   46DPPC   C25 2275   9.036   1.506   2.768
   46DPPC   C26 2276   8.946   1.449   2.878
   46DPPC   C27 2277   8.925   1.558   2.982
   46DPPC   C28 2278   9.063   1.578   3.044
   46DPPC   C29 2279   9.047   1.656   3.175
   46DPPC   C30 2280   8.944   1.592   3.268
   46DPPC   C31 2281   8.939   1.664   3.404
   46DPPC   C32 2282   9.391   2.298   1.894
   46DPPC   O33 2283   9.273   2.336   1.965
   46DPPC   C34 2284   9.273   2.460   2.020
   46DPPC   O35 2285   9.372   2.529   1.993
   46DPPC   C36 2286   9.144   2.512   2.084
   46DPPC   C37 2287   9.131   2.456   2.225
   46DPPC   C38 2288   9.055   2.573   2.289
   46DPPC   C39 2289   9.032   2.541   2.436
   46DPPC   C40 2290   8.895   2.477   2.463
   46DPPC   C41 2291   8.874   2.427   2.606
   46DPPC   C42 2292   8.748   2.341   2.618
   46DPPC   C43 2293   8.715   2.296   2.760
   46DPPC   C44 2294   8.588   2.212   2.781
   46DPPC   C45 2295   8.557   2.196   2.930
   46DPPC   C46 2296   8.415   2.204   2.987
   46DPPC   C47 2297   8.402   2.188   3.139
   46DPPC   C48 2298   8.490   2.300   3.196
   46DPPC   C49 2299   8.477   2.293   3.348
   46DPPC   C50 2300   8.591   2.373   3.411
   47DPPC    C1 2301   7.658   2.077   1.222
   47DPPC    C2 2302   7.673   1.908   1.058
   47DPPC    C3 2303   7.724   1.861   1.286
   47DPPC    N4 2304   7.633   1.935   1.197
   47DPPC    C5 2305   7.491   1.897   1.197
   47DPPC    C6 2306   7.432   1.836   1.325
   47DPPC    O7 2307   7.423   1.912   1.446
   47DPPC    P8 2308   7.405   1.828   1.582
   47DPPC    O9 2309   7.357   1.698   1.530
   47DPPC   O10 2310   7.324   1.908   1.676
   47DPPC   O11 2311   7.562   1.825   1.613
   47DPPC   C12 2312   7.602   1.769   1.739
   47DPPC   C13 2313   7.733   1.823   1.797
   47DPPC   O14 2314   7.800   1.734   1.887
   47DPPC   C15 2315   7.861   1.624   1.835
   47DPPC   O16 2316   7.885   1.609   1.716
   47DPPC   C17 2317   7.887   1.511   1.935
   47DPPC   C18 2318   7.793   1.393   1.910
   47DPPC   C19 2319   7.790   1.312   2.040
   47DPPC   C20 2320   7.740   1.393   2.160
   47DPPC   C21 2321   7.602   1.452   2.130
   47DPPC   C22 2322   7.555   1.523   2.256
   47DPPC   C23 2323   7.627   1.655   2.282
   47DPPC   C24 2324   7.537   1.730   2.380
   47DPPC   C25 2325   7.399   1.767   2.324
   47DPPC   C26 2326   7.324   1.841   2.435
   47DPPC   C27 2327   7.328   1.778   2.575
   47DPPC   C28 2328   7.263   1.876   2.673
   47DPPC   C29 2329   7.246   1.802   2.806
   47DPPC   C30 2330   7.155   1.873   2.906
   47DPPC   C31 2331   7.139   1.806   3.043
   47DPPC   C32 2332   7.694   1.960   1.855
   47DPPC   O33 2333   7.565   1.965   1.917
   47DPPC   C34 2334   7.509   2.081   1.959
   47DPPC   O35 2335   7.561   2.193   1.951
   47DPPC   C36 2336   7.383   2.052   2.041
   47DPPC   C37 2337   7.366   2.119   2.177
   47DPPC   C38 2338   7.218   2.130   2.211
   47DPPC   C39 2339   7.190   2.204   2.342
   47DPPC   C40 2340   7.051   2.170   2.395
   47DPPC   C41 2341   7.020   2.023   2.423
   47DPPC   C42 2342   6.888   2.006   2.498
   47DPPC   C43 2343   6.899   1.865   2.558
   47DPPC   C44 2344   6.775   1.861   2.647
   47DPPC   C45 2345   6.767   1.750   2.752
   47DPPC   C46 2346   6.704   1.807   2.878
   47DPPC   C47 2347   6.740   1.716   2.996
   47DPPC   C48 2348   6.697   1.763   3.135
   47DPPC   C49 2349   6.779   1.887   3.169
   47DPPC   C50 2350   6.767   1.909   3.320
   48DPPC    C1 2351   8.579   0.552   0.792
   48DPPC    C2 2352   8.403   0.584   0.642
   48DPPC    C3 2353   8.488   0.362   0.671
   48DPPC    N4 2354   8.457   0.488   0.739
   48DPPC    C5 2355   8.373   0.473   0.858
   48DPPC    C6 2356   8.299   0.346   0.900
   48DPPC    O7 2357   8.265   0.365   1.038
   48DPPC    P8 2358   8.185   0.231   1.078
   48DPPC    O9 2359   8.247   0.114   1.011
   48DPPC   O10 2360   8.043   0.262   1.049
   48DPPC   O11 2361   8.215   0.242   1.236
   48DPPC   C12 2362   8.353   0.240   1.275
   48DPPC   C13 2363   8.355   0.284   1.422
   48DPPC   O14 2364   8.478   0.287   1.496
   48DPPC   C15 2365   8.564   0.392   1.485
   48DPPC   O16 2366   8.541   0.469   1.393
   48DPPC   C17 2367   8.699   0.400   1.557
   48DPPC   C18 2368   8.690   0.321   1.688
   48DPPC   C19 2369   8.829   0.328   1.751
   48DPPC   C20 2370   8.843   0.269   1.891
   48DPPC   C21 2371   8.756   0.342   1.994
   48DPPC   C22 2372   8.781   0.268   2.126
   48DPPC   C23 2373   8.681   0.153   2.110
   48DPPC   C24 2374   8.672   0.059   2.229
   48DPPC   C25 2375   8.655   0.139   2.358
   48DPPC   C26 2376   8.639   0.048   2.480
   48DPPC   C27 2377   8.493   0.003   2.490
   48DPPC   C28 2378   8.445  -0.065   2.618
   48DPPC   C29 2379   8.318  -0.149   2.600
   48DPPC   C30 2380   8.257  -0.205   2.729
   48DPPC   C31 2381   8.156  -0.311   2.683
   48DPPC   C32 2382   8.245   0.203   1.489
   48DPPC   O33 2383   8.221   0.209   1.630
   48DPPC   C34 2384   8.154   0.317   1.675
   48DPPC   O35 2385   8.138   0.410   1.596
   48DPPC   C36 2386   8.109   0.323   1.821
   48DPPC   C37 2387   8.218   0.347   1.926
   48DPPC   C38 2388   8.150   0.360   2.062
   48DPPC   C39 2389   8.263   0.381   2.162
   48DPPC   C40 2390   8.213   0.374   2.307
   48DPPC   C41 2391   8.148   0.504   2.352
   48DPPC   C42 2392   8.114   0.489   2.500
   48DPPC   C43 2393   8.091   0.627   2.562
   48DPPC   C44 2394   8.039   0.630   2.706
   48DPPC   C45 2395   8.034   0.777   2.748
   48DPPC   C46 2396   8.011   0.804   2.897
   48DPPC   C47 2397   8.119   0.732   2.978
   48DPPC   C48 2398   8.125   0.761   3.129
   48DPPC   C49 2399   8.163   0.906   3.156
   48DPPC   C50 2400   8.171   0.923   3.308
   49DPPC    C1 2401   4.268   7.384   2.187
   49DPPC    C2 2402   4.201   7.395   2.425
   49DPPC    C3 2403   4.228   7.584   2.293
   49DPPC    N4 2404   4.181   7.445   2.288
   49DPPC    C5 2405   4.043   7.449   2.236
   49DPPC    C6 2406   3.973   7.316   2.206
   49DPPC    O7 2407   3.844   7.339   2.150
   49DPPC    P8 2408   3.797   7.245   2.028
   49DPPC    O9 2409   3.916   7.251   1.940
   49DPPC   O10 2410   3.672   7.315   1.990
   49DPPC   O11 2411   3.798   7.118   2.126
   49DPPC   C12 2412   3.672   7.050   2.123
   49DPPC   C13 2413   3.668   6.922   2.208
   49DPPC   O14 2414   3.552   6.839   2.197
   49DPPC   C15 2415   3.535   6.764   2.085
   49DPPC   O16 2416   3.613   6.765   1.990
   49DPPC   C17 2417   3.422   6.661   2.096
   49DPPC   C18 2418   3.481   6.539   2.167
   49DPPC   C19 2419   3.375   6.432   2.195
   49DPPC   C20 2420   3.273   6.474   2.301
   49DPPC   C21 2421   3.163   6.368   2.311
   49DPPC   C22 2422   3.068   6.395   2.428
   49DPPC   C23 2423   2.942   6.308   2.419
   49DPPC   C24 2424   2.962   6.156   2.421
   49DPPC   C25 2425   2.833   6.087   2.467
   49DPPC   C26 2426   2.845   5.936   2.447
   49DPPC   C27 2427   2.747   5.848   2.525
   49DPPC   C28 2428   2.777   5.699   2.505
   49DPPC   C29 2429   2.679   5.616   2.589
   49DPPC   C30 2430   2.692   5.615   2.741
   49DPPC   C31 2431   2.702   5.471   2.791
   49DPPC   C32 2432   3.711   6.974   2.345
   49DPPC   O33 2433   3.611   7.060   2.401
   49DPPC   C34 2434   3.638   7.109   2.525
   49DPPC   O35 2435   3.738   7.081   2.591
   49DPPC   C36 2436   3.512   7.168   2.589
   49DPPC   C37 2437   3.509   7.318   2.561
   49DPPC   C38 2438   3.397   7.382   2.644
   49DPPC   C39 2439   3.353   7.515   2.583
   49DPPC   C40 2440   3.245   7.581   2.670
   49DPPC   C41 2441   3.114   7.503   2.663
   49DPPC   C42 2442   3.000   7.554   2.752
   49DPPC   C43 2443   2.879   7.462   2.732
   49DPPC   C44 2444   2.751   7.535   2.773
   49DPPC   C45 2445   2.755   7.575   2.921
   49DPPC   C46 2446   2.619   7.632   2.962
   49DPPC   C47 2447   2.508   7.530   2.937
   49DPPC   C48 2448   2.372   7.586   2.981
   49DPPC   C49 2449   2.246   7.513   2.935
   49DPPC   C50 2450   2.249   7.495   2.784
   50DPPC    C1 2451   5.546   1.971   1.379
   50DPPC    C2 2452   5.595   1.785   1.218
   50DPPC    C3 2453   5.756   1.925   1.301
   50DPPC    N4 2454   5.631   1.858   1.341
   50DPPC    C5 2455   5.663   1.752   1.436
   50DPPC    C6 2456   5.556   1.694   1.529
   50DPPC    O7 2457   5.609   1.588   1.608
   50DPPC    P8 2458   5.486   1.487   1.631
   50DPPC    O9 2459   5.572   1.377   1.678
   50DPPC   O10 2460   5.418   1.476   1.499
   50DPPC   O11 2461   5.415   1.576   1.745
   50DPPC   C12 2462   5.472   1.540   1.871
   50DPPC   C13 2463   5.396   1.599   1.990
   50DPPC   O14 2464   5.445   1.557   2.118
   50DPPC   C15 2465   5.542   1.625   2.185
   50DPPC   O16 2466   5.617   1.703   2.126
   50DPPC   C17 2467   5.600   1.553   2.307
   50DPPC   C18 2468   5.507   1.575   2.426
   50DPPC   C19 2469   5.561   1.489   2.540
   50DPPC   C20 2470   5.477   1.497   2.667
   50DPPC   C21 2471   5.556   1.448   2.788
   50DPPC   C22 2472   5.497   1.477   2.926
   50DPPC   C23 2473   5.583   1.417   3.037
   50DPPC   C24 2474   5.517   1.455   3.170
   50DPPC   C25 2475   5.378   1.390   3.178
   50DPPC   C26 2476   5.294   1.457   3.286
   50DPPC   C27 2477   5.236   1.592   3.245
   50DPPC   C28 2478   5.146   1.669   3.342
   50DPPC   C29 2479   5.146   1.816   3.302
   50DPPC   C30 2480   5.073   1.893   3.412
   50DPPC   C31 2481   5.093   2.043   3.395
   50DPPC   C32 2482   5.246   1.586   1.964
   50DPPC   O33 2483   5.161   1.666   2.048
   50DPPC   C34 2484   5.134   1.624   2.174
   50DPPC   O35 2485   5.105   1.504   2.184
   50DPPC   C36 2486   5.052   1.732   2.245
   50DPPC   C37 2487   5.116   1.782   2.374
   50DPPC   C38 2488   5.049   1.904   2.437
   50DPPC   C39 2489   4.906   1.869   2.479
   50DPPC   C40 2490   4.856   2.008   2.520
   50DPPC   C41 2491   4.707   2.017   2.556
   50DPPC   C42 2492   4.675   1.911   2.662
   50DPPC   C43 2493   4.582   1.947   2.778
   50DPPC   C44 2494   4.565   1.824   2.866
   50DPPC   C45 2495   4.492   1.844   2.999
   50DPPC   C46 2496   4.473   1.707   3.065
   50DPPC   C47 2497   4.371   1.709   3.179
   50DPPC   C48 2498   4.438   1.783   3.295
   50DPPC   C49 2499   4.339   1.807   3.409
   50DPPC   C50 2500   4.393   1.878   3.533
   51DPPC    C1 2501   4.057   5.679   1.834
   51DPPC    C2 2502   4.256   5.795   1.828
   51DPPC    C3 2503   4.092   5.849   1.669
   51DPPC    N4 2504   4.111   5.813   1.811
   51DPPC    C5 2505   4.066   5.910   1.912
   51DPPC    C6 2506   3.920   5.953   1.897
   51DPPC    O7 2507   3.824   5.857   1.942
   51DPPC    P8 2508   3.678   5.905   1.893
   51DPPC    O9 2509   3.591   5.789   1.864
   51DPPC   O10 2510   3.680   6.004   1.783
   51DPPC   O11 2511   3.626   5.982   2.025
   51DPPC   C12 2512   3.636   5.893   2.136
   51DPPC   C13 2513   3.747   5.933   2.234
   51DPPC   O14 2514   3.781   5.826   2.323
   51DPPC   C15 2515   3.902   5.764   2.328
   51DPPC   O16 2516   3.991   5.772   2.244
   51DPPC   C17 2517   3.902   5.649   2.429
   51DPPC   C18 2518   3.943   5.704   2.566
   51DPPC   C19 2519   3.981   5.580   2.647
   51DPPC   C20 2520   4.015   5.644   2.782
   51DPPC   C21 2521   3.994   5.557   2.906
   51DPPC   C22 2522   4.073   5.427   2.886
   51DPPC   C23 2523   4.070   5.338   3.010
   51DPPC   C24 2524   4.131   5.199   2.986
   51DPPC   C25 2525   4.196   5.144   3.113
   51DPPC   C26 2526   4.254   5.003   3.105
   51DPPC   C27 2527   4.352   4.987   3.222
   51DPPC   C28 2528   4.431   4.858   3.198
   51DPPC   C29 2529   4.338   4.737   3.204
   51DPPC   C30 2530   4.419   4.609   3.185
   51DPPC   C31 2531   4.478   4.598   3.044
   51DPPC   C32 2532   3.720   6.072   2.292
   51DPPC   O33 2533   3.592   6.077   2.358
   51DPPC   C34 2534   3.555   6.190   2.423
   51DPPC   O35 2535   3.631   6.285   2.440
   51DPPC   C36 2536   3.416   6.195   2.488
   51DPPC   C37 2537   3.449   6.171   2.636
   51DPPC   C38 2538   3.327   6.148   2.725
   51DPPC   C39 2539   3.223   6.260   2.729
   51DPPC   C40 2540   3.113   6.248   2.835
   51DPPC   C41 2541   3.181   6.218   2.969
   51DPPC   C42 2542   3.083   6.232   3.085
   51DPPC   C43 2543   3.138   6.155   3.205
   51DPPC   C44 2544   3.096   6.214   3.340
   51DPPC   C45 2545   3.150   6.123   3.450
   51DPPC   C46 2546   3.087   6.173   3.580
   51DPPC   C47 2547   2.943   6.126   3.560
   51DPPC   C48 2548   2.857   6.184   3.673
   51DPPC   C49 2549   2.716   6.125   3.671
   51DPPC   C50 2550   2.653   6.184   3.797
   52DPPC    C1 2551   0.792   6.103   1.366
   52DPPC    C2 2552   0.846   6.177   1.576
   52DPPC    C3 2553   1.022   6.135   1.428
   52DPPC    N4 2554   0.887   6.192   1.436
   52DPPC    C5 2555   0.850   6.329   1.396
   52DPPC    C6 2556   0.938   6.441   1.450
   52DPPC    O7 2557   0.908   6.479   1.585
   52DPPC    P8 2558   1.016   6.567   1.665
   52DPPC    O9 2559   0.943   6.600   1.790
   52DPPC   O10 2560   1.066   6.672   1.573
   52DPPC   O11 2561   1.121   6.446   1.668
   52DPPC   C12 2562   1.096   6.368   1.786
   52DPPC   C13 2563   1.169   6.236   1.760
   52DPPC   O14 2564   1.112   6.137   1.846
   52DPPC   C15 2565   1.107   6.003   1.820
   52DPPC   O16 2566   1.158   5.956   1.718
   52DPPC   C17 2567   1.033   5.929   1.931
   52DPPC   C18 2568   0.888   5.891   1.898
   52DPPC   C19 2569   0.834   5.803   2.010
   52DPPC   C20 2570   0.685   5.783   1.986
   52DPPC   C21 2571   0.637   5.646   2.036
   52DPPC   C22 2572   0.629   5.640   2.189
   52DPPC   C23 2573   0.590   5.499   2.232
   52DPPC   C24 2574   0.561   5.483   2.381
   52DPPC   C25 2575   0.446   5.568   2.436
   52DPPC   C26 2576   0.416   5.550   2.584
   52DPPC   C27 2577   0.291   5.634   2.612
   52DPPC   C28 2578   0.245   5.621   2.757
   52DPPC   C29 2579   0.136   5.726   2.782
   52DPPC   C30 2580   0.109   5.718   2.932
   52DPPC   C31 2581  -0.006   5.814   2.964
   52DPPC   C32 2582   1.319   6.260   1.775
   52DPPC   O33 2583   1.363   6.304   1.904
   52DPPC   C34 2584   1.493   6.321   1.938
   52DPPC   O35 2585   1.581   6.316   1.852
   52DPPC   C36 2586   1.514   6.384   2.076
   52DPPC   C37 2587   1.631   6.326   2.156
   52DPPC   C38 2588   1.624   6.174   2.140
   52DPPC   C39 2589   1.756   6.109   2.181
   52DPPC   C40 2590   1.775   6.137   2.330
   52DPPC   C41 2591   1.896   6.065   2.389
   52DPPC   C42 2592   1.966   6.154   2.492
   52DPPC   C43 2593   1.888   6.178   2.621
   52DPPC   C44 2594   1.847   6.043   2.680
   52DPPC   C45 2595   1.754   6.061   2.800
   52DPPC   C46 2596   1.717   5.922   2.851
   52DPPC   C47 2597   1.719   5.921   3.004
   52DPPC   C48 2598   1.851   5.980   3.053
   52DPPC   C49 2599   1.870   6.019   3.200
   52DPPC   C50 2600   2.018   6.057   3.204
   53DPPC    C1 2601   4.682   3.320   1.260
   53DPPC    C2 2602   4.465   3.230   1.331
   53DPPC    C3 2603   4.549   3.189   1.116
   53DPPC    N4 2604   4.589   3.206   1.256
   53DPPC    C5 2605   4.655   3.083   1.304
   53DPPC    C6 2606   4.704   3.081   1.449
   53DPPC    O7 2607   4.779   2.961   1.470
   53DPPC    P8 2608   4.736   2.917   1.619
   53DPPC    O9 2609   4.803   2.787   1.644
   53DPPC   O10 2610   4.591   2.940   1.635
   53DPPC   O11 2611   4.809   3.051   1.671
   53DPPC   C12 2612   4.907   3.035   1.774
   53DPPC   C13 2613   4.989   3.159   1.808
   53DPPC   O14 2614   5.106   3.133   1.886
   53DPPC   C15 2615   5.207   3.224   1.889
   53DPPC   O16 2616   5.203   3.326   1.820
   53DPPC   C17 2617   5.301   3.221   2.010
   53DPPC   C18 2618   5.220   3.197   2.137
   53DPPC   C19 2619   5.121   3.310   2.165
   53DPPC   C20 2620   5.029   3.282   2.284
   53DPPC   C21 2621   4.963   3.144   2.272
   53DPPC   C22 2622   4.911   3.095   2.407
   53DPPC   C23 2623   4.831   3.204   2.480
   53DPPC   C24 2624   4.817   3.171   2.629
   53DPPC   C25 2625   4.726   3.270   2.701
   53DPPC   C26 2626   4.731   3.232   2.850
   53DPPC   C27 2627   4.626   3.313   2.926
   53DPPC   C28 2628   4.634   3.274   3.074
   53DPPC   C29 2629   4.624   3.129   3.124
   53DPPC   C30 2630   4.620   3.127   3.277
   53DPPC   C31 2631   4.583   2.989   3.333
   53DPPC   C32 2632   4.894   3.272   1.849
   53DPPC   O33 2633   4.791   3.251   1.946
   53DPPC   C34 2634   4.709   3.358   1.965
   53DPPC   O35 2635   4.741   3.469   1.923
   53DPPC   C36 2636   4.580   3.323   2.039
   53DPPC   C37 2637   4.601   3.299   2.189
   53DPPC   C38 2638   4.461   3.274   2.245
   53DPPC   C39 2639   4.471   3.283   2.397
   53DPPC   C40 2640   4.348   3.235   2.474
   53DPPC   C41 2641   4.370   3.237   2.625
   53DPPC   C42 2642   4.236   3.212   2.693
   53DPPC   C43 2643   4.261   3.235   2.842
   53DPPC   C44 2644   4.138   3.181   2.915
   53DPPC   C45 2645   4.187   3.203   3.059
   53DPPC   C46 2646   4.081   3.170   3.164
   53DPPC   C47 2647   4.158   3.204   3.291
   53DPPC   C48 2648   4.097   3.150   3.421
   53DPPC   C49 2649   4.200   3.164   3.533
   53DPPC   C50 2650   4.148   3.092   3.658
   54DPPC    C1 2651   6.227   0.313   1.738
   54DPPC    C2 2652   6.162   0.243   1.520
   54DPPC    C3 2653   6.332   0.417   1.542
   54DPPC    N4 2654   6.275   0.294   1.600
   54DPPC    C5 2655   6.368   0.181   1.601
   54DPPC    C6 2656   6.507   0.199   1.662
   54DPPC    O7 2657   6.514   0.214   1.804
   54DPPC    P8 2658   6.644   0.295   1.854
   54DPPC    O9 2659   6.613   0.427   1.794
   54DPPC   O10 2660   6.753   0.204   1.814
   54DPPC   O11 2661   6.608   0.284   2.010
   54DPPC   C12 2662   6.485   0.355   2.029
   54DPPC   C13 2663   6.463   0.392   2.176
   54DPPC   O14 2664   6.539   0.511   2.206
   54DPPC   C15 2665   6.496   0.634   2.166
   54DPPC   O16 2666   6.391   0.648   2.104
   54DPPC   C17 2667   6.596   0.743   2.205
   54DPPC   C18 2668   6.657   0.723   2.343
   54DPPC   C19 2669   6.558   0.718   2.460
   54DPPC   C20 2670   6.608   0.691   2.602
   54DPPC   C21 2671   6.500   0.674   2.709
   54DPPC   C22 2672   6.554   0.649   2.849
   54DPPC   C23 2673   6.439   0.647   2.950
   54DPPC   C24 2674   6.473   0.625   3.097
   54DPPC   C25 2675   6.344   0.599   3.174
   54DPPC   C26 2676   6.248   0.718   3.162
   54DPPC   C27 2677   6.301   0.838   3.241
   54DPPC   C28 2678   6.182   0.926   3.280
   54DPPC   C29 2679   6.217   1.029   3.388
   54DPPC   C30 2680   6.116   1.034   3.503
   54DPPC   C31 2681   6.171   1.111   3.623
   54DPPC   C32 2682   6.497   0.262   2.249
   54DPPC   O33 2683   6.481   0.261   2.391
   54DPPC   C34 2684   6.505   0.139   2.446
   54DPPC   O35 2685   6.580   0.068   2.380
   54DPPC   C36 2686   6.464   0.097   2.588
   54DPPC   C37 2687   6.481   0.205   2.695
   54DPPC   C38 2688   6.526   0.134   2.823
   54DPPC   C39 2689   6.531   0.244   2.930
   54DPPC   C40 2690   6.592   0.190   3.059
   54DPPC   C41 2691   6.603   0.298   3.166
   54DPPC   C42 2692   6.645   0.232   3.298
   54DPPC   C43 2693   6.654   0.333   3.413
   54DPPC   C44 2694   6.676   0.261   3.546
   54DPPC   C45 2695   6.688   0.356   3.666
   54DPPC   C46 2696   6.718   0.278   3.794
   54DPPC   C47 2697   6.701   0.366   3.918
   54DPPC   C48 2698   6.747   0.308   4.051
   54DPPC   C49 2699   6.896   0.274   4.059
   54DPPC   C50 2700   6.958   0.281   4.199
   55DPPC    C1 2701   0.254   7.192   1.685
   55DPPC    C2 2702   0.366   7.388   1.760
   55DPPC    C3 2703   0.399   7.296   1.535
   55DPPC    N4 2704   0.304   7.323   1.644
   55DPPC    C5 2705   0.190   7.409   1.606
   55DPPC    C6 2706   0.110   7.400   1.476
   55DPPC    O7 2707   0.013   7.504   1.464
   55DPPC    P8 2708  -0.064   7.497   1.323
   55DPPC    O9 2709   0.019   7.407   1.240
   55DPPC   O10 2710  -0.115   7.630   1.282
   55DPPC   O11 2711  -0.186   7.416   1.390
   55DPPC   C12 2712  -0.245   7.499   1.491
   55DPPC   C13 2713  -0.328   7.407   1.581
   55DPPC   O14 2714  -0.411   7.469   1.680
   55DPPC   C15 2715  -0.543   7.437   1.671
   55DPPC   O16 2716  -0.596   7.387   1.572
   55DPPC   C17 2717  -0.636   7.473   1.787
   55DPPC   C18 2718  -0.650   7.371   1.900
   55DPPC   C19 2719  -0.680   7.228   1.855
   55DPPC   C20 2720  -0.661   7.141   1.980
   55DPPC   C21 2721  -0.667   6.992   1.946
   55DPPC   C22 2722  -0.642   6.910   2.073
   55DPPC   C23 2723  -0.755   6.943   2.171
   55DPPC   C24 2724  -0.709   6.902   2.311
   55DPPC   C25 2725  -0.592   6.977   2.376
   55DPPC   C26 2726  -0.564   6.927   2.518
   55DPPC   C27 2727  -0.438   6.984   2.583
   55DPPC   C28 2728  -0.449   6.938   2.729
   55DPPC   C29 2729  -0.324   6.949   2.816
   55DPPC   C30 2730  -0.346   6.897   2.959
   55DPPC   C31 2731  -0.446   6.997   3.017
   55DPPC   C32 2732  -0.218   7.319   1.642
   55DPPC   O33 2733  -0.247   7.225   1.746
   55DPPC   C34 2734  -0.139   7.160   1.797
   55DPPC   O35 2735  -0.029   7.159   1.743
   55DPPC   C36 2736  -0.168   7.053   1.903
   55DPPC   C37 2737  -0.221   7.115   2.032
   55DPPC   C38 2738  -0.134   7.223   2.097
   55DPPC   C39 2739  -0.195   7.246   2.236
   55DPPC   C40 2740  -0.342   7.289   2.229
   55DPPC   C41 2741  -0.383   7.301   2.376
   55DPPC   C42 2742  -0.278   7.372   2.461
   55DPPC   C43 2743  -0.314   7.390   2.609
   55DPPC   C44 2744  -0.202   7.467   2.678
   55DPPC   C45 2745  -0.208   7.454   2.830
   55DPPC   C46 2746  -0.191   7.307   2.870
   55DPPC   C47 2747  -0.176   7.292   3.021
   55DPPC   C48 2748  -0.305   7.350   3.080
   55DPPC   C49 2749  -0.308   7.308   3.227
   55DPPC   C50 2750  -0.207   7.383   3.314
   56DPPC    C1 2751   4.208   1.925   2.277
   56DPPC    C2 2752   4.259   1.871   2.500
   56DPPC    C3 2753   4.289   1.710   2.322
   56DPPC    N4 2754   4.303   1.851   2.361
   56DPPC    C5 2755   4.439   1.904   2.342
   56DPPC    C6 2756   4.516   1.871   2.214
   56DPPC    O7 2757   4.630   1.957   2.208
   56DPPC    P8 2758   4.684   1.968   2.057
   56DPPC    O9 2759   4.562   1.978   1.974
   56DPPC   O10 2760   4.790   1.868   2.033
   56DPPC   O11 2761   4.756   2.112   2.063
   56DPPC   C12 2762   4.826   2.128   2.186
   56DPPC   C13 2763   4.916   2.251   2.193
   56DPPC   O14 2764   5.011   2.242   2.300
   56DPPC   C15 2765   5.105   2.338   2.322
   56DPPC   O16 2766   5.120   2.430   2.242
   56DPPC   C17 2767   5.169   2.331   2.461
   56DPPC   C18 2768   5.319   2.307   2.439
   56DPPC   C19 2769   5.388   2.298   2.575
   56DPPC   C20 2770   5.366   2.174   2.661
   56DPPC   C21 2771   5.442   2.194   2.792
   56DPPC   C22 2772   5.432   2.081   2.894
   56DPPC   C23 2773   5.515   2.104   3.021
   56DPPC   C24 2774   5.541   1.977   3.101
   56DPPC   C25 2775   5.640   2.019   3.210
   56DPPC   C26 2776   5.657   1.889   3.289
   56DPPC   C27 2777   5.736   1.907   3.419
   56DPPC   C28 2778   5.652   1.992   3.514
   56DPPC   C29 2779   5.716   2.025   3.648
   56DPPC   C30 2780   5.606   2.053   3.751
   56DPPC   C31 2781   5.515   2.149   3.674
   56DPPC   C32 2782   4.826   2.375   2.181
   56DPPC   O33 2783   4.711   2.361   2.264
   56DPPC   C34 2784   4.610   2.450   2.243
   56DPPC   O35 2785   4.628   2.546   2.168
   56DPPC   C36 2786   4.467   2.412   2.283
   56DPPC   C37 2787   4.475   2.339   2.418
   56DPPC   C38 2788   4.342   2.285   2.469
   56DPPC   C39 2789   4.354   2.287   2.621
   56DPPC   C40 2790   4.395   2.429   2.662
   56DPPC   C41 2791   4.376   2.427   2.814
   56DPPC   C42 2792   4.483   2.339   2.878
   56DPPC   C43 2793   4.454   2.339   3.028
   56DPPC   C44 2794   4.535   2.241   3.113
   56DPPC   C45 2795   4.488   2.236   3.258
   56DPPC   C46 2796   4.492   2.378   3.316
   56DPPC   C47 2797   4.468   2.389   3.467
   56DPPC   C48 2798   4.451   2.533   3.515
   56DPPC   C49 2799   4.444   2.511   3.666
   56DPPC   C50 2800   4.566   2.442   3.727
   57DPPC    C1 2801   5.715   7.076   1.966
   57DPPC    C2 2802   5.524   6.958   2.021
   57DPPC    C3 2803   5.609   6.940   1.791
   57DPPC    N4 2804   5.642   6.952   1.934
   57DPPC    C5 2805   5.735   6.844   1.972
   57DPPC    C6 2806   5.686   6.699   1.960
   57DPPC    O7 2807   5.793   6.604   1.949
   57DPPC    P8 2808   5.734   6.463   1.900
   57DPPC    O9 2809   5.850   6.393   1.841
   57DPPC   O10 2810   5.613   6.491   1.821
   57DPPC   O11 2811   5.691   6.404   2.044
   57DPPC   C12 2812   5.815   6.376   2.110
   57DPPC   C13 2813   5.822   6.425   2.254
   57DPPC   O14 2814   5.949   6.379   2.305
   57DPPC   C15 2815   6.028   6.477   2.356
   57DPPC   O16 2816   5.971   6.586   2.351
   57DPPC   C17 2817   6.169   6.441   2.403
   57DPPC   C18 2818   6.174   6.394   2.548
   57DPPC   C19 2819   6.133   6.511   2.637
   57DPPC   C20 2820   6.112   6.473   2.784
   57DPPC   C21 2821   6.029   6.577   2.859
   57DPPC   C22 2822   6.015   6.530   3.004
   57DPPC   C23 2823   5.939   6.620   3.101
   57DPPC   C24 2824   5.968   6.583   3.247
   57DPPC   C25 2825   5.902   6.446   3.261
   57DPPC   C26 2826   5.919   6.379   3.398
   57DPPC   C27 2827   5.844   6.446   3.513
   57DPPC   C28 2828   5.856   6.366   3.642
   57DPPC   C29 2829   5.744   6.386   3.745
   57DPPC   C30 2830   5.764   6.335   3.888
   57DPPC   C31 2831   5.627   6.320   3.954
   57DPPC   C32 2832   5.704   6.368   2.333
   57DPPC   O33 2833   5.715   6.233   2.380
   57DPPC   C34 2834   5.597   6.171   2.405
   57DPPC   O35 2835   5.496   6.219   2.353
   57DPPC   C36 2836   5.603   6.034   2.472
   57DPPC   C37 2837   5.479   6.039   2.562
   57DPPC   C38 2838   5.493   5.943   2.680
   57DPPC   C39 2839   5.367   5.942   2.766
   57DPPC   C40 2840   5.387   5.864   2.895
   57DPPC   C41 2841   5.254   5.873   2.971
   57DPPC   C42 2842   5.265   5.817   3.113
   57DPPC   C43 2843   5.132   5.802   3.188
   57DPPC   C44 2844   5.151   5.719   3.315
   57DPPC   C45 2845   5.014   5.696   3.378
   57DPPC   C46 2846   5.038   5.614   3.505
   57DPPC   C47 2847   5.072   5.468   3.473
   57DPPC   C48 2848   5.175   5.419   3.575
   57DPPC   C49 2849   5.124   5.398   3.717
   57DPPC   C50 2850   5.238   5.397   3.820
   58DPPC    C1 2851   8.469   6.932   1.301
   58DPPC    C2 2852   8.492   7.145   1.195
   58DPPC    C3 2853   8.287   7.096   1.302
   58DPPC    N4 2854   8.432   7.075   1.309
   58DPPC    C5 2855   8.480   7.128   1.438
   58DPPC    C6 2856   8.418   7.256   1.493
   58DPPC    O7 2857   8.461   7.377   1.428
   58DPPC    P8 2858   8.338   7.480   1.429
   58DPPC    O9 2859   8.220   7.402   1.385
   58DPPC   O10 2860   8.375   7.605   1.360
   58DPPC   O11 2861   8.336   7.495   1.590
   58DPPC   C12 2862   8.422   7.602   1.630
   58DPPC   C13 2863   8.439   7.632   1.779
   58DPPC   O14 2864   8.541   7.732   1.786
   58DPPC   C15 2865   8.496   7.860   1.780
   58DPPC   O16 2866   8.380   7.895   1.758
   58DPPC   C17 2867   8.607   7.964   1.794
   58DPPC   C18 2868   8.571   8.050   1.915
   58DPPC   C19 2869   8.671   8.155   1.964
   58DPPC   C20 2870   8.636   8.214   2.100
   58DPPC   C21 2871   8.638   8.108   2.211
   58DPPC   C22 2872   8.615   8.167   2.350
   58DPPC   C23 2873   8.580   8.051   2.443
   58DPPC   C24 2874   8.596   8.083   2.592
   58DPPC   C25 2875   8.520   7.983   2.678
   58DPPC   C26 2876   8.507   8.030   2.823
   58DPPC   C27 2877   8.441   7.925   2.913
   58DPPC   C28 2878   8.463   7.943   3.063
   58DPPC   C29 2879   8.609   7.910   3.095
   58DPPC   C30 2880   8.631   7.903   3.246
   58DPPC   C31 2881   8.781   7.912   3.273
   58DPPC   C32 2882   8.474   7.497   1.841
   58DPPC   O33 2883   8.444   7.488   1.981
   58DPPC   C34 2884   8.443   7.360   2.024
   58DPPC   O35 2885   8.453   7.270   1.941
   58DPPC   C36 2886   8.446   7.342   2.176
   58DPPC   C37 2887   8.592   7.318   2.218
   58DPPC   C38 2888   8.589   7.310   2.371
   58DPPC   C39 2889   8.727   7.272   2.427
   58DPPC   C40 2890   8.751   7.329   2.567
   58DPPC   C41 2891   8.648   7.280   2.668
   58DPPC   C42 2892   8.722   7.292   2.801
   58DPPC   C43 2893   8.664   7.178   2.884
   58DPPC   C44 2894   8.708   7.041   2.832
   58DPPC   C45 2895   8.643   6.933   2.918
   58DPPC   C46 2896   8.656   6.942   3.070
   58DPPC   C47 2897   8.586   6.831   3.149
   58DPPC   C48 2898   8.642   6.809   3.290
   58DPPC   C49 2899   8.588   6.682   3.356
   58DPPC   C50 2900   8.647   6.661   3.496
   59DPPC    C1 2901   0.920   5.345   1.809
   59DPPC    C2 2902   0.746   5.177   1.822
   59DPPC    C3 2903   0.721   5.377   1.696
   59DPPC    N4 2904   0.817   5.272   1.734
   59DPPC    C5 2905   0.881   5.206   1.620
   59DPPC    C6 2906   0.804   5.097   1.546
   59DPPC    O7 2907   0.664   5.115   1.523
   59DPPC    P8 2908   0.604   4.977   1.466
   59DPPC    O9 2909   0.712   4.878   1.444
   59DPPC   O10 2910   0.495   5.002   1.368
   59DPPC   O11 2911   0.527   4.924   1.597
   59DPPC   C12 2912   0.408   5.002   1.608
   59DPPC   C13 2913   0.346   5.020   1.747
   59DPPC   O14 2914   0.410   5.096   1.850
   59DPPC   C15 2915   0.330   5.197   1.892
   59DPPC   O16 2916   0.289   5.288   1.821
   59DPPC   C17 2917   0.371   5.236   2.035
   59DPPC   C18 2918   0.264   5.260   2.141
   59DPPC   C19 2919   0.191   5.128   2.167
   59DPPC   C20 2920   0.120   5.111   2.302
   59DPPC   C21 2921   0.234   5.128   2.402
   59DPPC   C22 2922   0.191   5.119   2.549
   59DPPC   C23 2923   0.311   5.176   2.624
   59DPPC   C24 2924   0.444   5.101   2.615
   59DPPC   C25 2925   0.555   5.197   2.659
   59DPPC   C26 2926   0.691   5.127   2.656
   59DPPC   C27 2927   0.683   4.998   2.739
   59DPPC   C28 2928   0.813   4.921   2.765
   59DPPC   C29 2929   0.865   4.879   2.628
   59DPPC   C30 2930   0.999   4.806   2.631
   59DPPC   C31 2931   1.026   4.734   2.498
   59DPPC   C32 2932   0.339   4.873   1.789
   59DPPC   O33 2933   0.231   4.847   1.879
   59DPPC   C34 2934   0.200   4.715   1.892
   59DPPC   O35 2935   0.244   4.638   1.806
   59DPPC   C36 2936   0.093   4.672   1.992
   59DPPC   C37 2937   0.033   4.797   2.056
   59DPPC   C38 2938  -0.105   4.763   2.113
   59DPPC   C39 2939  -0.179   4.892   2.148
   59DPPC   C40 2940  -0.305   4.878   2.234
   59DPPC   C41 2941  -0.362   5.017   2.259
   59DPPC   C42 2942  -0.483   5.014   2.352
   59DPPC   C43 2943  -0.436   4.956   2.485
   59DPPC   C44 2944  -0.550   4.938   2.585
   59DPPC   C45 2945  -0.495   4.848   2.696
   59DPPC   C46 2946  -0.386   4.918   2.777
   59DPPC   C47 2947  -0.304   4.817   2.859
   59DPPC   C48 2948  -0.405   4.784   2.969
   59DPPC   C49 2949  -0.453   4.904   3.052
   59DPPC   C50 2950  -0.542   4.843   3.160
   60DPPC    C1 2951   6.874   4.844   1.216
   60DPPC    C2 2952   6.664   4.751   1.303
   60DPPC    C3 2953   6.792   4.889   1.431
   60DPPC    N4 2954   6.751   4.869   1.291
   60DPPC    C5 2955   6.696   4.988   1.224
   60DPPC    C6 2956   6.573   5.052   1.289
   60DPPC    O7 2957   6.554   5.188   1.248
   60DPPC    P8 2958   6.498   5.280   1.368
   60DPPC    O9 2959   6.412   5.185   1.441
   60DPPC   O10 2960   6.458   5.401   1.293
   60DPPC   O11 2961   6.638   5.308   1.443
   60DPPC   C12 2962   6.652   5.244   1.570
   60DPPC   C13 2963   6.773   5.279   1.658
   60DPPC   O14 2964   6.785   5.188   1.768
   60DPPC   C15 2965   6.877   5.088   1.755
   60DPPC   O16 2966   6.941   5.076   1.651
   60DPPC   C17 2967   6.887   5.002   1.880
   60DPPC   C18 2968   6.800   4.878   1.859
   60DPPC   C19 2969   6.807   4.780   1.976
   60DPPC   C20 2970   6.701   4.672   1.955
   60DPPC   C21 2971   6.681   4.573   2.070
   60DPPC   C22 2972   6.620   4.648   2.188
   60DPPC   C23 2973   6.615   4.546   2.302
   60DPPC   C24 2974   6.574   4.611   2.434
   60DPPC   C25 2975   6.526   4.507   2.536
   60DPPC   C26 2976   6.513   4.562   2.679
   60DPPC   C27 2977   6.443   4.463   2.773
   60DPPC   C28 2978   6.512   4.327   2.756
   60DPPC   C29 2979   6.465   4.233   2.867
   60DPPC   C30 2980   6.494   4.084   2.849
   60DPPC   C31 2981   6.490   4.009   2.983
   60DPPC   C32 2982   6.763   5.427   1.699
   60DPPC   O33 2983   6.631   5.460   1.744
   60DPPC   C34 2984   6.618   5.591   1.777
   60DPPC   O35 2985   6.698   5.676   1.738
   60DPPC   C36 2986   6.496   5.630   1.861
   60DPPC   C37 2987   6.505   5.613   2.013
   60DPPC   C38 2988   6.372   5.667   2.066
   60DPPC   C39 2989   6.397   5.751   2.192
   60DPPC   C40 2990   6.261   5.800   2.240
   60DPPC   C41 2991   6.264   5.891   2.363
   60DPPC   C42 2992   6.119   5.908   2.406
   60DPPC   C43 2993   6.109   6.000   2.528
   60DPPC   C44 2994   5.964   6.007   2.577
   60DPPC   C45 2995   5.971   6.104   2.696
   60DPPC   C46 2996   6.062   6.054   2.808
   60DPPC   C47 2997   6.063   6.131   2.941
   60DPPC   C48 2998   6.145   6.052   3.043
   60DPPC   C49 2999   6.146   6.157   3.153
   60DPPC   C50 3000   6.207   6.104   3.283
   61DPPC    C1 3001   3.996   0.331   2.135
   61DPPC    C2 3002   4.029   0.224   1.943
   61DPPC    C3 3003   3.801   0.254   2.000
   61DPPC    N4 3004   3.933   0.319   2.003
   61DPPC    C5 3005   3.929   0.446   1.930
   61DPPC    C6 3006   3.838   0.558   1.980
   61DPPC    O7 3007   3.900   0.655   2.066
   61DPPC    P8 3008   3.788   0.766   2.094
   61DPPC    O9 3009   3.662   0.711   2.148
   61DPPC   O10 3010   3.803   0.877   1.998
   61DPPC   O11 3011   3.867   0.826   2.221
   61DPPC   C12 3012   3.887   0.717   2.312
   61DPPC   C13 3013   3.925   0.763   2.452
   61DPPC   O14 3014   3.963   0.654   2.538
   61DPPC   C15 3015   4.096   0.644   2.562
   61DPPC   O16 3016   4.167   0.684   2.470
   61DPPC   C17 3017   4.142   0.535   2.659
   61DPPC   C18 3018   4.058   0.407   2.670
   61DPPC   C19 3019   4.127   0.303   2.758
   61DPPC   C20 3020   4.263   0.246   2.717
   61DPPC   C21 3021   4.272   0.109   2.784
   61DPPC   C22 3022   4.398   0.032   2.743
   61DPPC   C23 3023   4.525   0.112   2.772
   61DPPC   C24 3024   4.651   0.039   2.724
   61DPPC   C25 3025   4.773   0.129   2.703
   61DPPC   C26 3026   4.912   0.074   2.735
   61DPPC   C27 3027   5.018   0.108   2.630
   61DPPC   C28 3028   5.149   0.034   2.655
   61DPPC   C29 3029   5.135  -0.116   2.682
   61DPPC   C30 3030   5.050  -0.199   2.586
   61DPPC   C31 3031   5.061  -0.344   2.635
   61DPPC   C32 3032   3.811   0.857   2.492
   61DPPC   O33 3033   3.841   0.941   2.604
   61DPPC   C34 3034   3.743   1.024   2.649
   61DPPC   O35 3035   3.643   1.039   2.578
   61DPPC   C36 3036   3.778   1.121   2.762
   61DPPC   C37 3037   3.742   1.062   2.898
   61DPPC   C38 3038   3.769   1.169   3.003
   61DPPC   C39 3039   3.741   1.118   3.145
   61DPPC   C40 3040   3.596   1.071   3.156
   61DPPC   C41 3041   3.590   0.946   3.245
   61DPPC   C42 3042   3.442   0.907   3.250
   61DPPC   C43 3043   3.439   0.793   3.352
   61DPPC   C44 3044   3.306   0.717   3.358
   61DPPC   C45 3045   3.325   0.610   3.465
   61DPPC   C46 3046   3.363   0.664   3.603
   61DPPC   C47 3047   3.264   0.760   3.670
   61DPPC   C48 3048   3.321   0.779   3.811
   61DPPC   C49 3049   3.213   0.847   3.895
   61DPPC   C50 3050   3.243   0.839   4.044
   62DPPC    C1 3051   7.796   4.457   1.023
   62DPPC    C2 3052   7.609   4.303   1.087
   62DPPC    C3 3053   7.735   4.422   1.244
   62DPPC    N4 3054   7.680   4.430   1.108
   62DPPC    C5 3055   7.598   4.550   1.084
   62DPPC    C6 3056   7.452   4.551   1.129
   62DPPC    O7 3057   7.446   4.573   1.270
   62DPPC    P8 3058   7.299   4.556   1.333
   62DPPC    O9 3059   7.310   4.450   1.436
   62DPPC   O10 3060   7.213   4.556   1.212
   62DPPC   O11 3061   7.293   4.705   1.394
   62DPPC   C12 3062   7.385   4.714   1.502
   62DPPC   C13 3063   7.345   4.830   1.595
   62DPPC   O14 3064   7.430   4.853   1.708
   62DPPC   C15 3065   7.422   4.978   1.761
   62DPPC   O16 3066   7.409   5.074   1.685
   62DPPC   C17 3067   7.476   4.989   1.904
   62DPPC   C18 3068   7.379   5.027   2.016
   62DPPC   C19 3069   7.262   4.928   2.022
   62DPPC   C20 3070   7.210   4.953   2.164
   62DPPC   C21 3071   7.064   4.913   2.188
   62DPPC   C22 3072   7.023   4.951   2.331
   62DPPC   C23 3073   6.886   4.899   2.373
   62DPPC   C24 3074   6.843   4.941   2.513
   62DPPC   C25 3075   6.699   4.913   2.554
   62DPPC   C26 3076   6.593   4.964   2.456
   62DPPC   C27 3077   6.449   4.937   2.502
   62DPPC   C28 3078   6.331   4.952   2.405
   62DPPC   C29 3079   6.198   4.929   2.476
   62DPPC   C30 3080   6.211   4.797   2.554
   62DPPC   C31 3081   6.074   4.765   2.614
   62DPPC   C32 3082   7.195   4.821   1.623
   62DPPC   O33 3083   7.173   4.695   1.688
   62DPPC   C34 3084   7.045   4.650   1.694
   62DPPC   O35 3085   6.964   4.685   1.608
   62DPPC   C36 3086   7.030   4.528   1.785
   62DPPC   C37 3087   7.125   4.531   1.905
   62DPPC   C38 3088   7.094   4.423   2.009
   62DPPC   C39 3089   7.180   4.442   2.134
   62DPPC   C40 3090   7.126   4.383   2.265
   62DPPC   C41 3091   6.986   4.437   2.294
   62DPPC   C42 3092   6.934   4.399   2.433
   62DPPC   C43 3093   7.034   4.437   2.543
   62DPPC   C44 3094   6.973   4.411   2.680
   62DPPC   C45 3095   6.937   4.262   2.677
   62DPPC   C46 3096   6.901   4.214   2.818
   62DPPC   C47 3097   6.873   4.066   2.845
   62DPPC   C48 3098   6.834   4.051   2.992
   62DPPC   C49 3099   6.918   4.125   3.096
   62DPPC   C50 3100   6.846   4.128   3.231
   63DPPC    C1 3101   7.812   8.498   0.942
   63DPPC    C2 3102   7.787   8.275   0.926
   63DPPC    C3 3103   7.981   8.349   1.035
   63DPPC    N4 3104   7.837   8.376   1.021
   63DPPC    C5 3105   7.753   8.364   1.141
   63DPPC    C6 3106   7.813   8.416   1.272
   63DPPC    O7 3107   7.823   8.556   1.300
   63DPPC    P8 3108   7.892   8.551   1.446
   63DPPC    O9 3109   7.927   8.692   1.469
   63DPPC   O10 3110   7.996   8.446   1.434
   63DPPC   O11 3111   7.769   8.494   1.533
   63DPPC   C12 3112   7.707   8.605   1.597
   63DPPC   C13 3113   7.583   8.571   1.680
   63DPPC   O14 3114   7.511   8.686   1.725
   63DPPC   C15 3115   7.399   8.714   1.653
   63DPPC   O16 3116   7.372   8.660   1.546
   63DPPC   C17 3117   7.310   8.824   1.711
   63DPPC   C18 3118   7.381   8.898   1.825
   63DPPC   C19 3119   7.277   8.970   1.910
   63DPPC   C20 3120   7.332   9.043   2.033
   63DPPC   C21 3121   7.237   9.085   2.145
   63DPPC   C22 3122   7.300   9.061   2.283
   63DPPC   C23 3123   7.203   9.125   2.382
   63DPPC   C24 3124   7.194   9.075   2.526
   63DPPC   C25 3125   7.088   9.159   2.598
   63DPPC   C26 3126   7.040   9.104   2.732
   63DPPC   C27 3127   7.147   9.109   2.841
   63DPPC   C28 3128   7.101   9.070   2.982
   63DPPC   C29 3129   7.062   8.924   3.004
   63DPPC   C30 3130   7.025   8.898   3.151
   63DPPC   C31 3131   7.140   8.812   3.204
   63DPPC   C32 3132   7.636   8.494   1.801
   63DPPC   O33 3133   7.752   8.552   1.862
   63DPPC   C34 3134   7.801   8.482   1.968
   63DPPC   O35 3135   7.732   8.398   2.026
   63DPPC   C36 3136   7.924   8.551   2.027
   63DPPC   C37 3137   7.906   8.601   2.171
   63DPPC   C38 3138   7.836   8.737   2.176
   63DPPC   C39 3139   7.812   8.776   2.322
   63DPPC   C40 3140   7.743   8.912   2.337
   63DPPC   C41 3141   7.728   8.954   2.483
   63DPPC   C42 3142   7.658   9.090   2.484
   63DPPC   C43 3143   7.620   9.138   2.624
   63DPPC   C44 3144   7.548   9.272   2.635
   63DPPC   C45 3145   7.570   9.344   2.768
   63DPPC   C46 3146   7.498   9.260   2.873
   63DPPC   C47 3147   7.506   9.329   3.010
   63DPPC   C48 3148   7.424   9.263   3.121
   63DPPC   C49 3149   7.435   9.342   3.251
   63DPPC   C50 3150   7.355   9.279   3.365
   64DPPC    C1 3151   3.421   0.059   1.877
   64DPPC    C2 3152   3.342  -0.008   1.664
   64DPPC    C3 3153   3.218   0.162   1.785
   64DPPC    N4 3154   3.351   0.106   1.757
   64DPPC    C5 3155   3.446   0.194   1.687
   64DPPC    C6 3156   3.513   0.313   1.755
   64DPPC    O7 3157   3.421   0.408   1.808
   64DPPC    P8 3158   3.486   0.527   1.894
   64DPPC    O9 3159   3.377   0.615   1.940
   64DPPC   O10 3160   3.598   0.573   1.808
   64DPPC   O11 3161   3.542   0.442   2.018
   64DPPC   C12 3162   3.424   0.428   2.098
   64DPPC   C13 3163   3.447   0.377   2.240
   64DPPC   O14 3164   3.318   0.360   2.300
   64DPPC   C15 3165   3.236   0.257   2.265
   64DPPC   O16 3166   3.268   0.182   2.173
   64DPPC   C17 3167   3.102   0.250   2.337
   64DPPC   C18 3168   3.126   0.232   2.487
   64DPPC   C19 3169   3.164   0.366   2.550
   64DPPC   C20 3170   3.172   0.352   2.702
   64DPPC   C21 3171   3.043   0.296   2.763
   64DPPC   C22 3172   3.057   0.283   2.915
   64DPPC   C23 3173   3.185   0.213   2.962
   64DPPC   C24 3174   3.235   0.278   3.091
   64DPPC   C25 3175   3.361   0.221   3.155
   64DPPC   C26 3176   3.320   0.102   3.242
   64DPPC   C27 3177   3.447   0.022   3.273
   64DPPC   C28 3178   3.398  -0.104   3.345
   64DPPC   C29 3179   3.515  -0.203   3.346
   64DPPC   C30 3180   3.544  -0.256   3.205
   64DPPC   C31 3181   3.626  -0.384   3.221
   64DPPC   C32 3182   3.537   0.484   2.303
   64DPPC   O33 3183   3.577   0.442   2.433
   64DPPC   C34 3184   3.670   0.342   2.433
   64DPPC   O35 3185   3.738   0.319   2.334
   64DPPC   C36 3186   3.704   0.278   2.568
   64DPPC   C37 3187   3.593   0.189   2.625
   64DPPC   C38 3188   3.603   0.204   2.777
   64DPPC   C39 3189   3.736   0.161   2.838
   64DPPC   C40 3190   3.741   0.008   2.825
   64DPPC   C41 3191   3.883  -0.039   2.855
   64DPPC   C42 3192   3.924   0.016   2.991
   64DPPC   C43 3193   4.043  -0.059   3.052
   64DPPC   C44 3194   3.993  -0.203   3.071
   64DPPC   C45 3195   4.104  -0.293   3.126
   64DPPC   C46 3196   4.045  -0.419   3.191
   64DPPC   C47 3197   4.160  -0.514   3.226
   64DPPC   C48 3198   4.098  -0.646   3.273
   64DPPC   C49 3199   4.212  -0.746   3.293
   64DPPC   C50 3200   4.283  -0.771   3.159
   65DPPC    C1 3201   2.384   5.119   5.594
   65DPPC    C2 3202   2.563   5.090   5.442
   65DPPC    C3 3203   2.548   4.951   5.638
   65DPPC    N4 3204   2.471   5.018   5.532
   65DPPC    C5 3205   2.389   4.911   5.474
   65DPPC    C6 3206   2.441   4.791   5.396
   65DPPC    O7 3207   2.348   4.682   5.386
   65DPPC    P8 3208   2.428   4.549   5.344
   65DPPC    O9 3209   2.312   4.458   5.338
   65DPPC   O10 3210   2.542   4.537   5.438
   65DPPC   O11 3211   2.488   4.594   5.201
   65DPPC   C12 3212   2.411   4.546   5.091
   65DPPC   C13 3213   2.471   4.593   4.959
   65DPPC   O14 3214   2.381   4.589   4.847
   65DPPC   C15 3215   2.287   4.685   4.824
   65DPPC   O16 3216   2.277   4.776   4.906
   65DPPC   C17 3217   2.233   4.697   4.682
   65DPPC   C18 3218   2.271   4.827   4.610
   65DPPC   C19 3219   2.422   4.850   4.597
   65DPPC   C20 3220   2.444   4.971   4.505
   65DPPC   C21 3221   2.591   4.982   4.463
   65DPPC   C22 3222   2.611   5.108   4.379
   65DPPC   C23 3223   2.500   5.101   4.273
   65DPPC   C24 3224   2.540   5.215   4.179
   65DPPC   C25 3225   2.677   5.182   4.119
   65DPPC   C26 3226   2.741   5.297   4.042
   65DPPC   C27 3227   2.885   5.256   4.007
   65DPPC   C28 3228   2.954   5.361   3.920
   65DPPC   C29 3229   3.097   5.311   3.897
   65DPPC   C30 3230   3.181   5.409   3.816
   65DPPC   C31 3231   3.320   5.346   3.805
   65DPPC   C32 3232   2.600   4.511   4.953
   65DPPC   O33 3233   2.597   4.369   4.966
   65DPPC   C34 3234   2.723   4.317   4.958
   65DPPC   O35 3235   2.824   4.385   4.972
   65DPPC   C36 3236   2.718   4.165   4.977
   65DPPC   C37 3237   2.655   4.068   4.877
   65DPPC   C38 3238   2.725   4.092   4.743
   65DPPC   C39 3239   2.670   4.005   4.630
   65DPPC   C40 3240   2.764   4.008   4.509
   65DPPC   C41 3241   2.725   3.940   4.377
   65DPPC   C42 3242   2.821   3.951   4.258
   65DPPC   C43 3243   2.809   4.090   4.194
   65DPPC   C44 3244   2.869   4.076   4.054
   65DPPC   C45 3245   2.825   4.197   3.972
   65DPPC   C46 3246   2.900   4.183   3.839
   65DPPC   C47 3247   2.824   4.113   3.726
   65DPPC   C48 3248   2.907   4.094   3.600
   65DPPC   C49 3249   2.828   4.008   3.502
   65DPPC   C50 3250   2.701   4.086   3.465
   66DPPC    C1 3251   8.109   1.346   1.373
   66DPPC    C2 3252   8.074   1.578   1.379
   66DPPC    C3 3253   8.163   1.476   1.568
   66DPPC    N4 3254   8.167   1.472   1.421
   66DPPC    C5 3255   8.290   1.503   1.347
   66DPPC    C6 3256   8.400   1.397   1.352
   66DPPC    O7 3257   8.514   1.450   1.284
   66DPPC    P8 3258   8.641   1.352   1.268
   66DPPC    O9 3259   8.765   1.404   1.207
   66DPPC   O10 3260   8.585   1.225   1.215
   66DPPC   O11 3261   8.661   1.333   1.426
   66DPPC   C12 3262   8.698   1.447   1.504
   66DPPC   C13 3263   8.653   1.421   1.648
   66DPPC   O14 3264   8.640   1.538   1.731
   66DPPC   C15 3265   8.524   1.608   1.713
   66DPPC   O16 3266   8.461   1.599   1.608
   66DPPC   C17 3267   8.480   1.704   1.824
   66DPPC   C18 3268   8.395   1.636   1.932
   66DPPC   C19 3269   8.344   1.716   2.051
   66DPPC   C20 3270   8.243   1.825   2.015
   66DPPC   C21 3271   8.145   1.856   2.128
   66DPPC   C22 3272   8.055   1.976   2.097
   66DPPC   C23 3273   7.935   1.972   2.193
   66DPPC   C24 3274   7.862   2.105   2.176
   66DPPC   C25 3275   7.733   2.119   2.256
   66DPPC   C26 3276   7.751   2.098   2.406
   66DPPC   C27 3277   7.634   2.117   2.502
   66DPPC   C28 3278   7.672   2.071   2.642
   66DPPC   C29 3279   7.551   2.090   2.735
   66DPPC   C30 3280   7.595   2.081   2.881
   66DPPC   C31 3281   7.484   2.104   2.984
   66DPPC   C32 3282   8.741   1.304   1.693
   66DPPC   O33 3283   8.715   1.250   1.822
   66DPPC   C34 3284   8.596   1.192   1.853
   66DPPC   O35 3285   8.495   1.217   1.788
   66DPPC   C36 3286   8.594   1.107   1.981
   66DPPC   C37 3287   8.628   1.187   2.107
   66DPPC   C38 3288   8.668   1.090   2.218
   66DPPC   C39 3289   8.694   1.154   2.354
   66DPPC   C40 3290   8.714   1.061   2.474
   66DPPC   C41 3291   8.841   0.975   2.466
   66DPPC   C42 3292   8.864   0.905   2.600
   66DPPC   C43 3293   8.881   0.992   2.725
   66DPPC   C44 3294   8.917   0.901   2.843
   66DPPC   C45 3295   8.906   0.985   2.970
   66DPPC   C46 3296   8.882   0.898   3.094
   66DPPC   C47 3297   9.003   0.805   3.105
   66DPPC   C48 3298   8.991   0.723   3.234
   66DPPC   C49 3299   9.102   0.622   3.264
   66DPPC   C50 3300   9.086   0.538   3.391
   67DPPC    C1 3301   4.869   3.025   5.914
   67DPPC    C2 3302   4.674   2.912   5.919
   67DPPC    C3 3303   4.687   3.084   5.764
   67DPPC    N4 3304   4.766   2.974   5.823
   67DPPC    C5 3305   4.822   2.875   5.730
   67DPPC    C6 3306   4.906   2.761   5.790
   67DPPC    O7 3307   4.997   2.699   5.700
   67DPPC    P8 3308   5.061   2.574   5.779
   67DPPC    O9 3309   5.008   2.551   5.916
   67DPPC   O10 3310   5.206   2.575   5.748
   67DPPC   O11 3311   4.993   2.457   5.692
   67DPPC   C12 3312   5.032   2.475   5.556
   67DPPC   C13 3313   4.978   2.367   5.462
   67DPPC   O14 3314   5.050   2.356   5.339
   67DPPC   C15 3315   5.157   2.272   5.340
   67DPPC   O16 3316   5.192   2.218   5.445
   67DPPC   C17 3317   5.241   2.256   5.213
   67DPPC   C18 3318   5.240   2.107   5.178
   67DPPC   C19 3319   5.310   2.104   5.042
   67DPPC   C20 3320   5.441   2.179   5.064
   67DPPC   C21 3321   5.525   2.179   4.937
   67DPPC   C22 3322   5.670   2.225   4.951
   67DPPC   C23 3323   5.749   2.216   4.820
   67DPPC   C24 3324   5.683   2.293   4.705
   67DPPC   C25 3325   5.770   2.296   4.580
   67DPPC   C26 3326   5.701   2.375   4.468
   67DPPC   C27 3327   5.779   2.354   4.338
   67DPPC   C28 3328   5.696   2.391   4.214
   67DPPC   C29 3329   5.762   2.361   4.080
   67DPPC   C30 3330   5.696   2.437   3.965
   67DPPC   C31 3331   5.772   2.399   3.838
   67DPPC   C32 3332   4.828   2.387   5.442
   67DPPC   O33 3333   4.780   2.502   5.372
   67DPPC   C34 3334   4.645   2.515   5.377
   67DPPC   O35 3335   4.582   2.488   5.479
   67DPPC   C36 3336   4.589   2.580   5.251
   67DPPC   C37 3337   4.591   2.733   5.262
   67DPPC   C38 3338   4.524   2.782   5.133
   67DPPC   C39 3339   4.567   2.736   4.994
   67DPPC   C40 3340   4.491   2.804   4.879
   67DPPC   C41 3341   4.552   2.768   4.744
   67DPPC   C42 3342   4.511   2.865   4.633
   67DPPC   C43 3343   4.545   3.010   4.666
   67DPPC   C44 3344   4.487   3.087   4.546
   67DPPC   C45 3345   4.542   3.033   4.414
   67DPPC   C46 3346   4.501   3.117   4.292
   67DPPC   C47 3347   4.566   3.068   4.162
   67DPPC   C48 3348   4.533   3.154   4.040
   67DPPC   C49 3349   4.592   3.074   3.924
   67DPPC   C50 3350   4.615   3.168   3.806
   68DPPC    C1 3351   0.674   4.041   1.030
   68DPPC    C2 3352   0.871   3.943   0.936
   68DPPC    C3 3353   0.913   4.101   1.082
   68DPPC    N4 3354   0.811   3.997   1.059
   68DPPC    C5 3355   0.814   3.899   1.168
   68DPPC    C6 3356   0.753   3.761   1.138
   68DPPC    O7 3357   0.771   3.664   1.241
   68DPPC    P8 3358   0.703   3.521   1.213
   68DPPC    O9 3359   0.797   3.409   1.235
   68DPPC   O10 3360   0.631   3.527   1.083
   68DPPC   O11 3361   0.614   3.548   1.344
   68DPPC   C12 3362   0.702   3.528   1.455
   68DPPC   C13 3363   0.667   3.624   1.569
   68DPPC   O14 3364   0.741   3.584   1.685
   68DPPC   C15 3365   0.851   3.653   1.726
   68DPPC   O16 3366   0.906   3.736   1.654
   68DPPC   C17 3367   0.893   3.617   1.869
   68DPPC   C18 3368   0.813   3.680   1.983
   68DPPC   C19 3369   0.795   3.827   1.947
   68DPPC   C20 3370   0.702   3.887   2.053
   68DPPC   C21 3371   0.768   3.867   2.189
   68DPPC   C22 3372   0.666   3.939   2.277
   68DPPC   C23 3373   0.696   3.933   2.427
   68DPPC   C24 3374   0.587   4.012   2.499
   68DPPC   C25 3375   0.578   4.162   2.468
   68DPPC   C26 3376   0.451   4.225   2.525
   68DPPC   C27 3377   0.448   4.196   2.676
   68DPPC   C28 3378   0.322   4.240   2.751
   68DPPC   C29 3379   0.317   4.219   2.902
   68DPPC   C30 3380   0.316   4.070   2.935
   68DPPC   C31 3381   0.298   4.040   3.084
   68DPPC   C32 3382   0.516   3.610   1.593
   68DPPC   O33 3383   0.460   3.716   1.671
   68DPPC   C34 3384   0.350   3.676   1.740
   68DPPC   O35 3385   0.282   3.585   1.695
   68DPPC   C36 3386   0.279   3.784   1.823
   68DPPC   C37 3387   0.278   3.751   1.973
   68DPPC   C38 3388   0.251   3.862   2.074
   68DPPC   C39 3389   0.103   3.901   2.075
   68DPPC   C40 3390   0.005   3.810   2.149
   68DPPC   C41 3391  -0.138   3.858   2.124
   68DPPC   C42 3392  -0.235   3.760   2.190
   68DPPC   C43 3393  -0.206   3.769   2.340
   68DPPC   C44 3394  -0.309   3.668   2.392
   68DPPC   C45 3395  -0.444   3.736   2.409
   68DPPC   C46 3396  -0.438   3.857   2.503
   68DPPC   C47 3397  -0.579   3.916   2.497
   68DPPC   C48 3398  -0.611   4.042   2.578
   68DPPC   C49 3399  -0.755   4.090   2.557
   68DPPC   C50 3400  -0.841   3.981   2.620
   69DPPC    C1 3401   5.480   2.612   6.277
   69DPPC    C2 3402   5.543   2.617   6.050
   69DPPC    C3 3403   5.486   2.408   6.155
   69DPPC    N4 3404   5.453   2.551   6.146
   69DPPC    C5 3405   5.314   2.584   6.111
   69DPPC    C6 3406   5.259   2.719   6.158
   69DPPC    O7 3407   5.308   2.839   6.096
   69DPPC    P8 3408   5.217   2.971   6.081
   69DPPC    O9 3409   5.302   3.078   6.139
   69DPPC   O10 3410   5.086   2.930   6.135
   69DPPC   O11 3411   5.224   2.952   5.922
   69DPPC   C12 3412   5.351   2.980   5.863
   69DPPC   C13 3413   5.331   2.947   5.715
   69DPPC   O14 3414   5.441   2.991   5.634
   69DPPC   C15 3415   5.469   3.116   5.587
   69DPPC   O16 3416   5.426   3.212   5.650
   69DPPC   C17 3417   5.587   3.131   5.492
   69DPPC   C18 3418   5.519   3.116   5.355
   69DPPC   C19 3419   5.626   3.120   5.245
   69DPPC   C20 3420   5.581   3.071   5.107
   69DPPC   C21 3421   5.697   3.086   5.008
   69DPPC   C22 3422   5.656   3.068   4.862
   69DPPC   C23 3423   5.778   3.116   4.784
   69DPPC   C24 3424   5.736   3.168   4.646
   69DPPC   C25 3425   5.865   3.229   4.593
   69DPPC   C26 3426   5.861   3.299   4.457
   69DPPC   C27 3427   5.816   3.203   4.347
   69DPPC   C28 3428   5.777   3.270   4.215
   69DPPC   C29 3429   5.742   3.160   4.116
   69DPPC   C30 3430   5.723   3.223   3.978
   69DPPC   C31 3431   5.688   3.120   3.870
   69DPPC   C32 3432   5.195   3.003   5.676
   69DPPC   O33 3433   5.164   2.962   5.542
   69DPPC   C34 3434   5.054   3.013   5.480
   69DPPC   O35 3435   4.976   3.089   5.536
   69DPPC   C36 3436   5.055   3.001   5.328
   69DPPC   C37 3437   4.995   2.867   5.285
   69DPPC   C38 3438   5.049   2.823   5.149
   69DPPC   C39 3439   4.992   2.688   5.104
   69DPPC   C40 3440   5.005   2.669   4.952
   69DPPC   C41 3441   5.017   2.521   4.916
   69DPPC   C42 3442   5.072   2.494   4.776
   69DPPC   C43 3443   5.125   2.352   4.753
   69DPPC   C44 3444   5.189   2.331   4.616
   69DPPC   C45 3445   5.248   2.190   4.620
   69DPPC   C46 3446   5.346   2.163   4.506
   69DPPC   C47 3447   5.275   2.191   4.373
   69DPPC   C48 3448   5.374   2.155   4.262
   69DPPC   C49 3449   5.310   2.178   4.125
   69DPPC   C50 3450   5.282   2.328   4.119
   70DPPC    C1 3451   2.692   0.100   5.184
   70DPPC    C2 3452   2.787  -0.011   4.990
   70DPPC    C3 3453   2.917   0.089   5.173
   70DPPC    N4 3454   2.799   0.011   5.135
   70DPPC    C5 3455   2.777  -0.103   5.226
   70DPPC    C6 3456   2.885  -0.212   5.232
   70DPPC    O7 3457   2.931  -0.266   5.108
   70DPPC    P8 3458   2.986  -0.414   5.137
   70DPPC    O9 3459   2.871  -0.470   5.211
   70DPPC   O10 3460   3.110  -0.372   5.206
   70DPPC   O11 3461   2.991  -0.465   4.984
   70DPPC   C12 3462   2.862  -0.459   4.924
   70DPPC   C13 3463   2.881  -0.484   4.774
   70DPPC   O14 3464   2.902  -0.619   4.733
   70DPPC   C15 3465   2.809  -0.718   4.745
   70DPPC   O16 3466   2.696  -0.691   4.783
   70DPPC   C17 3467   2.845  -0.857   4.693
   70DPPC   C18 3468   2.870  -0.837   4.543
   70DPPC   C19 3469   2.872  -0.967   4.462
   70DPPC   C20 3470   2.928  -0.928   4.325
   70DPPC   C21 3471   3.070  -0.872   4.341
   70DPPC   C22 3472   3.117  -0.828   4.202
   70DPPC   C23 3473   3.268  -0.819   4.176
   70DPPC   C24 3474   3.303  -0.746   4.046
   70DPPC   C25 3475   3.446  -0.690   4.046
   70DPPC   C26 3476   3.459  -0.623   3.909
   70DPPC   C27 3477   3.606  -0.589   3.887
   70DPPC   C28 3478   3.639  -0.510   3.759
   70DPPC   C29 3479   3.787  -0.540   3.735
   70DPPC   C30 3480   3.872  -0.492   3.853
   70DPPC   C31 3481   4.019  -0.520   3.821
   70DPPC   C32 3482   2.993  -0.392   4.724
   70DPPC   O33 3483   2.949  -0.256   4.718
   70DPPC   C34 3484   3.044  -0.168   4.678
   70DPPC   O35 3485   3.156  -0.209   4.648
   70DPPC   C36 3486   2.999  -0.025   4.648
   70DPPC   C37 3487   3.070   0.038   4.528
   70DPPC   C38 3488   2.997   0.166   4.486
   70DPPC   C39 3489   3.041   0.208   4.345
   70DPPC   C40 3490   2.964   0.111   4.254
   70DPPC   C41 3491   3.007   0.114   4.107
   70DPPC   C42 3492   2.957  -0.012   4.035
   70DPPC   C43 3493   2.805  -0.022   4.044
   70DPPC   C44 3494   2.747   0.092   3.961
   70DPPC   C45 3495   2.692   0.049   3.825
   70DPPC   C46 3496   2.540   0.030   3.814
   70DPPC   C47 3497   2.497  -0.032   3.681
   70DPPC   C48 3498   2.348  -0.063   3.663
   70DPPC   C49 3499   2.318  -0.150   3.541
   70DPPC   C50 3500   2.167  -0.167   3.524
   71DPPC    C1 3501   3.984   3.741   5.440
   71DPPC    C2 3502   4.019   3.830   5.665
   71DPPC    C3 3503   4.035   3.596   5.604
   71DPPC    N4 3504   4.064   3.734   5.563
   71DPPC    C5 3505   4.207   3.765   5.546
   71DPPC    C6 3506   4.294   3.772   5.671
   71DPPC    O7 3507   4.309   3.645   5.734
   71DPPC    P8 3508   4.409   3.646   5.860
   71DPPC    O9 3509   4.390   3.527   5.946
   71DPPC   O10 3510   4.407   3.780   5.923
   71DPPC   O11 3511   4.539   3.643   5.765
   71DPPC   C12 3512   4.569   3.510   5.721
   71DPPC   C13 3513   4.645   3.510   5.588
   71DPPC   O14 3514   4.786   3.534   5.588
   71DPPC   C15 3515   4.856   3.422   5.620
   71DPPC   O16 3516   4.819   3.355   5.716
   71DPPC   C17 3517   5.005   3.424   5.584
   71DPPC   C18 3518   5.021   3.402   5.434
   71DPPC   C19 3519   5.161   3.439   5.386
   71DPPC   C20 3520   5.183   3.391   5.242
   71DPPC   C21 3521   5.306   3.451   5.174
   71DPPC   C22 3522   5.282   3.416   5.027
   71DPPC   C23 3523   5.311   3.268   4.998
   71DPPC   C24 3524   5.304   3.246   4.847
   71DPPC   C25 3525   5.378   3.337   4.748
   71DPPC   C26 3526   5.370   3.275   4.609
   71DPPC   C27 3527   5.417   3.366   4.495
   71DPPC   C28 3528   5.377   3.301   4.362
   71DPPC   C29 3529   5.422   3.390   4.246
   71DPPC   C30 3530   5.377   3.335   4.111
   71DPPC   C31 3531   5.416   3.427   3.995
   71DPPC   C32 3532   4.563   3.597   5.492
   71DPPC   O33 3533   4.586   3.569   5.354
   71DPPC   C34 3534   4.507   3.638   5.267
   71DPPC   O35 3535   4.435   3.730   5.304
   71DPPC   C36 3536   4.508   3.602   5.119
   71DPPC   C37 3537   4.415   3.486   5.083
   71DPPC   C38 3538   4.392   3.445   4.938
   71DPPC   C39 3539   4.284   3.336   4.943
   71DPPC   C40 3540   4.227   3.310   4.804
   71DPPC   C41 3541   4.174   3.440   4.743
   71DPPC   C42 3542   4.156   3.419   4.593
   71DPPC   C43 3543   4.105   3.541   4.517
   71DPPC   C44 3544   4.101   3.503   4.369
   71DPPC   C45 3545   4.248   3.479   4.337
   71DPPC   C46 3546   4.275   3.417   4.200
   71DPPC   C47 3547   4.221   3.504   4.085
   71DPPC   C48 3548   4.284   3.466   3.951
   71DPPC   C49 3549   4.272   3.577   3.847
   71DPPC   C50 3550   4.128   3.603   3.802
   72DPPC    C1 3551   0.937   8.473   4.680
   72DPPC    C2 3552   1.095   8.617   4.771
   72DPPC    C3 3553   0.865   8.630   4.836
   72DPPC    N4 3554   0.976   8.538   4.806
   72DPPC    C5 3555   0.994   8.441   4.916
   72DPPC    C6 3556   1.084   8.319   4.900
   72DPPC    O7 3557   1.214   8.354   4.852
   72DPPC    P8 3558   1.321   8.233   4.843
   72DPPC    O9 3559   1.261   8.139   4.940
   72DPPC   O10 3560   1.456   8.292   4.857
   72DPPC   O11 3561   1.295   8.157   4.703
   72DPPC   C12 3562   1.276   8.265   4.611
   72DPPC   C13 3563   1.258   8.234   4.462
   72DPPC   O14 3564   1.274   8.353   4.384
   72DPPC   C15 3565   1.359   8.366   4.279
   72DPPC   O16 3566   1.455   8.292   4.255
   72DPPC   C17 3567   1.325   8.493   4.200
   72DPPC   C18 3568   1.348   8.468   4.051
   72DPPC   C19 3569   1.341   8.586   3.954
   72DPPC   C20 3570   1.337   8.532   3.810
   72DPPC   C21 3571   1.270   8.641   3.725
   72DPPC   C22 3572   1.305   8.630   3.577
   72DPPC   C23 3573   1.260   8.749   3.493
   72DPPC   C24 3574   1.287   8.723   3.345
   72DPPC   C25 3575   1.267   8.845   3.255
   72DPPC   C26 3576   1.273   8.813   3.106
   72DPPC   C27 3577   1.158   8.722   3.062
   72DPPC   C28 3578   1.028   8.797   3.091
   72DPPC   C29 3579   0.907   8.703   3.095
   72DPPC   C30 3580   0.789   8.794   3.129
   72DPPC   C31 3581   0.806   8.829   3.277
   72DPPC   C32 3582   1.129   8.153   4.450
   72DPPC   O33 3583   1.006   8.225   4.453
   72DPPC   C34 3584   0.904   8.147   4.409
   72DPPC   O35 3585   0.884   8.027   4.432
   72DPPC   C36 3586   0.778   8.222   4.366
   72DPPC   C37 3587   0.740   8.196   4.220
   72DPPC   C38 3588   0.620   8.276   4.171
   72DPPC   C39 3589   0.609   8.272   4.019
   72DPPC   C40 3590   0.592   8.124   3.982
   72DPPC   C41 3591   0.566   8.098   3.833
   72DPPC   C42 3592   0.424   8.141   3.797
   72DPPC   C43 3593   0.426   8.123   3.645
   72DPPC   C44 3594   0.308   8.196   3.582
   72DPPC   C45 3595   0.180   8.156   3.655
   72DPPC   C46 3596   0.065   8.225   3.582
   72DPPC   C47 3597  -0.069   8.170   3.631
   72DPPC   C48 3598  -0.167   8.238   3.534
   72DPPC   C49 3599  -0.311   8.201   3.571
   72DPPC   C50 3600  -0.325   8.050   3.555
   73DPPC    C1 3601   8.466   8.281   4.866
   73DPPC    C2 3602   8.377   8.166   4.669
   73DPPC    C3 3603   8.578   8.095   4.769
   73DPPC    N4 3604   8.446   8.152   4.798
   73DPPC    C5 3605   8.381   8.055   4.888
   73DPPC    C6 3606   8.257   8.091   4.971
   73DPPC    O7 3607   8.210   7.969   5.030
   73DPPC    P8 3608   8.059   7.959   5.084
   73DPPC    O9 3609   8.036   8.088   5.153
   73DPPC   O10 3610   8.045   7.826   5.148
   73DPPC   O11 3611   7.993   7.956   4.937
   73DPPC   C12 3612   8.021   7.827   4.883
   73DPPC   C13 3613   7.951   7.787   4.753
   73DPPC   O14 3614   7.996   7.860   4.638
   73DPPC   C15 3615   8.117   7.837   4.582
   73DPPC   O16 3616   8.207   7.790   4.652
   73DPPC   C17 3617   8.155   7.912   4.454
   73DPPC   C18 3618   8.190   7.813   4.343
   73DPPC   C19 3619   8.077   7.728   4.284
   73DPPC   C20 3620   8.146   7.629   4.190
   73DPPC   C21 3621   8.153   7.491   4.255
   73DPPC   C22 3622   8.211   7.388   4.158
   73DPPC   C23 3623   8.344   7.441   4.105
   73DPPC   C24 3624   8.393   7.353   3.990
   73DPPC   C25 3625   8.308   7.362   3.862
   73DPPC   C26 3626   8.381   7.313   3.737
   73DPPC   C27 3627   8.446   7.178   3.771
   73DPPC   C28 3628   8.515   7.141   3.639
   73DPPC   C29 3629   8.630   7.232   3.596
   73DPPC   C30 3630   8.688   7.199   3.458
   73DPPC   C31 3631   8.819   7.270   3.421
   73DPPC   C32 3632   7.801   7.796   4.778
   73DPPC   O33 3633   7.720   7.768   4.664
   73DPPC   C34 3634   7.729   7.641   4.617
   73DPPC   O35 3635   7.788   7.556   4.682
   73DPPC   C36 3636   7.667   7.609   4.481
   73DPPC   C37 3637   7.713   7.474   4.423
   73DPPC   C38 3638   7.640   7.435   4.295
   73DPPC   C39 3639   7.660   7.538   4.184
   73DPPC   C40 3640   7.605   7.488   4.050
   73DPPC   C41 3641   7.646   7.593   3.946
   73DPPC   C42 3642   7.637   7.535   3.804
   73DPPC   C43 3643   7.714   7.636   3.718
   73DPPC   C44 3644   7.773   7.576   3.590
   73DPPC   C45 3645   7.845   7.676   3.500
   73DPPC   C46 3646   7.753   7.794   3.469
   73DPPC   C47 3647   7.818   7.897   3.376
   73DPPC   C48 3648   7.931   7.971   3.447
   73DPPC   C49 3649   7.889   8.114   3.480
   73DPPC   C50 3650   8.020   8.182   3.520
   74DPPC    C1 3651   5.864   4.834   5.705
   74DPPC    C2 3652   5.659   4.943   5.614
   74DPPC    C3 3653   5.868   5.034   5.580
   74DPPC    N4 3654   5.800   4.905   5.594
   74DPPC    C5 3655   5.794   4.820   5.474
   74DPPC    C6 3656   5.916   4.808   5.382
   74DPPC    O7 3657   5.915   4.689   5.302
   74DPPC    P8 3658   6.073   4.672   5.280
   74DPPC    O9 3659   6.103   4.557   5.192
   74DPPC   O10 3660   6.147   4.689   5.408
   74DPPC   O11 3661   6.107   4.804   5.194
   74DPPC   C12 3662   6.215   4.770   5.107
   74DPPC   C13 3663   6.237   4.862   4.987
   74DPPC   O14 3664   6.368   4.862   4.929
   74DPPC   C15 3665   6.401   4.760   4.845
   74DPPC   O16 3666   6.336   4.656   4.854
   74DPPC   C17 3667   6.524   4.790   4.760
   74DPPC   C18 3668   6.486   4.794   4.612
   74DPPC   C19 3669   6.606   4.848   4.534
   74DPPC   C20 3670   6.562   4.854   4.387
   74DPPC   C21 3671   6.445   4.951   4.366
   74DPPC   C22 3672   6.368   4.916   4.238
   74DPPC   C23 3673   6.461   4.925   4.117
   74DPPC   C24 3674   6.379   4.915   3.989
   74DPPC   C25 3675   6.470   4.941   3.868
   74DPPC   C26 3676   6.392   4.907   3.741
   74DPPC   C27 3677   6.493   4.853   3.640
   74DPPC   C28 3678   6.432   4.785   3.517
   74DPPC   C29 3679   6.367   4.656   3.567
   74DPPC   C30 3680   6.454   4.561   3.650
   74DPPC   C31 3681   6.368   4.444   3.697
   74DPPC   C32 3682   6.209   5.001   5.045
   74DPPC   O33 3683   6.169   5.085   4.936
   74DPPC   C34 3684   6.180   5.219   4.954
   74DPPC   O35 3685   6.191   5.265   5.067
   74DPPC   C36 3686   6.175   5.317   4.837
   74DPPC   C37 3687   6.154   5.237   4.708
   74DPPC   C38 3688   6.193   5.328   4.591
   74DPPC   C39 3689   6.340   5.368   4.608
   74DPPC   C40 3690   6.392   5.446   4.487
   74DPPC   C41 3691   6.409   5.351   4.368
   74DPPC   C42 3692   6.484   5.424   4.257
   74DPPC   C43 3693   6.470   5.347   4.126
   74DPPC   C44 3694   6.551   5.406   4.011
   74DPPC   C45 3695   6.504   5.343   3.880
   74DPPC   C46 3696   6.605   5.372   3.768
   74DPPC   C47 3697   6.558   5.302   3.641
   74DPPC   C48 3698   6.674   5.303   3.541
   74DPPC   C49 3699   6.622   5.256   3.405
   74DPPC   C50 3700   6.503   5.328   3.341
   75DPPC    C1 3701   3.748   1.475   5.663
   75DPPC    C2 3702   3.722   1.536   5.425
   75DPPC    C3 3703   3.639   1.341   5.519
   75DPPC    N4 3704   3.659   1.484   5.547
   75DPPC    C5 3705   3.545   1.566   5.589
   75DPPC    C6 3706   3.450   1.640   5.495
   75DPPC    O7 3707   3.514   1.760   5.449
   75DPPC    P8 3708   3.378   1.844   5.431
   75DPPC    O9 3709   3.344   1.876   5.571
   75DPPC   O10 3710   3.298   1.765   5.335
   75DPPC   O11 3711   3.432   1.976   5.356
   75DPPC   C12 3712   3.386   1.985   5.222
   75DPPC   C13 3713   3.444   2.110   5.155
   75DPPC   O14 3714   3.411   2.123   5.016
   75DPPC   C15 3715   3.432   2.241   4.953
   75DPPC   O16 3716   3.465   2.344   5.011
   75DPPC   C17 3717   3.411   2.251   4.802
   75DPPC   C18 3718   3.530   2.305   4.722
   75DPPC   C19 3719   3.649   2.209   4.729
   75DPPC   C20 3720   3.781   2.281   4.705
   75DPPC   C21 3721   3.901   2.187   4.697
   75DPPC   C22 3722   4.020   2.282   4.680
   75DPPC   C23 3723   4.150   2.206   4.654
   75DPPC   C24 3724   4.261   2.306   4.621
   75DPPC   C25 3725   4.226   2.400   4.506
   75DPPC   C26 3726   4.339   2.457   4.421
   75DPPC   C27 3727   4.288   2.552   4.312
   75DPPC   C28 3728   4.391   2.603   4.211
   75DPPC   C29 3729   4.320   2.659   4.087
   75DPPC   C30 3730   4.420   2.730   3.996
   75DPPC   C31 3731   4.341   2.802   3.886
   75DPPC   C32 3732   3.594   2.098   5.186
   75DPPC   O33 3733   3.648   1.969   5.156
   75DPPC   C34 3734   3.783   1.954   5.153
   75DPPC   O35 3735   3.849   2.036   5.216
   75DPPC   C36 3736   3.822   1.815   5.102
   75DPPC   C37 3737   3.853   1.831   4.953
   75DPPC   C38 3738   3.902   1.703   4.885
   75DPPC   C39 3739   3.941   1.719   4.737
   75DPPC   C40 3740   3.833   1.751   4.634
   75DPPC   C41 3741   3.885   1.779   4.493
   75DPPC   C42 3742   3.763   1.814   4.407
   75DPPC   C43 3743   3.829   1.869   4.281
   75DPPC   C44 3744   3.733   1.895   4.164
   75DPPC   C45 3745   3.666   1.763   4.127
   75DPPC   C46 3746   3.578   1.774   4.002
   75DPPC   C47 3747   3.673   1.810   3.888
   75DPPC   C48 3748   3.593   1.841   3.762
   75DPPC   C49 3749   3.697   1.861   3.651
   75DPPC   C50 3750   3.626   1.927   3.533
   76DPPC    C1 3751   5.886   0.024   5.210
   76DPPC    C2 3752   5.683   0.087   5.290
   76DPPC    C3 3753   5.817   0.256   5.186
   76DPPC    N4 3754   5.775   0.115   5.179
   76DPPC    C5 3755   5.720   0.070   5.050
   76DPPC    C6 3756   5.592   0.145   5.015
   76DPPC    O7 3757   5.512   0.106   4.903
   76DPPC    P8 3758   5.404   0.225   4.885
   76DPPC    O9 3759   5.483   0.345   4.849
   76DPPC   O10 3760   5.325   0.220   5.009
   76DPPC   O11 3761   5.335   0.140   4.767
   76DPPC   C12 3762   5.381   0.184   4.639
   76DPPC   C13 3763   5.272   0.194   4.531
   76DPPC   O14 3764   5.199   0.316   4.515
   76DPPC   C15 3765   5.268   0.422   4.464
   76DPPC   O16 3766   5.391   0.419   4.473
   76DPPC   C17 3767   5.191   0.553   4.450
   76DPPC   C18 3768   5.172   0.630   4.581
   76DPPC   C19 3769   5.094   0.761   4.563
   76DPPC   C20 3770   4.966   0.738   4.482
   76DPPC   C21 3771   4.880   0.860   4.447
   76DPPC   C22 3772   4.775   0.826   4.342
   76DPPC   C23 3773   4.862   0.780   4.225
   76DPPC   C24 3774   4.785   0.770   4.093
   76DPPC   C25 3775   4.840   0.665   3.997
   76DPPC   C26 3776   4.793   0.672   3.851
   76DPPC   C27 3777   4.861   0.562   3.770
   76DPPC   C28 3778   5.013   0.584   3.767
   76DPPC   C29 3779   5.097   0.457   3.776
   76DPPC   C30 3780   5.077   0.371   3.651
   76DPPC   C31 3781   5.175   0.253   3.652
   76DPPC   C32 3782   5.210   0.054   4.522
   76DPPC   O33 3783   5.311  -0.040   4.486
   76DPPC   C34 3784   5.274  -0.169   4.509
   76DPPC   O35 3785   5.191  -0.193   4.596
   76DPPC   C36 3786   5.366  -0.280   4.459
   76DPPC   C37 3787   5.386  -0.253   4.309
   76DPPC   C38 3788   5.530  -0.293   4.279
   76DPPC   C39 3789   5.564  -0.268   4.132
   76DPPC   C40 3790   5.658  -0.370   4.067
   76DPPC   C41 3791   5.579  -0.496   4.033
   76DPPC   C42 3792   5.657  -0.601   3.953
   76DPPC   C43 3793   5.573  -0.729   3.955
   76DPPC   C44 3794   5.449  -0.703   3.871
   76DPPC   C45 3795   5.394  -0.837   3.820
   76DPPC   C46 3796   5.278  -0.800   3.728
   76DPPC   C47 3797   5.323  -0.794   3.581
   76DPPC   C48 3798   5.372  -0.929   3.530
   76DPPC   C49 3799   5.459  -0.905   3.407
   76DPPC   C50 3800   5.476  -1.034   3.327
   77DPPC    C1 3801   9.300   6.067   4.693
   77DPPC    C2 3802   9.427   5.885   4.594
   77DPPC    C3 3803   9.393   5.893   4.827
   77DPPC    N4 3804   9.329   5.923   4.697
   77DPPC    C5 3805   9.214   5.835   4.670
   77DPPC    C6 3806   9.079   5.818   4.740
   77DPPC    O7 3807   9.099   5.749   4.863
   77DPPC    P8 3808   8.979   5.770   4.968
   77DPPC    O9 3809   8.897   5.888   4.934
   77DPPC   O10 3810   9.034   5.762   5.105
   77DPPC   O11 3811   8.897   5.633   4.941
   77DPPC   C12 3812   8.961   5.510   4.976
   77DPPC   C13 3813   8.876   5.388   4.938
   77DPPC   O14 3814   8.957   5.277   4.897
   77DPPC   C15 3815   8.974   5.168   4.977
   77DPPC   O16 3816   8.974   5.184   5.099
   77DPPC   C17 3817   9.012   5.031   4.921
   77DPPC   C18 3818   8.960   5.011   4.778
   77DPPC   C19 3819   9.048   4.907   4.710
   77DPPC   C20 3820   9.194   4.954   4.705
   77DPPC   C21 3821   9.284   4.832   4.683
   77DPPC   C22 3822   9.287   4.798   4.534
   77DPPC   C23 3823   9.349   4.916   4.459
   77DPPC   C24 3824   9.349   4.878   4.310
   77DPPC   C25 3825   9.396   4.994   4.223
   77DPPC   C26 3826   9.397   4.957   4.074
   77DPPC   C27 3827   9.466   5.069   3.996
   77DPPC   C28 3828   9.455   5.015   3.853
   77DPPC   C29 3829   9.508   5.112   3.748
   77DPPC   C30 3830   9.545   5.032   3.623
   77DPPC   C31 3831   9.422   5.003   3.536
   77DPPC   C32 3832   8.793   5.435   4.818
   77DPPC   O33 3833   8.725   5.330   4.748
   77DPPC   C34 3834   8.654   5.375   4.642
   77DPPC   O35 3835   8.677   5.486   4.595
   77DPPC   C36 3836   8.583   5.259   4.570
   77DPPC   C37 3837   8.507   5.294   4.442
   77DPPC   C38 3838   8.488   5.162   4.368
   77DPPC   C39 3839   8.505   5.201   4.221
   77DPPC   C40 3840   8.466   5.075   4.144
   77DPPC   C41 3841   8.534   4.940   4.170
   77DPPC   C42 3842   8.457   4.822   4.111
   77DPPC   C43 3843   8.522   4.687   4.142
   77DPPC   C44 3844   8.450   4.566   4.082
   77DPPC   C45 3845   8.497   4.422   4.102
   77DPPC   C46 3846   8.453   4.339   3.981
   77DPPC   C47 3847   8.505   4.401   3.851
   77DPPC   C48 3848   8.484   4.323   3.722
   77DPPC   C49 3849   8.552   4.389   3.602
   77DPPC   C50 3850   8.546   4.303   3.476
   78DPPC    C1 3851   1.043   5.327   5.184
   78DPPC    C2 3852   1.138   5.147   5.096
   78DPPC    C3 3853   1.193   5.378   5.021
   78DPPC    N4 3854   1.175   5.285   5.133
   78DPPC    C5 3855   1.266   5.309   5.246
   78DPPC    C6 3856   1.408   5.252   5.233
   78DPPC    O7 3857   1.421   5.110   5.235
   78DPPC    P8 3858   1.572   5.067   5.198
   78DPPC    O9 3859   1.604   4.940   5.267
   78DPPC   O10 3860   1.645   5.193   5.224
   78DPPC   O11 3861   1.541   5.062   5.040
   78DPPC   C12 3862   1.486   4.934   5.007
   78DPPC   C13 3863   1.402   4.921   4.880
   78DPPC   O14 3864   1.336   4.797   4.852
   78DPPC   C15 3865   1.224   4.760   4.919
   78DPPC   O16 3866   1.143   4.837   4.971
   78DPPC   C17 3867   1.173   4.626   4.866
   78DPPC   C18 3868   1.109   4.632   4.728
   78DPPC   C19 3869   1.057   4.492   4.697
   78DPPC   C20 3870   1.005   4.495   4.553
   78DPPC   C21 3871   1.128   4.528   4.467
   78DPPC   C22 3872   1.111   4.575   4.322
   78DPPC   C23 3873   1.248   4.575   4.254
   78DPPC   C24 3874   1.237   4.602   4.104
   78DPPC   C25 3875   1.156   4.496   4.029
   78DPPC   C26 3876   1.143   4.541   3.884
   78DPPC   C27 3877   1.292   4.552   3.850
   78DPPC   C28 3878   1.301   4.628   3.718
   78DPPC   C29 3879   1.432   4.603   3.642
   78DPPC   C30 3880   1.425   4.462   3.582
   78DPPC   C31 3881   1.554   4.425   3.507
   78DPPC   C32 3882   1.501   4.958   4.769
   78DPPC   O33 3883   1.444   4.975   4.639
   78DPPC   C34 3884   1.539   5.016   4.551
   78DPPC   O35 3885   1.655   4.982   4.570
   78DPPC   C36 3886   1.494   5.106   4.435
   78DPPC   C37 3887   1.385   5.036   4.354
   78DPPC   C38 3888   1.447   4.933   4.259
   78DPPC   C39 3889   1.526   5.024   4.164
   78DPPC   C40 3890   1.620   4.942   4.076
   78DPPC   C41 3891   1.553   4.859   3.966
   78DPPC   C42 3892   1.659   4.787   3.882
   78DPPC   C43 3893   1.742   4.896   3.814
   78DPPC   C44 3894   1.845   4.839   3.716
   78DPPC   C45 3895   1.885   4.944   3.613
   78DPPC   C46 3896   1.939   5.067   3.686
   78DPPC   C47 3897   1.986   5.181   3.596
   78DPPC   C48 3898   2.055   5.292   3.676
   78DPPC   C49 3899   2.201   5.255   3.706
   78DPPC   C50 3900   2.281   5.377   3.751
   79DPPC    C1 3901   0.057   3.600   6.005
   79DPPC    C2 3902   0.078   3.602   5.770
   79DPPC    C3 3903  -0.145   3.574   5.868
   79DPPC    N4 3904  -0.012   3.636   5.881
   79DPPC    C5 3905  -0.009   3.783   5.876
   79DPPC    C6 3906  -0.109   3.864   5.793
   79DPPC    O7 3907  -0.069   3.862   5.656
   79DPPC    P8 3908  -0.195   3.937   5.590
   79DPPC    O9 3909  -0.207   4.070   5.654
   79DPPC   O10 3910  -0.301   3.834   5.584
   79DPPC   O11 3911  -0.122   3.944   5.446
   79DPPC   C12 3912  -0.067   3.818   5.407
   79DPPC   C13 3913  -0.019   3.820   5.262
   79DPPC   O14 3914   0.018   3.686   5.226
   79DPPC   C15 3915  -0.064   3.583   5.193
   79DPPC   O16 3916  -0.174   3.580   5.248
   79DPPC   C17 3917  -0.010   3.468   5.109
   79DPPC   C18 3918   0.009   3.512   4.963
   79DPPC   C19 3919   0.019   3.387   4.875
   79DPPC   C20 3920  -0.002   3.425   4.728
   79DPPC   C21 3921   0.011   3.301   4.640
   79DPPC   C22 3922  -0.025   3.348   4.499
   79DPPC   C23 3923  -0.043   3.232   4.400
   79DPPC   C24 3924  -0.093   3.282   4.265
   79DPPC   C25 3925  -0.112   3.169   4.164
   79DPPC   C26 3926  -0.112   3.235   4.026
   79DPPC   C27 3927  -0.137   3.138   3.911
   79DPPC   C28 3928  -0.130   3.224   3.785
   79DPPC   C29 3929  -0.170   3.139   3.664
   79DPPC   C30 3930  -0.081   3.017   3.645
   79DPPC   C31 3931  -0.113   2.947   3.512
   79DPPC   C32 3932   0.098   3.918   5.274
   79DPPC   O33 3933   0.141   3.975   5.150
   79DPPC   C34 3934   0.236   4.071   5.156
   79DPPC   O35 3935   0.265   4.112   5.268
   79DPPC   C36 3936   0.303   4.122   5.028
   79DPPC   C37 3937   0.214   4.128   4.903
   79DPPC   C38 3938   0.303   4.143   4.780
   79DPPC   C39 3939   0.212   4.125   4.659
   79DPPC   C40 3940   0.106   4.233   4.630
   79DPPC   C41 3941   0.012   4.189   4.518
   79DPPC   C42 3942   0.075   4.189   4.379
   79DPPC   C43 3943  -0.030   4.131   4.283
   79DPPC   C44 3944   0.026   4.149   4.141
   79DPPC   C45 3945  -0.098   4.121   4.056
   79DPPC   C46 3946  -0.062   4.193   3.926
   79DPPC   C47 3947  -0.171   4.206   3.819
   79DPPC   C48 3948  -0.103   4.257   3.692
   79DPPC   C49 3949  -0.199   4.239   3.574
   79DPPC   C50 3950  -0.132   4.267   3.439
   80DPPC    C1 3951   0.560   4.392   5.601
   80DPPC    C2 3952   0.714   4.471   5.782
   80DPPC    C3 3953   0.586   4.277   5.808
   80DPPC    N4 3954   0.655   4.359   5.707
   80DPPC    C5 3955   0.760   4.280   5.641
   80DPPC    C6 3956   0.855   4.347   5.542
   80DPPC    O7 3957   0.973   4.268   5.523
   80DPPC    P8 3958   1.072   4.371   5.448
   80DPPC    O9 3959   1.207   4.321   5.481
   80DPPC   O10 3960   1.028   4.511   5.469
   80DPPC   O11 3961   1.011   4.311   5.311
   80DPPC   C12 3962   1.039   4.414   5.216
   80DPPC   C13 3963   0.979   4.373   5.081
   80DPPC   O14 3964   0.838   4.352   5.079
   80DPPC   C15 3965   0.750   4.454   5.060
   80DPPC   O16 3966   0.772   4.565   5.109
   80DPPC   C17 3967   0.614   4.404   5.014
   80DPPC   C18 3968   0.612   4.400   4.861
   80DPPC   C19 3969   0.646   4.527   4.783
   80DPPC   C20 3970   0.626   4.532   4.631
   80DPPC   C21 3971   0.671   4.663   4.566
   80DPPC   C22 3972   0.620   4.652   4.422
   80DPPC   C23 3973   0.738   4.614   4.331
   80DPPC   C24 3974   0.684   4.593   4.190
   80DPPC   C25 3975   0.806   4.540   4.114
   80DPPC   C26 3976   0.788   4.483   3.973
   80DPPC   C27 3977   0.748   4.582   3.864
   80DPPC   C28 3978   0.713   4.504   3.737
   80DPPC   C29 3979   0.697   4.586   3.609
   80DPPC   C30 3980   0.648   4.506   3.488
   80DPPC   C31 3981   0.642   4.584   3.357
   80DPPC   C32 3982   1.062   4.254   5.032
   80DPPC   O33 3983   1.177   4.291   4.954
   80DPPC   C34 3984   1.235   4.187   4.889
   80DPPC   O35 3985   1.187   4.076   4.910
   80DPPC   C36 3986   1.343   4.224   4.787
   80DPPC   C37 3987   1.329   4.130   4.667
   80DPPC   C38 3988   1.225   4.165   4.560
   80DPPC   C39 3989   1.210   4.055   4.455
   80DPPC   C40 3990   1.093   4.090   4.362
   80DPPC   C41 3991   1.064   3.974   4.267
   80DPPC   C42 3992   0.988   4.005   4.139
   80DPPC   C43 3993   1.025   4.111   4.035
   80DPPC   C44 3994   0.960   4.093   3.898
   80DPPC   C45 3995   1.017   4.159   3.772
   80DPPC   C46 3996   0.923   4.156   3.651
   80DPPC   C47 3997   1.004   4.103   3.532
   80DPPC   C48 3998   0.910   4.081   3.414
   80DPPC   C49 3999   0.983   4.011   3.300
   80DPPC   C50 4000   0.886   3.964   3.191
   81DPPC    C1 4001   5.913   4.189   5.286
   81DPPC    C2 4002   5.707   4.152   5.405
   81DPPC    C3 4003   5.882   4.263   5.509
   81DPPC    N4 4004   5.815   4.249   5.378
   81DPPC    C5 4005   5.759   4.370   5.317
   81DPPC    C6 4006   5.689   4.473   5.405
   81DPPC    O7 4007   5.590   4.422   5.496
   81DPPC    P8 4008   5.560   4.530   5.611
   81DPPC    O9 4009   5.697   4.578   5.640
   81DPPC   O10 4010   5.465   4.483   5.714
   81DPPC   O11 4011   5.491   4.650   5.528
   81DPPC   C12 4012   5.373   4.603   5.461
   81DPPC   C13 4013   5.289   4.717   5.403
   81DPPC   O14 4014   5.176   4.681   5.322
   81DPPC   C15 4015   5.057   4.668   5.385
   81DPPC   O16 4016   5.046   4.720   5.496
   81DPPC   C17 4017   4.931   4.618   5.314
   81DPPC   C18 4018   4.945   4.609   5.162
   81DPPC   C19 4019   4.818   4.563   5.092
   81DPPC   C20 4020   4.773   4.430   5.154
   81DPPC   C21 4021   4.644   4.378   5.088
   81DPPC   C22 4022   4.671   4.323   4.948
   81DPPC   C23 4023   4.534   4.313   4.881
   81DPPC   C24 4024   4.549   4.313   4.729
   81DPPC   C25 4025   4.409   4.278   4.679
   81DPPC   C26 4026   4.294   4.374   4.709
   81DPPC   C27 4027   4.166   4.303   4.664
   81DPPC   C28 4028   4.173   4.267   4.516
   81DPPC   C29 4029   4.085   4.147   4.478
   81DPPC   C30 4030   4.137   4.103   4.342
   81DPPC   C31 4031   4.056   3.999   4.264
   81DPPC   C32 4032   5.388   4.808   5.330
   81DPPC   O33 4033   5.475   4.761   5.226
   81DPPC   C34 4034   5.588   4.829   5.192
   81DPPC   O35 4035   5.613   4.940   5.238
   81DPPC   C36 4036   5.655   4.779   5.064
   81DPPC   C37 4037   5.629   4.631   5.032
   81DPPC   C38 4038   5.725   4.599   4.917
   81DPPC   C39 4039   5.723   4.450   4.882
   81DPPC   C40 4040   5.866   4.408   4.845
   81DPPC   C41 4041   5.903   4.261   4.824
   81DPPC   C42 4042   5.830   4.194   4.707
   81DPPC   C43 4043   5.871   4.249   4.570
   81DPPC   C44 4044   5.801   4.195   4.445
   81DPPC   C45 4045   5.835   4.245   4.305
   81DPPC   C46 4046   5.738   4.160   4.222
   81DPPC   C47 4047   5.722   4.212   4.079
   81DPPC   C48 4048   5.848   4.171   4.002
   81DPPC   C49 4049   5.845   4.229   3.861
   81DPPC   C50 4050   5.971   4.218   3.773
   82DPPC    C1 4051   9.166   5.635   5.384
   82DPPC    C2 4052   9.373   5.539   5.426
   82DPPC    C3 4053   9.188   5.456   5.529
   82DPPC    N4 4054   9.232   5.505   5.398
   82DPPC    C5 4055   9.207   5.425   5.277
   82DPPC    C6 4056   9.263   5.284   5.258
   82DPPC    O7 4057   9.404   5.292   5.238
   82DPPC    P8 4058   9.453   5.148   5.183
   82DPPC    O9 4059   9.384   5.046   5.265
   82DPPC   O10 4060   9.601   5.148   5.177
   82DPPC   O11 4061   9.391   5.163   5.035
   82DPPC   C12 4062   9.487   5.215   4.942
   82DPPC   C13 4063   9.445   5.184   4.798
   82DPPC   O14 4064   9.560   5.171   4.713
   82DPPC   C15 4065   9.622   5.051   4.698
   82DPPC   O16 4066   9.625   4.975   4.795
   82DPPC   C17 4067   9.752   5.058   4.618
   82DPPC   C18 4068   9.715   5.057   4.469
   82DPPC   C19 4069   9.835   5.071   4.376
   82DPPC   C20 4070   9.786   5.068   4.231
   82DPPC   C21 4071   9.912   5.072   4.145
   82DPPC   C22 4072   9.867   5.009   4.013
   82DPPC   C23 4073   9.960   5.063   3.905
   82DPPC   C24 4074   9.955   4.973   3.781
   82DPPC   C25 4075  10.048   5.029   3.673
   82DPPC   C26 4076  10.033   4.962   3.536
   82DPPC   C27 4077  10.122   5.028   3.429
   82DPPC   C28 4078  10.110   4.960   3.293
   82DPPC   C29 4079  10.157   5.046   3.176
   82DPPC   C30 4080  10.063   5.166   3.177
   82DPPC   C31 4081  10.097   5.259   3.060
   82DPPC   C32 4082   9.351   5.300   4.762
   82DPPC   O33 4083   9.257   5.267   4.660
   82DPPC   C34 4084   9.179   5.376   4.633
   82DPPC   O35 4085   9.206   5.489   4.672
   82DPPC   C36 4086   9.072   5.348   4.527
   82DPPC   C37 4087   9.131   5.353   4.386
   82DPPC   C38 4088   9.024   5.301   4.290
   82DPPC   C39 4089   9.032   5.149   4.294
   82DPPC   C40 4090   8.910   5.076   4.237
   82DPPC   C41 4091   8.866   5.124   4.099
   82DPPC   C42 4092   8.938   5.056   3.982
   82DPPC   C43 4093   8.870   5.102   3.852
   82DPPC   C44 4094   8.948   5.032   3.741
   82DPPC   C45 4095   8.900   5.061   3.599
   82DPPC   C46 4096   9.002   5.009   3.497
   82DPPC   C47 4097   9.073   4.875   3.517
   82DPPC   C48 4098   8.968   4.763   3.513
   82DPPC   C49 4099   9.026   4.622   3.506
   82DPPC   C50 4100   9.137   4.614   3.401
   83DPPC    C1 4101   7.579   5.231   5.746
   83DPPC    C2 4102   7.693   5.027   5.751
   83DPPC    C3 4103   7.467   5.027   5.766
   83DPPC    N4 4104   7.575   5.094   5.694
   83DPPC    C5 4105   7.572   5.103   5.547
   83DPPC    C6 4106   7.536   4.983   5.460
   83DPPC    O7 4107   7.640   4.885   5.454
   83DPPC    P8 4108   7.606   4.778   5.338
   83DPPC    O9 4109   7.460   4.757   5.344
   83DPPC   O10 4110   7.709   4.678   5.374
   83DPPC   O11 4111   7.648   4.860   5.206
   83DPPC   C12 4112   7.776   4.818   5.159
   83DPPC   C13 4113   7.875   4.924   5.110
   83DPPC   O14 4114   7.850   4.987   4.984
   83DPPC   C15 4115   7.909   5.108   4.963
   83DPPC   O16 4116   7.987   5.159   5.043
   83DPPC   C17 4117   7.907   5.156   4.818
   83DPPC   C18 4118   7.771   5.212   4.774
   83DPPC   C19 4119   7.746   5.239   4.626
   83DPPC   C20 4120   7.849   5.332   4.560
   83DPPC   C21 4121   7.855   5.323   4.407
   83DPPC   C22 4122   7.729   5.380   4.341
   83DPPC   C23 4123   7.758   5.388   4.191
   83DPPC   C24 4124   7.643   5.449   4.111
   83DPPC   C25 4125   7.671   5.438   3.961
   83DPPC   C26 4126   7.553   5.480   3.872
   83DPPC   C27 4127   7.578   5.461   3.722
   83DPPC   C28 4128   7.450   5.499   3.646
   83DPPC   C29 4129   7.469   5.491   3.494
   83DPPC   C30 4130   7.454   5.352   3.433
   83DPPC   C31 4131   7.486   5.344   3.284
   83DPPC   C32 4132   8.006   4.845   5.111
   83DPPC   O33 4133   8.007   4.726   5.031
   83DPPC   C34 4134   8.132   4.679   5.004
   83DPPC   O35 4135   8.235   4.735   5.039
   83DPPC   C36 4136   8.139   4.550   4.922
   83DPPC   C37 4137   8.259   4.543   4.827
   83DPPC   C38 4138   8.234   4.450   4.708
   83DPPC   C39 4139   8.367   4.424   4.637
   83DPPC   C40 4140   8.431   4.552   4.585
   83DPPC   C41 4141   8.558   4.503   4.515
   83DPPC   C42 4142   8.659   4.618   4.504
   83DPPC   C43 4143   8.773   4.589   4.407
   83DPPC   C44 4144   8.861   4.708   4.368
   83DPPC   C45 4145   8.996   4.655   4.321
   83DPPC   C46 4146   8.990   4.671   4.169
   83DPPC   C47 4147   9.118   4.623   4.099
   83DPPC   C48 4148   9.125   4.651   3.949
   83DPPC   C49 4149   9.268   4.615   3.908
   83DPPC   C50 4150   9.301   4.642   3.761
   84DPPC    C1 4151   0.842   7.176   4.512
   84DPPC    C2 4152   0.657   7.237   4.386
   84DPPC    C3 4153   0.709   7.003   4.413
   84DPPC    N4 4154   0.704   7.134   4.480
   84DPPC    C5 4155   0.618   7.146   4.598
   84DPPC    C6 4156   0.484   7.073   4.605
   84DPPC    O7 4157   0.370   7.117   4.530
   84DPPC    P8 4158   0.243   7.033   4.583
   84DPPC    O9 4159   0.224   7.055   4.728
   84DPPC   O10 4160   0.280   6.898   4.535
   84DPPC   O11 4161   0.123   7.100   4.500
   84DPPC   C12 4162   0.089   7.004   4.400
   84DPPC   C13 4163  -0.031   7.057   4.321
   84DPPC   O14 4164  -0.077   6.965   4.221
   84DPPC   C15 4165  -0.132   6.844   4.250
   84DPPC   O16 4166  -0.094   6.780   4.348
   84DPPC   C17 4167  -0.213   6.785   4.134
   84DPPC   C18 4168  -0.161   6.840   4.001
   84DPPC   C19 4169  -0.268   6.817   3.894
   84DPPC   C20 4170  -0.390   6.887   3.955
   84DPPC   C21 4171  -0.515   6.844   3.878
   84DPPC   C22 4172  -0.633   6.857   3.973
   84DPPC   C23 4173  -0.752   6.782   3.912
   84DPPC   C24 4174  -0.884   6.827   3.976
   84DPPC   C25 4175  -1.008   6.751   3.930
   84DPPC   C26 4176  -1.137   6.793   4.000
   84DPPC   C27 4177  -1.258   6.706   3.966
   84DPPC   C28 4178  -1.376   6.775   4.035
   84DPPC   C29 4179  -1.512   6.706   4.020
   84DPPC   C30 4180  -1.602   6.781   4.118
   84DPPC   C31 4181  -1.753   6.760   4.104
   84DPPC   C32 4182  -0.004   7.193   4.258
   84DPPC   O33 4183   0.065   7.204   4.134
   84DPPC   C34 4184   0.087   7.335   4.103
   84DPPC   O35 4185   0.034   7.428   4.163
   84DPPC   C36 4186   0.134   7.355   3.958
   84DPPC   C37 4187   0.277   7.303   3.942
   84DPPC   C38 4188   0.322   7.313   3.796
   84DPPC   C39 4189   0.228   7.231   3.707
   84DPPC   C40 4190   0.228   7.092   3.770
   84DPPC   C41 4191   0.151   6.998   3.679
   84DPPC   C42 4192   0.176   6.851   3.715
   84DPPC   C43 4193   0.327   6.824   3.706
   84DPPC   C44 4194   0.360   6.684   3.757
   84DPPC   C45 4195   0.509   6.682   3.795
   84DPPC   C46 4196   0.542   6.800   3.886
   84DPPC   C47 4197   0.681   6.773   3.944
   84DPPC   C48 4198   0.770   6.756   3.820
   84DPPC   C49 4199   0.899   6.837   3.825
   84DPPC   C50 4200   0.981   6.824   3.696
   85DPPC    C1 4201   8.288   7.424   4.638
   85DPPC    C2 4202   8.217   7.482   4.849
   85DPPC    C3 4203   8.376   7.309   4.811
   85DPPC    N4 4204   8.339   7.446   4.774
   85DPPC    C5 4205   8.440   7.551   4.759
   85DPPC    C6 4206   8.531   7.606   4.870
   85DPPC    O7 4207   8.644   7.524   4.900
   85DPPC    P8 4208   8.784   7.604   4.904
   85DPPC    O9 4209   8.877   7.507   4.964
   85DPPC   O10 4210   8.751   7.737   4.960
   85DPPC   O11 4211   8.798   7.602   4.743
   85DPPC   C12 4212   8.826   7.467   4.706
   85DPPC   C13 4213   8.824   7.438   4.556
   85DPPC   O14 4214   8.795   7.301   4.526
   85DPPC   C15 4215   8.670   7.255   4.501
   85DPPC   O16 4216   8.571   7.315   4.542
   85DPPC   C17 4217   8.663   7.126   4.418
   85DPPC   C18 4218   8.530   7.094   4.350
   85DPPC   C19 4219   8.460   6.987   4.434
   85DPPC   C20 4220   8.323   6.959   4.371
   85DPPC   C21 4221   8.230   7.074   4.409
   85DPPC   C22 4222   8.093   7.058   4.343
   85DPPC   C23 4223   7.972   7.135   4.396
   85DPPC   C24 4224   7.868   7.119   4.285
   85DPPC   C25 4225   7.913   7.159   4.144
   85DPPC   C26 4226   7.801   7.151   4.041
   85DPPC   C27 4227   7.842   7.209   3.906
   85DPPC   C28 4228   7.964   7.145   3.841
   85DPPC   C29 4229   7.977   7.177   3.692
   85DPPC   C30 4230   8.102   7.108   3.636
   85DPPC   C31 4231   8.121   7.146   3.489
   85DPPC   C32 4232   8.955   7.494   4.500
   85DPPC   O33 4233   8.962   7.533   4.363
   85DPPC   C34 4234   9.076   7.596   4.322
   85DPPC   O35 4235   9.162   7.639   4.399
   85DPPC   C36 4236   9.081   7.623   4.172
   85DPPC   C37 4237   9.223   7.649   4.122
   85DPPC   C38 4238   9.231   7.726   3.990
   85DPPC   C39 4239   9.376   7.737   3.940
   85DPPC   C40 4240   9.379   7.800   3.801
   85DPPC   C41 4241   9.489   7.739   3.715
   85DPPC   C42 4242   9.478   7.786   3.570
   85DPPC   C43 4243   9.581   7.699   3.498
   85DPPC   C44 4244   9.594   7.701   3.345
   85DPPC   C45 4245   9.708   7.610   3.299
   85DPPC   C46 4246   9.683   7.462   3.329
   85DPPC   C47 4247   9.774   7.356   3.268
   85DPPC   C48 4248   9.700   7.224   3.290
   85DPPC   C49 4249   9.738   7.111   3.194
   85DPPC   C50 4250   9.886   7.081   3.216
   86DPPC    C1 4251   7.160   7.301   5.437
   86DPPC    C2 4252   7.367   7.267   5.298
   86DPPC    C3 4253   7.336   7.430   5.463
   86DPPC    N4 4254   7.307   7.290   5.430
   86DPPC    C5 4255   7.369   7.206   5.533
   86DPPC    C6 4256   7.360   7.054   5.513
   86DPPC    O7 4257   7.227   7.003   5.497
   86DPPC    P8 4258   7.238   6.845   5.465
   86DPPC    O9 4259   7.137   6.801   5.563
   86DPPC   O10 4260   7.379   6.801   5.464
   86DPPC   O11 4261   7.170   6.866   5.321
   86DPPC   C12 4262   7.256   6.861   5.207
   86DPPC   C13 4263   7.179   6.841   5.077
   86DPPC   O14 4264   7.270   6.846   4.966
   86DPPC   C15 4265   7.234   6.774   4.856
   86DPPC   O16 4266   7.145   6.690   4.867
   86DPPC   C17 4267   7.349   6.766   4.755
   86DPPC   C18 4268   7.310   6.716   4.616
   86DPPC   C19 4269   7.407   6.767   4.509
   86DPPC   C20 4270   7.341   6.738   4.374
   86DPPC   C21 4271   7.426   6.799   4.262
   86DPPC   C22 4272   7.403   6.950   4.254
   86DPPC   C23 4273   7.298   7.013   4.163
   86DPPC   C24 4274   7.302   7.165   4.184
   86DPPC   C25 4275   7.213   7.246   4.090
   86DPPC   C26 4276   7.268   7.239   3.948
   86DPPC   C27 4277   7.180   7.334   3.867
   86DPPC   C28 4278   7.236   7.367   3.728
   86DPPC   C29 4279   7.283   7.255   3.637
   86DPPC   C30 4280   7.355   7.303   3.510
   86DPPC   C31 4281   7.250   7.366   3.418
   86DPPC   C32 4282   7.063   6.940   5.067
   86DPPC   O33 4283   7.095   7.078   5.052
   86DPPC   C34 4284   6.990   7.163   5.072
   86DPPC   O35 4285   6.876   7.121   5.092
   86DPPC   C36 4286   7.033   7.309   5.088
   86DPPC   C37 4287   7.024   7.381   4.953
   86DPPC   C38 4288   6.884   7.422   4.906
   86DPPC   C39 4289   6.889   7.468   4.761
   86DPPC   C40 4290   6.977   7.593   4.763
   86DPPC   C41 4291   7.065   7.591   4.637
   86DPPC   C42 4292   7.142   7.721   4.614
   86DPPC   C43 4293   7.239   7.742   4.731
   86DPPC   C44 4294   7.323   7.868   4.708
   86DPPC   C45 4295   7.218   7.980   4.709
   86DPPC   C46 4296   7.261   8.113   4.645
   86DPPC   C47 4297   7.159   8.227   4.650
   86DPPC   C48 4298   7.239   8.340   4.585
   86DPPC   C49 4299   7.149   8.464   4.589
   86DPPC   C50 4300   7.207   8.561   4.486
   87DPPC    C1 4301   5.185   4.625   5.850
   87DPPC    C2 4302   5.029   4.488   5.959
   87DPPC    C3 4303   4.971   4.648   5.799
   87DPPC    N4 4304   5.067   4.541   5.827
   87DPPC    C5 4305   5.081   4.447   5.715
   87DPPC    C6 4306   5.197   4.348   5.713
   87DPPC    O7 4307   5.162   4.241   5.801
   87DPPC    P8 4308   5.280   4.134   5.825
   87DPPC    O9 4309   5.213   4.002   5.838
   87DPPC   O10 4310   5.357   4.201   5.932
   87DPPC   O11 4311   5.348   4.146   5.680
   87DPPC   C12 4312   5.311   4.034   5.599
   87DPPC   C13 4313   5.243   4.070   5.467
   87DPPC   O14 4314   5.195   3.955   5.396
   87DPPC   C15 4315   5.064   3.921   5.412
   87DPPC   O16 4316   4.992   3.961   5.503
   87DPPC   C17 4317   5.013   3.804   5.328
   87DPPC   C18 4318   4.891   3.829   5.240
   87DPPC   C19 4319   4.850   3.716   5.145
   87DPPC   C20 4320   4.958   3.696   5.038
   87DPPC   C21 4321   4.911   3.586   4.942
   87DPPC   C22 4322   5.027   3.556   4.847
   87DPPC   C23 4323   5.072   3.687   4.783
   87DPPC   C24 4324   5.196   3.665   4.695
   87DPPC   C25 4325   5.168   3.612   4.554
   87DPPC   C26 4326   5.079   3.709   4.476
   87DPPC   C27 4327   5.038   3.642   4.344
   87DPPC   C28 4328   4.920   3.710   4.273
   87DPPC   C29 4329   4.890   3.626   4.148
   87DPPC   C30 4330   4.758   3.681   4.094
   87DPPC   C31 4331   4.727   3.622   3.957
   87DPPC   C32 4332   5.333   4.167   5.391
   87DPPC   O33 4333   5.250   4.248   5.308
   87DPPC   C34 4334   5.320   4.315   5.212
   87DPPC   O35 4335   5.443   4.312   5.208
   87DPPC   C36 4336   5.237   4.361   5.092
   87DPPC   C37 4337   5.220   4.250   4.987
   87DPPC   C38 4338   5.135   4.137   5.045
   87DPPC   C39 4339   5.086   4.037   4.940
   87DPPC   C40 4340   4.981   4.108   4.855
   87DPPC   C41 4341   4.925   4.020   4.743
   87DPPC   C42 4342   4.802   4.075   4.670
   87DPPC   C43 4343   4.790   4.015   4.530
   87DPPC   C44 4344   4.660   4.073   4.475
   87DPPC   C45 4345   4.651   4.032   4.328
   87DPPC   C46 4346   4.549   4.125   4.262
   87DPPC   C47 4347   4.536   4.114   4.110
   87DPPC   C48 4348   4.504   3.968   4.079
   87DPPC   C49 4349   4.475   3.966   3.929
   87DPPC   C50 4350   4.359   4.050   3.876
   88DPPC    C1 4351   7.926   6.676   5.323
   88DPPC    C2 4352   7.793   6.492   5.394
   88DPPC    C3 4353   7.817   6.693   5.528
   88DPPC    N4 4354   7.802   6.639   5.393
   88DPPC    C5 4355   7.684   6.682   5.315
   88DPPC    C6 4356   7.644   6.829   5.308
   88DPPC    O7 4357   7.744   6.914   5.251
   88DPPC    P8 4358   7.700   7.069   5.251
   88DPPC    O9 4359   7.819   7.144   5.206
   88DPPC   O10 4360   7.624   7.101   5.374
   88DPPC   O11 4361   7.596   7.059   5.128
   88DPPC   C12 4362   7.661   7.014   5.009
   88DPPC   C13 4363   7.587   6.980   4.879
   88DPPC   O14 4364   7.676   6.953   4.769
   88DPPC   C15 4365   7.728   6.830   4.745
   88DPPC   O16 4366   7.720   6.753   4.840
   88DPPC   C17 4367   7.781   6.793   4.606
   88DPPC   C18 4368   7.770   6.643   4.576
   88DPPC   C19 4369   7.876   6.616   4.468
   88DPPC   C20 4370   7.873   6.470   4.423
   88DPPC   C21 4371   7.984   6.456   4.319
   88DPPC   C22 4372   7.937   6.386   4.191
   88DPPC   C23 4373   8.062   6.337   4.119
   88DPPC   C24 4374   8.027   6.279   3.981
   88DPPC   C25 4375   8.146   6.217   3.909
   88DPPC   C26 4376   8.117   6.207   3.759
   88DPPC   C27 4377   8.239   6.157   3.681
   88DPPC   C28 4378   8.195   6.088   3.552
   88DPPC   C29 4379   8.130   6.189   3.458
   88DPPC   C30 4380   8.119   6.150   3.311
   88DPPC   C31 4381   8.099   6.263   3.209
   88DPPC   C32 4382   7.500   7.103   4.855
   88DPPC   O33 4383   7.381   7.085   4.777
   88DPPC   C34 4384   7.300   7.195   4.781
   88DPPC   O35 4385   7.342   7.295   4.838
   88DPPC   C36 4386   7.158   7.175   4.729
   88DPPC   C37 4387   7.149   7.196   4.578
   88DPPC   C38 4388   7.014   7.156   4.518
   88DPPC   C39 4389   6.991   7.005   4.527
   88DPPC   C40 4390   6.844   6.975   4.493
   88DPPC   C41 4391   6.826   6.831   4.540
   88DPPC   C42 4392   6.678   6.791   4.544
   88DPPC   C43 4393   6.616   6.789   4.404
   88DPPC   C44 4394   6.480   6.720   4.393
   88DPPC   C45 4395   6.396   6.761   4.271
   88DPPC   C46 4396   6.306   6.644   4.232
   88DPPC   C47 4397   6.242   6.667   4.095
   88DPPC   C48 4398   6.156   6.543   4.066
   88DPPC   C49 4399   6.236   6.418   4.101
   88DPPC   C50 4400   6.174   6.296   4.031
   89DPPC    C1 4401   8.895   1.171   5.536
   89DPPC    C2 4402   8.949   1.393   5.551
   89DPPC    C3 4403   9.020   1.278   5.367
   89DPPC    N4 4404   8.903   1.293   5.454
   89DPPC    C5 4405   8.792   1.331   5.366
   89DPPC    C6 4406   8.652   1.377   5.408
   89DPPC    O7 4407   8.664   1.460   5.524
   89DPPC    P8 4408   8.532   1.552   5.533
   89DPPC    O9 4409   8.562   1.668   5.620
   89DPPC   O10 4410   8.424   1.453   5.550
   89DPPC   O11 4411   8.537   1.599   5.379
   89DPPC   C12 4412   8.432   1.684   5.332
   89DPPC   C13 4413   8.477   1.757   5.206
   89DPPC   O14 4414   8.371   1.845   5.165
   89DPPC   C15 4415   8.373   1.978   5.191
   89DPPC   O16 4416   8.435   2.017   5.290
   89DPPC   C17 4417   8.286   2.069   5.103
   89DPPC   C18 4418   8.267   2.024   4.958
   89DPPC   C19 4419   8.200   2.124   4.864
   89DPPC   C20 4420   8.171   2.062   4.727
   89DPPC   C21 4421   8.105   2.161   4.631
   89DPPC   C22 4422   7.973   2.209   4.692
   89DPPC   C23 4423   7.916   2.295   4.580
   89DPPC   C24 4424   7.785   2.357   4.629
   89DPPC   C25 4425   7.709   2.442   4.527
   89DPPC   C26 4426   7.664   2.354   4.410
   89DPPC   C27 4427   7.566   2.433   4.323
   89DPPC   C28 4428   7.618   2.564   4.263
   89DPPC   C29 4429   7.514   2.616   4.163
   89DPPC   C30 4430   7.572   2.747   4.110
   89DPPC   C31 4431   7.701   2.732   4.030
   89DPPC   C32 4432   8.522   1.658   5.098
   89DPPC   O33 4433   8.591   1.731   4.996
   89DPPC   C34 4434   8.620   1.672   4.877
   89DPPC   O35 4435   8.584   1.555   4.862
   89DPPC   C36 4436   8.698   1.746   4.767
   89DPPC   C37 4437   8.600   1.815   4.672
   89DPPC   C38 4438   8.665   1.940   4.613
   89DPPC   C39 4439   8.677   1.949   4.461
   89DPPC   C40 4440   8.542   1.968   4.391
   89DPPC   C41 4441   8.570   2.008   4.245
   89DPPC   C42 4442   8.447   1.984   4.158
   89DPPC   C43 4443   8.318   2.029   4.228
   89DPPC   C44 4444   8.200   1.972   4.149
   89DPPC   C45 4445   8.080   2.043   4.211
   89DPPC   C46 4446   7.954   2.002   4.133
   89DPPC   C47 4447   7.822   2.035   4.201
   89DPPC   C48 4448   7.713   1.969   4.116
   89DPPC   C49 4449   7.577   2.022   4.164
   89DPPC   C50 4450   7.473   1.985   4.058
   90DPPC    C1 4451   6.078   3.117   6.030
   90DPPC    C2 4452   5.918   3.283   5.937
   90DPPC    C3 4453   6.045   3.331   6.104
   90DPPC    N4 4454   6.056   3.253   5.980
   90DPPC    C5 4455   6.156   3.303   5.885
   90DPPC    C6 4456   6.186   3.453   5.877
   90DPPC    O7 4457   6.091   3.529   5.802
   90DPPC    P8 4458   6.093   3.684   5.844
   90DPPC    O9 4459   6.118   3.680   5.990
   90DPPC   O10 4460   5.993   3.770   5.777
   90DPPC   O11 4461   6.234   3.711   5.771
   90DPPC   C12 4462   6.212   3.718   5.630
   90DPPC   C13 4463   6.339   3.720   5.544
   90DPPC   O14 4464   6.323   3.762   5.408
   90DPPC   C15 4465   6.259   3.878   5.375
   90DPPC   O16 4466   6.247   3.970   5.455
   90DPPC   C17 4467   6.232   3.900   5.226
   90DPPC   C18 4468   6.108   3.822   5.182
   90DPPC   C19 4469   6.052   3.872   5.048
   90DPPC   C20 4470   6.146   3.892   4.929
   90DPPC   C21 4471   6.084   3.933   4.795
   90DPPC   C22 4472   6.191   3.988   4.700
   90DPPC   C23 4473   6.153   4.016   4.555
   90DPPC   C24 4474   6.271   4.060   4.468
   90DPPC   C25 4475   6.227   4.088   4.324
   90DPPC   C26 4476   6.344   4.064   4.228
   90DPPC   C27 4477   6.303   4.100   4.085
   90DPPC   C28 4478   6.425   4.081   3.996
   90DPPC   C29 4479   6.396   4.046   3.849
   90DPPC   C30 4480   6.356   3.900   3.828
   90DPPC   C31 4481   6.488   3.823   3.831
   90DPPC   C32 4482   6.418   3.590   5.556
   90DPPC   O33 4483   6.343   3.471   5.528
   90DPPC   C34 4484   6.408   3.354   5.549
   90DPPC   O35 4485   6.507   3.355   5.622
   90DPPC   C36 4486   6.331   3.222   5.538
   90DPPC   C37 4487   6.354   3.145   5.408
   90DPPC   C38 4488   6.242   3.041   5.399
   90DPPC   C39 4489   6.230   2.977   5.261
   90DPPC   C40 4490   6.119   2.872   5.260
   90DPPC   C41 4491   6.118   2.806   5.121
   90DPPC   C42 4492   6.026   2.689   5.090
   90DPPC   C43 4493   6.018   2.661   4.940
   90DPPC   C44 4494   5.973   2.776   4.849
   90DPPC   C45 4495   5.986   2.720   4.707
   90DPPC   C46 4496   5.961   2.820   4.594
   90DPPC   C47 4497   6.026   2.766   4.467
   90DPPC   C48 4498   5.932   2.785   4.348
   90DPPC   C49 4499   5.964   2.676   4.246
   90DPPC   C50 4500   6.105   2.697   4.191
   91DPPC    C1 4501   4.517   7.123   5.455
   91DPPC    C2 4502   4.461   7.260   5.627
   91DPPC    C3 4503   4.648   7.329   5.508
   91DPPC    N4 4504   4.516   7.265   5.491
   91DPPC    C5 4505   4.415   7.346   5.420
   91DPPC    C6 4506   4.448   7.348   5.271
   91DPPC    O7 4507   4.357   7.441   5.212
   91DPPC    P8 4508   4.311   7.389   5.067
   91DPPC    O9 4509   4.242   7.507   5.010
   91DPPC   O10 4510   4.239   7.263   5.099
   91DPPC   O11 4511   4.452   7.338   5.008
   91DPPC   C12 4512   4.456   7.406   4.882
   91DPPC   C13 4513   4.574   7.356   4.799
   91DPPC   O14 4514   4.617   7.433   4.685
   91DPPC   C15 4515   4.695   7.544   4.696
   91DPPC   O16 4516   4.740   7.591   4.800
   91DPPC   C17 4517   4.760   7.579   4.562
   91DPPC   C18 4518   4.727   7.498   4.436
   91DPPC   C19 4519   4.821   7.531   4.320
   91DPPC   C20 4520   4.763   7.478   4.189
   91DPPC   C21 4521   4.835   7.547   4.073
   91DPPC   C22 4522   4.827   7.465   3.944
   91DPPC   C23 4523   4.894   7.531   3.824
   91DPPC   C24 4524   4.916   7.440   3.703
   91DPPC   C25 4525   4.965   7.525   3.586
   91DPPC   C26 4526   4.979   7.431   3.466
   91DPPC   C27 4527   5.078   7.315   3.483
   91DPPC   C28 4528   5.121   7.267   3.344
   91DPPC   C29 4529   5.228   7.157   3.346
   91DPPC   C30 4530   5.308   7.143   3.217
   91DPPC   C31 4531   5.220   7.094   3.102
   91DPPC   C32 4532   4.557   7.206   4.774
   91DPPC   O33 4533   4.419   7.169   4.764
   91DPPC   C34 4534   4.390   7.042   4.724
   91DPPC   O35 4535   4.474   6.955   4.750
   91DPPC   C36 4536   4.257   7.015   4.655
   91DPPC   C37 4537   4.276   6.913   4.542
   91DPPC   C38 4538   4.133   6.881   4.496
   91DPPC   C39 4539   4.147   6.785   4.378
   91DPPC   C40 4540   4.210   6.878   4.274
   91DPPC   C41 4541   4.252   6.798   4.151
   91DPPC   C42 4542   4.138   6.712   4.096
   91DPPC   C43 4543   4.189   6.622   3.983
   91DPPC   C44 4544   4.313   6.546   4.030
   91DPPC   C45 4545   4.334   6.428   3.934
   91DPPC   C46 4546   4.354   6.470   3.788
   91DPPC   C47 4547   4.375   6.351   3.695
   91DPPC   C48 4548   4.339   6.403   3.556
   91DPPC   C49 4549   4.343   6.280   3.464
   91DPPC   C50 4550   4.312   6.313   3.318
   92DPPC    C1 4551   1.860   5.977   5.319
   92DPPC    C2 4552   1.834   6.206   5.405
   92DPPC    C3 4553   1.802   6.032   5.543
   92DPPC    N4 4554   1.886   6.070   5.429
   92DPPC    C5 4555   2.027   6.069   5.472
   92DPPC    C6 4556   2.126   6.114   5.365
   92DPPC    O7 4557   2.186   6.005   5.295
   92DPPC    P8 4558   2.307   6.050   5.198
   92DPPC    O9 4559   2.320   5.921   5.128
   92DPPC   O10 4560   2.385   6.093   5.316
   92DPPC   O11 4561   2.216   6.153   5.113
   92DPPC   C12 4562   2.177   6.079   4.997
   92DPPC   C13 4563   2.093   6.153   4.893
   92DPPC   O14 4564   2.056   6.068   4.783
   92DPPC   C15 4565   1.924   6.037   4.776
   92DPPC   O16 4566   1.846   6.111   4.836
   92DPPC   C17 4567   1.880   5.923   4.684
   92DPPC   C18 4568   1.869   5.974   4.540
   92DPPC   C19 4569   1.890   5.843   4.465
   92DPPC   C20 4570   1.861   5.882   4.320
   92DPPC   C21 4571   1.840   5.757   4.234
   92DPPC   C22 4572   1.798   5.797   4.092
   92DPPC   C23 4573   1.794   5.674   4.001
   92DPPC   C24 4574   1.695   5.573   4.060
   92DPPC   C25 4575   1.682   5.459   3.959
   92DPPC   C26 4576   1.561   5.375   4.003
   92DPPC   C27 4577   1.536   5.289   3.880
   92DPPC   C28 4578   1.553   5.373   3.753
   92DPPC   C29 4579   1.498   5.284   3.642
   92DPPC   C30 4580   1.519   5.319   3.495
   92DPPC   C31 4581   1.475   5.466   3.486
   92DPPC   C32 4582   2.177   6.277   4.861
   92DPPC   O33 4583   2.313   6.256   4.821
   92DPPC   C34 4584   2.397   6.362   4.808
   92DPPC   O35 4585   2.403   6.465   4.874
   92DPPC   C36 4586   2.528   6.331   4.735
   92DPPC   C37 4587   2.584   6.451   4.659
   92DPPC   C38 4588   2.728   6.425   4.615
   92DPPC   C39 4589   2.742   6.313   4.512
   92DPPC   C40 4590   2.658   6.349   4.389
   92DPPC   C41 4591   2.696   6.255   4.275
   92DPPC   C42 4592   2.677   6.106   4.305
   92DPPC   C43 4593   2.678   6.028   4.173
   92DPPC   C44 4594   2.629   5.887   4.208
   92DPPC   C45 4595   2.729   5.814   4.297
   92DPPC   C46 4596   2.690   5.670   4.334
   92DPPC   C47 4597   2.782   5.604   4.437
   92DPPC   C48 4598   2.741   5.467   4.491
   92DPPC   C49 4599   2.841   5.410   4.592
   92DPPC   C50 4600   2.785   5.277   4.642
   93DPPC    C1 4601   1.340   2.764   4.949
   93DPPC    C2 4602   1.253   2.947   4.830
   93DPPC    C3 4603   1.125   2.741   4.868
   93DPPC    N4 4604   1.216   2.841   4.925
   93DPPC    C5 4605   1.165   2.874   5.059
   93DPPC    C6 4606   1.232   2.991   5.133
   93DPPC    O7 4607   1.163   3.111   5.098
   93DPPC    P8 4608   1.240   3.236   5.164
   93DPPC    O9 4609   1.325   3.183   5.273
   93DPPC   O10 4610   1.129   3.330   5.194
   93DPPC   O11 4611   1.318   3.277   5.029
   93DPPC   C12 4612   1.220   3.320   4.935
   93DPPC   C13 4613   1.256   3.438   4.844
   93DPPC   O14 4614   1.165   3.488   4.745
   93DPPC   C15 4615   1.058   3.565   4.778
   93DPPC   O16 4616   1.023   3.588   4.894
   93DPPC   C17 4617   0.975   3.607   4.657
   93DPPC   C18 4618   0.838   3.538   4.661
   93DPPC   C19 4619   0.745   3.580   4.547
   93DPPC   C20 4620   0.816   3.553   4.414
   93DPPC   C21 4621   0.755   3.587   4.278
   93DPPC   C22 4622   0.729   3.737   4.258
   93DPPC   C23 4623   0.669   3.772   4.122
   93DPPC   C24 4624   0.774   3.757   4.011
   93DPPC   C25 4625   0.720   3.807   3.877
   93DPPC   C26 4626   0.606   3.712   3.839
   93DPPC   C27 4627   0.539   3.733   3.703
   93DPPC   C28 4628   0.630   3.710   3.582
   93DPPC   C29 4629   0.546   3.741   3.457
   93DPPC   C30 4630   0.627   3.679   3.343
   93DPPC   C31 4631   0.559   3.719   3.212
   93DPPC   C32 4632   1.383   3.386   4.776
   93DPPC   O33 4633   1.358   3.283   4.680
   93DPPC   C34 4634   1.453   3.259   4.586
   93DPPC   O35 4635   1.572   3.284   4.606
   93DPPC   C36 4636   1.421   3.160   4.474
   93DPPC   C37 4637   1.279   3.174   4.419
   93DPPC   C38 4638   1.249   3.069   4.312
   93DPPC   C39 4639   1.336   3.082   4.186
   93DPPC   C40 4640   1.299   2.974   4.085
   93DPPC   C41 4641   1.382   2.989   3.957
   93DPPC   C42 4642   1.316   2.901   3.851
   93DPPC   C43 4643   1.387   2.899   3.716
   93DPPC   C44 4644   1.308   2.986   3.617
   93DPPC   C45 4645   1.393   3.014   3.493
   93DPPC   C46 4646   1.305   3.110   3.412
   93DPPC   C47 4647   1.371   3.198   3.307
   93DPPC   C48 4648   1.389   3.129   3.172
   93DPPC   C49 4649   1.420   3.213   3.048
   93DPPC   C50 4650   1.442   3.140   2.915
   94DPPC    C1 4651   3.477   6.515   5.329
   94DPPC    C2 4652   3.571   6.618   5.533
   94DPPC    C3 4653   3.340   6.605   5.507
   94DPPC    N4 4654   3.465   6.535   5.474
   94DPPC    C5 4655   3.451   6.402   5.535
   94DPPC    C6 4656   3.574   6.313   5.557
   94DPPC    O7 4657   3.645   6.280   5.437
   94DPPC    P8 4658   3.764   6.182   5.482
   94DPPC    O9 4659   3.684   6.081   5.554
   94DPPC   O10 4660   3.849   6.281   5.554
   94DPPC   O11 4661   3.800   6.154   5.328
   94DPPC   C12 4662   3.866   6.270   5.277
   94DPPC   C13 4663   3.884   6.263   5.125
   94DPPC   O14 4664   3.769   6.318   5.059
   94DPPC   C15 4665   3.768   6.452   5.035
   94DPPC   O16 4666   3.856   6.525   5.080
   94DPPC   C17 4667   3.640   6.507   4.972
   94DPPC   C18 4668   3.680   6.600   4.857
   94DPPC   C19 4669   3.545   6.633   4.793
   94DPPC   C20 4670   3.566   6.734   4.680
   94DPPC   C21 4671   3.438   6.760   4.601
   94DPPC   C22 4672   3.478   6.867   4.499
   94DPPC   C23 4673   3.595   6.824   4.411
   94DPPC   C24 4674   3.557   6.704   4.324
   94DPPC   C25 4675   3.643   6.689   4.198
   94DPPC   C26 4676   3.647   6.546   4.144
   94DPPC   C27 4677   3.696   6.556   4.000
   94DPPC   C28 4678   3.756   6.420   3.961
   94DPPC   C29 4679   3.653   6.309   3.987
   94DPPC   C30 4680   3.582   6.277   3.856
   94DPPC   C31 4681   3.493   6.154   3.876
   94DPPC   C32 4682   3.915   6.119   5.086
   94DPPC   O33 4683   3.969   6.087   4.957
   94DPPC   C34 4684   4.023   5.963   4.964
   94DPPC   O35 4685   4.013   5.904   5.072
   94DPPC   C36 4686   4.105   5.918   4.843
   94DPPC   C37 4687   4.024   5.812   4.768
   94DPPC   C38 4688   4.065   5.829   4.622
   94DPPC   C39 4689   4.195   5.755   4.590
   94DPPC   C40 4690   4.233   5.819   4.456
   94DPPC   C41 4691   4.125   5.779   4.355
   94DPPC   C42 4692   4.183   5.816   4.218
   94DPPC   C43 4693   4.309   5.739   4.178
   94DPPC   C44 4694   4.315   5.753   4.026
   94DPPC   C45 4695   4.437   5.678   3.971
   94DPPC   C46 4696   4.451   5.684   3.819
   94DPPC   C47 4697   4.548   5.576   3.771
   94DPPC   C48 4698   4.596   5.600   3.627
   94DPPC   C49 4699   4.662   5.472   3.574
   94DPPC   C50 4700   4.696   5.494   3.426
   95DPPC    C1 4701   1.114   1.849   5.488
   95DPPC    C2 4702   0.955   1.767   5.339
   95DPPC    C3 4703   0.894   1.873   5.545
   95DPPC    N4 4704   0.983   1.880   5.429
   95DPPC    C5 4705   0.981   2.005   5.351
   95DPPC    C6 4706   0.989   2.136   5.430
   95DPPC    O7 4707   1.124   2.180   5.450
   95DPPC    P8 4708   1.114   2.325   5.519
   95DPPC    O9 4709   1.257   2.354   5.538
   95DPPC   O10 4710   1.028   2.309   5.638
   95DPPC   O11 4711   1.055   2.402   5.391
   95DPPC   C12 4712   1.157   2.432   5.295
   95DPPC   C13 4713   1.093   2.476   5.164
   95DPPC   O14 4714   1.177   2.488   5.048
   95DPPC   C15 4715   1.204   2.369   4.989
   95DPPC   O16 4716   1.153   2.268   5.037
   95DPPC   C17 4717   1.322   2.358   4.892
   95DPPC   C18 4718   1.323   2.231   4.806
   95DPPC   C19 4719   1.203   2.235   4.711
   95DPPC   C20 4720   1.187   2.096   4.648
   95DPPC   C21 4721   1.071   2.096   4.549
   95DPPC   C22 4722   1.055   1.955   4.491
   95DPPC   C23 4723   0.938   1.958   4.393
   95DPPC   C24 4724   0.979   2.042   4.272
   95DPPC   C25 4725   0.867   2.040   4.167
   95DPPC   C26 4726   0.919   1.995   4.031
   95DPPC   C27 4727   0.802   1.984   3.933
   95DPPC   C28 4728   0.863   1.954   3.796
   95DPPC   C29 4729   0.762   1.917   3.687
   95DPPC   C30 4730   0.850   1.866   3.572
   95DPPC   C31 4731   0.747   1.834   3.463
   95DPPC   C32 4732   1.013   2.592   5.222
   95DPPC   O33 4733   0.939   2.665   5.124
   95DPPC   C34 4734   0.816   2.702   5.169
   95DPPC   O35 4735   0.770   2.629   5.257
   95DPPC   C36 4736   0.740   2.818   5.104
   95DPPC   C37 4737   0.770   2.834   4.955
   95DPPC   C38 4738   0.689   2.952   4.901
   95DPPC   C39 4739   0.746   2.975   4.761
   95DPPC   C40 4740   0.829   3.103   4.751
   95DPPC   C41 4741   0.896   3.110   4.614
   95DPPC   C42 4742   0.803   3.162   4.504
   95DPPC   C43 4743   0.882   3.166   4.373
   95DPPC   C44 4744   0.785   3.200   4.259
   95DPPC   C45 4745   0.869   3.231   4.135
   95DPPC   C46 4746   0.788   3.266   4.010
   95DPPC   C47 4747   0.873   3.304   3.889
   95DPPC   C48 4748   0.794   3.327   3.760
   95DPPC   C49 4749   0.717   3.200   3.721
   95DPPC   C50 4750   0.799   3.076   3.684
   96DPPC    C1 4751   2.003   8.032   4.615
   96DPPC    C2 4752   1.980   7.940   4.838
   96DPPC    C3 4753   2.149   7.858   4.687
   96DPPC    N4 4754   2.074   7.977   4.731
   96DPPC    C5 4755   2.166   8.084   4.771
   96DPPC    C6 4756   2.283   8.053   4.865
   96DPPC    O7 4757   2.337   8.174   4.918
   96DPPC    P8 4758   2.491   8.172   4.963
   96DPPC    O9 4759   2.513   8.035   5.013
   96DPPC   O10 4760   2.507   8.293   5.047
   96DPPC   O11 4761   2.547   8.187   4.813
   96DPPC   C12 4762   2.552   8.327   4.782
   96DPPC   C13 4763   2.629   8.351   4.652
   96DPPC   O14 4764   2.572   8.458   4.575
   96DPPC   C15 4765   2.616   8.585   4.597
   96DPPC   O16 4766   2.659   8.618   4.708
   96DPPC   C17 4767   2.557   8.691   4.504
   96DPPC   C18 4768   2.648   8.700   4.381
   96DPPC   C19 4769   2.567   8.774   4.274
   96DPPC   C20 4770   2.439   8.699   4.240
   96DPPC   C21 4771   2.361   8.768   4.128
   96DPPC   C22 4772   2.245   8.683   4.075
   96DPPC   C23 4773   2.215   8.707   3.926
   96DPPC   C24 4774   2.161   8.844   3.886
   96DPPC   C25 4775   2.131   8.853   3.736
   96DPPC   C26 4776   2.098   8.996   3.691
   96DPPC   C27 4777   2.137   9.007   3.544
   96DPPC   C28 4778   2.091   9.147   3.501
   96DPPC   C29 4779   2.130   9.183   3.358
   96DPPC   C30 4780   2.282   9.165   3.361
   96DPPC   C31 4781   2.333   9.157   3.217
   96DPPC   C32 4782   2.633   8.225   4.566
   96DPPC   O33 4783   2.712   8.227   4.447
   96DPPC   C34 4784   2.671   8.135   4.356
   96DPPC   O35 4785   2.593   8.044   4.381
   96DPPC   C36 4786   2.741   8.140   4.220
   96DPPC   C37 4787   2.889   8.110   4.245
   96DPPC   C38 4788   2.976   8.126   4.120
   96DPPC   C39 4789   3.122   8.093   4.153
   96DPPC   C40 4790   3.158   8.172   4.278
   96DPPC   C41 4791   3.287   8.122   4.343
   96DPPC   C42 4792   3.402   8.132   4.242
   96DPPC   C43 4793   3.530   8.114   4.324
   96DPPC   C44 4794   3.656   8.150   4.245
   96DPPC   C45 4795   3.649   8.295   4.199
   96DPPC   C46 4796   3.761   8.337   4.103
   96DPPC   C47 4797   3.748   8.485   4.065
   96DPPC   C48 4798   3.866   8.535   3.981
   96DPPC   C49 4799   3.989   8.481   4.054
   96DPPC   C50 4800   4.117   8.524   3.981
   97DPPC    C1 4801   9.528   4.414   5.691
   97DPPC    C2 4802   9.487   4.264   5.498
   97DPPC    C3 4803   9.676   4.379   5.515
   97DPPC    N4 4804   9.580   4.310   5.602
   97DPPC    C5 4805   9.614   4.200   5.694
   97DPPC    C6 4806   9.711   4.088   5.656
   97DPPC    O7 4807   9.851   4.111   5.643
   97DPPC    P8 4808   9.914   3.963   5.657
   97DPPC    O9 4809   9.811   3.868   5.610
   97DPPC   O10 4810   9.936   3.957   5.803
   97DPPC   O11 4811  10.046   3.956   5.564
   97DPPC   C12 4812   9.993   3.985   5.435
   97DPPC   C13 4813  10.070   3.912   5.325
   97DPPC   O14 4814  10.082   3.996   5.210
   97DPPC   C15 4815  10.156   3.943   5.109
   97DPPC   O16 4816  10.219   3.839   5.126
   97DPPC   C17 4817  10.199   4.037   4.996
   97DPPC   C18 4818  10.208   3.951   4.870
   97DPPC   C19 4819  10.245   4.045   4.755
   97DPPC   C20 4820  10.247   3.976   4.619
   97DPPC   C21 4821  10.235   4.071   4.499
   97DPPC   C22 4822  10.092   4.122   4.483
   97DPPC   C23 4823  10.088   4.233   4.377
   97DPPC   C24 4824   9.942   4.255   4.338
   97DPPC   C25 4825   9.913   4.344   4.217
   97DPPC   C26 4826   9.967   4.288   4.086
   97DPPC   C27 4827   9.921   4.144   4.062
   97DPPC   C28 4828   9.915   4.106   3.914
   97DPPC   C29 4829   9.816   4.201   3.847
   97DPPC   C30 4830   9.801   4.159   3.700
   97DPPC   C31 4831   9.934   4.157   3.625
   97DPPC   C32 4832  10.012   3.772   5.298
   97DPPC   O33 4833   9.914   3.780   5.194
   97DPPC   C34 4834   9.850   3.667   5.154
   97DPPC   O35 4835   9.866   3.561   5.215
   97DPPC   C36 4836   9.780   3.684   5.019
   97DPPC   C37 4837   9.879   3.698   4.904
   97DPPC   C38 4838   9.808   3.704   4.769
   97DPPC   C39 4839   9.881   3.763   4.648
   97DPPC   C40 4840   9.791   3.778   4.526
   97DPPC   C41 4841   9.873   3.793   4.397
   97DPPC   C42 4842   9.793   3.748   4.274
   97DPPC   C43 4843   9.653   3.807   4.261
   97DPPC   C44 4844   9.578   3.771   4.133
   97DPPC   C45 4845   9.655   3.799   4.004
   97DPPC   C46 4846   9.566   3.761   3.885
   97DPPC   C47 4847   9.643   3.786   3.755
   97DPPC   C48 4848   9.559   3.789   3.627
   97DPPC   C49 4849   9.643   3.794   3.499
   97DPPC   C50 4850   9.570   3.833   3.370
   98DPPC    C1 4851   7.929   4.365   5.622
   98DPPC    C2 4852   7.755   4.216   5.673
   98DPPC    C3 4853   7.777   4.451   5.767
   98DPPC    N4 4854   7.785   4.358   5.654
   98DPPC    C5 4855   7.719   4.418   5.537
   98DPPC    C6 4856   7.566   4.426   5.533
   98DPPC    O7 4857   7.496   4.301   5.534
   98DPPC    P8 4858   7.350   4.354   5.579
   98DPPC    O9 4859   7.382   4.432   5.700
   98DPPC   O10 4860   7.259   4.237   5.578
   98DPPC   O11 4861   7.311   4.441   5.449
   98DPPC   C12 4862   7.284   4.342   5.349
   98DPPC   C13 4863   7.254   4.410   5.215
   98DPPC   O14 4864   7.211   4.316   5.116
   98DPPC   C15 4865   7.081   4.317   5.075
   98DPPC   O16 4866   7.014   4.398   5.140
   98DPPC   C17 4867   7.040   4.243   4.948
   98DPPC   C18 4868   7.159   4.241   4.852
   98DPPC   C19 4869   7.184   4.369   4.772
   98DPPC   C20 4870   7.192   4.350   4.620
   98DPPC   C21 4871   7.299   4.249   4.578
   98DPPC   C22 4872   7.329   4.256   4.428
   98DPPC   C23 4873   7.387   4.390   4.383
   98DPPC   C24 4874   7.423   4.415   4.236
   98DPPC   C25 4875   7.290   4.434   4.163
   98DPPC   C26 4876   7.305   4.413   4.013
   98DPPC   C27 4877   7.406   4.510   3.951
   98DPPC   C28 4878   7.379   4.522   3.801
   98DPPC   C29 4879   7.239   4.582   3.785
   98DPPC   C30 4880   7.197   4.575   3.638
   98DPPC   C31 4881   7.298   4.631   3.538
   98DPPC   C32 4882   7.385   4.480   5.176
   98DPPC   O33 4883   7.383   4.569   5.065
   98DPPC   C34 4884   7.501   4.573   4.996
   98DPPC   O35 4885   7.602   4.517   5.039
   98DPPC   C36 4886   7.495   4.618   4.850
   98DPPC   C37 4887   7.601   4.719   4.805
   98DPPC   C38 4888   7.560   4.775   4.669
   98DPPC   C39 4889   7.657   4.754   4.553
   98DPPC   C40 4890   7.604   4.831   4.432
   98DPPC   C41 4891   7.666   4.778   4.302
   98DPPC   C42 4892   7.627   4.861   4.180
   98DPPC   C43 4893   7.697   4.807   4.055
   98DPPC   C44 4894   7.669   4.881   3.924
   98DPPC   C45 4895   7.705   4.795   3.802
   98DPPC   C46 4896   7.855   4.766   3.801
   98DPPC   C47 4897   7.887   4.693   3.670
   98DPPC   C48 4898   8.035   4.721   3.641
   98DPPC   C49 4899   8.093   4.596   3.575
   98DPPC   C50 4900   8.245   4.608   3.558
   99DPPC    C1 4901   8.338   5.446   1.164
   99DPPC    C2 4902   8.474   5.558   1.335
   99DPPC    C3 4903   8.487   5.595   1.097
   99DPPC    N4 4904   8.396   5.572   1.211
   99DPPC    C5 4905   8.301   5.684   1.217
   99DPPC    C6 4906   8.188   5.687   1.321
   99DPPC    O7 4907   8.054   5.675   1.272
   99DPPC    P8 4908   7.963   5.784   1.347
   99DPPC    O9 4909   7.828   5.799   1.288
   99DPPC   O10 4910   8.038   5.911   1.354
   99DPPC   O11 4911   7.957   5.741   1.502
   99DPPC   C12 4912   7.834   5.788   1.559
   99DPPC   C13 4913   7.833   5.792   1.712
   99DPPC   O14 4914   7.851   5.925   1.762
   99DPPC   C15 4915   7.748   6.014   1.747
   99DPPC   O16 4916   7.654   6.012   1.669
   99DPPC   C17 4917   7.750   6.137   1.839
   99DPPC   C18 4918   7.608   6.172   1.882
   99DPPC   C19 4919   7.614   6.307   1.953
   99DPPC   C20 4920   7.693   6.284   2.082
   99DPPC   C21 4921   7.671   6.412   2.163
   99DPPC   C22 4922   7.522   6.414   2.197
   99DPPC   C23 4923   7.488   6.536   2.283
   99DPPC   C24 4924   7.340   6.575   2.276
   99DPPC   C25 4925   7.320   6.700   2.362
   99DPPC   C26 4926   7.396   6.685   2.494
   99DPPC   C27 4927   7.323   6.630   2.617
   99DPPC   C28 4928   7.413   6.558   2.718
   99DPPC   C29 4929   7.325   6.536   2.841
   99DPPC   C30 4930   7.380   6.416   2.918
   99DPPC   C31 4931   7.289   6.396   3.040
   99DPPC   C32 4932   7.937   5.691   1.760
   99DPPC   O33 4933   7.885   5.568   1.811
   99DPPC   C34 4934   7.983   5.494   1.868
   99DPPC   O35 4935   8.096   5.539   1.882
   99DPPC   C36 4936   7.935   5.378   1.957
   99DPPC   C37 4937   7.995   5.389   2.097
   99DPPC   C38 4938   7.952   5.274   2.189
   99DPPC   C39 4939   8.031   5.300   2.318
   99DPPC   C40 4940   7.995   5.191   2.419
   99DPPC   C41 4941   8.082   5.193   2.545
   99DPPC   C42 4942   8.002   5.135   2.662
   99DPPC   C43 4943   7.879   5.219   2.696
   99DPPC   C44 4944   7.817   5.190   2.833
   99DPPC   C45 4945   7.756   5.051   2.854
   99DPPC   C46 4946   7.716   5.029   3.000
   99DPPC   C47 4947   7.630   4.903   3.010
   99DPPC   C48 4948   7.597   4.847   3.148
   99DPPC   C49 4949   7.486   4.741   3.142
   99DPPC   C50 4950   7.354   4.816   3.127
  100DPPC    C1 4951   4.384   4.550   2.188
  100DPPC    C2 4952   4.252   4.574   1.993
  100DPPC    C3 4953   4.171   4.463   2.189
  100DPPC    N4 4954   4.248   4.578   2.139
  100DPPC    C5 4955   4.194   4.702   2.198
  100DPPC    C6 4956   4.052   4.741   2.156
  100DPPC    O7 4957   4.030   4.881   2.174
  100DPPC    P8 4958   3.931   4.937   2.060
  100DPPC    O9 4959   3.987   4.928   1.923
  100DPPC   O10 4960   3.885   5.067   2.115
  100DPPC   O11 4961   3.801   4.843   2.075
  100DPPC   C12 4962   3.709   4.884   2.177
  100DPPC   C13 4963   3.598   4.786   2.215
  100DPPC   O14 4964   3.484   4.849   2.276
  100DPPC   C15 4965   3.413   4.948   2.217
  100DPPC   O16 4966   3.421   4.964   2.095
  100DPPC   C17 4967   3.296   4.985   2.308
  100DPPC   C18 4968   3.168   4.906   2.279
  100DPPC   C19 4969   3.135   4.799   2.383
  100DPPC   C20 4970   3.121   4.862   2.522
  100DPPC   C21 4971   3.070   4.766   2.631
  100DPPC   C22 4972   3.048   4.843   2.761
  100DPPC   C23 4973   2.984   4.739   2.854
  100DPPC   C24 4974   2.979   4.798   2.995
  100DPPC   C25 4975   2.871   4.906   2.994
  100DPPC   C26 4976   2.854   4.979   3.128
  100DPPC   C27 4977   2.809   5.120   3.088
  100DPPC   C28 4978   2.795   5.210   3.211
  100DPPC   C29 4979   2.787   5.354   3.160
  100DPPC   C30 4980   2.777   5.446   3.282
  100DPPC   C31 4981   2.876   5.407   3.392
  100DPPC   C32 4982   3.665   4.660   2.271
  100DPPC   O33 4983   3.758   4.688   2.376
  100DPPC   C34 4984   3.812   4.573   2.425
  100DPPC   O35 4985   3.787   4.464   2.373
  100DPPC   C36 4986   3.931   4.593   2.519
  100DPPC   C37 4987   3.896   4.568   2.666
  100DPPC   C38 4988   4.019   4.587   2.756
  100DPPC   C39 4989   3.985   4.607   2.904
  100DPPC   C40 4990   3.931   4.748   2.929
  100DPPC   C41 4991   3.914   4.756   3.081
  100DPPC   C42 4992   3.874   4.889   3.144
  100DPPC   C43 4993   3.764   4.970   3.074
  100DPPC   C44 4994   3.729   5.098   3.150
  100DPPC   C45 4995   3.673   5.210   3.063
  100DPPC   C46 4996   3.663   5.339   3.144
  100DPPC   C47 4997   3.594   5.446   3.059
  100DPPC   C48 4998   3.578   5.572   3.144
  100DPPC   C49 4999   3.718   5.606   3.198
  100DPPC   C50 5000   3.696   5.747   3.252
  101DPPC    C1 5001   5.680   0.467   1.860
  101DPPC    C2 5002   5.657   0.260   1.952
  101DPPC    C3 5003   5.666   0.452   2.091
  101DPPC    N4 5004   5.607   0.397   1.968
  101DPPC    C5 5005   5.461   0.415   1.958
  101DPPC    C6 5006   5.375   0.336   1.859
  101DPPC    O7 5007   5.238   0.375   1.867
  101DPPC    P8 5008   5.138   0.258   1.820
  101DPPC    O9 5009   5.214   0.162   1.736
  101DPPC   O10 5010   5.020   0.322   1.758
  101DPPC   O11 5011   5.113   0.202   1.968
  101DPPC   C12 5012   5.038   0.297   2.044
  101DPPC   C13 5013   5.007   0.257   2.188
  101DPPC   O14 5014   4.953   0.379   2.241
  101DPPC   C15 5015   4.826   0.381   2.290
  101DPPC   O16 5016   4.744   0.304   2.240
  101DPPC   C17 5017   4.789   0.479   2.401
  101DPPC   C18 5018   4.866   0.429   2.524
  101DPPC   C19 5019   4.846   0.541   2.626
  101DPPC   C20 5020   4.888   0.515   2.771
  101DPPC   C21 5021   4.867   0.631   2.869
  101DPPC   C22 5022   4.721   0.663   2.901
  101DPPC   C23 5023   4.662   0.526   2.934
  101DPPC   C24 5024   4.512   0.535   2.965
  101DPPC   C25 5025   4.449   0.410   3.025
  101DPPC   C26 5026   4.306   0.441   3.072
  101DPPC   C27 5027   4.286   0.343   3.188
  101DPPC   C28 5028   4.327   0.204   3.138
  101DPPC   C29 5029   4.365   0.119   3.260
  101DPPC   C30 5030   4.428  -0.012   3.212
  101DPPC   C31 5031   4.566  -0.002   3.148
  101DPPC   C32 5032   5.130   0.196   2.255
  101DPPC   O33 5033   5.255   0.265   2.266
  101DPPC   C34 5034   5.355   0.189   2.319
  101DPPC   O35 5035   5.357   0.069   2.291
  101DPPC   C36 5036   5.482   0.261   2.364
  101DPPC   C37 5037   5.466   0.286   2.514
  101DPPC   C38 5038   5.587   0.342   2.590
  101DPPC   C39 5039   5.562   0.350   2.741
  101DPPC   C40 5040   5.670   0.448   2.789
  101DPPC   C41 5041   5.652   0.475   2.938
  101DPPC   C42 5042   5.762   0.554   3.009
  101DPPC   C43 5043   5.746   0.539   3.161
  101DPPC   C44 5044   5.858   0.601   3.244
  101DPPC   C45 5045   5.840   0.586   3.395
  101DPPC   C46 5046   5.959   0.645   3.472
  101DPPC   C47 5047   5.925   0.632   3.620
  101DPPC   C48 5048   6.030   0.699   3.708
  101DPPC   C49 5049   6.002   0.692   3.859
  101DPPC   C50 5050   6.122   0.703   3.953
  102DPPC    C1 5051   2.395   1.299   1.793
  102DPPC    C2 5052   2.501   1.202   1.976
  102DPPC    C3 5053   2.285   1.151   1.953
  102DPPC    N4 5054   2.403   1.174   1.870
  102DPPC    C5 5055   2.451   1.062   1.789
  102DPPC    C6 5056   2.414   1.055   1.640
  102DPPC    O7 5057   2.272   1.059   1.621
  102DPPC    P8 5058   2.229   0.950   1.511
  102DPPC    O9 5059   2.355   0.906   1.448
  102DPPC   O10 5060   2.098   0.982   1.450
  102DPPC   O11 5061   2.199   0.830   1.614
  102DPPC   C12 5062   2.083   0.873   1.687
  102DPPC   C13 5063   2.012   0.775   1.780
  102DPPC   O14 5064   1.887   0.823   1.834
  102DPPC   C15 5065   1.802   0.733   1.891
  102DPPC   O16 5066   1.818   0.613   1.869
  102DPPC   C17 5067   1.687   0.789   1.974
  102DPPC   C18 5068   1.727   0.758   2.118
  102DPPC   C19 5069   1.641   0.813   2.232
  102DPPC   C20 5070   1.696   0.770   2.368
  102DPPC   C21 5071   1.600   0.822   2.476
  102DPPC   C22 5072   1.666   0.818   2.614
  102DPPC   C23 5073   1.583   0.848   2.739
  102DPPC   C24 5074   1.543   0.995   2.739
  102DPPC   C25 5075   1.427   1.034   2.830
  102DPPC   C26 5076   1.430   1.185   2.852
  102DPPC   C27 5077   1.543   1.216   2.950
  102DPPC   C28 5078   1.588   1.358   2.915
  102DPPC   C29 5079   1.474   1.458   2.936
  102DPPC   C30 5080   1.515   1.599   2.895
  102DPPC   C31 5081   1.546   1.601   2.745
  102DPPC   C32 5082   2.116   0.742   1.887
  102DPPC   O33 5083   2.183   0.836   1.972
  102DPPC   C34 5084   2.247   0.771   2.073
  102DPPC   O35 5085   2.266   0.650   2.085
  102DPPC   C36 5086   2.304   0.852   2.189
  102DPPC   C37 5087   2.209   0.858   2.309
  102DPPC   C38 5088   2.204   0.725   2.384
  102DPPC   C39 5089   2.092   0.715   2.488
  102DPPC   C40 5090   2.124   0.829   2.585
  102DPPC   C41 5091   2.041   0.803   2.711
  102DPPC   C42 5092   2.082   0.668   2.772
  102DPPC   C43 5093   2.012   0.637   2.904
  102DPPC   C44 5094   2.082   0.518   2.969
  102DPPC   C45 5095   1.979   0.457   3.064
  102DPPC   C46 5096   2.025   0.337   3.147
  102DPPC   C47 5097   1.926   0.301   3.258
  102DPPC   C48 5098   1.941   0.150   3.281
  102DPPC   C49 5099   1.870   0.110   3.411
  102DPPC   C50 5100   1.720   0.095   3.383
  103DPPC    C1 5101   2.552   7.363   1.205
  103DPPC    C2 5102   2.503   7.159   1.316
  103DPPC    C3 5103   2.719   7.244   1.319
  103DPPC    N4 5104   2.578   7.285   1.327
  103DPPC    C5 5105   2.543   7.351   1.454
  103DPPC    C6 5106   2.618   7.480   1.485
  103DPPC    O7 5107   2.750   7.455   1.534
  103DPPC    P8 5108   2.839   7.588   1.553
  103DPPC    O9 5109   2.836   7.633   1.413
  103DPPC   O10 5110   2.967   7.552   1.617
  103DPPC   O11 5111   2.749   7.657   1.668
  103DPPC   C12 5112   2.796   7.625   1.800
  103DPPC   C13 5113   2.671   7.639   1.887
  103DPPC   O14 5114   2.576   7.534   1.866
  103DPPC   C15 5115   2.619   7.415   1.916
  103DPPC   O16 5116   2.729   7.398   1.969
  103DPPC   C17 5117   2.524   7.299   1.882
  103DPPC   C18 5118   2.533   7.203   2.001
  103DPPC   C19 5119   2.473   7.258   2.131
  103DPPC   C20 5120   2.497   7.153   2.239
  103DPPC   C21 5121   2.447   7.198   2.377
  103DPPC   C22 5122   2.459   7.092   2.487
  103DPPC   C23 5123   2.391   7.154   2.609
  103DPPC   C24 5124   2.355   7.062   2.726
  103DPPC   C25 5125   2.330   7.121   2.865
  103DPPC   C26 5126   2.287   7.029   2.980
  103DPPC   C27 5127   2.260   7.110   3.106
  103DPPC   C28 5128   2.249   6.999   3.211
  103DPPC   C29 5129   2.372   6.908   3.210
  103DPPC   C30 5130   2.367   6.791   3.308
  103DPPC   C31 5131   2.491   6.705   3.333
  103DPPC   C32 5132   2.622   7.783   1.872
  103DPPC   O33 5133   2.722   7.874   1.917
  103DPPC   C34 5134   2.693   8.006   1.905
  103DPPC   O35 5135   2.581   8.040   1.867
  103DPPC   C36 5136   2.795   8.107   1.959
  103DPPC   C37 5137   2.792   8.108   2.112
  103DPPC   C38 5138   2.868   8.221   2.180
  103DPPC   C39 5139   2.845   8.231   2.331
  103DPPC   C40 5140   2.955   8.324   2.381
  103DPPC   C41 5141   2.966   8.317   2.533
  103DPPC   C42 5142   2.834   8.372   2.588
  103DPPC   C43 5143   2.855   8.402   2.736
  103DPPC   C44 5144   2.734   8.443   2.821
  103DPPC   C45 5145   2.764   8.490   2.963
  103DPPC   C46 5146   2.627   8.537   3.012
  103DPPC   C47 5147   2.648   8.623   3.137
  103DPPC   C48 5148   2.508   8.666   3.182
  103DPPC   C49 5149   2.520   8.775   3.289
  103DPPC   C50 5150   2.579   8.715   3.417
  104DPPC    C1 5151   3.890   3.955   1.508
  104DPPC    C2 5152   3.956   3.728   1.508
  104DPPC    C3 5153   4.091   3.884   1.400
  104DPPC    N4 5154   4.006   3.866   1.519
  104DPPC    C5 5155   4.072   3.898   1.646
  104DPPC    C6 5156   4.177   3.808   1.712
  104DPPC    O7 5157   4.283   3.759   1.629
  104DPPC    P8 5158   4.318   3.611   1.683
  104DPPC    O9 5159   4.438   3.564   1.610
  104DPPC   O10 5160   4.190   3.538   1.673
  104DPPC   O11 5161   4.353   3.654   1.834
  104DPPC   C12 5162   4.491   3.676   1.864
  104DPPC   C13 5163   4.508   3.764   1.988
  104DPPC   O14 5164   4.646   3.780   2.024
  104DPPC   C15 5165   4.677   3.888   2.102
  104DPPC   O16 5166   4.624   3.998   2.091
  104DPPC   C17 5167   4.796   3.862   2.195
  104DPPC   C18 5168   4.816   3.723   2.257
  104DPPC   C19 5169   4.925   3.704   2.363
  104DPPC   C20 5170   4.896   3.594   2.465
  104DPPC   C21 5171   5.020   3.579   2.552
  104DPPC   C22 5172   4.972   3.533   2.690
  104DPPC   C23 5173   5.083   3.495   2.788
  104DPPC   C24 5174   5.025   3.453   2.923
  104DPPC   C25 5175   5.125   3.398   3.025
  104DPPC   C26 5176   5.081   3.404   3.172
  104DPPC   C27 5177   5.037   3.544   3.213
  104DPPC   C28 5178   4.982   3.537   3.356
  104DPPC   C29 5179   4.937   3.657   3.440
  104DPPC   C30 5180   4.844   3.616   3.554
  104DPPC   C31 5181   4.832   3.752   3.623
  104DPPC   C32 5182   4.440   3.677   2.094
  104DPPC   O33 5183   4.410   3.741   2.219
  104DPPC   C34 5184   4.317   3.685   2.301
  104DPPC   O35 5185   4.241   3.597   2.260
  104DPPC   C36 5186   4.301   3.763   2.432
  104DPPC   C37 5187   4.432   3.725   2.502
  104DPPC   C38 5188   4.459   3.838   2.603
  104DPPC   C39 5189   4.583   3.812   2.688
  104DPPC   C40 5190   4.571   3.676   2.758
  104DPPC   C41 5191   4.660   3.674   2.882
  104DPPC   C42 5192   4.642   3.792   2.978
  104DPPC   C43 5193   4.721   3.772   3.107
  104DPPC   C44 5194   4.750   3.903   3.181
  104DPPC   C45 5195   4.620   3.969   3.227
  104DPPC   C46 5196   4.627   4.073   3.340
  104DPPC   C47 5197   4.490   4.084   3.408
  104DPPC   C48 5198   4.483   4.170   3.534
  104DPPC   C49 5199   4.474   4.315   3.487
  104DPPC   C50 5200   4.492   4.407   3.608
  105DPPC    C1 5201   4.465   5.142   1.715
  105DPPC    C2 5202   4.474   4.993   1.535
  105DPPC    C3 5203   4.522   5.235   1.501
  105DPPC    N4 5204   4.534   5.117   1.588
  105DPPC    C5 5205   4.679   5.091   1.587
  105DPPC    C6 5206   4.736   5.011   1.704
  105DPPC    O7 5207   4.785   5.091   1.812
  105DPPC    P8 5208   4.865   4.994   1.913
  105DPPC    O9 5209   4.942   5.096   1.987
  105DPPC   O10 5210   4.937   4.899   1.825
  105DPPC   O11 5211   4.746   4.921   1.993
  105DPPC   C12 5212   4.735   4.975   2.125
  105DPPC   C13 5213   4.612   4.936   2.207
  105DPPC   O14 5214   4.564   5.035   2.299
  105DPPC   C15 5215   4.481   5.124   2.239
  105DPPC   O16 5216   4.408   5.081   2.150
  105DPPC   C17 5217   4.453   5.251   2.321
  105DPPC   C18 5218   4.303   5.269   2.343
  105DPPC   C19 5219   4.290   5.384   2.443
  105DPPC   C20 5220   4.335   5.512   2.371
  105DPPC   C21 5221   4.331   5.632   2.466
  105DPPC   C22 5222   4.388   5.751   2.388
  105DPPC   C23 5223   4.367   5.885   2.460
  105DPPC   C24 5224   4.460   5.890   2.581
  105DPPC   C25 5225   4.428   6.013   2.666
  105DPPC   C26 5226   4.294   5.985   2.734
  105DPPC   C27 5227   4.254   6.116   2.804
  105DPPC   C28 5228   4.108   6.096   2.844
  105DPPC   C29 5229   4.039   6.211   2.919
  105DPPC   C30 5230   4.072   6.346   2.855
  105DPPC   C31 5231   3.963   6.439   2.907
  105DPPC   C32 5232   4.635   4.794   2.258
  105DPPC   O33 5233   4.753   4.789   2.339
  105DPPC   C34 5234   4.782   4.670   2.398
  105DPPC   O35 5235   4.715   4.567   2.382
  105DPPC   C36 5236   4.929   4.662   2.439
  105DPPC   C37 5237   4.933   4.632   2.589
  105DPPC   C38 5238   4.888   4.757   2.667
  105DPPC   C39 5239   4.901   4.737   2.818
  105DPPC   C40 5240   4.827   4.845   2.897
  105DPPC   C41 5241   4.850   4.832   3.048
  105DPPC   C42 5242   4.810   4.965   3.111
  105DPPC   C43 5243   4.817   4.968   3.264
  105DPPC   C44 5244   4.752   5.093   3.324
  105DPPC   C45 5245   4.797   5.095   3.470
  105DPPC   C46 5246   4.747   4.975   3.551
  105DPPC   C47 5247   4.814   4.985   3.688
  105DPPC   C48 5248   4.785   4.866   3.779
  105DPPC   C49 5249   4.857   4.881   3.913
  105DPPC   C50 5250   5.009   4.893   3.904
  106DPPC    C1 5251   9.117   0.567   1.127
  106DPPC    C2 5252   8.963   0.459   1.264
  106DPPC    C3 5253   9.113   0.324   1.150
  106DPPC    N4 5254   9.103   0.453   1.220
  106DPPC    C5 5255   9.205   0.463   1.324
  106DPPC    C6 5256   9.356   0.451   1.301
  106DPPC    O7 5257   9.424   0.524   1.404
  106DPPC    P8 5258   9.583   0.501   1.391
  106DPPC    O9 5259   9.616   0.538   1.252
  106DPPC   O10 5260   9.650   0.385   1.454
  106DPPC   O11 5261   9.619   0.631   1.479
  106DPPC   C12 5262   9.607   0.611   1.620
  106DPPC   C13 5263   9.518   0.716   1.686
  106DPPC   O14 5264   9.577   0.772   1.804
  106DPPC   C15 5265   9.609   0.904   1.800
  106DPPC   O16 5266   9.581   0.966   1.698
  106DPPC   C17 5267   9.673   0.971   1.921
  106DPPC   C18 5268   9.603   0.925   2.049
  106DPPC   C19 5269   9.697   0.930   2.170
  106DPPC   C20 5270   9.639   0.881   2.303
  106DPPC   C21 5271   9.748   0.922   2.402
  106DPPC   C22 5272   9.845   0.806   2.422
  106DPPC   C23 5273   9.959   0.861   2.508
  106DPPC   C24 5274  10.052   0.946   2.421
  106DPPC   C25 5275  10.193   0.933   2.480
  106DPPC   C26 5276  10.307   0.986   2.393
  106DPPC   C27 5277  10.446   0.970   2.455
  106DPPC   C28 5278  10.433   1.020   2.599
  106DPPC   C29 5279  10.566   1.013   2.675
  106DPPC   C30 5280  10.539   1.067   2.816
  106DPPC   C31 5281  10.513   1.218   2.811
  106DPPC   C32 5282   9.380   0.650   1.697
  106DPPC   O33 5283   9.382   0.519   1.754
  106DPPC   C34 5284   9.265   0.452   1.732
  106DPPC   O35 5285   9.169   0.515   1.689
  106DPPC   C36 5286   9.258   0.306   1.779
  106DPPC   C37 5287   9.314   0.281   1.919
  106DPPC   C38 5288   9.234   0.355   2.026
  106DPPC   C39 5289   9.308   0.469   2.096
  106DPPC   C40 5290   9.215   0.526   2.204
  106DPPC   C41 5291   9.154   0.420   2.295
  106DPPC   C42 5292   9.054   0.502   2.377
  106DPPC   C43 5293   9.042   0.436   2.514
  106DPPC   C44 5294   8.963   0.519   2.616
  106DPPC   C45 5295   8.953   0.437   2.744
  106DPPC   C46 5296   8.902   0.530   2.854
  106DPPC   C47 5297   8.869   0.469   2.991
  106DPPC   C48 5298   8.754   0.368   2.991
  106DPPC   C49 5299   8.741   0.318   3.135
  106DPPC   C50 5300   8.735   0.439   3.229
  107DPPC    C1 5301   6.157   7.916   1.982
  107DPPC    C2 5302   6.116   8.012   1.778
  107DPPC    C3 5303   6.033   8.126   1.983
  107DPPC    N4 5304   6.140   8.047   1.918
  107DPPC    C5 5305   6.275   8.103   1.907
  107DPPC    C6 5306   6.318   8.192   2.025
  107DPPC    O7 5307   6.247   8.316   2.027
  107DPPC    P8 5308   6.345   8.425   1.960
  107DPPC    O9 5309   6.271   8.462   1.837
  107DPPC   O10 5310   6.481   8.365   1.962
  107DPPC   O11 5311   6.336   8.543   2.068
  107DPPC   C12 5312   6.195   8.557   2.088
  107DPPC   C13 5313   6.140   8.594   2.226
  107DPPC   O14 5314   6.178   8.728   2.262
  107DPPC   C15 5315   6.085   8.823   2.289
  107DPPC   O16 5316   5.980   8.815   2.226
  107DPPC   C17 5317   6.140   8.956   2.342
  107DPPC   C18 5318   6.217   8.941   2.473
  107DPPC   C19 5319   6.135   8.890   2.592
  107DPPC   C20 5320   6.024   8.987   2.634
  107DPPC   C21 5321   6.088   9.074   2.742
  107DPPC   C22 5322   6.007   9.200   2.778
  107DPPC   C23 5323   6.058   9.310   2.871
  107DPPC   C24 5324   6.171   9.385   2.801
  107DPPC   C25 5325   6.235   9.497   2.883
  107DPPC   C26 5326   6.135   9.609   2.913
  107DPPC   C27 5327   6.106   9.685   2.783
  107DPPC   C28 5328   5.999   9.790   2.813
  107DPPC   C29 5329   5.994   9.912   2.722
  107DPPC   C30 5330   5.944   9.867   2.584
  107DPPC   C31 5331   5.930   9.976   2.478
  107DPPC   C32 5332   6.191   8.480   2.315
  107DPPC   O33 5333   6.123   8.473   2.441
  107DPPC   C34 5334   5.989   8.449   2.448
  107DPPC   O35 5335   5.930   8.418   2.345
  107DPPC   C36 5336   5.923   8.476   2.584
  107DPPC   C37 5337   6.026   8.532   2.683
  107DPPC   C38 5338   5.965   8.577   2.816
  107DPPC   C39 5339   6.072   8.650   2.897
  107DPPC   C40 5340   6.018   8.778   2.960
  107DPPC   C41 5341   6.124   8.854   3.040
  107DPPC   C42 5342   6.163   8.766   3.159
  107DPPC   C43 5343   6.056   8.750   3.268
  107DPPC   C44 5344   6.128   8.712   3.397
  107DPPC   C45 5345   6.029   8.684   3.510
  107DPPC   C46 5346   6.114   8.651   3.634
  107DPPC   C47 5347   6.018   8.661   3.752
  107DPPC   C48 5348   5.942   8.794   3.749
  107DPPC   C49 5349   5.794   8.769   3.775
  107DPPC   C50 5350   5.704   8.890   3.753
  108DPPC    C1 5351   7.138   0.593   1.136
  108DPPC    C2 5352   6.986   0.780   1.161
  108DPPC    C3 5353   6.994   0.655   0.961
  108DPPC    N4 5354   7.003   0.644   1.107
  108DPPC    C5 5355   6.887   0.562   1.142
  108DPPC    C6 5356   6.905   0.454   1.249
  108DPPC    O7 5357   6.890   0.504   1.382
  108DPPC    P8 5358   6.907   0.374   1.475
  108DPPC    O9 5359   7.051   0.342   1.473
  108DPPC   O10 5360   6.802   0.282   1.427
  108DPPC   O11 5361   6.855   0.444   1.610
  108DPPC   C12 5362   6.957   0.526   1.667
  108DPPC   C13 5363   6.912   0.617   1.781
  108DPPC   O14 5364   6.991   0.735   1.802
  108DPPC   C15 5365   6.910   0.844   1.804
  108DPPC   O16 5366   6.797   0.837   1.755
  108DPPC   C17 5367   6.960   0.975   1.864
  108DPPC   C18 5368   6.930   0.993   2.013
  108DPPC   C19 5369   6.947   1.142   2.047
  108DPPC   C20 5370   6.881   1.179   2.179
  108DPPC   C21 5371   6.987   1.130   2.278
  108DPPC   C22 5372   6.947   1.155   2.424
  108DPPC   C23 5373   6.820   1.087   2.477
  108DPPC   C24 5374   6.846   1.002   2.602
  108DPPC   C25 5375   6.912   1.106   2.694
  108DPPC   C26 5376   6.974   1.038   2.815
  108DPPC   C27 5377   6.879   0.955   2.902
  108DPPC   C28 5378   6.933   0.913   3.039
  108DPPC   C29 5379   6.839   0.812   3.105
  108DPPC   C30 5380   6.899   0.802   3.246
  108DPPC   C31 5381   6.820   0.723   3.350
  108DPPC   C32 5382   6.925   0.513   1.892
  108DPPC   O33 5383   6.892   0.543   2.028
  108DPPC   C34 5384   6.905   0.434   2.108
  108DPPC   O35 5385   6.964   0.332   2.074
  108DPPC   C36 5386   6.902   0.459   2.259
  108DPPC   C37 5387   6.862   0.335   2.339
  108DPPC   C38 5388   6.884   0.367   2.487
  108DPPC   C39 5389   6.846   0.245   2.571
  108DPPC   C40 5390   6.934   0.122   2.545
  108DPPC   C41 5391   6.883  -0.004   2.615
  108DPPC   C42 5392   6.886   0.021   2.766
  108DPPC   C43 5393   6.828  -0.096   2.847
  108DPPC   C44 5394   6.863  -0.094   2.996
  108DPPC   C45 5395   6.816  -0.223   3.064
  108DPPC   C46 5396   6.859  -0.224   3.211
  108DPPC   C47 5397   6.777  -0.126   3.295
  108DPPC   C48 5398   6.818  -0.128   3.443
  108DPPC   C49 5399   6.964  -0.104   3.483
  108DPPC   C50 5400   6.976  -0.025   3.614
  109DPPC    C1 5401   9.325   6.064   0.394
  109DPPC    C2 5402   9.372   6.052   0.622
  109DPPC    C3 5403   9.445   6.236   0.489
  109DPPC    N4 5404   9.332   6.146   0.516
  109DPPC    C5 5405   9.202   6.213   0.531
  109DPPC    C6 5406   9.159   6.240   0.675
  109DPPC    O7 5407   9.087   6.128   0.726
  109DPPC    P8 5408   8.978   6.165   0.838
  109DPPC    O9 5409   8.881   6.056   0.816
  109DPPC   O10 5410   8.942   6.309   0.829
  109DPPC   O11 5411   9.070   6.154   0.969
  109DPPC   C12 5412   9.053   6.023   1.023
  109DPPC   C13 5413   9.166   5.969   1.111
  109DPPC   O14 5414   9.142   5.839   1.167
  109DPPC   C15 5415   9.245   5.767   1.220
  109DPPC   O16 5416   9.362   5.795   1.192
  109DPPC   C17 5417   9.205   5.632   1.279
  109DPPC   C18 5418   9.131   5.654   1.411
  109DPPC   C19 5419   9.217   5.736   1.507
  109DPPC   C20 5420   9.158   5.705   1.645
  109DPPC   C21 5421   9.229   5.765   1.766
  109DPPC   C22 5422   9.155   5.746   1.898
  109DPPC   C23 5423   9.222   5.829   2.008
  109DPPC   C24 5424   9.160   5.804   2.146
  109DPPC   C25 5425   9.232   5.867   2.265
  109DPPC   C26 5426   9.141   5.877   2.388
  109DPPC   C27 5427   9.207   5.901   2.524
  109DPPC   C28 5428   9.090   5.876   2.618
  109DPPC   C29 5429   9.131   5.880   2.766
  109DPPC   C30 5430   9.007   5.868   2.854
  109DPPC   C31 5431   9.049   5.886   3.000
  109DPPC   C32 5432   9.196   6.081   1.211
  109DPPC   O33 5433   9.102   6.098   1.318
  109DPPC   C34 5434   9.096   6.224   1.371
  109DPPC   O35 5435   9.182   6.306   1.339
  109DPPC   C36 5436   9.014   6.228   1.500
  109DPPC   C37 5437   9.104   6.208   1.622
  109DPPC   C38 5438   9.046   6.258   1.754
  109DPPC   C39 5439   9.153   6.260   1.864
  109DPPC   C40 5440   9.093   6.302   1.999
  109DPPC   C41 5441   9.208   6.300   2.100
  109DPPC   C42 5442   9.136   6.331   2.231
  109DPPC   C43 5443   9.232   6.348   2.349
  109DPPC   C44 5444   9.328   6.229   2.360
  109DPPC   C45 5445   9.412   6.258   2.484
  109DPPC   C46 5446   9.514   6.148   2.512
  109DPPC   C47 5447   9.605   6.189   2.628
  109DPPC   C48 5448   9.716   6.085   2.644
  109DPPC   C49 5449   9.788   6.104   2.777
  109DPPC   C50 5450   9.883   5.985   2.762
  110DPPC    C1 5451   1.342   3.470   0.881
  110DPPC    C2 5452   1.555   3.388   0.991
  110DPPC    C3 5453   1.558   3.561   0.831
  110DPPC    N4 5454   1.475   3.498   0.935
  110DPPC    C5 5455   1.460   3.604   1.036
  110DPPC    C6 5456   1.369   3.574   1.155
  110DPPC    O7 5457   1.330   3.685   1.236
  110DPPC    P8 5458   1.193   3.758   1.193
  110DPPC    O9 5459   1.133   3.669   1.091
  110DPPC   O10 5460   1.210   3.903   1.170
  110DPPC   O11 5461   1.132   3.745   1.342
  110DPPC   C12 5462   1.067   3.618   1.351
  110DPPC   C13 5463   1.128   3.515   1.447
  110DPPC   O14 5464   1.053   3.393   1.458
  110DPPC   C15 5465   1.122   3.279   1.484
  110DPPC   O16 5466   1.232   3.251   1.436
  110DPPC   C17 5467   1.028   3.172   1.540
  110DPPC   C18 5468   1.040   3.193   1.691
  110DPPC   C19 5469   0.955   3.090   1.765
  110DPPC   C20 5470   0.971   3.114   1.915
  110DPPC   C21 5471   0.868   3.031   1.993
  110DPPC   C22 5472   0.866   3.076   2.139
  110DPPC   C23 5473   0.767   2.990   2.217
  110DPPC   C24 5474   0.629   2.993   2.151
  110DPPC   C25 5475   0.534   2.936   2.257
  110DPPC   C26 5476   0.561   3.022   2.380
  110DPPC   C27 5477   0.470   2.989   2.499
  110DPPC   C28 5478   0.487   3.095   2.608
  110DPPC   C29 5479   0.626   3.075   2.668
  110DPPC   C30 5480   0.670   3.168   2.782
  110DPPC   C31 5481   0.595   3.152   2.914
  110DPPC   C32 5482   1.163   3.587   1.577
  110DPPC   O33 5483   1.241   3.510   1.669
  110DPPC   C34 5484   1.255   3.573   1.789
  110DPPC   O35 5485   1.248   3.695   1.802
  110DPPC   C36 5486   1.324   3.495   1.901
  110DPPC   C37 5487   1.217   3.433   1.991
  110DPPC   C38 5488   1.282   3.349   2.102
  110DPPC   C39 5489   1.185   3.282   2.199
  110DPPC   C40 5490   1.243   3.219   2.325
  110DPPC   C41 5491   1.134   3.136   2.391
  110DPPC   C42 5492   1.202   3.055   2.502
  110DPPC   C43 5493   1.101   2.990   2.597
  110DPPC   C44 5494   1.188   2.929   2.708
  110DPPC   C45 5495   1.115   2.886   2.835
  110DPPC   C46 5496   1.068   3.009   2.912
  110DPPC   C47 5497   0.986   2.996   3.040
  110DPPC   C48 5498   0.957   3.137   3.092
  110DPPC   C49 5499   0.872   3.103   3.215
  110DPPC   C50 5500   0.793   3.231   3.243
  111DPPC    C1 5501   1.688   1.092   1.606
  111DPPC    C2 5502   1.714   1.154   1.374
  111DPPC    C3 5503   1.702   0.933   1.426
  111DPPC    N4 5504   1.647   1.062   1.468
  111DPPC    C5 5505   1.501   1.062   1.447
  111DPPC    C6 5506   1.410   0.946   1.488
  111DPPC    O7 5507   1.436   0.904   1.622
  111DPPC    P8 5508   1.338   0.779   1.648
  111DPPC    O9 5509   1.425   0.677   1.709
  111DPPC   O10 5510   1.273   0.734   1.522
  111DPPC   O11 5511   1.245   0.856   1.755
  111DPPC   C12 5512   1.331   0.870   1.868
  111DPPC   C13 5513   1.249   0.880   1.997
  111DPPC   O14 5514   1.317   0.947   2.104
  111DPPC   C15 5515   1.245   1.007   2.202
  111DPPC   O16 5516   1.123   0.997   2.194
  111DPPC   C17 5517   1.318   1.056   2.327
  111DPPC   C18 5518   1.375   1.191   2.284
  111DPPC   C19 5519   1.443   1.247   2.409
  111DPPC   C20 5520   1.489   1.391   2.386
  111DPPC   C21 5521   1.386   1.489   2.330
  111DPPC   C22 5522   1.452   1.626   2.318
  111DPPC   C23 5523   1.345   1.728   2.357
  111DPPC   C24 5524   1.270   1.708   2.489
  111DPPC   C25 5525   1.144   1.794   2.482
  111DPPC   C26 5526   1.055   1.783   2.606
  111DPPC   C27 5527   0.956   1.900   2.604
  111DPPC   C28 5528   0.908   1.913   2.749
  111DPPC   C29 5529   0.825   2.041   2.761
  111DPPC   C30 5530   0.770   2.066   2.902
  111DPPC   C31 5531   0.700   1.943   2.959
  111DPPC   C32 5532   1.180   0.744   2.005
  111DPPC   O33 5533   1.267   0.642   2.055
  111DPPC   C34 5534   1.246   0.509   2.034
  111DPPC   O35 5535   1.175   0.480   1.938
  111DPPC   C36 5536   1.313   0.400   2.118
  111DPPC   C37 5537   1.372   0.452   2.250
  111DPPC   C38 5538   1.264   0.518   2.335
  111DPPC   C39 5539   1.311   0.559   2.475
  111DPPC   C40 5540   1.198   0.635   2.546
  111DPPC   C41 5541   1.237   0.684   2.685
  111DPPC   C42 5542   1.261   0.567   2.781
  111DPPC   C43 5543   1.285   0.627   2.920
  111DPPC   C44 5544   1.167   0.692   2.992
  111DPPC   C45 5545   1.212   0.729   3.134
  111DPPC   C46 5546   1.252   0.876   3.143
  111DPPC   C47 5547   1.274   0.922   3.287
  111DPPC   C48 5548   1.296   1.073   3.279
  111DPPC   C49 5549   1.176   1.121   3.196
  111DPPC   C50 5550   1.157   1.271   3.215
  112DPPC    C1 5551   4.890   8.075   1.721
  112DPPC    C2 5552   5.063   8.088   1.876
  112DPPC    C3 5553   4.850   8.095   1.963
  112DPPC    N4 5554   4.929   8.031   1.856
  112DPPC    C5 5555   4.943   7.885   1.863
  112DPPC    C6 5556   4.826   7.786   1.856
  112DPPC    O7 5557   4.720   7.802   1.950
  112DPPC    P8 5558   4.616   7.680   1.943
  112DPPC    O9 5559   4.606   7.626   1.806
  112DPPC   O10 5560   4.495   7.717   2.021
  112DPPC   O11 5561   4.701   7.567   2.020
  112DPPC   C12 5562   4.637   7.545   2.145
  112DPPC   C13 5563   4.709   7.452   2.243
  112DPPC   O14 5564   4.628   7.381   2.338
  112DPPC   C15 5565   4.591   7.260   2.290
  112DPPC   O16 5566   4.613   7.222   2.174
  112DPPC   C17 5567   4.544   7.162   2.397
  112DPPC   C18 5568   4.624   7.171   2.527
  112DPPC   C19 5569   4.575   7.084   2.643
  112DPPC   C20 5570   4.568   6.938   2.599
  112DPPC   C21 5571   4.536   6.860   2.727
  112DPPC   C22 5572   4.396   6.879   2.787
  112DPPC   C23 5573   4.366   6.764   2.884
  112DPPC   C24 5574   4.239   6.800   2.962
  112DPPC   C25 5575   4.119   6.835   2.873
  112DPPC   C26 5576   3.992   6.846   2.958
  112DPPC   C27 5577   3.888   6.917   2.870
  112DPPC   C28 5578   3.779   6.957   2.970
  112DPPC   C29 5579   3.684   7.061   2.911
  112DPPC   C30 5580   3.575   7.109   3.007
  112DPPC   C31 5581   3.462   7.202   2.962
  112DPPC   C32 5582   4.819   7.543   2.298
  112DPPC   O33 5583   4.931   7.479   2.361
  112DPPC   C34 5584   5.044   7.537   2.409
  112DPPC   O35 5585   5.079   7.651   2.382
  112DPPC   C36 5586   5.134   7.444   2.491
  112DPPC   C37 5587   5.179   7.514   2.620
  112DPPC   C38 5588   5.269   7.427   2.708
  112DPPC   C39 5589   5.291   7.503   2.839
  112DPPC   C40 5590   5.374   7.423   2.939
  112DPPC   C41 5591   5.502   7.357   2.888
  112DPPC   C42 5592   5.613   7.462   2.877
  112DPPC   C43 5593   5.710   7.439   2.993
  112DPPC   C44 5594   5.813   7.552   2.985
  112DPPC   C45 5595   5.883   7.551   3.121
  112DPPC   C46 5596   5.944   7.690   3.145
  112DPPC   C47 5597   5.992   7.699   3.290
  112DPPC   C48 5598   5.867   7.688   3.377
  112DPPC   C49 5599   5.916   7.676   3.521
  112DPPC   C50 5600   5.806   7.718   3.618
  113DPPC    C1 5601   0.932   1.572   1.468
  113DPPC    C2 5602   0.994   1.613   1.689
  113DPPC    C3 5603   0.790   1.526   1.643
  113DPPC    N4 5604   0.931   1.513   1.603
  113DPPC    C5 5605   0.980   1.375   1.616
  113DPPC    C6 5606   1.111   1.343   1.543
  113DPPC    O7 5607   1.220   1.424   1.588
  113DPPC    P8 5608   1.361   1.376   1.528
  113DPPC    O9 5609   1.474   1.472   1.530
  113DPPC   O10 5610   1.336   1.300   1.403
  113DPPC   O11 5611   1.381   1.277   1.654
  113DPPC   C12 5612   1.422   1.369   1.755
  113DPPC   C13 5613   1.427   1.309   1.895
  113DPPC   O14 5614   1.533   1.217   1.926
  113DPPC   C15 5615   1.658   1.264   1.951
  113DPPC   O16 5616   1.678   1.379   1.912
  113DPPC   C17 5617   1.757   1.154   1.989
  113DPPC   C18 5618   1.869   1.196   2.085
  113DPPC   C19 5619   1.808   1.202   2.225
  113DPPC   C20 5620   1.920   1.240   2.322
  113DPPC   C21 5621   1.868   1.238   2.465
  113DPPC   C22 5622   1.983   1.245   2.565
  113DPPC   C23 5623   1.927   1.244   2.707
  113DPPC   C24 5624   2.040   1.240   2.811
  113DPPC   C25 5625   1.987   1.227   2.954
  113DPPC   C26 5626   2.079   1.144   3.044
  113DPPC   C27 5627   2.009   1.128   3.179
  113DPPC   C28 5628   1.867   1.075   3.159
  113DPPC   C29 5629   1.851   0.928   3.117
  113DPPC   C30 5630   1.705   0.890   3.144
  113DPPC   C31 5631   1.690   0.740   3.118
  113DPPC   C32 5632   1.293   1.243   1.932
  113DPPC   O33 5633   1.194   1.338   1.971
  113DPPC   C34 5634   1.079   1.270   1.999
  113DPPC   O35 5635   1.047   1.172   1.931
  113DPPC   C36 5636   0.975   1.362   2.062
  113DPPC   C37 5637   0.911   1.299   2.185
  113DPPC   C38 5638   0.798   1.391   2.233
  113DPPC   C39 5639   0.758   1.348   2.374
  113DPPC   C40 5640   0.667   1.455   2.434
  113DPPC   C41 5641   0.598   1.416   2.565
  113DPPC   C42 5642   0.708   1.364   2.659
  113DPPC   C43 5643   0.657   1.365   2.804
  113DPPC   C44 5644   0.529   1.285   2.826
  113DPPC   C45 5645   0.556   1.140   2.867
  113DPPC   C46 5646   0.429   1.062   2.899
  113DPPC   C47 5647   0.469   0.917   2.931
  113DPPC   C48 5648   0.343   0.832   2.948
  113DPPC   C49 5649   0.381   0.689   2.988
  113DPPC   C50 5650   0.245   0.618   2.984
  114DPPC    C1 5651   1.114   3.976   1.692
  114DPPC    C2 5652   1.209   4.041   1.477
  114DPPC    C3 5653   1.155   4.201   1.641
  114DPPC    N4 5654   1.208   4.065   1.622
  114DPPC    C5 5655   1.333   4.042   1.696
  114DPPC    C6 5656   1.465   4.107   1.653
  114DPPC    O7 5657   1.574   4.056   1.730
  114DPPC    P8 5658   1.707   4.124   1.668
  114DPPC    O9 5659   1.671   4.171   1.533
  114DPPC   O10 5660   1.821   4.029   1.676
  114DPPC   O11 5661   1.713   4.242   1.777
  114DPPC   C12 5662   1.752   4.173   1.896
  114DPPC   C13 5663   1.693   4.241   2.019
  114DPPC   O14 5664   1.742   4.181   2.140
  114DPPC   C15 5665   1.856   4.229   2.197
  114DPPC   O16 5666   1.938   4.283   2.123
  114DPPC   C17 5667   1.905   4.166   2.327
  114DPPC   C18 5668   1.990   4.041   2.302
  114DPPC   C19 5669   2.115   4.047   2.390
  114DPPC   C20 5670   2.203   3.923   2.386
  114DPPC   C21 5671   2.302   3.909   2.502
  114DPPC   C22 5672   2.225   3.927   2.633
  114DPPC   C23 5673   2.325   3.962   2.743
  114DPPC   C24 5674   2.247   4.049   2.842
  114DPPC   C25 5675   2.347   4.125   2.929
  114DPPC   C26 5676   2.297   4.202   3.051
  114DPPC   C27 5677   2.407   4.285   3.117
  114DPPC   C28 5678   2.356   4.360   3.240
  114DPPC   C29 5679   2.470   4.434   3.310
  114DPPC   C30 5680   2.547   4.529   3.218
  114DPPC   C31 5681   2.657   4.581   3.310
  114DPPC   C32 5682   1.545   4.213   1.995
  114DPPC   O33 5683   1.453   4.312   2.044
  114DPPC   C34 5684   1.325   4.267   2.049
  114DPPC   O35 5685   1.286   4.198   1.954
  114DPPC   C36 5686   1.223   4.337   2.139
  114DPPC   C37 5687   1.165   4.240   2.243
  114DPPC   C38 5688   1.074   4.313   2.342
  114DPPC   C39 5689   1.016   4.201   2.428
  114DPPC   C40 5690   1.118   4.144   2.527
  114DPPC   C41 5691   1.056   4.041   2.622
  114DPPC   C42 5692   0.943   4.093   2.711
  114DPPC   C43 5693   1.002   4.190   2.814
  114DPPC   C44 5694   0.894   4.267   2.891
  114DPPC   C45 5695   0.959   4.394   2.947
  114DPPC   C46 5696   0.869   4.481   3.034
  114DPPC   C47 5697   0.793   4.576   2.942
  114DPPC   C48 5698   0.640   4.563   2.939
  114DPPC   C49 5699   0.567   4.662   2.848
  114DPPC   C50 5700   0.419   4.623   2.847
  115DPPC    C1 5701   3.999   3.202   2.036
  115DPPC    C2 5702   3.900   3.342   1.875
  115DPPC    C3 5703   3.792   3.314   2.083
  115DPPC    N4 5704   3.924   3.327   2.019
  115DPPC    C5 5705   4.008   3.432   2.078
  115DPPC    C6 5706   3.995   3.573   2.020
  115DPPC    O7 5707   3.875   3.640   2.059
  115DPPC    P8 5708   3.866   3.787   1.995
  115DPPC    O9 5709   3.761   3.752   1.897
  115DPPC   O10 5710   4.011   3.806   1.972
  115DPPC   O11 5711   3.807   3.864   2.123
  115DPPC   C12 5712   3.927   3.885   2.197
  115DPPC   C13 5713   3.922   3.980   2.317
  115DPPC   O14 5714   4.047   3.993   2.387
  115DPPC   C15 5715   4.099   4.118   2.398
  115DPPC   O16 5716   4.051   4.209   2.330
  115DPPC   C17 5717   4.220   4.134   2.490
  115DPPC   C18 5718   4.259   4.282   2.501
  115DPPC   C19 5719   4.402   4.289   2.553
  115DPPC   C20 5720   4.440   4.431   2.593
  115DPPC   C21 5721   4.577   4.443   2.660
  115DPPC   C22 5722   4.577   4.359   2.788
  115DPPC   C23 5723   4.722   4.326   2.825
  115DPPC   C24 5724   4.742   4.313   2.976
  115DPPC   C25 5725   4.882   4.262   3.010
  115DPPC   C26 5726   4.897   4.258   3.162
  115DPPC   C27 5727   5.043   4.238   3.203
  115DPPC   C28 5728   5.066   4.231   3.354
  115DPPC   C29 5729   5.007   4.104   3.415
  115DPPC   C30 5730   5.006   4.110   3.568
  115DPPC   C31 5731   4.882   4.190   3.608
  115DPPC   C32 5732   3.796   3.928   2.386
  115DPPC   O33 5733   3.753   4.005   2.498
  115DPPC   C34 5734   3.697   4.127   2.480
  115DPPC   O35 5735   3.676   4.186   2.374
  115DPPC   C36 5736   3.672   4.198   2.614
  115DPPC   C37 5737   3.780   4.183   2.722
  115DPPC   C38 5738   3.783   4.050   2.797
  115DPPC   C39 5739   3.876   4.071   2.916
  115DPPC   C40 5740   4.011   4.118   2.860
  115DPPC   C41 5741   4.111   4.139   2.974
  115DPPC   C42 5742   4.077   4.262   3.058
  115DPPC   C43 5743   4.161   4.240   3.184
  115DPPC   C44 5744   4.132   4.354   3.282
  115DPPC   C45 5745   3.981   4.368   3.300
  115DPPC   C46 5746   3.949   4.486   3.392
  115DPPC   C47 5747   3.799   4.500   3.415
  115DPPC   C48 5748   3.737   4.621   3.486
  115DPPC   C49 5749   3.586   4.596   3.501
  115DPPC   C50 5750   3.511   4.701   3.582
  116DPPC    C1 5751   6.743   8.506   2.085
  116DPPC    C2 5752   6.965   8.483   2.146
  116DPPC    C3 5753   6.797   8.338   2.228
  116DPPC    N4 5754   6.847   8.404   2.106
  116DPPC    C5 5755   6.875   8.320   1.989
  116DPPC    C6 5756   6.768   8.214   1.963
  116DPPC    O7 5757   6.783   8.094   2.039
  116DPPC    P8 5758   6.663   7.991   2.008
  116DPPC    O9 5759   6.705   7.849   2.012
  116DPPC   O10 5760   6.591   8.045   1.891
  116DPPC   O11 5761   6.578   8.025   2.140
  116DPPC   C12 5762   6.573   7.915   2.232
  116DPPC   C13 5763   6.479   7.938   2.350
  116DPPC   O14 5764   6.343   7.947   2.305
  116DPPC   C15 5765   6.227   7.967   2.372
  116DPPC   O16 5766   6.118   7.962   2.316
  116DPPC   C17 5767   6.242   7.942   2.522
  116DPPC   C18 5768   6.203   8.056   2.617
  116DPPC   C19 5769   6.252   8.013   2.755
  116DPPC   C20 5770   6.220   8.129   2.850
  116DPPC   C21 5771   6.323   8.238   2.821
  116DPPC   C22 5772   6.291   8.358   2.911
  116DPPC   C23 5773   6.282   8.311   3.056
  116DPPC   C24 5774   6.298   8.427   3.155
  116DPPC   C25 5775   6.326   8.391   3.301
  116DPPC   C26 5776   6.217   8.307   3.368
  116DPPC   C27 5777   6.262   8.257   3.505
  116DPPC   C28 5778   6.177   8.137   3.550
  116DPPC   C29 5779   6.210   8.076   3.686
  116DPPC   C30 5780   6.111   7.969   3.731
  116DPPC   C31 5781   5.971   8.024   3.762
  116DPPC   C32 5782   6.533   8.062   2.422
  116DPPC   O33 5783   6.650   8.018   2.491
  116DPPC   C34 5784   6.699   8.119   2.568
  116DPPC   O35 5785   6.629   8.217   2.590
  116DPPC   C36 5786   6.823   8.084   2.651
  116DPPC   C37 5787   6.947   8.057   2.565
  116DPPC   C38 5788   7.066   8.031   2.658
  116DPPC   C39 5789   7.090   8.132   2.770
  116DPPC   C40 5790   7.193   8.093   2.875
  116DPPC   C41 5791   7.322   8.044   2.807
  116DPPC   C42 5792   7.411   8.161   2.763
  116DPPC   C43 5793   7.488   8.237   2.870
  116DPPC   C44 5794   7.625   8.173   2.895
  116DPPC   C45 5795   7.694   8.233   3.018
  116DPPC   C46 5796   7.720   8.382   2.994
  116DPPC   C47 5797   7.822   8.432   3.097
  116DPPC   C48 5798   7.756   8.476   3.228
  116DPPC   C49 5799   7.842   8.578   3.303
  116DPPC   C50 5800   7.976   8.519   3.348
  117DPPC    C1 5801   5.677   4.569   1.815
  117DPPC    C2 5802   5.816   4.608   1.645
  117DPPC    C3 5803   5.863   4.664   1.878
  117DPPC    N4 5804   5.820   4.560   1.784
  117DPPC    C5 5805   5.856   4.419   1.806
  117DPPC    C6 5806   5.983   4.369   1.736
  117DPPC    O7 5807   6.000   4.228   1.748
  117DPPC    P8 5808   6.128   4.190   1.658
  117DPPC    O9 5809   6.115   4.263   1.529
  117DPPC   O10 5810   6.189   4.056   1.666
  117DPPC   O11 5811   6.237   4.277   1.737
  117DPPC   C12 5812   6.290   4.212   1.853
  117DPPC   C13 5813   6.397   4.297   1.923
  117DPPC   O14 5814   6.493   4.224   2.000
  117DPPC   C15 5815   6.591   4.149   1.942
  117DPPC   O16 5816   6.601   4.147   1.820
  117DPPC   C17 5817   6.686   4.066   2.029
  117DPPC   C18 5818   6.645   4.070   2.176
  117DPPC   C19 5819   6.764   4.024   2.260
  117DPPC   C20 5820   6.766   4.058   2.410
  117DPPC   C21 5821   6.831   3.950   2.497
  117DPPC   C22 5822   6.777   3.813   2.459
  117DPPC   C23 5823   6.843   3.700   2.538
  117DPPC   C24 5824   6.824   3.726   2.688
  117DPPC   C25 5825   6.870   3.601   2.762
  117DPPC   C26 5826   6.786   3.480   2.719
  117DPPC   C27 5827   6.699   3.424   2.832
  117DPPC   C28 5828   6.620   3.301   2.787
  117DPPC   C29 5829   6.547   3.247   2.910
  117DPPC   C30 5830   6.426   3.158   2.883
  117DPPC   C31 5831   6.352   3.111   3.008
  117DPPC   C32 5832   6.325   4.413   1.993
  117DPPC   O33 5833   6.229   4.371   2.091
  117DPPC   C34 5834   6.153   4.478   2.129
  117DPPC   O35 5835   6.146   4.571   2.048
  117DPPC   C36 5836   6.054   4.445   2.240
  117DPPC   C37 5837   5.924   4.393   2.179
  117DPPC   C38 5838   5.821   4.376   2.291
  117DPPC   C39 5839   5.817   4.506   2.372
  117DPPC   C40 5840   5.692   4.589   2.346
  117DPPC   C41 5841   5.695   4.701   2.450
  117DPPC   C42 5842   5.700   4.635   2.588
  117DPPC   C43 5843   5.658   4.741   2.691
  117DPPC   C44 5844   5.690   4.693   2.833
  117DPPC   C45 5845   5.681   4.799   2.943
  117DPPC   C46 5846   5.708   4.727   3.075
  117DPPC   C47 5847   5.655   4.824   3.182
  117DPPC   C48 5848   5.703   4.781   3.320
  117DPPC   C49 5849   5.671   4.632   3.320
  117DPPC   C50 5850   5.716   4.578   3.456
  118DPPC    C1 5851   4.637   0.160   1.490
  118DPPC    C2 5852   4.864   0.110   1.517
  118DPPC    C3 5853   4.764   0.340   1.575
  118DPPC    N4 5854   4.755   0.193   1.571
  118DPPC    C5 5855   4.743   0.162   1.714
  118DPPC    C6 5856   4.719   0.017   1.757
  118DPPC    O7 5857   4.577  -0.002   1.757
  118DPPC    P8 5858   4.547  -0.154   1.801
  118DPPC    O9 5859   4.616  -0.232   1.696
  118DPPC   O10 5860   4.402  -0.170   1.828
  118DPPC   O11 5861   4.628  -0.143   1.939
  118DPPC   C12 5862   4.528  -0.134   2.041
  118DPPC   C13 5863   4.575  -0.119   2.186
  118DPPC   O14 5864   4.591  -0.244   2.254
  118DPPC   C15 5865   4.715  -0.256   2.309
  118DPPC   O16 5866   4.788  -0.157   2.313
  118DPPC   C17 5867   4.747  -0.382   2.390
  118DPPC   C18 5868   4.758  -0.515   2.315
  118DPPC   C19 5869   4.848  -0.605   2.400
  118DPPC   C20 5870   4.781  -0.637   2.534
  118DPPC   C21 5871   4.733  -0.780   2.559
  118DPPC   C22 5872   4.645  -0.801   2.682
  118DPPC   C23 5873   4.568  -0.932   2.700
  118DPPC   C24 5874   4.487  -0.940   2.830
  118DPPC   C25 5875   4.401  -1.065   2.818
  118DPPC   C26 5876   4.295  -1.094   2.924
  118DPPC   C27 5877   4.213  -1.220   2.898
  118DPPC   C28 5878   4.126  -1.255   3.018
  118DPPC   C29 5879   4.202  -1.255   3.151
  118DPPC   C30 5880   4.108  -1.260   3.272
  118DPPC   C31 5881   4.012  -1.377   3.249
  118DPPC   C32 5882   4.478  -0.019   2.249
  118DPPC   O33 5883   4.347  -0.074   2.269
  118DPPC   C34 5884   4.259   0.024   2.303
  118DPPC   O35 5885   4.289   0.139   2.335
  118DPPC   C36 5886   4.117  -0.026   2.330
  118DPPC   C37 5887   4.133  -0.135   2.436
  118DPPC   C38 5888   3.995  -0.187   2.477
  118DPPC   C39 5889   4.011  -0.294   2.585
  118DPPC   C40 5890   3.868  -0.330   2.625
  118DPPC   C41 5891   3.850  -0.443   2.727
  118DPPC   C42 5892   3.704  -0.440   2.771
  118DPPC   C43 5893   3.667  -0.562   2.855
  118DPPC   C44 5894   3.515  -0.563   2.866
  118DPPC   C45 5895   3.477  -0.679   2.958
  118DPPC   C46 5896   3.324  -0.689   2.958
  118DPPC   C47 5897   3.291  -0.809   3.048
  118DPPC   C48 5898   3.273  -0.760   3.191
  118DPPC   C49 5899   3.163  -0.654   3.205
  118DPPC   C50 5900   3.038  -0.715   3.141
  119DPPC    C1 5901   0.390   6.285   0.514
  119DPPC    C2 5902   0.504   6.190   0.713
  119DPPC    C3 5903   0.567   6.400   0.621
  119DPPC    N4 5904   0.454   6.309   0.644
  119DPPC    C5 5905   0.361   6.375   0.737
  119DPPC    C6 5906   0.218   6.323   0.750
  119DPPC    O7 5907   0.157   6.371   0.870
  119DPPC    P8 5908   0.031   6.274   0.897
  119DPPC    O9 5909   0.077   6.135   0.877
  119DPPC   O10 5910  -0.075   6.341   0.819
  119DPPC   O11 5911   0.011   6.287   1.056
  119DPPC   C12 5912   0.111   6.197   1.104
  119DPPC   C13 5913   0.157   6.230   1.246
  119DPPC   O14 5914   0.071   6.201   1.358
  119DPPC   C15 5915   0.097   6.078   1.409
  119DPPC   O16 5916   0.196   6.018   1.368
  119DPPC   C17 5917   0.000   6.013   1.508
  119DPPC   C18 5918   0.028   6.051   1.654
  119DPPC   C19 5919  -0.022   6.186   1.705
  119DPPC   C20 5920   0.062   6.201   1.832
  119DPPC   C21 5921   0.032   6.339   1.891
  119DPPC   C22 5922   0.115   6.345   2.019
  119DPPC   C23 5923   0.073   6.458   2.113
  119DPPC   C24 5924   0.131   6.438   2.253
  119DPPC   C25 5925   0.283   6.451   2.253
  119DPPC   C26 5926   0.326   6.445   2.399
  119DPPC   C27 5927   0.475   6.439   2.433
  119DPPC   C28 5928   0.568   6.532   2.354
  119DPPC   C29 5929   0.700   6.535   2.430
  119DPPC   C30 5930   0.676   6.576   2.576
  119DPPC   C31 5931   0.802   6.555   2.660
  119DPPC   C32 5932   0.204   6.375   1.232
  119DPPC   O33 5933   0.231   6.435   1.359
  119DPPC   C34 5934   0.242   6.570   1.359
  119DPPC   O35 5935   0.232   6.621   1.248
  119DPPC   C36 5936   0.226   6.654   1.486
  119DPPC   C37 5937   0.249   6.580   1.618
  119DPPC   C38 5938   0.221   6.662   1.744
  119DPPC   C39 5939   0.309   6.787   1.753
  119DPPC   C40 5940   0.307   6.865   1.885
  119DPPC   C41 5941   0.357   6.755   1.979
  119DPPC   C42 5942   0.307   6.803   2.115
  119DPPC   C43 5943   0.387   6.929   2.150
  119DPPC   C44 5944   0.333   6.983   2.282
  119DPPC   C45 5945   0.381   7.122   2.323
  119DPPC   C46 5946   0.321   7.162   2.458
  119DPPC   C47 5947   0.191   7.240   2.441
  119DPPC   C48 5948   0.130   7.280   2.576
  119DPPC   C49 5949   0.230   7.351   2.667
  119DPPC   C50 5950   0.191   7.351   2.815
  120DPPC    C1 5951   4.085   6.547   1.990
  120DPPC    C2 5952   3.887   6.638   1.884
  120DPPC    C3 5953   3.858   6.474   2.048
  120DPPC    N4 5954   3.944   6.586   2.009
  120DPPC    C5 5955   3.943   6.689   2.114
  120DPPC    C6 5956   4.036   6.810   2.117
  120DPPC    O7 5957   4.020   6.896   2.230
  120DPPC    P8 5958   4.157   6.978   2.254
  120DPPC    O9 5959   4.139   7.081   2.359
  120DPPC   O10 5960   4.200   7.013   2.117
  120DPPC   O11 5961   4.245   6.859   2.317
  120DPPC   C12 5962   4.202   6.840   2.452
  120DPPC   C13 5963   4.121   6.712   2.468
  120DPPC   O14 5964   4.007   6.728   2.555
  120DPPC   C15 5965   3.885   6.699   2.502
  120DPPC   O16 5966   3.867   6.633   2.400
  120DPPC   C17 5967   3.760   6.710   2.590
  120DPPC   C18 5968   3.737   6.574   2.655
  120DPPC   C19 5969   3.602   6.555   2.726
  120DPPC   C20 5970   3.580   6.661   2.834
  120DPPC   C21 5971   3.435   6.661   2.884
  120DPPC   C22 5972   3.432   6.767   2.995
  120DPPC   C23 5973   3.292   6.764   3.058
  120DPPC   C24 5974   3.279   6.885   3.151
  120DPPC   C25 5975   3.154   6.862   3.236
  120DPPC   C26 5976   3.157   6.726   3.307
  120DPPC   C27 5977   3.018   6.686   3.356
  120DPPC   C28 5978   3.019   6.697   3.508
  120DPPC   C29 5979   2.897   6.639   3.581
  120DPPC   C30 5980   2.795   6.749   3.610
  120DPPC   C31 5981   2.674   6.704   3.693
  120DPPC   C32 5982   4.199   6.581   2.486
  120DPPC   O33 5983   4.316   6.590   2.568
  120DPPC   C34 5984   4.377   6.470   2.583
  120DPPC   O35 5985   4.337   6.372   2.519
  120DPPC   C36 5986   4.497   6.441   2.675
  120DPPC   C37 5987   4.458   6.430   2.822
  120DPPC   C38 5988   4.574   6.402   2.917
  120DPPC   C39 5989   4.666   6.525   2.910
  120DPPC   C40 5990   4.790   6.521   2.999
  120DPPC   C41 5991   4.851   6.661   3.015
  120DPPC   C42 5992   4.881   6.727   2.881
  120DPPC   C43 5993   4.915   6.875   2.897
  120DPPC   C44 5994   4.923   6.941   2.759
  120DPPC   C45 5995   4.960   7.089   2.763
  120DPPC   C46 5996   4.883   7.174   2.865
  120DPPC   C47 5997   4.965   7.300   2.894
  120DPPC   C48 5998   4.888   7.396   2.985
  120DPPC   C49 5999   4.985   7.507   3.024
  120DPPC   C50 6000   4.919   7.609   3.117
  121DPPC    C1 6001   7.191   3.257   2.124
  121DPPC    C2 6002   7.241   3.072   2.255
  121DPPC    C3 6003   7.083   3.047   2.069
  121DPPC    N4 6004   7.206   3.111   2.118
  121DPPC    C5 6005   7.315   3.063   2.032
  121DPPC    C6 6006   7.348   3.135   1.901
  121DPPC    O7 6007   7.476   3.086   1.860
  121DPPC    P8 6008   7.518   3.132   1.712
  121DPPC    O9 6009   7.405   3.183   1.632
  121DPPC   O10 6010   7.613   3.035   1.652
  121DPPC   O11 6011   7.614   3.255   1.756
  121DPPC   C12 6012   7.728   3.209   1.829
  121DPPC   C13 6013   7.767   3.289   1.954
  121DPPC   O14 6014   7.890   3.248   2.016
  121DPPC   C15 6015   7.991   3.339   2.018
  121DPPC   O16 6016   7.996   3.428   1.932
  121DPPC   C17 6017   8.111   3.316   2.109
  121DPPC   C18 6018   8.107   3.410   2.231
  121DPPC   C19 6019   8.002   3.360   2.330
  121DPPC   C20 6020   8.021   3.436   2.462
  121DPPC   C21 6021   7.973   3.359   2.586
  121DPPC   C22 6022   8.006   3.448   2.707
  121DPPC   C23 6023   7.927   3.408   2.832
  121DPPC   C24 6024   7.779   3.438   2.809
  121DPPC   C25 6025   7.697   3.389   2.928
  121DPPC   C26 6026   7.749   3.442   3.062
  121DPPC   C27 6027   7.702   3.584   3.092
  121DPPC   C28 6028   7.779   3.636   3.214
  121DPPC   C29 6029   7.921   3.655   3.161
  121DPPC   C30 6030   8.014   3.699   3.274
  121DPPC   C31 6031   8.019   3.599   3.390
  121DPPC   C32 6032   7.657   3.275   2.060
  121DPPC   O33 6033   7.654   3.387   2.148
  121DPPC   C34 6034   7.571   3.365   2.253
  121DPPC   O35 6035   7.464   3.304   2.240
  121DPPC   C36 6036   7.608   3.430   2.387
  121DPPC   C37 6037   7.622   3.580   2.365
  121DPPC   C38 6038   7.699   3.649   2.478
  121DPPC   C39 6039   7.729   3.798   2.462
  121DPPC   C40 6040   7.812   3.832   2.586
  121DPPC   C41 6041   7.857   3.978   2.574
  121DPPC   C42 6042   7.926   4.015   2.706
  121DPPC   C43 6043   7.830   4.000   2.825
  121DPPC   C44 6044   7.893   4.067   2.947
  121DPPC   C45 6045   7.798   4.081   3.067
  121DPPC   C46 6046   7.883   4.142   3.179
  121DPPC   C47 6047   7.809   4.159   3.312
  121DPPC   C48 6048   7.909   4.188   3.424
  121DPPC   C49 6049   7.842   4.197   3.561
  121DPPC   C50 6050   7.952   4.251   3.653
  122DPPC    C1 6051   6.857   6.598   1.513
  122DPPC    C2 6052   7.090   6.612   1.466
  122DPPC    C3 6053   6.936   6.758   1.369
  122DPPC    N4 6054   6.969   6.691   1.495
  122DPPC    C5 6055   6.973   6.777   1.615
  122DPPC    C6 6056   7.094   6.866   1.642
  122DPPC    O7 6057   7.107   6.980   1.557
  122DPPC    P8 6058   7.267   6.999   1.563
  122DPPC    O9 6059   7.288   7.125   1.488
  122DPPC   O10 6060   7.318   6.865   1.530
  122DPPC   O11 6061   7.286   7.044   1.717
  122DPPC   C12 6062   7.227   7.167   1.761
  122DPPC   C13 6063   7.278   7.208   1.900
  122DPPC   O14 6064   7.416   7.236   1.923
  122DPPC   C15 6065   7.468   7.356   1.886
  122DPPC   O16 6066   7.403   7.438   1.820
  122DPPC   C17 6067   7.595   7.397   1.960
  122DPPC   C18 6068   7.580   7.388   2.112
  122DPPC   C19 6069   7.716   7.437   2.163
  122DPPC   C20 6070   7.709   7.443   2.315
  122DPPC   C21 6071   7.851   7.443   2.374
  122DPPC   C22 6072   7.918   7.306   2.379
  122DPPC   C23 6073   8.055   7.320   2.446
  122DPPC   C24 6074   8.078   7.179   2.501
  122DPPC   C25 6075   8.196   7.166   2.597
  122DPPC   C26 6076   8.197   7.018   2.638
  122DPPC   C27 6077   8.292   7.003   2.757
  122DPPC   C28 6078   8.258   7.109   2.861
  122DPPC   C29 6079   8.331   7.086   2.994
  122DPPC   C30 6080   8.320   7.212   3.079
  122DPPC   C31 6081   8.366   7.193   3.224
  122DPPC   C32 6082   7.238   7.084   1.980
  122DPPC   O33 6083   7.095   7.083   1.987
  122DPPC   C34 6084   7.037   6.985   2.061
  122DPPC   O35 6085   7.091   6.875   2.063
  122DPPC   C36 6086   6.887   7.002   2.088
  122DPPC   C37 6087   6.859   6.976   2.236
  122DPPC   C38 6088   6.842   6.826   2.257
  122DPPC   C39 6089   6.812   6.805   2.406
  122DPPC   C40 6090   6.933   6.838   2.494
  122DPPC   C41 6091   6.894   6.813   2.639
  122DPPC   C42 6092   7.005   6.833   2.743
  122DPPC   C43 6093   7.059   6.975   2.753
  122DPPC   C44 6094   7.195   6.987   2.823
  122DPPC   C45 6095   7.180   6.925   2.963
  122DPPC   C46 6096   7.310   6.937   3.042
  122DPPC   C47 6097   7.336   6.817   3.134
  122DPPC   C48 6098   7.461   6.829   3.223
  122DPPC   C49 6099   7.581   6.779   3.143
  122DPPC   C50 6100   7.705   6.823   3.222
  123DPPC    C1 6101   8.081   8.134   1.751
  123DPPC    C2 6102   7.897   8.239   1.667
  123DPPC    C3 6103   8.012   8.130   1.521
  123DPPC    N4 6104   7.968   8.110   1.660
  123DPPC    C5 6105   7.888   7.989   1.683
  123DPPC    C6 6106   7.958   7.855   1.661
  123DPPC    O7 6107   7.868   7.746   1.640
  123DPPC    P8 6108   7.956   7.630   1.570
  123DPPC    O9 6109   8.018   7.717   1.467
  123DPPC   O10 6110   7.857   7.523   1.545
  123DPPC   O11 6111   8.045   7.602   1.702
  123DPPC   C12 6112   7.994   7.476   1.749
  123DPPC   C13 6113   8.076   7.436   1.872
  123DPPC   O14 6114   8.016   7.316   1.922
  123DPPC   C15 6115   8.079   7.200   1.889
  123DPPC   O16 6116   8.150   7.193   1.790
  123DPPC   C17 6117   8.008   7.072   1.935
  123DPPC   C18 6118   8.106   6.975   2.000
  123DPPC   C19 6119   8.036   6.852   2.059
  123DPPC   C20 6120   8.139   6.779   2.145
  123DPPC   C21 6121   8.132   6.814   2.294
  123DPPC   C22 6122   8.040   6.732   2.385
  123DPPC   C23 6123   8.054   6.581   2.364
  123DPPC   C24 6124   7.937   6.526   2.447
  123DPPC   C25 6125   7.916   6.375   2.436
  123DPPC   C26 6126   7.799   6.328   2.524
  123DPPC   C27 6127   7.755   6.185   2.493
  123DPPC   C28 6128   7.661   6.123   2.596
  123DPPC   C29 6129   7.747   6.120   2.722
  123DPPC   C30 6130   7.694   6.036   2.839
  123DPPC   C31 6131   7.771   6.054   2.970
  123DPPC   C32 6132   8.059   7.555   1.966
  123DPPC   O33 6133   8.182   7.599   2.025
  123DPPC   C34 6134   8.158   7.699   2.114
  123DPPC   O35 6135   8.066   7.700   2.195
  123DPPC   C36 6136   8.290   7.777   2.126
  123DPPC   C37 6137   8.328   7.809   2.270
  123DPPC   C38 6138   8.363   7.685   2.353
  123DPPC   C39 6139   8.373   7.710   2.503
  123DPPC   C40 6140   8.409   7.585   2.583
  123DPPC   C41 6141   8.383   7.603   2.733
  123DPPC   C42 6142   8.247   7.549   2.776
  123DPPC   C43 6143   8.248   7.589   2.923
  123DPPC   C44 6144   8.108   7.569   2.981
  123DPPC   C45 6145   8.109   7.601   3.131
  123DPPC   C46 6146   8.165   7.743   3.137
  123DPPC   C47 6147   8.184   7.763   3.287
  123DPPC   C48 6148   8.250   7.638   3.347
  123DPPC   C49 6149   8.299   7.663   3.490
  123DPPC   C50 6150   8.189   7.679   3.596
  124DPPC    C1 6151   6.318   3.413   2.027
  124DPPC    C2 6152   6.294   3.253   2.191
  124DPPC    C3 6153   6.115   3.291   2.032
  124DPPC    N4 6154   6.260   3.280   2.051
  124DPPC    C5 6155   6.309   3.179   1.956
  124DPPC    C6 6156   6.458   3.179   1.922
  124DPPC    O7 6157   6.553   3.183   2.029
  124DPPC    P8 6158   6.701   3.181   1.966
  124DPPC    O9 6159   6.688   3.247   1.834
  124DPPC   O10 6160   6.785   3.059   1.976
  124DPPC   O11 6161   6.761   3.278   2.079
  124DPPC   C12 6162   6.775   3.216   2.207
  124DPPC   C13 6163   6.811   3.313   2.319
  124DPPC   O14 6164   6.806   3.249   2.448
  124DPPC   C15 6165   6.912   3.170   2.479
  124DPPC   O16 6166   7.001   3.157   2.396
  124DPPC   C17 6167   6.926   3.104   2.617
  124DPPC   C18 6168   7.068   3.109   2.674
  124DPPC   C19 6169   7.069   3.074   2.823
  124DPPC   C20 6170   6.979   3.160   2.912
  124DPPC   C21 6171   6.989   3.115   3.058
  124DPPC   C22 6172   6.909   3.198   3.158
  124DPPC   C23 6173   6.907   3.147   3.302
  124DPPC   C24 6174   6.781   3.209   3.362
  124DPPC   C25 6175   6.660   3.185   3.272
  124DPPC   C26 6176   6.530   3.222   3.343
  124DPPC   C27 6177   6.522   3.374   3.343
  124DPPC   C28 6178   6.405   3.407   3.435
  124DPPC   C29 6179   6.405   3.540   3.512
  124DPPC   C30 6180   6.293   3.538   3.616
  124DPPC   C31 6181   6.338   3.497   3.757
  124DPPC   C32 6182   6.724   3.438   2.310
  124DPPC   O33 6183   6.581   3.442   2.320
  124DPPC   C34 6184   6.542   3.572   2.309
  124DPPC   O35 6185   6.591   3.639   2.219
  124DPPC   C36 6186   6.436   3.621   2.408
  124DPPC   C37 6187   6.427   3.536   2.535
  124DPPC   C38 6188   6.312   3.584   2.624
  124DPPC   C39 6189   6.294   3.489   2.742
  124DPPC   C40 6190   6.156   3.503   2.807
  124DPPC   C41 6191   6.144   3.450   2.950
  124DPPC   C42 6192   5.996   3.434   2.987
  124DPPC   C43 6193   5.969   3.410   3.136
  124DPPC   C44 6194   5.935   3.262   3.153
  124DPPC   C45 6195   5.918   3.244   3.304
  124DPPC   C46 6196   5.931   3.094   3.329
  124DPPC   C47 6197   5.899   3.064   3.475
  124DPPC   C48 6198   5.907   2.913   3.502
  124DPPC   C49 6199   5.814   2.870   3.615
  124DPPC   C50 6200   5.838   2.721   3.640
  125DPPC    C1 6201   2.375   0.089   1.420
  125DPPC    C2 6202   2.247   0.204   1.588
  125DPPC    C3 6203   2.148   0.116   1.400
  125DPPC    N4 6204   2.252   0.087   1.499
  125DPPC    C5 6205   2.235  -0.033   1.584
  125DPPC    C6 6206   2.239  -0.168   1.512
  125DPPC    O7 6207   2.114  -0.203   1.451
  125DPPC    P8 6208   2.135  -0.327   1.352
  125DPPC    O9 6209   2.266  -0.303   1.287
  125DPPC   O10 6210   2.009  -0.340   1.275
  125DPPC   O11 6211   2.137  -0.429   1.477
  125DPPC   C12 6212   2.001  -0.470   1.496
  125DPPC   C13 6213   1.974  -0.532   1.633
  125DPPC   O14 6214   1.897  -0.451   1.722
  125DPPC   C15 6215   1.765  -0.442   1.689
  125DPPC   O16 6216   1.701  -0.525   1.624
  125DPPC   C17 6217   1.699  -0.335   1.776
  125DPPC   C18 6218   1.634  -0.404   1.896
  125DPPC   C19 6219   1.555  -0.298   1.972
  125DPPC   C20 6220   1.634  -0.210   2.069
  125DPPC   C21 6221   1.544  -0.100   2.126
  125DPPC   C22 6222   1.621  -0.031   2.239
  125DPPC   C23 6223   1.518   0.054   2.315
  125DPPC   C24 6224   1.400  -0.040   2.337
  125DPPC   C25 6225   1.286   0.026   2.416
  125DPPC   C26 6226   1.327   0.080   2.553
  125DPPC   C27 6227   1.219   0.167   2.616
  125DPPC   C28 6228   1.108   0.072   2.662
  125DPPC   C29 6229   0.981   0.153   2.686
  125DPPC   C30 6230   0.864   0.072   2.743
  125DPPC   C31 6231   0.744   0.166   2.757
  125DPPC   C32 6232   2.111  -0.562   1.695
  125DPPC   O33 6233   2.115  -0.636   1.817
  125DPPC   C34 6234   2.239  -0.657   1.871
  125DPPC   O35 6235   2.337  -0.662   1.797
  125DPPC   C36 6236   2.235  -0.710   2.014
  125DPPC   C37 6237   2.146  -0.624   2.104
  125DPPC   C38 6238   2.215  -0.494   2.146
  125DPPC   C39 6239   2.355  -0.529   2.198
  125DPPC   C40 6240   2.433  -0.399   2.222
  125DPPC   C41 6241   2.361  -0.296   2.308
  125DPPC   C42 6242   2.460  -0.194   2.365
  125DPPC   C43 6243   2.370  -0.099   2.445
  125DPPC   C44 6244   2.456   0.017   2.495
  125DPPC   C45 6245   2.523   0.096   2.383
  125DPPC   C46 6246   2.580   0.226   2.439
  125DPPC   C47 6247   2.460   0.286   2.513
  125DPPC   C48 6248   2.492   0.423   2.572
  125DPPC   C49 6249   2.380   0.457   2.670
  125DPPC   C50 6250   2.432   0.567   2.763
  126DPPC    C1 6251   6.532   3.827   1.664
  126DPPC    C2 6252   6.498   3.986   1.504
  126DPPC    C3 6253   6.555   3.771   1.421
  126DPPC    N4 6254   6.481   3.841   1.527
  126DPPC    C5 6255   6.338   3.813   1.511
  126DPPC    C6 6256   6.282   3.681   1.566
  126DPPC    O7 6257   6.144   3.651   1.548
  126DPPC    P8 6258   6.075   3.517   1.604
  126DPPC    O9 6259   6.182   3.445   1.677
  126DPPC   O10 6260   6.008   3.475   1.479
  126DPPC   O11 6261   5.979   3.590   1.710
  126DPPC   C12 6262   6.031   3.640   1.834
  126DPPC   C13 6263   6.083   3.783   1.826
  126DPPC   O14 6264   6.140   3.829   1.950
  126DPPC   C15 6265   6.268   3.797   1.982
  126DPPC   O16 6266   6.335   3.714   1.920
  126DPPC   C17 6267   6.317   3.874   2.104
  126DPPC   C18 6268   6.196   3.922   2.185
  126DPPC   C19 6269   6.237   3.948   2.330
  126DPPC   C20 6270   6.133   4.019   2.417
  126DPPC   C21 6271   6.172   4.031   2.564
  126DPPC   C22 6272   6.066   4.107   2.644
  126DPPC   C23 6273   6.061   4.255   2.606
  126DPPC   C24 6274   5.970   4.323   2.708
  126DPPC   C25 6275   6.033   4.317   2.848
  126DPPC   C26 6276   5.962   4.410   2.947
  126DPPC   C27 6277   6.036   4.428   3.079
  126DPPC   C28 6278   6.169   4.505   3.078
  126DPPC   C29 6279   6.242   4.479   3.210
  126DPPC   C30 6280   6.255   4.328   3.230
  126DPPC   C31 6281   6.295   4.290   3.373
  126DPPC   C32 6282   5.963   3.862   1.773
  126DPPC   O33 6283   5.853   3.861   1.863
  126DPPC   C34 6284   5.754   3.947   1.826
  126DPPC   O35 6285   5.742   3.986   1.710
  126DPPC   C36 6286   5.643   3.951   1.931
  126DPPC   C37 6287   5.677   4.031   2.057
  126DPPC   C38 6288   5.573   4.040   2.168
  126DPPC   C39 6289   5.643   4.072   2.300
  126DPPC   C40 6290   5.538   4.124   2.398
  126DPPC   C41 6291   5.613   4.147   2.529
  126DPPC   C42 6292   5.524   4.195   2.643
  126DPPC   C43 6293   5.607   4.203   2.772
  126DPPC   C44 6294   5.512   4.257   2.878
  126DPPC   C45 6295   5.572   4.230   3.016
  126DPPC   C46 6296   5.472   4.262   3.128
  126DPPC   C47 6297   5.535   4.244   3.266
  126DPPC   C48 6298   5.429   4.241   3.376
  126DPPC   C49 6299   5.495   4.227   3.513
  126DPPC   C50 6300   5.394   4.198   3.624
  127DPPC    C1 6301   2.187   6.247   1.210
  127DPPC    C2 6302   2.364   6.330   1.342
  127DPPC    C3 6303   2.365   6.316   1.094
  127DPPC    N4 6304   2.291   6.351   1.216
  127DPPC    C5 6305   2.209   6.472   1.210
  127DPPC    C6 6306   2.286   6.602   1.236
  127DPPC    O7 6307   2.189   6.699   1.274
  127DPPC    P8 6308   2.260   6.836   1.321
  127DPPC    O9 6309   2.240   6.926   1.205
  127DPPC   O10 6310   2.396   6.812   1.375
  127DPPC   O11 6311   2.162   6.894   1.435
  127DPPC   C12 6312   2.176   6.822   1.558
  127DPPC   C13 6313   2.129   6.892   1.686
  127DPPC   O14 6314   2.153   6.819   1.807
  127DPPC   C15 6315   2.274   6.802   1.866
  127DPPC   O16 6316   2.372   6.835   1.800
  127DPPC   C17 6317   2.286   6.775   2.017
  127DPPC   C18 6318   2.425   6.720   2.051
  127DPPC   C19 6319   2.438   6.694   2.201
  127DPPC   C20 6320   2.580   6.646   2.232
  127DPPC   C21 6321   2.589   6.630   2.384
  127DPPC   C22 6322   2.584   6.764   2.456
  127DPPC   C23 6323   2.591   6.745   2.608
  127DPPC   C24 6324   2.717   6.681   2.666
  127DPPC   C25 6325   2.711   6.693   2.818
  127DPPC   C26 6326   2.843   6.628   2.860
  127DPPC   C27 6327   2.841   6.602   3.010
  127DPPC   C28 6328   2.735   6.497   3.045
  127DPPC   C29 6329   2.759   6.447   3.187
  127DPPC   C30 6330   2.646   6.346   3.209
  127DPPC   C31 6331   2.654   6.287   3.350
  127DPPC   C32 6332   1.981   6.915   1.654
  127DPPC   O33 6333   1.901   7.014   1.718
  127DPPC   C34 6334   1.810   7.073   1.636
  127DPPC   O35 6335   1.812   7.047   1.515
  127DPPC   C36 6336   1.713   7.173   1.698
  127DPPC   C37 6337   1.666   7.115   1.832
  127DPPC   C38 6338   1.534   7.184   1.869
  127DPPC   C39 6339   1.487   7.149   2.010
  127DPPC   C40 6340   1.356   7.219   2.047
  127DPPC   C41 6341   1.280   7.159   2.165
  127DPPC   C42 6342   1.371   7.176   2.287
  127DPPC   C43 6343   1.307   7.116   2.413
  127DPPC   C44 6344   1.396   7.165   2.528
  127DPPC   C45 6345   1.544   7.130   2.515
  127DPPC   C46 6346   1.603   7.180   2.647
  127DPPC   C47 6347   1.746   7.125   2.649
  127DPPC   C48 6348   1.794   7.132   2.794
  127DPPC   C49 6349   1.787   7.277   2.842
  127DPPC   C50 6350   1.863   7.295   2.973
  128DPPC    C1 6351   2.009   4.063   1.370
  128DPPC    C2 6352   1.804   3.946   1.354
  128DPPC    C3 6353   1.994   3.860   1.239
  128DPPC    N4 6354   1.950   3.929   1.361
  128DPPC    C5 6355   1.983   3.853   1.482
  128DPPC    C6 6356   2.126   3.801   1.497
  128DPPC    O7 6357   2.185   3.841   1.621
  128DPPC    P8 6358   2.343   3.866   1.600
  128DPPC    O9 6359   2.353   4.014   1.607
  128DPPC   O10 6360   2.404   3.784   1.492
  128DPPC   O11 6361   2.393   3.793   1.734
  128DPPC   C12 6362   2.427   3.656   1.715
  128DPPC   C13 6363   2.435   3.573   1.843
  128DPPC   O14 6364   2.341   3.465   1.849
  128DPPC   C15 6365   2.396   3.351   1.897
  128DPPC   O16 6366   2.507   3.320   1.852
  128DPPC   C17 6367   2.301   3.243   1.950
  128DPPC   C18 6368   2.350   3.200   2.088
  128DPPC   C19 6369   2.343   3.312   2.192
  128DPPC   C20 6370   2.337   3.266   2.338
  128DPPC   C21 6371   2.297   3.376   2.437
  128DPPC   C22 6372   2.325   3.334   2.582
  128DPPC   C23 6373   2.311   3.456   2.673
  128DPPC   C24 6374   2.309   3.414   2.820
  128DPPC   C25 6375   2.270   3.539   2.900
  128DPPC   C26 6376   2.385   3.634   2.934
  128DPPC   C27 6377   2.334   3.705   3.059
  128DPPC   C28 6378   2.454   3.768   3.130
  128DPPC   C29 6379   2.554   3.658   3.163
  128DPPC   C30 6380   2.658   3.716   3.259
  128DPPC   C31 6381   2.594   3.761   3.391
  128DPPC   C32 6382   2.420   3.665   1.964
  128DPPC   O33 6383   2.488   3.616   2.080
  128DPPC   C34 6384   2.524   3.718   2.163
  128DPPC   O35 6385   2.510   3.838   2.139
  128DPPC   C36 6386   2.560   3.673   2.305
  128DPPC   C37 6387   2.616   3.783   2.395
  128DPPC   C38 6388   2.633   3.718   2.532
  128DPPC   C39 6389   2.678   3.823   2.633
  128DPPC   C40 6390   2.753   3.753   2.746
  128DPPC   C41 6391   2.819   3.846   2.848
  128DPPC   C42 6392   2.924   3.766   2.925
  128DPPC   C43 6393   2.999   3.870   3.009
  128DPPC   C44 6394   3.022   3.793   3.139
  128DPPC   C45 6395   3.096   3.882   3.240
  128DPPC   C46 6396   3.225   3.936   3.179
  128DPPC   C47 6397   3.305   4.004   3.291
  128DPPC   C48 6398   3.431   4.054   3.220
  128DPPC   C49 6399   3.524   4.124   3.319
  128DPPC   C50 6400   3.645   4.182   3.245
  129DPPC    C1 6401   2.737   2.233   5.560
  129DPPC    C2 6402   2.649   2.207   5.787
  129DPPC    C3 6403   2.688   2.418   5.687
  129DPPC    N4 6404   2.642   2.281   5.660
  129DPPC    C5 6405   2.501   2.278   5.617
  129DPPC    C6 6406   2.444   2.157   5.543
  129DPPC    O7 6407   2.341   2.188   5.449
  129DPPC    P8 6408   2.249   2.059   5.421
  129DPPC    O9 6409   2.155   2.128   5.330
  129DPPC   O10 6410   2.202   2.017   5.554
  129DPPC   O11 6411   2.351   1.953   5.356
  129DPPC   C12 6412   2.387   2.013   5.231
  129DPPC   C13 6413   2.534   1.982   5.203
  129DPPC   O14 6414   2.587   2.064   5.098
  129DPPC   C15 6415   2.643   2.184   5.128
  129DPPC   O16 6416   2.600   2.239   5.229
  129DPPC   C17 6417   2.714   2.270   5.023
  129DPPC   C18 6418   2.641   2.400   4.992
  129DPPC   C19 6419   2.669   2.453   4.851
  129DPPC   C20 6420   2.625   2.340   4.757
  129DPPC   C21 6421   2.653   2.380   4.612
  129DPPC   C22 6422   2.583   2.277   4.523
  129DPPC   C23 6423   2.539   2.345   4.393
  129DPPC   C24 6424   2.500   2.241   4.289
  129DPPC   C25 6425   2.474   2.300   4.150
  129DPPC   C26 6426   2.483   2.193   4.041
  129DPPC   C27 6427   2.486   2.258   3.903
  129DPPC   C28 6428   2.508   2.145   3.802
  129DPPC   C29 6429   2.527   2.205   3.662
  129DPPC   C30 6430   2.506   2.096   3.558
  129DPPC   C31 6431   2.548   2.155   3.423
  129DPPC   C32 6432   2.546   1.832   5.178
  129DPPC   O33 6433   2.435   1.786   5.101
  129DPPC   C34 6434   2.444   1.652   5.076
  129DPPC   O35 6435   2.541   1.593   5.123
  129DPPC   C36 6436   2.338   1.584   4.991
  129DPPC   C37 6437   2.381   1.446   4.940
  129DPPC   C38 6438   2.504   1.469   4.851
  129DPPC   C39 6439   2.543   1.329   4.802
  129DPPC   C40 6440   2.444   1.268   4.703
  129DPPC   C41 6441   2.526   1.158   4.635
  129DPPC   C42 6442   2.456   1.105   4.509
  129DPPC   C43 6443   2.530   0.978   4.466
  129DPPC   C44 6444   2.445   0.900   4.366
  129DPPC   C45 6445   2.533   0.798   4.293
  129DPPC   C46 6446   2.457   0.732   4.177
  129DPPC   C47 6447   2.551   0.636   4.104
  129DPPC   C48 6448   2.492   0.609   3.965
  129DPPC   C49 6449   2.587   0.526   3.879
  129DPPC   C50 6450   2.530   0.460   3.753
  130DPPC    C1 6451   0.627   7.741   1.178
  130DPPC    C2 6452   0.804   7.904   1.176
  130DPPC    C3 6453   0.575   7.968   1.195
  130DPPC    N4 6454   0.675   7.868   1.235
  130DPPC    C5 6455   0.659   7.864   1.381
  130DPPC    C6 6456   0.733   7.755   1.458
  130DPPC    O7 6457   0.643   7.663   1.520
  130DPPC    P8 6458   0.714   7.599   1.649
  130DPPC    O9 6459   0.845   7.664   1.666
  130DPPC   O10 6460   0.695   7.452   1.648
  130DPPC   O11 6461   0.608   7.663   1.752
  130DPPC   C12 6462   0.675   7.768   1.824
  130DPPC   C13 6463   0.589   7.832   1.933
  130DPPC   O14 6464   0.678   7.869   2.039
  130DPPC   C15 6465   0.767   7.972   2.036
  130DPPC   O16 6466   0.753   8.054   1.945
  130DPPC   C17 6467   0.853   7.986   2.162
  130DPPC   C18 6468   0.800   8.085   2.266
  130DPPC   C19 6469   0.812   8.019   2.403
  130DPPC   C20 6470   0.953   7.962   2.423
  130DPPC   C21 6471   1.043   8.084   2.448
  130DPPC   C22 6472   1.191   8.043   2.448
  130DPPC   C23 6473   1.257   8.148   2.537
  130DPPC   C24 6474   1.271   8.105   2.683
  130DPPC   C25 6475   1.388   8.007   2.697
  130DPPC   C26 6476   1.401   7.960   2.842
  130DPPC   C27 6477   1.444   8.064   2.946
  130DPPC   C28 6478   1.452   8.026   3.094
  130DPPC   C29 6479   1.558   7.915   3.093
  130DPPC   C30 6480   1.571   7.855   3.233
  130DPPC   C31 6481   1.440   7.848   3.311
  130DPPC   C32 6482   0.487   7.725   1.973
  130DPPC   O33 6483   0.371   7.780   2.036
  130DPPC   C34 6484   0.298   7.680   2.093
  130DPPC   O35 6485   0.318   7.561   2.070
  130DPPC   C36 6486   0.168   7.726   2.159
  130DPPC   C37 6487   0.114   7.621   2.257
  130DPPC   C38 6488  -0.031   7.637   2.302
  130DPPC   C39 6489  -0.064   7.774   2.362
  130DPPC   C40 6490  -0.195   7.791   2.439
  130DPPC   C41 6491  -0.206   7.941   2.462
  130DPPC   C42 6492  -0.351   7.975   2.498
  130DPPC   C43 6493  -0.375   8.122   2.533
  130DPPC   C44 6494  -0.491   8.153   2.627
  130DPPC   C45 6495  -0.512   8.303   2.649
  130DPPC   C46 6496  -0.625   8.344   2.743
  130DPPC   C47 6497  -0.586   8.293   2.882
  130DPPC   C48 6498  -0.709   8.293   2.974
  130DPPC   C49 6499  -0.762   8.437   2.982
  130DPPC   C50 6500  -0.908   8.438   3.029
  131DPPC    C1 6501   1.370   4.060   5.488
  131DPPC    C2 6502   1.395   3.885   5.318
  131DPPC    C3 6503   1.256   4.074   5.287
  131DPPC    N4 6504   1.384   4.029   5.345
  131DPPC    C5 6505   1.484   4.109   5.273
  131DPPC    C6 6506   1.497   4.259   5.302
  131DPPC    O7 6507   1.418   4.339   5.213
  131DPPC    P8 6508   1.437   4.491   5.262
  131DPPC    O9 6509   1.496   4.497   5.398
  131DPPC   O10 6510   1.315   4.568   5.230
  131DPPC   O11 6511   1.550   4.528   5.154
  131DPPC   C12 6512   1.491   4.514   5.025
  131DPPC   C13 6513   1.595   4.510   4.913
  131DPPC   O14 6514   1.530   4.525   4.787
  131DPPC   C15 6515   1.587   4.622   4.709
  131DPPC   O16 6516   1.686   4.686   4.743
  131DPPC   C17 6517   1.539   4.614   4.564
  131DPPC   C18 6518   1.643   4.529   4.490
  131DPPC   C19 6519   1.587   4.498   4.351
  131DPPC   C20 6520   1.705   4.483   4.255
  131DPPC   C21 6521   1.665   4.436   4.115
  131DPPC   C22 6522   1.788   4.459   4.027
  131DPPC   C23 6523   1.766   4.403   3.886
  131DPPC   C24 6524   1.882   4.433   3.791
  131DPPC   C25 6525   2.018   4.386   3.842
  131DPPC   C26 6526   2.125   4.410   3.734
  131DPPC   C27 6527   2.265   4.377   3.787
  131DPPC   C28 6528   2.368   4.381   3.674
  131DPPC   C29 6529   2.511   4.386   3.729
  131DPPC   C30 6530   2.583   4.515   3.689
  131DPPC   C31 6531   2.731   4.516   3.727
  131DPPC   C32 6532   1.677   4.383   4.935
  131DPPC   O33 6533   1.751   4.322   4.829
  131DPPC   C34 6534   1.816   4.203   4.827
  131DPPC   O35 6535   1.785   4.126   4.918
  131DPPC   C36 6536   1.898   4.149   4.710
  131DPPC   C37 6537   1.814   4.155   4.582
  131DPPC   C38 6538   1.887   4.092   4.464
  131DPPC   C39 6539   1.794   4.100   4.342
  131DPPC   C40 6540   1.651   4.045   4.345
  131DPPC   C41 6541   1.610   4.047   4.197
  131DPPC   C42 6542   1.457   4.040   4.194
  131DPPC   C43 6543   1.413   4.034   4.047
  131DPPC   C44 6544   1.469   3.912   3.974
  131DPPC   C45 6545   1.403   3.899   3.837
  131DPPC   C46 6546   1.455   3.995   3.729
  131DPPC   C47 6547   1.454   3.931   3.590
  131DPPC   C48 6548   1.476   4.033   3.478
  131DPPC   C49 6549   1.475   3.967   3.340
  131DPPC   C50 6550   1.579   3.860   3.308
  132DPPC    C1 6551   9.180   6.455   1.062
  132DPPC    C2 6552   9.381   6.565   1.165
  132DPPC    C3 6553   9.238   6.678   1.023
  132DPPC    N4 6554   9.239   6.573   1.126
  132DPPC    C5 6555   9.158   6.609   1.244
  132DPPC    C6 6556   9.006   6.621   1.242
  132DPPC    O7 6557   8.957   6.653   1.373
  132DPPC    P8 6558   8.800   6.627   1.393
  132DPPC    O9 6559   8.781   6.483   1.363
  132DPPC   O10 6560   8.744   6.732   1.306
  132DPPC   O11 6561   8.789   6.643   1.553
  132DPPC   C12 6562   8.902   6.595   1.625
  132DPPC   C13 6563   8.895   6.624   1.775
  132DPPC   O14 6564   9.011   6.581   1.849
  132DPPC   C15 6565   9.124   6.656   1.848
  132DPPC   O16 6566   9.147   6.727   1.750
  132DPPC   C17 6567   9.225   6.644   1.962
  132DPPC   C18 6568   9.197   6.727   2.088
  132DPPC   C19 6569   9.306   6.713   2.195
  132DPPC   C20 6570   9.249   6.767   2.326
  132DPPC   C21 6571   9.318   6.734   2.459
  132DPPC   C22 6572   9.466   6.771   2.465
  132DPPC   C23 6573   9.490   6.803   2.613
  132DPPC   C24 6574   9.627   6.750   2.655
  132DPPC   C25 6575   9.664   6.789   2.799
  132DPPC   C26 6576   9.814   6.759   2.796
  132DPPC   C27 6577   9.855   6.764   2.944
  132DPPC   C28 6578  10.007   6.761   2.964
  132DPPC   C29 6579  10.029   6.713   3.108
  132DPPC   C30 6580  10.018   6.560   3.106
  132DPPC   C31 6581  10.034   6.501   3.246
  132DPPC   C32 6582   8.765   6.561   1.827
  132DPPC   O33 6583   8.746   6.558   1.968
  132DPPC   C34 6584   8.630   6.507   2.020
  132DPPC   O35 6585   8.539   6.481   1.941
  132DPPC   C36 6586   8.618   6.503   2.172
  132DPPC   C37 6587   8.543   6.620   2.237
  132DPPC   C38 6588   8.486   6.582   2.374
  132DPPC   C39 6589   8.442   6.704   2.454
  132DPPC   C40 6590   8.441   6.675   2.604
  132DPPC   C41 6591   8.343   6.561   2.636
  132DPPC   C42 6592   8.352   6.527   2.785
  132DPPC   C43 6593   8.330   6.656   2.865
  132DPPC   C44 6594   8.300   6.612   3.008
  132DPPC   C45 6595   8.242   6.731   3.084
  132DPPC   C46 6596   8.230   6.692   3.232
  132DPPC   C47 6597   8.158   6.809   3.300
  132DPPC   C48 6598   8.150   6.801   3.452
  132DPPC   C49 6599   8.050   6.692   3.490
  132DPPC   C50 6600   8.061   6.669   3.641
  133DPPC    C1 6601   7.243   0.346   5.380
  133DPPC    C2 6602   7.221   0.548   5.471
  133DPPC    C3 6603   7.343   0.361   5.591
  133DPPC    N4 6604   7.318   0.438   5.468
  133DPPC    C5 6605   7.447   0.473   5.406
  133DPPC    C6 6606   7.548   0.573   5.461
  133DPPC    O7 6607   7.668   0.576   5.383
  133DPPC    P8 6608   7.779   0.676   5.442
  133DPPC    O9 6609   7.904   0.677   5.364
  133DPPC   O10 6610   7.761   0.668   5.589
  133DPPC   O11 6611   7.703   0.810   5.394
  133DPPC   C12 6612   7.728   0.832   5.255
  133DPPC   C13 6613   7.639   0.934   5.184
  133DPPC   O14 6614   7.693   1.067   5.170
  133DPPC   C15 6615   7.783   1.083   5.070
  133DPPC   O16 6616   7.818   0.979   5.013
  133DPPC   C17 6617   7.867   1.210   5.059
  133DPPC   C18 6618   7.804   1.334   4.995
  133DPPC   C19 6619   7.812   1.331   4.842
  133DPPC   C20 6620   7.760   1.464   4.787
  133DPPC   C21 6621   7.835   1.587   4.839
  133DPPC   C22 6622   7.754   1.713   4.806
  133DPPC   C23 6623   7.843   1.837   4.820
  133DPPC   C24 6624   7.745   1.956   4.825
  133DPPC   C25 6625   7.667   1.961   4.694
  133DPPC   C26 6626   7.552   2.061   4.687
  133DPPC   C27 6627   7.479   2.045   4.553
  133DPPC   C28 6628   7.368   2.151   4.555
  133DPPC   C29 6629   7.283   2.133   4.429
  133DPPC   C30 6630   7.151   2.210   4.432
  133DPPC   C31 6631   7.063   2.177   4.311
  133DPPC   C32 6632   7.514   0.944   5.272
  133DPPC   O33 6633   7.386   0.937   5.210
  133DPPC   C34 6634   7.339   0.812   5.183
  133DPPC   O35 6635   7.381   0.707   5.233
  133DPPC   C36 6636   7.201   0.810   5.117
  133DPPC   C37 6637   7.218   0.791   4.966
  133DPPC   C38 6638   7.079   0.821   4.910
  133DPPC   C39 6639   7.098   0.843   4.760
  133DPPC   C40 6640   7.154   0.718   4.691
  133DPPC   C41 6641   7.147   0.740   4.540
  133DPPC   C42 6642   7.158   0.608   4.463
  133DPPC   C43 6643   7.134   0.638   4.316
  133DPPC   C44 6644   7.232   0.729   4.241
  133DPPC   C45 6645   7.210   0.725   4.090
  133DPPC   C46 6646   7.223   0.582   4.039
  133DPPC   C47 6647   7.196   0.576   3.888
  133DPPC   C48 6648   7.217   0.436   3.829
  133DPPC   C49 6649   7.211   0.437   3.677
  133DPPC   C50 6650   7.065   0.452   3.631
  134DPPC    C1 6651   0.217   7.807   5.221
  134DPPC    C2 6652   0.157   7.855   5.428
  134DPPC    C3 6653   0.393   7.839   5.378
  134DPPC    N4 6654   0.263   7.891   5.333
  134DPPC    C5 6655   0.263   8.036   5.313
  134DPPC    C6 6656   0.348   8.099   5.203
  134DPPC    O7 6657   0.320   8.066   5.067
  134DPPC    P8 6658   0.426   8.153   4.983
  134DPPC    O9 6659   0.548   8.070   4.996
  134DPPC   O10 6660   0.416   8.288   5.043
  134DPPC   O11 6661   0.375   8.145   4.831
  134DPPC   C12 6662   0.392   8.267   4.757
  134DPPC   C13 6663   0.425   8.247   4.609
  134DPPC   O14 6664   0.424   8.369   4.534
  134DPPC   C15 6665   0.520   8.465   4.536
  134DPPC   O16 6666   0.628   8.433   4.585
  134DPPC   C17 6667   0.503   8.595   4.459
  134DPPC   C18 6668   0.412   8.582   4.336
  134DPPC   C19 6669   0.439   8.698   4.240
  134DPPC   C20 6670   0.367   8.686   4.106
  134DPPC   C21 6671   0.440   8.764   3.997
  134DPPC   C22 6672   0.345   8.871   3.943
  134DPPC   C23 6673   0.399   8.966   3.836
  134DPPC   C24 6674   0.384   9.112   3.879
  134DPPC   C25 6675   0.452   9.204   3.778
  134DPPC   C26 6676   0.433   9.352   3.811
  134DPPC   C27 6677   0.503   9.435   3.703
  134DPPC   C28 6678   0.455   9.580   3.702
  134DPPC   C29 6679   0.563   9.666   3.637
  134DPPC   C30 6680   0.568   9.617   3.493
  134DPPC   C31 6681   0.671   9.705   3.421
  134DPPC   C32 6682   0.316   8.150   4.562
  134DPPC   O33 6683   0.184   8.197   4.588
  134DPPC   C34 6684   0.082   8.106   4.586
  134DPPC   O35 6685   0.103   7.990   4.550
  134DPPC   C36 6686  -0.051   8.164   4.632
  134DPPC   C37 6687  -0.134   8.208   4.511
  134DPPC   C38 6688  -0.187   8.098   4.419
  134DPPC   C39 6689  -0.260   8.157   4.298
  134DPPC   C40 6690  -0.311   8.062   4.189
  134DPPC   C41 6691  -0.352   8.128   4.058
  134DPPC   C42 6692  -0.441   8.249   4.088
  134DPPC   C43 6693  -0.497   8.289   3.951
  134DPPC   C44 6694  -0.557   8.164   3.888
  134DPPC   C45 6695  -0.668   8.224   3.801
  134DPPC   C46 6696  -0.746   8.115   3.726
  134DPPC   C47 6697  -0.869   8.168   3.651
  134DPPC   C48 6698  -0.958   8.047   3.621
  134DPPC   C49 6699  -1.075   8.108   3.544
  134DPPC   C50 6700  -1.016   8.187   3.428
  135DPPC    C1 6701   7.829   7.821   5.506
  135DPPC    C2 6702   7.890   7.997   5.640
  135DPPC    C3 6703   8.023   7.972   5.446
  135DPPC    N4 6704   7.887   7.956   5.499
  135DPPC    C5 6705   7.787   8.038   5.427
  135DPPC    C6 6706   7.737   7.992   5.290
  135DPPC    O7 6707   7.613   8.035   5.233
  135DPPC    P8 6708   7.607   7.991   5.079
  135DPPC    O9 6709   7.476   8.034   5.024
  135DPPC   O10 6710   7.662   7.854   5.072
  135DPPC   O11 6711   7.719   8.099   5.037
  135DPPC   C12 6712   7.670   8.217   4.972
  135DPPC   C13 6713   7.777   8.325   4.960
  135DPPC   O14 6714   7.726   8.459   4.947
  135DPPC   C15 6715   7.813   8.564   4.944
  135DPPC   O16 6716   7.918   8.553   5.006
  135DPPC   C17 6717   7.751   8.704   4.935
  135DPPC   C18 6718   7.841   8.804   4.862
  135DPPC   C19 6719   7.883   8.750   4.726
  135DPPC   C20 6720   7.768   8.710   4.634
  135DPPC   C21 6721   7.793   8.581   4.556
  135DPPC   C22 6722   7.651   8.538   4.516
  135DPPC   C23 6723   7.581   8.639   4.426
  135DPPC   C24 6724   7.651   8.642   4.289
  135DPPC   C25 6725   7.579   8.715   4.175
  135DPPC   C26 6726   7.662   8.715   4.046
  135DPPC   C27 6727   7.594   8.805   3.943
  135DPPC   C28 6728   7.701   8.853   3.845
  135DPPC   C29 6729   7.617   8.947   3.758
  135DPPC   C30 6730   7.690   9.002   3.635
  135DPPC   C31 6731   7.654   8.920   3.511
  135DPPC   C32 6732   7.888   8.275   4.866
  135DPPC   O33 6733   7.835   8.217   4.747
  135DPPC   C34 6734   7.932   8.175   4.662
  135DPPC   O35 6735   8.049   8.207   4.685
  135DPPC   C36 6736   7.885   8.148   4.519
  135DPPC   C37 6737   7.756   8.067   4.537
  135DPPC   C38 6738   7.673   8.068   4.409
  135DPPC   C39 6739   7.550   7.978   4.401
  135DPPC   C40 6740   7.475   7.967   4.267
  135DPPC   C41 6741   7.460   8.112   4.220
  135DPPC   C42 6742   7.387   8.102   4.085
  135DPPC   C43 6743   7.479   8.020   3.994
  135DPPC   C44 6744   7.429   8.033   3.850
  135DPPC   C45 6745   7.537   7.988   3.750
  135DPPC   C46 6746   7.503   7.974   3.602
  135DPPC   C47 6747   7.411   7.855   3.572
  135DPPC   C48 6748   7.379   7.854   3.422
  135DPPC   C49 6749   7.288   7.742   3.371
  135DPPC   C50 6750   7.271   7.758   3.220
  136DPPC    C1 6751   7.052   3.255   5.918
  136DPPC    C2 6752   7.263   3.254   5.834
  136DPPC    C3 6753   7.145   3.440   5.805
  136DPPC    N4 6754   7.172   3.340   5.909
  136DPPC    C5 6755   7.228   3.392   6.035
  136DPPC    C6 6756   7.374   3.436   6.031
  136DPPC    O7 6757   7.402   3.555   5.957
  136DPPC    P8 6758   7.555   3.553   5.907
  136DPPC    O9 6759   7.619   3.453   5.996
  136DPPC   O10 6760   7.592   3.696   5.903
  136DPPC   O11 6761   7.522   3.499   5.759
  136DPPC   C12 6762   7.502   3.620   5.685
  136DPPC   C13 6763   7.577   3.613   5.551
  136DPPC   O14 6764   7.541   3.725   5.468
  136DPPC   C15 6765   7.606   3.844   5.481
  136DPPC   O16 6766   7.704   3.856   5.555
  136DPPC   C17 6767   7.545   3.966   5.413
  136DPPC   C18 6768   7.605   4.013   5.280
  136DPPC   C19 6769   7.538   4.132   5.211
  136DPPC   C20 6770   7.610   4.157   5.079
  136DPPC   C21 6771   7.627   4.042   4.980
  136DPPC   C22 6772   7.707   4.091   4.859
  136DPPC   C23 6773   7.637   4.213   4.798
  136DPPC   C24 6774   7.744   4.297   4.729
  136DPPC   C25 6775   7.800   4.251   4.594
  136DPPC   C26 6776   7.918   4.334   4.545
  136DPPC   C27 6777   7.991   4.257   4.435
  136DPPC   C28 6778   8.101   4.336   4.364
  136DPPC   C29 6779   8.049   4.471   4.314
  136DPPC   C30 6780   8.112   4.505   4.178
  136DPPC   C31 6781   8.074   4.644   4.129
  136DPPC   C32 6782   7.510   3.486   5.499
  136DPPC   O33 6783   7.589   3.400   5.416
  136DPPC   C34 6784   7.542   3.287   5.356
  136DPPC   O35 6785   7.425   3.254   5.371
  136DPPC   C36 6786   7.622   3.236   5.236
  136DPPC   C37 6787   7.587   3.334   5.124
  136DPPC   C38 6788   7.535   3.267   4.997
  136DPPC   C39 6789   7.467   3.362   4.898
  136DPPC   C40 6790   7.415   3.292   4.772
  136DPPC   C41 6791   7.332   3.392   4.692
  136DPPC   C42 6792   7.268   3.328   4.568
  136DPPC   C43 6793   7.207   3.439   4.482
  136DPPC   C44 6794   7.167   3.377   4.348
  136DPPC   C45 6795   7.093   3.473   4.255
  136DPPC   C46 6796   7.059   3.393   4.129
  136DPPC   C47 6797   7.005   3.491   4.024
  136DPPC   C48 6798   7.024   3.425   3.887
  136DPPC   C49 6799   6.927   3.307   3.876
  136DPPC   C50 6800   6.954   3.260   3.733
  137DPPC    C1 6801   3.041   6.203   4.902
  137DPPC    C2 6802   3.153   6.030   5.024
  137DPPC    C3 6803   3.258   6.243   4.961
  137DPPC    N4 6804   3.137   6.176   5.010
  137DPPC    C5 6805   3.104   6.248   5.134
  137DPPC    C6 6806   2.969   6.216   5.198
  137DPPC    O7 6807   2.854   6.285   5.149
  137DPPC    P8 6808   2.719   6.200   5.174
  137DPPC    O9 6809   2.606   6.275   5.116
  137DPPC   O10 6810   2.735   6.157   5.315
  137DPPC   O11 6811   2.749   6.073   5.081
  137DPPC   C12 6812   2.649   6.044   4.983
  137DPPC   C13 6813   2.684   5.912   4.915
  137DPPC   O14 6814   2.806   5.918   4.840
  137DPPC   C15 6815   2.876   5.803   4.824
  137DPPC   O16 6816   2.846   5.712   4.901
  137DPPC   C17 6817   3.002   5.796   4.738
  137DPPC   C18 6818   2.978   5.858   4.600
  137DPPC   C19 6819   3.103   5.832   4.516
  137DPPC   C20 6820   3.144   5.685   4.501
  137DPPC   C21 6821   3.250   5.677   4.391
  137DPPC   C22 6822   3.306   5.536   4.371
  137DPPC   C23 6823   3.428   5.519   4.280
  137DPPC   C24 6824   3.472   5.373   4.261
  137DPPC   C25 6825   3.586   5.358   4.160
  137DPPC   C26 6826   3.612   5.209   4.142
  137DPPC   C27 6827   3.733   5.175   4.055
  137DPPC   C28 6828   3.715   5.239   3.917
  137DPPC   C29 6829   3.805   5.175   3.811
  137DPPC   C30 6830   3.719   5.171   3.685
  137DPPC   C31 6831   3.780   5.082   3.576
  137DPPC   C32 6832   2.556   5.873   4.840
  137DPPC   O33 6833   2.492   5.976   4.764
  137DPPC   C34 6834   2.394   5.936   4.678
  137DPPC   O35 6835   2.365   5.817   4.666
  137DPPC   C36 6836   2.337   6.042   4.584
  137DPPC   C37 6837   2.302   5.996   4.442
  137DPPC   C38 6838   2.283   6.101   4.333
  137DPPC   C39 6839   2.252   6.031   4.201
  137DPPC   C40 6840   2.312   6.113   4.087
  137DPPC   C41 6841   2.221   6.230   4.050
  137DPPC   C42 6842   2.248   6.278   3.907
  137DPPC   C43 6843   2.222   6.159   3.815
  137DPPC   C44 6844   2.267   6.170   3.669
  137DPPC   C45 6845   2.214   6.051   3.588
  137DPPC   C46 6846   2.244   5.919   3.659
  137DPPC   C47 6847   2.183   5.804   3.580
  137DPPC   C48 6848   2.031   5.797   3.594
  137DPPC   C49 6849   1.960   5.688   3.514
  137DPPC   C50 6850   1.819   5.660   3.567
  138DPPC    C1 6851   2.022   2.748   5.557
  138DPPC    C2 6852   1.982   2.971   5.629
  138DPPC    C3 6853   2.152   2.838   5.719
  138DPPC    N4 6854   2.087   2.875   5.592
  138DPPC    C5 6855   2.173   2.911   5.479
  138DPPC    C6 6856   2.106   2.965   5.351
  138DPPC    O7 6857   2.027   2.879   5.270
  138DPPC    P8 6858   1.994   2.966   5.139
  138DPPC    O9 6859   1.937   3.086   5.205
  138DPPC   O10 6860   1.918   2.879   5.047
  138DPPC   O11 6861   2.149   2.986   5.099
  138DPPC   C12 6862   2.159   3.073   4.986
  138DPPC   C13 6863   2.297   3.135   4.965
  138DPPC   O14 6864   2.310   3.248   4.878
  138DPPC   C15 6865   2.288   3.374   4.924
  138DPPC   O16 6866   2.265   3.389   5.044
  138DPPC   C17 6867   2.289   3.486   4.819
  138DPPC   C18 6868   2.401   3.587   4.841
  138DPPC   C19 6869   2.400   3.695   4.732
  138DPPC   C20 6870   2.263   3.762   4.716
  138DPPC   C21 6871   2.253   3.852   4.592
  138DPPC   C22 6872   2.212   3.777   4.465
  138DPPC   C23 6873   2.209   3.877   4.349
  138DPPC   C24 6874   2.228   3.789   4.225
  138DPPC   C25 6875   2.249   3.858   4.090
  138DPPC   C26 6876   2.262   3.737   3.997
  138DPPC   C27 6877   2.281   3.780   3.851
  138DPPC   C28 6878   2.163   3.873   3.820
  138DPPC   C29 6879   2.200   3.958   3.698
  138DPPC   C30 6880   2.090   4.052   3.650
  138DPPC   C31 6881   1.981   3.964   3.589
  138DPPC   C32 6882   2.383   3.018   4.917
  138DPPC   O33 6883   2.317   2.951   4.809
  138DPPC   C34 6884   2.358   2.822   4.799
  138DPPC   O35 6885   2.422   2.773   4.892
  138DPPC   C36 6886   2.333   2.734   4.676
  138DPPC   C37 6887   2.395   2.802   4.553
  138DPPC   C38 6888   2.378   2.698   4.442
  138DPPC   C39 6889   2.236   2.664   4.398
  138DPPC   C40 6890   2.229   2.550   4.296
  138DPPC   C41 6891   2.084   2.535   4.248
  138DPPC   C42 6892   2.064   2.403   4.173
  138DPPC   C43 6893   1.919   2.403   4.126
  138DPPC   C44 6894   1.872   2.279   4.048
  138DPPC   C45 6895   1.720   2.281   4.068
  138DPPC   C46 6896   1.662   2.176   3.974
  138DPPC   C47 6897   1.509   2.172   3.985
  138DPPC   C48 6898   1.449   2.046   3.923
  138DPPC   C49 6899   1.302   2.021   3.956
  138DPPC   C50 6900   1.312   2.029   4.108
  139DPPC    C1 6901   9.023   3.869   5.234
  139DPPC    C2 6902   8.848   4.027   5.187
  139DPPC    C3 6903   8.847   3.894   5.383
  139DPPC    N4 6904   8.933   3.970   5.292
  139DPPC    C5 6905   9.002   4.068   5.377
  139DPPC    C6 6906   9.083   4.173   5.300
  139DPPC    O7 6907   9.153   4.257   5.394
  139DPPC    P8 6908   9.190   4.397   5.325
  139DPPC    O9 6909   9.222   4.501   5.426
  139DPPC   O10 6910   9.092   4.425   5.218
  139DPPC   O11 6911   9.319   4.353   5.240
  139DPPC   C12 6912   9.336   4.432   5.123
  139DPPC   C13 6913   9.402   4.357   5.007
  139DPPC   O14 6914   9.449   4.440   4.900
  139DPPC   C15 6915   9.562   4.516   4.910
  139DPPC   O16 6916   9.627   4.514   5.014
  139DPPC   C17 6917   9.575   4.626   4.805
  139DPPC   C18 6918   9.664   4.584   4.688
  139DPPC   C19 6919   9.663   4.679   4.568
  139DPPC   C20 6920   9.700   4.608   4.438
  139DPPC   C21 6921   9.681   4.692   4.311
  139DPPC   C22 6922   9.661   4.590   4.199
  139DPPC   C23 6923   9.670   4.664   4.065
  139DPPC   C24 6924   9.676   4.563   3.951
  139DPPC   C25 6925   9.684   4.632   3.815
  139DPPC   C26 6926   9.688   4.521   3.710
  139DPPC   C27 6927   9.744   4.571   3.577
  139DPPC   C28 6928   9.663   4.679   3.505
  139DPPC   C29 6929   9.742   4.703   3.376
  139DPPC   C30 6930   9.669   4.803   3.286
  139DPPC   C31 6931   9.730   4.818   3.147
  139DPPC   C32 6932   9.303   4.245   4.977
  139DPPC   O33 6933   9.364   4.119   4.949
  139DPPC   C34 6934   9.281   4.011   4.952
  139DPPC   O35 6935   9.168   4.032   4.996
  139DPPC   C36 6936   9.322   3.875   4.897
  139DPPC   C37 6937   9.286   3.877   4.748
  139DPPC   C38 6938   9.334   3.754   4.669
  139DPPC   C39 6939   9.288   3.783   4.526
  139DPPC   C40 6940   9.291   3.672   4.421
  139DPPC   C41 6941   9.234   3.723   4.288
  139DPPC   C42 6942   9.201   3.597   4.208
  139DPPC   C43 6943   9.179   3.630   4.060
  139DPPC   C44 6944   9.062   3.724   4.033
  139DPPC   C45 6945   9.034   3.729   3.883
  139DPPC   C46 6946   9.117   3.822   3.794
  139DPPC   C47 6947   9.097   3.791   3.645
  139DPPC   C48 6948   9.167   3.888   3.550
  139DPPC   C49 6949   9.145   3.830   3.410
  139DPPC   C50 6950   9.218   3.912   3.303
  140DPPC    C1 6951   0.117   2.511   5.247
  140DPPC    C2 6952   0.250   2.637   5.416
  140DPPC    C3 6953   0.093   2.732   5.290
  140DPPC    N4 6954   0.118   2.605   5.360
  140DPPC    C5 6955   0.029   2.583   5.475
  140DPPC    C6 6956  -0.114   2.530   5.457
  140DPPC    O7 6957  -0.188   2.623   5.377
  140DPPC    P8 6958  -0.343   2.591   5.352
  140DPPC    O9 6959  -0.389   2.719   5.293
  140DPPC   O10 6960  -0.405   2.535   5.475
  140DPPC   O11 6961  -0.329   2.483   5.234
  140DPPC   C12 6962  -0.288   2.534   5.107
  140DPPC   C13 6963  -0.295   2.420   5.004
  140DPPC   O14 6964  -0.196   2.415   4.900
  140DPPC   C15 6965  -0.071   2.365   4.914
  140DPPC   O16 6966  -0.017   2.322   5.017
  140DPPC   C17 6967  -0.008   2.326   4.780
  140DPPC   C18 6968   0.044   2.450   4.707
  140DPPC   C19 6969   0.078   2.412   4.562
  140DPPC   C20 6970   0.210   2.474   4.515
  140DPPC   C21 6971   0.237   2.461   4.365
  140DPPC   C22 6972   0.371   2.526   4.330
  140DPPC   C23 6973   0.449   2.456   4.218
  140DPPC   C24 6974   0.369   2.455   4.088
  140DPPC   C25 6975   0.453   2.424   3.964
  140DPPC   C26 6976   0.390   2.392   3.828
  140DPPC   C27 6977   0.496   2.372   3.719
  140DPPC   C28 6978   0.438   2.329   3.584
  140DPPC   C29 6979   0.328   2.223   3.595
  140DPPC   C30 6980   0.310   2.156   3.458
  140DPPC   C31 6981   0.211   2.040   3.471
  140DPPC   C32 6982  -0.436   2.439   4.947
  140DPPC   O33 6983  -0.461   2.575   4.913
  140DPPC   C34 6984  -0.547   2.610   4.813
  140DPPC   O35 6985  -0.564   2.544   4.710
  140DPPC   C36 6986  -0.611   2.749   4.821
  140DPPC   C37 6987  -0.756   2.700   4.828
  140DPPC   C38 6988  -0.836   2.781   4.727
  140DPPC   C39 6989  -0.987   2.763   4.751
  140DPPC   C40 6990  -1.045   2.880   4.671
  140DPPC   C41 6991  -1.013   2.867   4.522
  140DPPC   C42 6992  -1.056   2.989   4.439
  140DPPC   C43 6993  -1.033   2.967   4.290
  140DPPC   C44 6994  -1.097   3.075   4.203
  140DPPC   C45 6995  -1.072   3.034   4.058
  140DPPC   C46 6996  -1.136   2.897   4.031
  140DPPC   C47 6997  -1.079   2.850   3.898
  140DPPC   C48 6998  -1.178   2.867   3.782
  140DPPC   C49 6999  -1.156   2.760   3.675
  140DPPC   C50 7000  -1.022   2.798   3.610
  141DPPC    C1 7001   5.802   1.821   6.139
  141DPPC    C2 7002   5.648   1.688   6.029
  141DPPC    C3 7003   5.569   1.891   6.096
  141DPPC    N4 7004   5.690   1.828   6.044
  141DPPC    C5 7005   5.719   1.880   5.909
  141DPPC    C6 7006   5.763   2.027   5.905
  141DPPC    O7 7007   5.650   2.115   5.907
  141DPPC    P8 7008   5.695   2.253   5.838
  141DPPC    O9 7009   5.823   2.284   5.905
  141DPPC   O10 7010   5.574   2.339   5.841
  141DPPC   O11 7011   5.713   2.209   5.684
  141DPPC   C12 7012   5.596   2.171   5.612
  141DPPC   C13 7013   5.620   2.162   5.461
  141DPPC   O14 7014   5.702   2.060   5.401
  141DPPC   C15 7015   5.626   1.962   5.346
  141DPPC   O16 7016   5.505   1.949   5.357
  141DPPC   C17 7017   5.711   1.848   5.289
  141DPPC   C18 7018   5.719   1.862   5.137
  141DPPC   C19 7019   5.790   1.744   5.071
  141DPPC   C20 7020   5.724   1.715   4.936
  141DPPC   C21 7021   5.573   1.698   4.959
  141DPPC   C22 7022   5.494   1.644   4.839
  141DPPC   C23 7023   5.503   1.739   4.720
  141DPPC   C24 7024   5.452   1.675   4.591
  141DPPC   C25 7025   5.510   1.536   4.566
  141DPPC   C26 7026   5.469   1.481   4.429
  141DPPC   C27 7027   5.562   1.541   4.323
  141DPPC   C28 7028   5.528   1.487   4.184
  141DPPC   C29 7029   5.387   1.536   4.150
  141DPPC   C30 7030   5.379   1.671   4.079
  141DPPC   C31 7031   5.237   1.727   4.067
  141DPPC   C32 7032   5.677   2.299   5.424
  141DPPC   O33 7033   5.582   2.406   5.429
  141DPPC   C34 7034   5.630   2.532   5.414
  141DPPC   O35 7035   5.751   2.543   5.432
  141DPPC   C36 7036   5.534   2.650   5.394
  141DPPC   C37 7037   5.500   2.682   5.248
  141DPPC   C38 7038   5.441   2.565   5.171
  141DPPC   C39 7039   5.398   2.619   5.034
  141DPPC   C40 7040   5.517   2.652   4.944
  141DPPC   C41 7041   5.471   2.699   4.807
  141DPPC   C42 7042   5.583   2.689   4.703
  141DPPC   C43 7043   5.538   2.726   4.562
  141DPPC   C44 7044   5.418   2.638   4.529
  141DPPC   C45 7045   5.364   2.679   4.392
  141DPPC   C46 7046   5.306   2.820   4.393
  141DPPC   C47 7047   5.268   2.866   4.252
  141DPPC   C48 7048   5.377   2.879   4.146
  141DPPC   C49 7049   5.315   2.918   4.011
  141DPPC   C50 7050   5.210   2.821   3.957
  142DPPC    C1 7051   1.515   6.081   4.840
  142DPPC    C2 7052   1.523   6.312   4.868
  142DPPC    C3 7053   1.570   6.223   4.658
  142DPPC    N4 7054   1.481   6.208   4.773
  142DPPC    C5 7055   1.342   6.195   4.728
  142DPPC    C6 7056   1.259   6.322   4.708
  142DPPC    O7 7057   1.296   6.404   4.597
  142DPPC    P8 7058   1.245   6.556   4.618
  142DPPC    O9 7059   1.333   6.641   4.535
  142DPPC   O10 7060   1.224   6.579   4.763
  142DPPC   O11 7061   1.103   6.546   4.542
  142DPPC   C12 7062   1.120   6.507   4.405
  142DPPC   C13 7063   0.993   6.533   4.323
  142DPPC   O14 7064   0.988   6.448   4.208
  142DPPC   C15 7065   0.871   6.438   4.140
  142DPPC   O16 7066   0.760   6.467   4.184
  142DPPC   C17 7067   0.885   6.360   4.009
  142DPPC   C18 7068   0.779   6.392   3.902
  142DPPC   C19 7069   0.824   6.305   3.784
  142DPPC   C20 7070   0.726   6.281   3.670
  142DPPC   C21 7071   0.597   6.224   3.731
  142DPPC   C22 7072   0.615   6.077   3.768
  142DPPC   C23 7073   0.485   6.036   3.837
  142DPPC   C24 7074   0.489   5.900   3.907
  142DPPC   C25 7075   0.356   5.825   3.915
  142DPPC   C26 7076   0.259   5.923   3.982
  142DPPC   C27 7077   0.122   5.857   4.003
  142DPPC   C28 7078   0.016   5.944   4.069
  142DPPC   C29 7079  -0.117   5.869   4.086
  142DPPC   C30 7080  -0.122   5.734   4.157
  142DPPC   C31 7081  -0.249   5.652   4.135
  142DPPC   C32 7082   0.987   6.682   4.290
  142DPPC   O33 7083   1.097   6.747   4.225
  142DPPC   C34 7084   1.060   6.874   4.193
  142DPPC   O35 7085   0.974   6.938   4.252
  142DPPC   C36 7086   1.171   6.939   4.109
  142DPPC   C37 7087   1.149   7.089   4.095
  142DPPC   C38 7088   1.039   7.125   3.994
  142DPPC   C39 7089   1.034   7.269   3.944
  142DPPC   C40 7090   0.920   7.299   3.846
  142DPPC   C41 7091   0.924   7.206   3.725
  142DPPC   C42 7092   0.854   7.268   3.604
  142DPPC   C43 7093   0.710   7.283   3.654
  142DPPC   C44 7094   0.624   7.369   3.560
  142DPPC   C45 7095   0.690   7.507   3.562
  142DPPC   C46 7096   0.625   7.590   3.451
  142DPPC   C47 7097   0.685   7.730   3.444
  142DPPC   C48 7098   0.634   7.821   3.332
  142DPPC   C49 7099   0.697   7.772   3.202
  142DPPC   C50 7100   0.845   7.808   3.190
  143DPPC    C1 7101   0.265   0.075   5.128
  143DPPC    C2 7102   0.085   0.219   5.212
  143DPPC    C3 7103   0.303   0.236   5.300
  143DPPC    N4 7104   0.227   0.208   5.178
  143DPPC    C5 7105   0.258   0.305   5.072
  143DPPC    C6 7106   0.219   0.453   5.077
  143DPPC    O7 7107   0.331   0.527   5.126
  143DPPC    P8 7108   0.283   0.679   5.150
  143DPPC    O9 7109   0.406   0.754   5.182
  143DPPC   O10 7110   0.173   0.664   5.248
  143DPPC   O11 7111   0.253   0.705   4.994
  143DPPC   C12 7112   0.347   0.796   4.935
  143DPPC   C13 7113   0.330   0.843   4.791
  143DPPC   O14 7114   0.241   0.955   4.783
  143DPPC   C15 7115   0.295   1.079   4.789
  143DPPC   O16 7116   0.401   1.095   4.848
  143DPPC   C17 7117   0.220   1.195   4.721
  143DPPC   C18 7118   0.116   1.144   4.621
  143DPPC   C19 7119  -0.022   1.176   4.679
  143DPPC   C20 7120  -0.138   1.141   4.586
  143DPPC   C21 7121  -0.186   1.266   4.512
  143DPPC   C22 7122  -0.316   1.239   4.436
  143DPPC   C23 7123  -0.284   1.118   4.349
  143DPPC   C24 7124  -0.416   1.078   4.282
  143DPPC   C25 7125  -0.462   1.183   4.181
  143DPPC   C26 7126  -0.599   1.159   4.119
  143DPPC   C27 7127  -0.628   1.273   4.021
  143DPPC   C28 7128  -0.541   1.290   3.896
  143DPPC   C29 7129  -0.570   1.166   3.811
  143DPPC   C30 7130  -0.482   1.173   3.686
  143DPPC   C31 7131  -0.536   1.298   3.616
  143DPPC   C32 7132   0.309   0.718   4.705
  143DPPC   O33 7133   0.259   0.740   4.572
  143DPPC   C34 7134   0.225   0.627   4.506
  143DPPC   O35 7135   0.174   0.538   4.574
  143DPPC   C36 7136   0.181   0.648   4.361
  143DPPC   C37 7137   0.113   0.522   4.307
  143DPPC   C38 7138   0.043   0.534   4.171
  143DPPC   C39 7139  -0.073   0.633   4.188
  143DPPC   C40 7140  -0.154   0.655   4.060
  143DPPC   C41 7141  -0.062   0.720   3.956
  143DPPC   C42 7142  -0.089   0.644   3.826
  143DPPC   C43 7143  -0.008   0.698   3.708
  143DPPC   C44 7144  -0.020   0.847   3.679
  143DPPC   C45 7145   0.071   0.867   3.557
  143DPPC   C46 7146   0.106   1.011   3.520
  143DPPC   C47 7147   0.195   1.004   3.396
  143DPPC   C48 7148   0.241   1.138   3.339
  143DPPC   C49 7149   0.142   1.248   3.301
  143DPPC   C50 7150   0.211   1.370   3.238
  144DPPC    C1 7151   8.663   0.302   5.580
  144DPPC    C2 7152   8.866   0.418   5.631
  144DPPC    C3 7153   8.861   0.187   5.569
  144DPPC    N4 7154   8.803   0.319   5.541
  144DPPC    C5 7155   8.815   0.354   5.399
  144DPPC    C6 7156   8.819   0.503   5.362
  144DPPC    O7 7157   8.708   0.587   5.393
  144DPPC    P8 7158   8.753   0.738   5.360
  144DPPC    O9 7159   8.887   0.735   5.422
  144DPPC   O10 7160   8.642   0.813   5.423
  144DPPC   O11 7161   8.747   0.733   5.199
  144DPPC   C12 7162   8.612   0.750   5.157
  144DPPC   C13 7163   8.596   0.708   5.011
  144DPPC   O14 7164   8.463   0.728   4.959
  144DPPC   C15 7165   8.443   0.851   4.904
  144DPPC   O16 7166   8.489   0.958   4.943
  144DPPC   C17 7167   8.319   0.866   4.815
  144DPPC   C18 7168   8.340   0.912   4.670
  144DPPC   C19 7169   8.436   0.814   4.603
  144DPPC   C20 7170   8.471   0.853   4.459
  144DPPC   C21 7171   8.343   0.835   4.378
  144DPPC   C22 7172   8.380   0.844   4.229
  144DPPC   C23 7173   8.472   0.965   4.212
  144DPPC   C24 7174   8.496   1.008   4.067
  144DPPC   C25 7175   8.378   1.053   3.981
  144DPPC   C26 7176   8.433   1.115   3.853
  144DPPC   C27 7177   8.505   1.018   3.758
  144DPPC   C28 7178   8.576   1.108   3.657
  144DPPC   C29 7179   8.633   1.035   3.535
  144DPPC   C30 7180   8.513   0.960   3.475
  144DPPC   C31 7181   8.558   0.908   3.338
  144DPPC   C32 7182   8.659   0.569   5.000
  144DPPC   O33 7183   8.654   0.514   4.868
  144DPPC   C34 7184   8.768   0.548   4.803
  144DPPC   O35 7185   8.863   0.592   4.868
  144DPPC   C36 7186   8.791   0.486   4.665
  144DPPC   C37 7187   8.662   0.470   4.585
  144DPPC   C38 7188   8.677   0.348   4.495
  144DPPC   C39 7189   8.555   0.355   4.403
  144DPPC   C40 7190   8.556   0.232   4.312
  144DPPC   C41 7191   8.475   0.246   4.182
  144DPPC   C42 7192   8.484   0.115   4.103
  144DPPC   C43 7193   8.367   0.115   4.004
  144DPPC   C44 7194   8.399   0.022   3.887
  144DPPC   C45 7195   8.263  -0.007   3.822
  144DPPC   C46 7196   8.200   0.123   3.769
  144DPPC   C47 7197   8.063   0.118   3.701
  144DPPC   C48 7198   8.041   0.242   3.613
  144DPPC   C49 7199   8.073   0.369   3.692
  144DPPC   C50 7200   8.047   0.498   3.614
  145DPPC    C1 7201   7.995   5.639   5.469
  145DPPC    C2 7202   8.244   5.655   5.500
  145DPPC    C3 7203   8.162   5.456   5.435
  145DPPC    N4 7204   8.130   5.599   5.426
  145DPPC    C5 7205   8.134   5.627   5.282
  145DPPC    C6 7206   8.156   5.775   5.245
  145DPPC    O7 7207   8.172   5.794   5.105
  145DPPC    P8 7208   8.176   5.952   5.073
  145DPPC    O9 7209   8.239   5.957   4.940
  145DPPC   O10 7210   8.239   6.016   5.191
  145DPPC   O11 7211   8.017   5.936   5.061
  145DPPC   C12 7212   7.991   5.904   4.924
  145DPPC   C13 7213   7.848   5.858   4.892
  145DPPC   O14 7214   7.848   5.793   4.764
  145DPPC   C15 7215   7.751   5.702   4.735
  145DPPC   O16 7216   7.671   5.674   4.824
  145DPPC   C17 7217   7.725   5.675   4.587
  145DPPC   C18 7218   7.616   5.778   4.555
  145DPPC   C19 7219   7.575   5.746   4.411
  145DPPC   C20 7220   7.436   5.684   4.419
  145DPPC   C21 7221   7.398   5.625   4.283
  145DPPC   C22 7222   7.368   5.748   4.197
  145DPPC   C23 7223   7.257   5.839   4.250
  145DPPC   C24 7224   7.267   5.977   4.185
  145DPPC   C25 7225   7.134   6.051   4.170
  145DPPC   C26 7226   7.175   6.190   4.121
  145DPPC   C27 7227   7.222   6.199   3.976
  145DPPC   C28 7228   7.106   6.171   3.880
  145DPPC   C29 7229   7.155   6.145   3.737
  145DPPC   C30 7230   7.237   6.016   3.735
  145DPPC   C31 7231   7.284   5.990   3.592
  145DPPC   C32 7232   7.746   5.967   4.923
  145DPPC   O33 7233   7.752   6.081   4.837
  145DPPC   C34 7234   7.642   6.159   4.854
  145DPPC   O35 7235   7.568   6.148   4.952
  145DPPC   C36 7236   7.598   6.231   4.727
  145DPPC   C37 7237   7.503   6.146   4.641
  145DPPC   C38 7238   7.447   6.223   4.521
  145DPPC   C39 7239   7.542   6.264   4.409
  145DPPC   C40 7240   7.471   6.343   4.298
  145DPPC   C41 7241   7.555   6.398   4.182
  145DPPC   C42 7242   7.605   6.270   4.114
  145DPPC   C43 7243   7.664   6.294   3.975
  145DPPC   C44 7244   7.554   6.354   3.888
  145DPPC   C45 7245   7.605   6.377   3.746
  145DPPC   C46 7246   7.490   6.448   3.674
  145DPPC   C47 7247   7.546   6.484   3.536
  145DPPC   C48 7248   7.575   6.358   3.453
  145DPPC   C49 7249   7.632   6.376   3.312
  145DPPC   C50 7250   7.768   6.443   3.330
  146DPPC    C1 7251   6.862   4.182   5.746
  146DPPC    C2 7252   7.063   4.196   5.878
  146DPPC    C3 7253   6.873   4.137   5.984
  146DPPC    N4 7254   6.940   4.120   5.854
  146DPPC    C5 7255   6.983   3.981   5.831
  146DPPC    C6 7256   6.875   3.887   5.776
  146DPPC    O7 7257   6.918   3.752   5.754
  146DPPC    P8 7258   6.795   3.656   5.717
  146DPPC    O9 7259   6.670   3.703   5.782
  146DPPC   O10 7260   6.840   3.515   5.719
  146DPPC   O11 7261   6.777   3.694   5.561
  146DPPC   C12 7262   6.863   3.613   5.481
  146DPPC   C13 7263   6.885   3.642   5.332
  146DPPC   O14 7264   6.989   3.735   5.299
  146DPPC   C15 7265   7.121   3.707   5.320
  146DPPC   O16 7266   7.158   3.637   5.415
  146DPPC   C17 7267   7.212   3.814   5.261
  146DPPC   C18 7268   7.146   3.899   5.153
  146DPPC   C19 7269   7.170   3.833   5.017
  146DPPC   C20 7270   7.323   3.832   5.009
  146DPPC   C21 7271   7.361   3.783   4.870
  146DPPC   C22 7272   7.302   3.887   4.774
  146DPPC   C23 7273   7.357   3.860   4.634
  146DPPC   C24 7274   7.509   3.880   4.621
  146DPPC   C25 7275   7.537   3.881   4.471
  146DPPC   C26 7276   7.529   3.738   4.418
  146DPPC   C27 7277   7.569   3.753   4.271
  146DPPC   C28 7278   7.501   3.878   4.215
  146DPPC   C29 7279   7.549   3.917   4.075
  146DPPC   C30 7280   7.481   4.049   4.037
  146DPPC   C31 7281   7.465   4.053   3.885
  146DPPC   C32 7282   6.758   3.695   5.264
  146DPPC   O33 7283   6.662   3.596   5.225
  146DPPC   C34 7284   6.559   3.647   5.153
  146DPPC   O35 7285   6.561   3.757   5.100
  146DPPC   C36 7286   6.437   3.554   5.153
  146DPPC   C37 7287   6.370   3.553   5.015
  146DPPC   C38 7288   6.280   3.436   4.977
  146DPPC   C39 7289   6.188   3.493   4.868
  146DPPC   C40 7290   6.256   3.524   4.734
  146DPPC   C41 7291   6.164   3.587   4.629
  146DPPC   C42 7292   6.232   3.606   4.493
  146DPPC   C43 7293   6.134   3.683   4.404
  146DPPC   C44 7294   6.165   3.643   4.259
  146DPPC   C45 7295   6.052   3.701   4.174
  146DPPC   C46 7296   6.065   3.633   4.038
  146DPPC   C47 7297   5.962   3.701   3.946
  146DPPC   C48 7298   5.953   3.648   3.803
  146DPPC   C49 7299   5.835   3.708   3.727
  146DPPC   C50 7300   5.703   3.667   3.793
  147DPPC    C1 7301   8.218   3.129   6.062
  147DPPC    C2 7302   8.072   2.940   6.066
  147DPPC    C3 7303   7.982   3.162   6.099
  147DPPC    N4 7304   8.083   3.082   6.029
  147DPPC    C5 7305   8.061   3.078   5.883
  147DPPC    C6 7306   8.070   3.210   5.807
  147DPPC    O7 7307   7.972   3.313   5.822
  147DPPC    P8 7308   8.049   3.453   5.803
  147DPPC    O9 7309   8.168   3.426   5.887
  147DPPC   O10 7310   7.962   3.571   5.819
  147DPPC   O11 7311   8.083   3.425   5.648
  147DPPC   C12 7312   7.961   3.469   5.587
  147DPPC   C13 7313   8.004   3.459   5.440
  147DPPC   O14 7314   7.911   3.526   5.354
  147DPPC   C15 7315   7.956   3.647   5.310
  147DPPC   O16 7316   8.052   3.697   5.368
  147DPPC   C17 7317   7.858   3.712   5.212
  147DPPC   C18 7318   7.884   3.670   5.067
  147DPPC   C19 7319   7.748   3.682   4.998
  147DPPC   C20 7320   7.769   3.645   4.851
  147DPPC   C21 7321   7.867   3.748   4.792
  147DPPC   C22 7322   7.888   3.715   4.644
  147DPPC   C23 7323   7.970   3.825   4.577
  147DPPC   C24 7324   7.973   3.779   4.431
  147DPPC   C25 7325   7.999   3.902   4.344
  147DPPC   C26 7326   8.011   3.868   4.196
  147DPPC   C27 7327   8.011   3.995   4.111
  147DPPC   C28 7328   7.890   4.083   4.143
  147DPPC   C29 7329   7.898   4.218   4.072
  147DPPC   C30 7330   7.760   4.286   4.080
  147DPPC   C31 7331   7.758   4.407   3.988
  147DPPC   C32 7332   8.036   3.311   5.418
  147DPPC   O33 7333   7.930   3.226   5.462
  147DPPC   C34 7334   7.953   3.093   5.474
  147DPPC   O35 7335   8.057   3.034   5.504
  147DPPC   C36 7336   7.826   3.010   5.502
  147DPPC   C37 7337   7.832   2.870   5.441
  147DPPC   C38 7338   7.833   2.866   5.289
  147DPPC   C39 7339   7.808   2.724   5.238
  147DPPC   C40 7340   7.816   2.731   5.086
  147DPPC   C41 7341   7.713   2.818   5.013
  147DPPC   C42 7342   7.740   2.805   4.862
  147DPPC   C43 7343   7.626   2.884   4.798
  147DPPC   C44 7344   7.636   2.864   4.647
  147DPPC   C45 7345   7.519   2.941   4.586
  147DPPC   C46 7346   7.513   2.941   4.433
  147DPPC   C47 7347   7.382   3.012   4.399
  147DPPC   C48 7348   7.333   3.017   4.254
  147DPPC   C49 7349   7.184   3.045   4.232
  147DPPC   C50 7350   7.143   3.048   4.085
  148DPPC    C1 7351   2.598   6.556   5.348
  148DPPC    C2 7352   2.822   6.580   5.412
  148DPPC    C3 7353   2.754   6.608   5.181
  148DPPC    N4 7354   2.719   6.635   5.322
  148DPPC    C5 7355   2.711   6.778   5.352
  148DPPC    C6 7356   2.793   6.884   5.277
  148DPPC    O7 7357   2.933   6.858   5.269
  148DPPC    P8 7358   3.020   6.992   5.293
  148DPPC    O9 7359   3.161   6.951   5.281
  148DPPC   O10 7360   2.982   7.058   5.420
  148DPPC   O11 7361   2.959   7.068   5.165
  148DPPC   C12 7362   3.018   7.042   5.038
  148DPPC   C13 7363   2.926   7.086   4.924
  148DPPC   O14 7364   2.960   7.018   4.803
  148DPPC   C15 7365   2.938   6.886   4.778
  148DPPC   O16 7366   2.871   6.821   4.859
  148DPPC   C17 7367   2.995   6.822   4.652
  148DPPC   C18 7368   2.900   6.733   4.571
  148DPPC   C19 7369   2.963   6.658   4.453
  148DPPC   C20 7370   3.051   6.767   4.391
  148DPPC   C21 7371   3.147   6.687   4.302
  148DPPC   C22 7372   3.205   6.778   4.194
  148DPPC   C23 7373   3.110   6.861   4.108
  148DPPC   C24 7374   3.189   6.933   3.999
  148DPPC   C25 7375   3.248   6.840   3.893
  148DPPC   C26 7376   3.292   6.919   3.770
  148DPPC   C27 7377   3.404   6.837   3.705
  148DPPC   C28 7378   3.474   6.913   3.592
  148DPPC   C29 7379   3.563   6.819   3.511
  148DPPC   C30 7380   3.616   6.890   3.386
  148DPPC   C31 7381   3.740   6.806   3.351
  148DPPC   C32 7382   2.942   7.238   4.927
  148DPPC   O33 7383   3.074   7.290   4.947
  148DPPC   C34 7384   3.074   7.426   4.961
  148DPPC   O35 7385   2.966   7.484   4.959
  148DPPC   C36 7386   3.202   7.509   4.950
  148DPPC   C37 7387   3.242   7.569   4.815
  148DPPC   C38 7388   3.366   7.657   4.828
  148DPPC   C39 7389   3.439   7.679   4.695
  148DPPC   C40 7390   3.488   7.542   4.647
  148DPPC   C41 7391   3.547   7.559   4.507
  148DPPC   C42 7392   3.655   7.667   4.499
  148DPPC   C43 7393   3.703   7.680   4.355
  148DPPC   C44 7394   3.818   7.589   4.311
  148DPPC   C45 7395   3.864   7.619   4.168
  148DPPC   C46 7396   3.926   7.494   4.105
  148DPPC   C47 7397   3.952   7.531   3.958
  148DPPC   C48 7398   4.033   7.427   3.880
  148DPPC   C49 7399   4.045   7.467   3.733
  148DPPC   C50 7400   4.138   7.370   3.659
  149DPPC    C1 7401   5.161   0.562   5.176
  149DPPC    C2 7402   5.223   0.617   4.951
  149DPPC    C3 7403   5.060   0.735   5.077
  149DPPC    N4 7404   5.193   0.672   5.084
  149DPPC    C5 7405   5.288   0.772   5.133
  149DPPC    C6 7406   5.376   0.751   5.256
  149DPPC    O7 7407   5.470   0.853   5.294
  149DPPC    P8 7408   5.585   0.798   5.392
  149DPPC    O9 7409   5.544   0.666   5.444
  149DPPC   O10 7410   5.655   0.901   5.473
  149DPPC   O11 7411   5.675   0.736   5.274
  149DPPC   C12 7412   5.766   0.835   5.223
  149DPPC   C13 7413   5.791   0.820   5.073
  149DPPC   O14 7414   5.909   0.891   5.031
  149DPPC   C15 7415   6.018   0.840   4.969
  149DPPC   O16 7416   6.046   0.721   4.982
  149DPPC   C17 7417   6.116   0.946   4.919
  149DPPC   C18 7418   6.100   0.954   4.767
  149DPPC   C19 7419   6.211   1.033   4.698
  149DPPC   C20 7420   6.206   1.014   4.546
  149DPPC   C21 7421   6.291   1.108   4.461
  149DPPC   C22 7422   6.302   1.040   4.324
  149DPPC   C23 7423   6.381   1.137   4.237
  149DPPC   C24 7424   6.411   1.085   4.096
  149DPPC   C25 7425   6.515   1.189   4.053
  149DPPC   C26 7426   6.503   1.251   3.914
  149DPPC   C27 7427   6.624   1.344   3.906
  149DPPC   C28 7428   6.620   1.414   3.770
  149DPPC   C29 7429   6.719   1.532   3.768
  149DPPC   C30 7430   6.702   1.620   3.645
  149DPPC   C31 7431   6.573   1.703   3.640
  149DPPC   C32 7432   5.656   0.844   5.005
  149DPPC   O33 7433   5.655   0.833   4.863
  149DPPC   C34 7434   5.535   0.879   4.819
  149DPPC   O35 7435   5.431   0.882   4.884
  149DPPC   C36 7436   5.522   0.887   4.666
  149DPPC   C37 7437   5.535   1.030   4.614
  149DPPC   C38 7438   5.534   1.047   4.462
  149DPPC   C39 7439   5.654   1.009   4.374
  149DPPC   C40 7440   5.652   1.054   4.228
  149DPPC   C41 7441   5.771   1.000   4.149
  149DPPC   C42 7442   5.883   1.097   4.111
  149DPPC   C43 7443   5.807   1.211   4.044
  149DPPC   C44 7444   5.880   1.259   3.919
  149DPPC   C45 7445   5.804   1.379   3.862
  149DPPC   C46 7446   5.849   1.436   3.728
  149DPPC   C47 7447   5.766   1.556   3.681
  149DPPC   C48 7448   5.616   1.533   3.661
  149DPPC   C49 7449   5.542   1.666   3.645
  149DPPC   C50 7450   5.389   1.661   3.639
  150DPPC    C1 7451   4.648   0.967   5.783
  150DPPC    C2 7452   4.781   0.793   5.711
  150DPPC    C3 7453   4.690   0.953   5.552
  150DPPC    N4 7454   4.751   0.935   5.684
  150DPPC    C5 7455   4.860   1.032   5.700
  150DPPC    C6 7456   4.988   1.017   5.617
  150DPPC    O7 7457   4.980   1.048   5.478
  150DPPC    P8 7458   5.113   1.022   5.390
  150DPPC    O9 7459   5.140   0.883   5.434
  150DPPC   O10 7460   5.214   1.127   5.415
  150DPPC   O11 7461   5.047   1.019   5.244
  150DPPC   C12 7462   5.002   1.153   5.225
  150DPPC   C13 7463   4.873   1.186   5.149
  150DPPC   O14 7464   4.747   1.149   5.208
  150DPPC   C15 7465   4.662   1.251   5.235
  150DPPC   O16 7466   4.690   1.367   5.206
  150DPPC   C17 7467   4.520   1.216   5.280
  150DPPC   C18 7468   4.420   1.312   5.217
  150DPPC   C19 7469   4.340   1.228   5.117
  150DPPC   C20 7470   4.232   1.315   5.053
  150DPPC   C21 7471   4.136   1.244   4.958
  150DPPC   C22 7472   4.042   1.348   4.897
  150DPPC   C23 7473   3.910   1.271   4.880
  150DPPC   C24 7474   3.800   1.351   4.810
  150DPPC   C25 7475   3.687   1.260   4.761
  150DPPC   C26 7476   3.589   1.344   4.679
  150DPPC   C27 7477   3.471   1.250   4.650
  150DPPC   C28 7478   3.354   1.346   4.630
  150DPPC   C29 7479   3.233   1.281   4.563
  150DPPC   C30 7480   3.280   1.245   4.422
  150DPPC   C31 7481   3.167   1.163   4.358
  150DPPC   C32 7482   4.889   1.125   5.009
  150DPPC   O33 7483   5.007   1.162   4.937
  150DPPC   C34 7484   5.058   1.083   4.839
  150DPPC   O35 7485   5.020   0.966   4.835
  150DPPC   C36 7486   5.158   1.146   4.742
  150DPPC   C37 7487   5.090   1.181   4.609
  150DPPC   C38 7488   5.176   1.268   4.517
  150DPPC   C39 7489   5.107   1.300   4.384
  150DPPC   C40 7490   5.092   1.179   4.292
  150DPPC   C41 7491   5.011   1.228   4.172
  150DPPC   C42 7492   4.968   1.119   4.074
  150DPPC   C43 7493   4.836   1.151   4.002
  150DPPC   C44 7494   4.723   1.180   4.101
  150DPPC   C45 7495   4.589   1.188   4.028
  150DPPC   C46 7496   4.492   1.268   4.116
  150DPPC   C47 7497   4.351   1.237   4.067
  150DPPC   C48 7498   4.354   1.270   3.918
  150DPPC   C49 7499   4.212   1.274   3.861
  150DPPC   C50 7500   4.212   1.320   3.715
  151DPPC    C1 7501   0.944   0.973   5.061
  151DPPC    C2 7502   1.072   0.814   4.945
  151DPPC    C3 7503   0.964   0.756   5.152
  151DPPC    N4 7504   0.951   0.831   5.026
  151DPPC    C5 7505   0.840   0.800   4.934
  151DPPC    C6 7506   0.753   0.680   4.973
  151DPPC    O7 7507   0.660   0.638   4.873
  151DPPC    P8 7508   0.630   0.481   4.888
  151DPPC    O9 7509   0.494   0.435   4.851
  151DPPC   O10 7510   0.702   0.433   5.008
  151DPPC   O11 7511   0.712   0.458   4.751
  151DPPC   C12 7512   0.618   0.474   4.644
  151DPPC   C13 7513   0.671   0.502   4.503
  151DPPC   O14 7514   0.709   0.388   4.424
  151DPPC   C15 7515   0.825   0.321   4.444
  151DPPC   O16 7516   0.902   0.345   4.538
  151DPPC   C17 7517   0.846   0.206   4.346
  151DPPC   C18 7518   0.883   0.250   4.204
  151DPPC   C19 7519   0.910   0.128   4.114
  151DPPC   C20 7520   0.992   0.165   3.991
  151DPPC   C21 7521   0.915   0.255   3.894
  151DPPC   C22 7522   0.806   0.181   3.817
  151DPPC   C23 7523   0.866   0.084   3.715
  151DPPC   C24 7524   0.760   0.004   3.639
  151DPPC   C25 7525   0.667   0.096   3.560
  151DPPC   C26 7526   0.569   0.028   3.464
  151DPPC   C27 7527   0.506   0.129   3.368
  151DPPC   C28 7528   0.429   0.236   3.446
  151DPPC   C29 7529   0.338   0.335   3.373
  151DPPC   C30 7530   0.298   0.456   3.457
  151DPPC   C31 7531   0.226   0.570   3.384
  151DPPC   C32 7532   0.772   0.617   4.514
  151DPPC   O33 7533   0.703   0.731   4.568
  151DPPC   C34 7534   0.773   0.845   4.591
  151DPPC   O35 7535   0.895   0.839   4.580
  151DPPC   C36 7536   0.697   0.977   4.602
  151DPPC   C37 7537   0.626   1.002   4.469
  151DPPC   C38 7538   0.477   1.035   4.468
  151DPPC   C39 7539   0.416   1.015   4.329
  151DPPC   C40 7540   0.265   1.030   4.315
  151DPPC   C41 7541   0.226   1.017   4.167
  151DPPC   C42 7542   0.079   1.058   4.158
  151DPPC   C43 7543   0.028   1.066   4.014
  151DPPC   C44 7544   0.124   1.169   3.954
  151DPPC   C45 7545   0.098   1.320   3.966
  151DPPC   C46 7546   0.180   1.406   3.870
  151DPPC   C47 7547   0.130   1.398   3.726
  151DPPC   C48 7548  -0.002   1.474   3.707
  151DPPC   C49 7549  -0.040   1.489   3.559
  151DPPC   C50 7550  -0.186   1.531   3.542
  152DPPC    C1 7551   4.819   1.881   5.932
  152DPPC    C2 7552   5.031   1.894   5.810
  152DPPC    C3 7553   4.965   1.690   5.890
  152DPPC    N4 7554   4.910   1.815   5.837
  152DPPC    C5 7555   4.843   1.795   5.707
  152DPPC    C6 7556   4.733   1.694   5.676
  152DPPC    O7 7557   4.602   1.731   5.631
  152DPPC    P8 7558   4.498   1.608   5.621
  152DPPC    O9 7559   4.400   1.605   5.731
  152DPPC   O10 7560   4.569   1.489   5.569
  152DPPC   O11 7561   4.413   1.693   5.514
  152DPPC   C12 7562   4.487   1.704   5.392
  152DPPC   C13 7563   4.410   1.782   5.286
  152DPPC   O14 7564   4.415   1.719   5.157
  152DPPC   C15 7565   4.288   1.712   5.108
  152DPPC   O16 7566   4.194   1.689   5.183
  152DPPC   C17 7567   4.279   1.688   4.957
  152DPPC   C18 7568   4.314   1.816   4.881
  152DPPC   C19 7569   4.462   1.853   4.860
  152DPPC   C20 7570   4.462   1.984   4.782
  152DPPC   C21 7571   4.601   2.048   4.775
  152DPPC   C22 7572   4.642   2.080   4.631
  152DPPC   C23 7573   4.776   2.153   4.638
  152DPPC   C24 7574   4.823   2.181   4.495
  152DPPC   C25 7575   4.745   2.305   4.452
  152DPPC   C26 7576   4.775   2.330   4.304
  152DPPC   C27 7577   4.747   2.206   4.218
  152DPPC   C28 7578   4.867   2.172   4.129
  152DPPC   C29 7579   4.847   2.047   4.043
  152DPPC   C30 7580   4.936   2.035   3.919
  152DPPC   C31 7581   4.855   2.119   3.820
  152DPPC   C32 7582   4.431   1.934   5.291
  152DPPC   O33 7583   4.571   1.960   5.279
  152DPPC   C34 7584   4.613   2.084   5.241
  152DPPC   O35 7585   4.537   2.177   5.218
  152DPPC   C36 7586   4.756   2.089   5.187
  152DPPC   C37 7587   4.781   1.964   5.103
  152DPPC   C38 7588   4.919   1.966   5.035
  152DPPC   C39 7589   4.924   1.844   4.942
  152DPPC   C40 7590   5.049   1.873   4.860
  152DPPC   C41 7591   5.074   1.768   4.751
  152DPPC   C42 7592   4.961   1.785   4.648
  152DPPC   C43 7593   4.985   1.705   4.520
  152DPPC   C44 7594   4.894   1.750   4.406
  152DPPC   C45 7595   4.906   1.655   4.288
  152DPPC   C46 7596   4.835   1.710   4.163
  152DPPC   C47 7597   4.855   1.622   4.040
  152DPPC   C48 7598   4.750   1.655   3.934
  152DPPC   C49 7599   4.766   1.560   3.816
  152DPPC   C50 7600   4.647   1.562   3.721
  153DPPC    C1 7601   1.985   1.358   5.485
  153DPPC    C2 7602   2.146   1.226   5.595
  153DPPC    C3 7603   1.914   1.168   5.582
  153DPPC    N4 7604   2.029   1.219   5.506
  153DPPC    C5 7605   2.033   1.152   5.375
  153DPPC    C6 7606   2.073   1.004   5.379
  153DPPC    O7 7607   2.210   0.983   5.414
  153DPPC    P8 7608   2.217   0.835   5.478
  153DPPC    O9 7609   2.079   0.800   5.519
  153DPPC   O10 7610   2.337   0.827   5.563
  153DPPC   O11 7611   2.249   0.762   5.338
  153DPPC   C12 7612   2.376   0.802   5.286
  153DPPC   C13 7613   2.445   0.702   5.192
  153DPPC   O14 7614   2.565   0.750   5.131
  153DPPC   C15 7615   2.651   0.663   5.071
  153DPPC   O16 7616   2.648   0.544   5.101
  153DPPC   C17 7617   2.744   0.710   4.958
  153DPPC   C18 7618   2.694   0.657   4.824
  153DPPC   C19 7619   2.785   0.691   4.705
  153DPPC   C20 7620   2.723   0.637   4.576
  153DPPC   C21 7621   2.851   0.623   4.492
  153DPPC   C22 7622   2.836   0.537   4.366
  153DPPC   C23 7623   2.956   0.543   4.272
  153DPPC   C24 7624   2.917   0.461   4.149
  153DPPC   C25 7625   2.984   0.500   4.018
  153DPPC   C26 7626   2.942   0.430   3.888
  153DPPC   C27 7627   3.010   0.495   3.768
  153DPPC   C28 7628   2.972   0.433   3.633
  153DPPC   C29 7629   2.988   0.507   3.499
  153DPPC   C30 7630   2.904   0.440   3.390
  153DPPC   C31 7631   2.970   0.307   3.351
  153DPPC   C32 7632   2.335   0.670   5.091
  153DPPC   O33 7633   2.365   0.577   4.986
  153DPPC   C34 7634   2.262   0.523   4.915
  153DPPC   O35 7635   2.148   0.554   4.949
  153DPPC   C36 7636   2.287   0.454   4.781
  153DPPC   C37 7637   2.196   0.480   4.661
  153DPPC   C38 7638   2.254   0.418   4.534
  153DPPC   C39 7639   2.149   0.416   4.423
  153DPPC   C40 7640   2.160   0.532   4.324
  153DPPC   C41 7641   2.047   0.524   4.222
  153DPPC   C42 7642   2.050   0.644   4.128
  153DPPC   C43 7643   1.905   0.648   4.078
  153DPPC   C44 7644   1.802   0.680   4.186
  153DPPC   C45 7645   1.666   0.660   4.120
  153DPPC   C46 7646   1.563   0.737   4.203
  153DPPC   C47 7647   1.598   0.886   4.194
  153DPPC   C48 7648   1.510   0.981   4.275
  153DPPC   C49 7649   1.542   1.119   4.217
  153DPPC   C50 7650   1.447   1.217   4.286
  154DPPC    C1 7651   9.055   7.669   5.383
  154DPPC    C2 7652   9.143   7.882   5.349
  154DPPC    C3 7653   9.001   7.785   5.184
  154DPPC    N4 7654   9.022   7.802   5.329
  154DPPC    C5 7655   8.904   7.850   5.402
  154DPPC    C6 7656   8.848   7.992   5.390
  154DPPC    O7 7657   8.769   8.007   5.271
  154DPPC    P8 7658   8.745   8.162   5.236
  154DPPC    O9 7659   8.722   8.237   5.362
  154DPPC   O10 7660   8.656   8.185   5.119
  154DPPC   O11 7661   8.896   8.186   5.186
  154DPPC   C12 7662   8.901   8.239   5.053
  154DPPC   C13 7663   9.037   8.297   5.011
  154DPPC   O14 7664   9.032   8.376   4.891
  154DPPC   C15 7665   9.138   8.449   4.847
  154DPPC   O16 7666   9.240   8.474   4.912
  154DPPC   C17 7667   9.111   8.510   4.710
  154DPPC   C18 7668   9.199   8.627   4.666
  154DPPC   C19 7669   9.146   8.702   4.544
  154DPPC   C20 7670   9.248   8.800   4.486
  154DPPC   C21 7671   9.254   8.771   4.336
  154DPPC   C22 7672   9.111   8.808   4.294
  154DPPC   C23 7673   9.100   8.801   4.141
  154DPPC   C24 7674   8.959   8.816   4.083
  154DPPC   C25 7675   8.960   8.756   3.943
  154DPPC   C26 7676   8.823   8.788   3.882
  154DPPC   C27 7677   8.786   8.713   3.753
  154DPPC   C28 7678   8.875   8.760   3.638
  154DPPC   C29 7679   8.843   8.685   3.509
  154DPPC   C30 7680   8.860   8.537   3.543
  154DPPC   C31 7681   8.841   8.447   3.421
  154DPPC   C32 7682   9.114   8.167   4.987
  154DPPC   O33 7683   9.053   8.072   4.899
  154DPPC   C34 7684   9.116   7.962   4.851
  154DPPC   O35 7685   9.232   7.929   4.876
  154DPPC   C36 7686   9.035   7.877   4.752
  154DPPC   C37 7687   8.961   7.960   4.647
  154DPPC   C38 7688   8.892   7.873   4.542
  154DPPC   C39 7689   8.804   7.944   4.439
  154DPPC   C40 7690   8.733   7.844   4.348
  154DPPC   C41 7691   8.606   7.898   4.282
  154DPPC   C42 7692   8.553   7.833   4.154
  154DPPC   C43 7693   8.660   7.806   4.048
  154DPPC   C44 7694   8.616   7.733   3.921
  154DPPC   C45 7695   8.747   7.708   3.845
  154DPPC   C46 7696   8.748   7.568   3.784
  154DPPC   C47 7697   8.878   7.552   3.704
  154DPPC   C48 7698   8.881   7.645   3.582
  154DPPC   C49 7699   9.026   7.647   3.532
  154DPPC   C50 7700   9.054   7.731   3.407
  155DPPC    C1 7701   3.647   4.189   6.389
  155DPPC    C2 7702   3.607   3.950   6.382
  155DPPC    C3 7703   3.449   4.102   6.467
  155DPPC    N4 7704   3.548   4.083   6.361
  155DPPC    C5 7705   3.510   4.117   6.223
  155DPPC    C6 7706   3.397   4.041   6.155
  155DPPC    O7 7707   3.368   4.104   6.030
  155DPPC    P8 7708   3.232   4.053   5.961
  155DPPC    O9 7709   3.178   4.170   5.889
  155DPPC   O10 7710   3.163   3.966   6.060
  155DPPC   O11 7711   3.311   3.955   5.861
  155DPPC   C12 7712   3.404   4.017   5.772
  155DPPC   C13 7713   3.452   3.923   5.661
  155DPPC   O14 7714   3.537   3.998   5.573
  155DPPC   C15 7715   3.652   3.944   5.523
  155DPPC   O16 7716   3.727   3.887   5.601
  155DPPC   C17 7717   3.698   4.002   5.389
  155DPPC   C18 7718   3.611   3.969   5.268
  155DPPC   C19 7719   3.678   4.029   5.144
  155DPPC   C20 7720   3.609   3.991   5.013
  155DPPC   C21 7721   3.672   4.083   4.908
  155DPPC   C22 7722   3.566   4.092   4.798
  155DPPC   C23 7723   3.633   4.172   4.687
  155DPPC   C24 7724   3.558   4.173   4.554
  155DPPC   C25 7725   3.661   4.222   4.452
  155DPPC   C26 7726   3.628   4.209   4.303
  155DPPC   C27 7727   3.757   4.203   4.221
  155DPPC   C28 7728   3.731   4.179   4.072
  155DPPC   C29 7729   3.689   4.287   3.972
  155DPPC   C30 7730   3.677   4.225   3.832
  155DPPC   C31 7731   3.660   4.346   3.740
  155DPPC   C32 7732   3.331   3.863   5.590
  155DPPC   O33 7733   3.355   3.759   5.495
  155DPPC   C34 7734   3.246   3.705   5.433
  155DPPC   O35 7735   3.134   3.727   5.478
  155DPPC   C36 7736   3.277   3.602   5.324
  155DPPC   C37 7737   3.327   3.658   5.191
  155DPPC   C38 7738   3.334   3.543   5.090
  155DPPC   C39 7739   3.348   3.598   4.948
  155DPPC   C40 7740   3.357   3.483   4.847
  155DPPC   C41 7741   3.330   3.534   4.705
  155DPPC   C42 7742   3.352   3.408   4.620
  155DPPC   C43 7743   3.382   3.457   4.478
  155DPPC   C44 7744   3.402   3.352   4.369
  155DPPC   C45 7745   3.453   3.402   4.234
  155DPPC   C46 7746   3.478   3.286   4.138
  155DPPC   C47 7747   3.529   3.326   3.999
  155DPPC   C48 7748   3.574   3.198   3.929
  155DPPC   C49 7749   3.603   3.234   3.783
  155DPPC   C50 7750   3.486   3.264   3.690
  156DPPC    C1 7751   7.338   2.706   6.004
  156DPPC    C2 7752   7.117   2.697   6.101
  156DPPC    C3 7753   7.182   2.874   5.958
  156DPPC    N4 7754   7.195   2.730   5.981
  156DPPC    C5 7755   7.162   2.656   5.857
  156DPPC    C6 7756   7.181   2.505   5.854
  156DPPC    O7 7757   7.102   2.455   5.745
  156DPPC    P8 7758   7.155   2.307   5.712
  156DPPC    O9 7759   7.068   2.244   5.609
  156DPPC   O10 7760   7.201   2.244   5.838
  156DPPC   O11 7761   7.282   2.348   5.623
  156DPPC   C12 7762   7.241   2.443   5.524
  156DPPC   C13 7763   7.350   2.483   5.424
  156DPPC   O14 7764   7.305   2.569   5.318
  156DPPC   C15 7765   7.299   2.701   5.348
  156DPPC   O16 7766   7.317   2.725   5.468
  156DPPC   C17 7767   7.261   2.801   5.239
  156DPPC   C18 7768   7.358   2.815   5.121
  156DPPC   C19 7769   7.274   2.898   5.022
  156DPPC   C20 7770   7.148   2.821   4.982
  156DPPC   C21 7771   7.044   2.897   4.900
  156DPPC   C22 7772   6.949   2.793   4.840
  156DPPC   C23 7773   6.847   2.865   4.752
  156DPPC   C24 7774   6.931   2.940   4.649
  156DPPC   C25 7775   6.863   3.020   4.538
  156DPPC   C26 7776   6.766   3.125   4.591
  156DPPC   C27 7777   6.779   3.267   4.535
  156DPPC   C28 7778   6.666   3.291   4.434
  156DPPC   C29 7779   6.696   3.416   4.351
  156DPPC   C30 7780   6.585   3.438   4.248
  156DPPC   C31 7781   6.608   3.563   4.161
  156DPPC   C32 7782   7.440   2.362   5.397
  156DPPC   O33 7783   7.379   2.241   5.353
  156DPPC   C34 7784   7.465   2.138   5.333
  156DPPC   O35 7785   7.577   2.138   5.385
  156DPPC   C36 7786   7.419   2.018   5.250
  156DPPC   C37 7787   7.538   1.965   5.170
  156DPPC   C38 7788   7.500   1.843   5.085
  156DPPC   C39 7789   7.411   1.883   4.967
  156DPPC   C40 7790   7.360   1.765   4.884
  156DPPC   C41 7791   7.265   1.810   4.774
  156DPPC   C42 7792   7.130   1.854   4.832
  156DPPC   C43 7793   7.039   1.923   4.731
  156DPPC   C44 7794   6.889   1.938   4.759
  156DPPC   C45 7795   6.834   2.024   4.645
  156DPPC   C46 7796   6.682   2.009   4.647
  156DPPC   C47 7797   6.620   2.056   4.515
  156DPPC   C48 7798   6.645   1.944   4.414
  156DPPC   C49 7799   6.598   1.983   4.273
  156DPPC   C50 7800   6.635   2.124   4.228
  157DPPC    C1 7801   0.231   1.034   5.255
  157DPPC    C2 7802   0.146   1.208   5.371
  157DPPC    C3 7803   0.386   1.177   5.365
  157DPPC    N4 7804   0.261   1.174   5.287
  157DPPC    C5 7805   0.278   1.245   5.159
  157DPPC    C6 7806   0.314   1.393   5.166
  157DPPC    O7 7807   0.223   1.486   5.226
  157DPPC    P8 7808   0.310   1.596   5.305
  157DPPC    O9 7809   0.389   1.513   5.398
  157DPPC   O10 7810   0.206   1.698   5.337
  157DPPC   O11 7811   0.406   1.658   5.192
  157DPPC   C12 7812   0.338   1.767   5.131
  157DPPC   C13 7813   0.414   1.825   5.012
  157DPPC   O14 7814   0.359   1.942   4.949
  157DPPC   C15 7815   0.355   2.059   5.019
  157DPPC   O16 7816   0.387   2.070   5.137
  157DPPC   C17 7817   0.307   2.179   4.937
  157DPPC   C18 7818   0.329   2.170   4.786
  157DPPC   C19 7819   0.471   2.210   4.742
  157DPPC   C20 7820   0.476   2.196   4.590
  157DPPC   C21 7821   0.483   2.048   4.552
  157DPPC   C22 7822   0.508   2.036   4.401
  157DPPC   C23 7823   0.509   1.892   4.348
  157DPPC   C24 7824   0.509   1.903   4.195
  157DPPC   C25 7825   0.403   2.002   4.145
  157DPPC   C26 7826   0.391   1.993   3.993
  157DPPC   C27 7827   0.392   1.848   3.945
  157DPPC   C28 7828   0.391   1.854   3.792
  157DPPC   C29 7829   0.373   1.709   3.745
  157DPPC   C30 7830   0.358   1.694   3.593
  157DPPC   C31 7831   0.363   1.550   3.544
  157DPPC   C32 7832   0.422   1.707   4.915
  157DPPC   O33 7833   0.290   1.662   4.882
  157DPPC   C34 7834   0.277   1.556   4.797
  157DPPC   O35 7835   0.367   1.474   4.782
  157DPPC   C36 7836   0.136   1.534   4.742
  157DPPC   C37 7837   0.054   1.660   4.715
  157DPPC   C38 7838   0.125   1.762   4.625
  157DPPC   C39 7839   0.034   1.886   4.621
  157DPPC   C40 7840   0.087   1.999   4.533
  157DPPC   C41 7841  -0.025   2.088   4.478
  157DPPC   C42 7842  -0.124   2.008   4.394
  157DPPC   C43 7843  -0.230   2.090   4.320
  157DPPC   C44 7844  -0.329   2.011   4.234
  157DPPC   C45 7845  -0.411   2.111   4.153
  157DPPC   C46 7846  -0.501   2.037   4.054
  157DPPC   C47 7847  -0.586   2.144   3.985
  157DPPC   C48 7848  -0.511   2.239   3.890
  157DPPC   C49 7849  -0.607   2.342   3.830
  157DPPC   C50 7850  -0.701   2.265   3.737
  158DPPC    C1 7851   2.830   0.855   5.374
  158DPPC    C2 7852   2.919   0.630   5.427
  158DPPC    C3 7853   2.994   0.736   5.248
  158DPPC    N4 7854   2.947   0.767   5.384
  158DPPC    C5 7855   3.043   0.825   5.480
  158DPPC    C6 7856   3.142   0.937   5.446
  158DPPC    O7 7857   3.094   1.070   5.463
  158DPPC    P8 7858   3.214   1.154   5.531
  158DPPC    O9 7859   3.276   1.065   5.632
  158DPPC   O10 7860   3.185   1.297   5.556
  158DPPC   O11 7861   3.319   1.147   5.409
  158DPPC   C12 7862   3.276   1.238   5.308
  158DPPC   C13 7863   3.387   1.275   5.209
  158DPPC   O14 7864   3.373   1.404   5.149
  158DPPC   C15 7865   3.487   1.472   5.123
  158DPPC   O16 7866   3.601   1.428   5.139
  158DPPC   C17 7867   3.473   1.557   4.997
  158DPPC   C18 7868   3.413   1.695   5.028
  158DPPC   C19 7869   3.405   1.789   4.907
  158DPPC   C20 7870   3.334   1.725   4.788
  158DPPC   C21 7871   3.340   1.814   4.664
  158DPPC   C22 7872   3.238   1.752   4.567
  158DPPC   C23 7873   3.262   1.788   4.421
  158DPPC   C24 7874   3.163   1.720   4.326
  158DPPC   C25 7875   3.191   1.759   4.181
  158DPPC   C26 7876   3.099   1.682   4.086
  158DPPC   C27 7877   3.149   1.710   3.944
  158DPPC   C28 7878   3.064   1.644   3.836
  158DPPC   C29 7879   3.108   1.678   3.693
  158DPPC   C30 7880   3.253   1.643   3.659
  158DPPC   C31 7881   3.296   1.723   3.536
  158DPPC   C32 7882   3.410   1.157   5.114
  158DPPC   O33 7883   3.294   1.104   5.048
  158DPPC   C34 7884   3.328   1.006   4.959
  158DPPC   O35 7885   3.440   0.959   4.945
  158DPPC   C36 7886   3.204   0.978   4.873
  158DPPC   C37 7887   3.144   0.842   4.908
  158DPPC   C38 7888   3.211   0.720   4.845
  158DPPC   C39 7889   3.123   0.596   4.832
  158DPPC   C40 7890   3.194   0.511   4.726
  158DPPC   C41 7891   3.217   0.590   4.597
  158DPPC   C42 7892   3.291   0.494   4.504
  158DPPC   C43 7893   3.329   0.563   4.373
  158DPPC   C44 7894   3.434   0.670   4.404
  158DPPC   C45 7895   3.518   0.713   4.284
  158DPPC   C46 7896   3.600   0.833   4.333
  158DPPC   C47 7897   3.692   0.888   4.224
  158DPPC   C48 7898   3.776   1.007   4.270
  158DPPC   C49 7899   3.876   1.052   4.163
  158DPPC   C50 7900   3.971   0.936   4.133
  159DPPC    C1 7901   3.479   8.299   4.778
  159DPPC    C2 7902   3.397   8.073   4.764
  159DPPC    C3 7903   3.558   8.128   4.923
  159DPPC    N4 7904   3.438   8.181   4.856
  159DPPC    C5 7905   3.320   8.205   4.940
  159DPPC    C6 7906   3.288   8.335   5.014
  159DPPC    O7 7907   3.225   8.436   4.934
  159DPPC    P8 7908   3.231   8.577   5.011
  159DPPC    O9 7909   3.230   8.540   5.154
  159DPPC   O10 7910   3.126   8.659   4.947
  159DPPC   O11 7911   3.377   8.615   4.953
  159DPPC   C12 7912   3.384   8.728   4.865
  159DPPC   C13 7913   3.525   8.760   4.813
  159DPPC   O14 7914   3.552   8.897   4.782
  159DPPC   C15 7915   3.565   8.998   4.873
  159DPPC   O16 7916   3.545   8.973   4.992
  159DPPC   C17 7917   3.585   9.139   4.819
  159DPPC   C18 7918   3.708   9.158   4.730
  159DPPC   C19 7919   3.729   9.302   4.685
  159DPPC   C20 7920   3.875   9.332   4.652
  159DPPC   C21 7921   3.894   9.477   4.608
  159DPPC   C22 7922   4.045   9.505   4.612
  159DPPC   C23 7923   4.124   9.488   4.481
  159DPPC   C24 7924   4.272   9.513   4.507
  159DPPC   C25 7925   4.351   9.514   4.376
  159DPPC   C26 7926   4.348   9.374   4.314
  159DPPC   C27 7927   4.398   9.381   4.170
  159DPPC   C28 7928   4.364   9.244   4.111
  159DPPC   C29 7929   4.446   9.205   3.988
  159DPPC   C30 7930   4.433   9.306   3.873
  159DPPC   C31 7931   4.299   9.320   3.801
  159DPPC   C32 7932   3.551   8.663   4.697
  159DPPC   O33 7933   3.461   8.675   4.587
  159DPPC   C34 7934   3.496   8.595   4.483
  159DPPC   O35 7935   3.592   8.518   4.484
  159DPPC   C36 7936   3.403   8.616   4.363
  159DPPC   C37 7937   3.484   8.667   4.244
  159DPPC   C38 7938   3.386   8.748   4.159
  159DPPC   C39 7939   3.459   8.803   4.036
  159DPPC   C40 7940   3.368   8.810   3.913
  159DPPC   C41 7941   3.450   8.873   3.800
  159DPPC   C42 7942   3.552   8.779   3.737
  159DPPC   C43 7943   3.612   8.859   3.621
  159DPPC   C44 7944   3.714   8.774   3.546
  159DPPC   C45 7945   3.761   8.838   3.415
  159DPPC   C46 7946   3.645   8.888   3.330
  159DPPC   C47 7947   3.710   8.999   3.247
  159DPPC   C48 7948   3.843   8.944   3.194
  159DPPC   C49 7949   3.911   9.065   3.131
  159DPPC   C50 7950   3.831   9.125   3.015
  160DPPC    C1 7951   0.974   3.532   5.657
  160DPPC    C2 7952   0.879   3.434   5.464
  160DPPC    C3 7953   0.977   3.637   5.438
  160DPPC    N4 7954   0.994   3.511   5.513
  160DPPC    C5 7955   1.118   3.436   5.486
  160DPPC    C6 7956   1.253   3.493   5.530
  160DPPC    O7 7957   1.368   3.424   5.482
  160DPPC    P8 7958   1.507   3.501   5.509
  160DPPC    O9 7959   1.610   3.401   5.548
  160DPPC   O10 7960   1.464   3.615   5.593
  160DPPC   O11 7961   1.520   3.546   5.355
  160DPPC   C12 7962   1.562   3.431   5.281
  160DPPC   C13 7963   1.583   3.447   5.130
  160DPPC   O14 7964   1.715   3.410   5.089
  160DPPC   C15 7965   1.730   3.290   5.026
  160DPPC   O16 7966   1.667   3.197   5.076
  160DPPC   C17 7967   1.860   3.278   4.946
  160DPPC   C18 7968   1.832   3.214   4.810
  160DPPC   C19 7969   1.966   3.216   4.737
  160DPPC   C20 7970   1.972   3.123   4.616
  160DPPC   C21 7971   1.981   2.975   4.653
  160DPPC   C22 7972   1.972   2.890   4.525
  160DPPC   C23 7973   1.843   2.919   4.447
  160DPPC   C24 7974   1.805   2.797   4.363
  160DPPC   C25 7975   1.674   2.817   4.288
  160DPPC   C26 7976   1.638   2.715   4.179
  160DPPC   C27 7977   1.733   2.712   4.059
  160DPPC   C28 7978   1.673   2.623   3.950
  160DPPC   C29 7979   1.774   2.637   3.836
  160DPPC   C30 7980   1.714   2.556   3.721
  160DPPC   C31 7981   1.794   2.533   3.592
  160DPPC   C32 7982   1.538   3.592   5.106
  160DPPC   O33 7983   1.518   3.634   4.971
  160DPPC   C34 7984   1.535   3.769   4.970
  160DPPC   O35 7985   1.570   3.828   5.072
  160DPPC   C36 7986   1.502   3.840   4.838
  160DPPC   C37 7987   1.491   3.733   4.730
  160DPPC   C38 7988   1.469   3.789   4.589
  160DPPC   C39 7989   1.415   3.676   4.501
  160DPPC   C40 7990   1.405   3.708   4.352
  160DPPC   C41 7991   1.320   3.603   4.280
  160DPPC   C42 7992   1.276   3.650   4.141
  160DPPC   C43 7993   1.190   3.547   4.069
  160DPPC   C44 7994   1.112   3.607   3.951
  160DPPC   C45 7995   1.162   3.562   3.813
  160DPPC   C46 7996   1.084   3.611   3.691
  160DPPC   C47 7997   1.144   3.542   3.569
  160DPPC   C48 7998   1.078   3.599   3.444
  160DPPC   C49 7999   1.128   3.541   3.311
  160DPPC   C50 8000   1.280   3.555   3.298
  161DPPC    C1 8001   4.623   5.722   5.659
  161DPPC    C2 8002   4.400   5.663   5.686
  161DPPC    C3 8003   4.494   5.858   5.808
  161DPPC    N4 8004   4.490   5.779   5.684
  161DPPC    C5 8005   4.476   5.858   5.561
  161DPPC    C6 8006   4.370   5.969   5.563
  161DPPC    O7 8007   4.377   6.038   5.438
  161DPPC    P8 8008   4.235   6.108   5.408
  161DPPC    O9 8009   4.241   6.255   5.411
  161DPPC   O10 8010   4.130   6.024   5.470
  161DPPC   O11 8011   4.252   6.080   5.251
  161DPPC   C12 8012   4.345   6.167   5.185
  161DPPC   C13 8013   4.379   6.116   5.045
  161DPPC   O14 8014   4.292   6.146   4.935
  161DPPC   C15 8015   4.261   6.274   4.903
  161DPPC   O16 8016   4.283   6.372   4.975
  161DPPC   C17 8017   4.175   6.304   4.780
  161DPPC   C18 8018   4.152   6.454   4.756
  161DPPC   C19 8019   4.080   6.471   4.622
  161DPPC   C20 8020   3.951   6.390   4.629
  161DPPC   C21 8021   3.896   6.391   4.486
  161DPPC   C22 8022   4.007   6.337   4.396
  161DPPC   C23 8023   3.960   6.273   4.266
  161DPPC   C24 8024   4.064   6.183   4.199
  161DPPC   C25 8025   4.017   6.147   4.058
  161DPPC   C26 8026   4.123   6.066   3.982
  161DPPC   C27 8027   4.054   6.011   3.857
  161DPPC   C28 8028   4.044   6.102   3.734
  161DPPC   C29 8029   4.014   6.021   3.608
  161DPPC   C30 8030   3.887   5.941   3.637
  161DPPC   C31 8031   3.763   6.027   3.610
  161DPPC   C32 8032   4.413   5.969   5.072
  161DPPC   O33 8033   4.505   5.899   4.988
  161DPPC   C34 8034   4.512   5.765   5.011
  161DPPC   O35 8035   4.447   5.713   5.102
  161DPPC   C36 8036   4.585   5.679   4.907
  161DPPC   C37 8037   4.542   5.721   4.766
  161DPPC   C38 8038   4.650   5.675   4.668
  161DPPC   C39 8039   4.621   5.744   4.535
  161DPPC   C40 8040   4.706   5.691   4.420
  161DPPC   C41 8041   4.698   5.769   4.288
  161DPPC   C42 8042   4.808   5.711   4.198
  161DPPC   C43 8043   4.806   5.772   4.058
  161DPPC   C44 8044   4.921   5.718   3.972
  161DPPC   C45 8045   5.049   5.795   4.002
  161DPPC   C46 8046   5.153   5.751   3.900
  161DPPC   C47 8047   5.288   5.822   3.918
  161DPPC   C48 8048   5.389   5.756   3.825
  161DPPC   C49 8049   5.531   5.806   3.855
  161DPPC   C50 8050   5.527   5.958   3.852
  162DPPC    C1 8051   6.154   6.167   5.082
  162DPPC    C2 8052   6.387   6.129   5.111
  162DPPC    C3 8053   6.266   6.225   5.292
  162DPPC    N4 8054   6.258   6.131   5.180
  162DPPC    C5 8055   6.247   5.997   5.240
  162DPPC    C6 8056   6.196   5.883   5.152
  162DPPC    O7 8057   6.272   5.852   5.035
  162DPPC    P8 8058   6.200   5.734   4.951
  162DPPC    O9 8059   6.086   5.822   4.916
  162DPPC   O10 8060   6.198   5.620   5.045
  162DPPC   O11 8061   6.319   5.729   4.842
  162DPPC   C12 8062   6.292   5.841   4.757
  162DPPC   C13 8063   6.404   5.885   4.663
  162DPPC   O14 8064   6.381   5.838   4.530
  162DPPC   C15 8065   6.291   5.911   4.458
  162DPPC   O16 8066   6.210   5.985   4.512
  162DPPC   C17 8067   6.304   5.913   4.306
  162DPPC   C18 8068   6.422   5.826   4.261
  162DPPC   C19 8069   6.451   5.847   4.112
  162DPPC   C20 8070   6.332   5.822   4.019
  162DPPC   C21 8071   6.371   5.832   3.872
  162DPPC   C22 8072   6.398   5.978   3.834
  162DPPC   C23 8073   6.443   5.979   3.688
  162DPPC   C24 8074   6.448   6.120   3.629
  162DPPC   C25 8075   6.531   6.130   3.501
  162DPPC   C26 8076   6.666   6.060   3.523
  162DPPC   C27 8077   6.735   6.084   3.388
  162DPPC   C28 8078   6.662   6.009   3.277
  162DPPC   C29 8079   6.634   5.859   3.294
  162DPPC   C30 8080   6.495   5.831   3.237
  162DPPC   C31 8081   6.490   5.836   3.084
  162DPPC   C32 8082   6.531   5.831   4.729
  162DPPC   O33 8083   6.651   5.885   4.673
  162DPPC   C34 8084   6.767   5.815   4.693
  162DPPC   O35 8085   6.761   5.721   4.772
  162DPPC   C36 8086   6.890   5.869   4.621
  162DPPC   C37 8087   6.930   5.785   4.499
  162DPPC   C38 8088   6.844   5.815   4.376
  162DPPC   C39 8089   6.909   5.753   4.252
  162DPPC   C40 8090   6.828   5.768   4.123
  162DPPC   C41 8091   6.908   5.717   4.003
  162DPPC   C42 8092   6.819   5.722   3.878
  162DPPC   C43 8093   6.889   5.669   3.753
  162DPPC   C44 8094   6.823   5.685   3.616
  162DPPC   C45 8095   6.912   5.638   3.500
  162DPPC   C46 8096   7.023   5.737   3.462
  162DPPC   C47 8097   7.107   5.679   3.349
  162DPPC   C48 8098   7.223   5.774   3.320
  162DPPC   C49 8099   7.175   5.865   3.206
  162DPPC   C50 8100   7.290   5.964   3.186
  163DPPC    C1 8101   6.131   5.129   1.239
  163DPPC    C2 8102   6.114   5.199   1.467
  163DPPC    C3 8103   5.960   5.041   1.366
  163DPPC    N4 8104   6.100   5.084   1.376
  163DPPC    C5 8105   6.195   4.981   1.418
  163DPPC    C6 8106   6.177   4.896   1.544
  163DPPC    O7 8107   6.291   4.816   1.577
  163DPPC    P8 8108   6.242   4.699   1.677
  163DPPC    O9 8109   6.355   4.615   1.723
  163DPPC   O10 8110   6.124   4.629   1.622
  163DPPC   O11 8111   6.178   4.789   1.794
  163DPPC   C12 8112   6.278   4.815   1.893
  163DPPC   C13 8113   6.230   4.932   1.978
  163DPPC   O14 8114   6.336   4.987   2.058
  163DPPC   C15 8115   6.435   5.058   1.998
  163DPPC   O16 8116   6.446   5.056   1.876
  163DPPC   C17 8117   6.553   5.107   2.083
  163DPPC   C18 8118   6.514   5.239   2.149
  163DPPC   C19 8119   6.633   5.288   2.232
  163DPPC   C20 8120   6.603   5.418   2.308
  163DPPC   C21 8121   6.708   5.423   2.419
  163DPPC   C22 8122   6.704   5.562   2.483
  163DPPC   C23 8123   6.567   5.612   2.528
  163DPPC   C24 8124   6.594   5.743   2.601
  163DPPC   C25 8125   6.642   5.853   2.506
  163DPPC   C26 8126   6.659   5.982   2.588
  163DPPC   C27 8127   6.750   5.953   2.707
  163DPPC   C28 8128   6.753   6.072   2.803
  163DPPC   C29 8129   6.862   6.064   2.910
  163DPPC   C30 8130   6.902   6.201   2.966
  163DPPC   C31 8131   7.007   6.201   3.077
  163DPPC   C32 8132   6.111   4.877   2.056
  163DPPC   O33 8133   6.036   4.990   2.102
  163DPPC   C34 8134   5.926   4.948   2.170
  163DPPC   O35 8135   5.904   4.827   2.169
  163DPPC   C36 8136   5.844   5.046   2.254
  163DPPC   C37 8137   5.867   5.046   2.405
  163DPPC   C38 8138   5.775   5.150   2.468
  163DPPC   C39 8139   5.801   5.159   2.619
  163DPPC   C40 8140   5.693   5.246   2.683
  163DPPC   C41 8141   5.692   5.224   2.834
  163DPPC   C42 8142   5.592   5.323   2.894
  163DPPC   C43 8143   5.590   5.330   3.046
  163DPPC   C44 8144   5.545   5.465   3.105
  163DPPC   C45 8145   5.580   5.471   3.253
  163DPPC   C46 8146   5.554   5.616   3.294
  163DPPC   C47 8147   5.579   5.644   3.442
  163DPPC   C48 8148   5.585   5.795   3.464
  163DPPC   C49 8149   5.682   5.848   3.358
  163DPPC   C50 8150   5.698   5.998   3.333
  164DPPC    C1 8151   2.542   2.248   2.225
  164DPPC    C2 8152   2.735   2.244   2.367
  164DPPC    C3 8153   2.647   2.041   2.294
  164DPPC    N4 8154   2.670   2.180   2.252
  164DPPC    C5 8155   2.754   2.174   2.132
  164DPPC    C6 8156   2.794   2.288   2.038
  164DPPC    O7 8157   2.884   2.374   2.107
  164DPPC    P8 8158   2.915   2.492   2.001
  164DPPC    O9 8159   2.779   2.526   1.954
  164DPPC   O10 8160   3.019   2.423   1.922
  164DPPC   O11 8161   2.985   2.595   2.103
  164DPPC   C12 8162   2.898   2.615   2.215
  164DPPC   C13 8163   2.981   2.682   2.325
  164DPPC   O14 8164   2.916   2.707   2.450
  164DPPC   C15 8165   2.921   2.601   2.535
  164DPPC   O16 8166   2.959   2.487   2.507
  164DPPC   C17 8167   2.847   2.608   2.669
  164DPPC   C18 8168   2.904   2.518   2.779
  164DPPC   C19 8169   2.829   2.526   2.912
  164DPPC   C20 8170   2.707   2.434   2.910
  164DPPC   C21 8171   2.609   2.472   3.021
  164DPPC   C22 8172   2.563   2.618   3.019
  164DPPC   C23 8173   2.422   2.613   3.076
  164DPPC   C24 8174   2.456   2.604   3.224
  164DPPC   C25 8175   2.330   2.617   3.311
  164DPPC   C26 8176   2.350   2.608   3.463
  164DPPC   C27 8177   2.220   2.612   3.543
  164DPPC   C28 8178   2.229   2.591   3.694
  164DPPC   C29 8179   2.319   2.695   3.760
  164DPPC   C30 8180   2.251   2.831   3.748
  164DPPC   C31 8181   2.337   2.946   3.801
  164DPPC   C32 8182   3.045   2.802   2.255
  164DPPC   O33 8183   2.953   2.907   2.223
  164DPPC   C34 8184   3.002   3.010   2.149
  164DPPC   O35 8185   3.120   3.011   2.114
  164DPPC   C36 8186   2.919   3.138   2.142
  164DPPC   C37 8187   2.922   3.202   2.281
  164DPPC   C38 8188   2.787   3.272   2.295
  164DPPC   C39 8189   2.771   3.361   2.419
  164DPPC   C40 8190   2.751   3.256   2.529
  164DPPC   C41 8191   2.726   3.330   2.660
  164DPPC   C42 8192   2.748   3.233   2.776
  164DPPC   C43 8193   2.723   3.297   2.912
  164DPPC   C44 8194   2.745   3.190   3.020
  164DPPC   C45 8195   2.741   3.250   3.161
  164DPPC   C46 8196   2.787   3.140   3.256
  164DPPC   C47 8197   2.818   3.205   3.391
  164DPPC   C48 8198   2.849   3.105   3.502
  164DPPC   C49 8199   2.741   3.014   3.560
  164DPPC   C50 8200   2.794   2.978   3.699
  165DPPC    C1 8201   0.109   3.380   1.235
  165DPPC    C2 8202   0.290   3.502   1.360
  165DPPC    C3 8203   0.076   3.589   1.337
  165DPPC    N4 8204   0.149   3.462   1.350
  165DPPC    C5 8205   0.100   3.387   1.467
  165DPPC    C6 8206   0.163   3.250   1.493
  165DPPC    O7 8207   0.084   3.140   1.446
  165DPPC    P8 8208   0.168   3.005   1.422
  165DPPC    O9 8209   0.272   3.061   1.332
  165DPPC   O10 8210   0.065   2.903   1.390
  165DPPC   O11 8211   0.220   2.990   1.573
  165DPPC   C12 8212   0.108   2.947   1.652
  165DPPC   C13 8213   0.111   2.999   1.796
  165DPPC   O14 8214   0.107   3.141   1.817
  165DPPC   C15 8215  -0.014   3.196   1.847
  165DPPC   O16 8216  -0.121   3.141   1.822
  165DPPC   C17 8217  -0.007   3.346   1.875
  165DPPC   C18 8218   0.064   3.383   2.005
  165DPPC   C19 8219  -0.018   3.352   2.131
  165DPPC   C20 8220   0.040   3.400   2.264
  165DPPC   C21 8221  -0.061   3.391   2.378
  165DPPC   C22 8222  -0.007   3.396   2.521
  165DPPC   C23 8223  -0.123   3.378   2.619
  165DPPC   C24 8224  -0.046   3.379   2.751
  165DPPC   C25 8225  -0.135   3.317   2.858
  165DPPC   C26 8226  -0.085   3.385   2.986
  165DPPC   C27 8227  -0.147   3.305   3.101
  165DPPC   C28 8228  -0.300   3.296   3.091
  165DPPC   C29 8229  -0.363   3.240   3.219
  165DPPC   C30 8230  -0.427   3.348   3.306
  165DPPC   C31 8231  -0.485   3.277   3.429
  165DPPC   C32 8232   0.240   2.940   1.855
  165DPPC   O33 8233   0.236   2.887   1.988
  165DPPC   C34 8234   0.192   2.760   2.004
  165DPPC   O35 8235   0.210   2.680   1.912
  165DPPC   C36 8236   0.201   2.715   2.150
  165DPPC   C37 8237   0.148   2.574   2.175
  165DPPC   C38 8238   0.189   2.551   2.321
  165DPPC   C39 8239   0.061   2.512   2.396
  165DPPC   C40 8240   0.079   2.525   2.547
  165DPPC   C41 8241  -0.044   2.484   2.628
  165DPPC   C42 8242  -0.027   2.515   2.777
  165DPPC   C43 8243  -0.145   2.485   2.869
  165DPPC   C44 8244  -0.133   2.579   2.989
  165DPPC   C45 8245  -0.246   2.541   3.085
  165DPPC   C46 8246  -0.237   2.630   3.209
  165DPPC   C47 8247  -0.343   2.578   3.305
  165DPPC   C48 8248  -0.321   2.436   3.358
  165DPPC   C49 8249  -0.427   2.375   3.450
  165DPPC   C50 8250  -0.372   2.247   3.513
  166DPPC    C1 8251   2.272   3.434   1.239
  166DPPC    C2 8252   2.495   3.460   1.338
  166DPPC    C3 8253   2.317   3.362   1.461
  166DPPC    N4 8254   2.374   3.376   1.326
  166DPPC    C5 8255   2.430   3.248   1.278
  166DPPC    C6 8256   2.370   3.112   1.312
  166DPPC    O7 8257   2.242   3.106   1.248
  166DPPC    P8 8258   2.162   2.972   1.286
  166DPPC    O9 8259   2.254   2.857   1.268
  166DPPC   O10 8260   2.030   2.974   1.220
  166DPPC   O11 8261   2.132   3.015   1.439
  166DPPC   C12 8262   2.038   2.918   1.486
  166DPPC   C13 8263   1.978   2.950   1.623
  166DPPC   O14 8264   1.861   2.874   1.657
  166DPPC   C15 8265   1.870   2.744   1.694
  166DPPC   O16 8266   1.976   2.682   1.706
  166DPPC   C17 8267   1.742   2.693   1.761
  166DPPC   C18 8268   1.772   2.656   1.906
  166DPPC   C19 8269   1.655   2.582   1.970
  166DPPC   C20 8270   1.669   2.601   2.121
  166DPPC   C21 8271   1.598   2.498   2.209
  166DPPC   C22 8272   1.627   2.523   2.357
  166DPPC   C23 8273   1.601   2.666   2.407
  166DPPC   C24 8274   1.599   2.667   2.560
  166DPPC   C25 8275   1.645   2.806   2.604
  166DPPC   C26 8276   1.665   2.811   2.756
  166DPPC   C27 8277   1.534   2.766   2.821
  166DPPC   C28 8278   1.556   2.758   2.972
  166DPPC   C29 8279   1.440   2.673   3.022
  166DPPC   C30 8280   1.423   2.675   3.174
  166DPPC   C31 8281   1.311   2.574   3.202
  166DPPC   C32 8282   1.966   3.103   1.619
  166DPPC   O33 8283   1.932   3.172   1.739
  166DPPC   C34 8284   1.940   3.308   1.730
  166DPPC   O35 8285   2.010   3.367   1.648
  166DPPC   C36 8286   1.863   3.392   1.832
  166DPPC   C37 8287   1.956   3.426   1.949
  166DPPC   C38 8288   1.896   3.516   2.056
  166DPPC   C39 8289   2.004   3.522   2.165
  166DPPC   C40 8290   1.943   3.620   2.266
  166DPPC   C41 8291   2.027   3.618   2.394
  166DPPC   C42 8292   1.926   3.602   2.508
  166DPPC   C43 8293   1.983   3.607   2.650
  166DPPC   C44 8294   1.875   3.560   2.748
  166DPPC   C45 8295   1.843   3.670   2.850
  166DPPC   C46 8296   1.817   3.807   2.788
  166DPPC   C47 8297   1.797   3.908   2.901
  166DPPC   C48 8298   1.918   3.930   2.993
  166DPPC   C49 8299   1.885   4.030   3.105
  166DPPC   C50 8300   2.003   4.041   3.201
  167DPPC    C1 8301   2.241   2.330   1.374
  167DPPC    C2 8302   2.417   2.188   1.452
  167DPPC    C3 8303   2.393   2.412   1.526
  167DPPC    N4 8304   2.318   2.290   1.492
  167DPPC    C5 8305   2.235   2.247   1.606
  167DPPC    C6 8306   2.133   2.134   1.593
  167DPPC    O7 8307   2.202   2.011   1.614
  167DPPC    P8 8308   2.095   1.897   1.576
  167DPPC    O9 8309   2.180   1.779   1.550
  167DPPC   O10 8310   2.015   1.963   1.470
  167DPPC   O11 8311   2.033   1.926   1.722
  167DPPC   C12 8312   2.105   1.876   1.835
  167DPPC   C13 8313   2.033   1.911   1.965
  167DPPC   O14 8314   1.918   1.831   1.994
  167DPPC   C15 8315   1.938   1.703   2.036
  167DPPC   O16 8316   2.033   1.637   1.996
  167DPPC   C17 8317   1.835   1.655   2.138
  167DPPC   C18 8318   1.889   1.672   2.280
  167DPPC   C19 8319   1.806   1.617   2.397
  167DPPC   C20 8320   1.857   1.658   2.535
  167DPPC   C21 8321   2.005   1.625   2.554
  167DPPC   C22 8322   2.062   1.711   2.667
  167DPPC   C23 8323   2.200   1.643   2.664
  167DPPC   C24 8324   2.279   1.740   2.751
  167DPPC   C25 8325   2.395   1.672   2.824
  167DPPC   C26 8326   2.336   1.588   2.937
  167DPPC   C27 8327   2.435   1.512   3.026
  167DPPC   C28 8328   2.391   1.377   3.083
  167DPPC   C29 8329   2.511   1.323   3.161
  167DPPC   C30 8330   2.471   1.202   3.245
  167DPPC   C31 8331   2.352   1.245   3.330
  167DPPC   C32 8332   2.020   2.063   1.950
  167DPPC   O33 8333   2.022   2.134   2.074
  167DPPC   C34 8334   1.955   2.253   2.076
  167DPPC   O35 8335   1.880   2.294   1.988
  167DPPC   C36 8336   1.954   2.330   2.208
  167DPPC   C37 8337   2.068   2.431   2.218
  167DPPC   C38 8338   2.034   2.531   2.328
  167DPPC   C39 8339   2.018   2.462   2.463
  167DPPC   C40 8340   2.016   2.577   2.564
  167DPPC   C41 8341   2.020   2.541   2.713
  167DPPC   C42 8342   2.016   2.668   2.799
  167DPPC   C43 8343   1.975   2.634   2.943
  167DPPC   C44 8344   1.952   2.756   3.033
  167DPPC   C45 8345   1.922   2.720   3.179
  167DPPC   C46 8346   1.921   2.851   3.257
  167DPPC   C47 8347   1.854   2.839   3.394
  167DPPC   C48 8348   1.890   2.966   3.472
  167DPPC   C49 8349   1.817   2.959   3.606
  167DPPC   C50 8350   1.876   3.053   3.710
  168DPPC    C1 8351   2.750   8.043   1.332
  168DPPC    C2 8352   2.529   8.004   1.254
  168DPPC    C3 8353   2.591   7.949   1.477
  168DPPC    N4 8354   2.608   8.048   1.370
  168DPPC    C5 8355   2.575   8.184   1.412
  168DPPC    C6 8356   2.640   8.258   1.529
  168DPPC    O7 8357   2.609   8.398   1.536
  168DPPC    P8 8358   2.697   8.467   1.651
  168DPPC    O9 8359   2.680   8.614   1.653
  168DPPC   O10 8360   2.826   8.399   1.625
  168DPPC   O11 8361   2.654   8.386   1.784
  168DPPC   C12 8362   2.532   8.439   1.838
  168DPPC   C13 8363   2.501   8.392   1.980
  168DPPC   O14 8364   2.374   8.443   2.024
  168DPPC   C15 8365   2.265   8.364   2.010
  168DPPC   O16 8366   2.251   8.303   1.904
  168DPPC   C17 8367   2.146   8.380   2.104
  168DPPC   C18 8368   2.132   8.527   2.144
  168DPPC   C19 8369   2.061   8.537   2.280
  168DPPC   C20 8370   2.038   8.686   2.305
  168DPPC   C21 8371   1.977   8.726   2.440
  168DPPC   C22 8372   1.895   8.854   2.421
  168DPPC   C23 8373   1.842   8.907   2.554
  168DPPC   C24 8374   1.725   8.827   2.612
  168DPPC   C25 8375   1.675   8.893   2.740
  168DPPC   C26 8376   1.597   8.796   2.829
  168DPPC   C27 8377   1.681   8.670   2.852
  168DPPC   C28 8378   1.631   8.556   2.942
  168DPPC   C29 8379   1.481   8.530   2.939
  168DPPC   C30 8380   1.459   8.423   3.046
  168DPPC   C31 8381   1.309   8.396   3.054
  168DPPC   C32 8382   2.622   8.440   2.059
  168DPPC   O33 8383   2.648   8.581   2.049
  168DPPC   C34 8384   2.777   8.623   2.058
  168DPPC   O35 8385   2.866   8.547   2.094
  168DPPC   C36 8386   2.789   8.774   2.040
  168DPPC   C37 8387   2.751   8.855   2.164
  168DPPC   C38 8388   2.755   8.998   2.110
  168DPPC   C39 8389   2.726   9.102   2.218
  168DPPC   C40 8390   2.810   9.079   2.343
  168DPPC   C41 8391   2.779   9.184   2.451
  168DPPC   C42 8392   2.863   9.156   2.575
  168DPPC   C43 8393   2.860   9.275   2.671
  168DPPC   C44 8394   2.946   9.254   2.796
  168DPPC   C45 8395   3.094   9.225   2.774
  168DPPC   C46 8396   3.168   9.231   2.908
  168DPPC   C47 8397   3.313   9.183   2.901
  168DPPC   C48 8398   3.379   9.283   2.806
  168DPPC   C49 8399   3.529   9.253   2.803
  168DPPC   C50 8400   3.573   9.150   2.699
  169DPPC    C1 8401   0.091   2.570   1.614
  169DPPC    C2 8402   0.309   2.512   1.598
  169DPPC    C3 8403   0.151   2.358   1.499
  169DPPC    N4 8404   0.183   2.500   1.523
  169DPPC    C5 8405   0.185   2.582   1.401
  169DPPC    C6 8406   0.279   2.557   1.283
  169DPPC    O7 8407   0.411   2.611   1.296
  169DPPC    P8 8408   0.432   2.757   1.231
  169DPPC    O9 8409   0.319   2.801   1.147
  169DPPC   O10 8410   0.566   2.736   1.171
  169DPPC   O11 8411   0.452   2.818   1.379
  169DPPC   C12 8412   0.580   2.789   1.437
  169DPPC   C13 8413   0.602   2.862   1.570
  169DPPC   O14 8414   0.550   2.801   1.688
  169DPPC   C15 8415   0.637   2.742   1.775
  169DPPC   O16 8416   0.740   2.690   1.733
  169DPPC   C17 8417   0.581   2.695   1.909
  169DPPC   C18 8418   0.648   2.567   1.959
  169DPPC   C19 8419   0.644   2.553   2.112
  169DPPC   C20 8420   0.717   2.428   2.159
  169DPPC   C21 8421   0.629   2.303   2.146
  169DPPC   C22 8422   0.514   2.322   2.245
  169DPPC   C23 8423   0.572   2.312   2.387
  169DPPC   C24 8424   0.462   2.339   2.490
  169DPPC   C25 8425   0.515   2.332   2.633
  169DPPC   C26 8426   0.408   2.347   2.741
  169DPPC   C27 8427   0.350   2.206   2.750
  169DPPC   C28 8428   0.237   2.205   2.852
  169DPPC   C29 8429   0.282   2.213   2.998
  169DPPC   C30 8430   0.161   2.213   3.091
  169DPPC   C31 8431   0.080   2.092   3.042
  169DPPC   C32 8432   0.564   3.008   1.541
  169DPPC   O33 8433   0.587   3.097   1.650
  169DPPC   C34 8434   0.544   3.226   1.639
  169DPPC   O35 8435   0.510   3.279   1.533
  169DPPC   C36 8436   0.565   3.306   1.767
  169DPPC   C37 8437   0.487   3.257   1.889
  169DPPC   C38 8438   0.488   3.376   1.985
  169DPPC   C39 8439   0.414   3.334   2.112
  169DPPC   C40 8440   0.393   3.453   2.205
  169DPPC   C41 8441   0.523   3.532   2.222
  169DPPC   C42 8442   0.604   3.481   2.341
  169DPPC   C43 8443   0.751   3.520   2.332
  169DPPC   C44 8444   0.832   3.492   2.459
  169DPPC   C45 8445   0.982   3.490   2.430
  169DPPC   C46 8446   1.031   3.628   2.386
  169DPPC   C47 8447   1.181   3.654   2.393
  169DPPC   C48 8448   1.220   3.791   2.339
  169DPPC   C49 8449   1.185   3.782   2.190
  169DPPC   C50 8450   1.165   3.911   2.110
  170DPPC    C1 8451   6.837   8.436   1.430
  170DPPC    C2 8452   7.013   8.323   1.364
  170DPPC    C3 8453   7.028   8.483   1.551
  170DPPC    N4 8454   6.954   8.371   1.490
  170DPPC    C5 8455   6.904   8.260   1.572
  170DPPC    C6 8456   7.002   8.170   1.648
  170DPPC    O7 8457   6.928   8.060   1.701
  170DPPC    P8 8458   7.015   7.925   1.690
  170DPPC    O9 8459   7.105   7.941   1.574
  170DPPC   O10 8460   6.925   7.808   1.701
  170DPPC   O11 8461   7.117   7.935   1.814
  170DPPC   C12 8462   7.030   7.904   1.923
  170DPPC   C13 8463   7.103   7.896   2.057
  170DPPC   O14 8464   7.032   7.820   2.157
  170DPPC   C15 8465   7.039   7.684   2.157
  170DPPC   O16 8466   7.075   7.622   2.057
  170DPPC   C17 8467   6.964   7.610   2.268
  170DPPC   C18 8468   6.931   7.688   2.395
  170DPPC   C19 8469   6.881   7.598   2.508
  170DPPC   C20 8470   6.822   7.681   2.623
  170DPPC   C21 8471   6.751   7.596   2.729
  170DPPC   C22 8472   6.702   7.677   2.849
  170DPPC   C23 8473   6.815   7.765   2.903
  170DPPC   C24 8474   6.758   7.858   3.010
  170DPPC   C25 8475   6.636   7.937   2.961
  170DPPC   C26 8476   6.572   8.019   3.074
  170DPPC   C27 8477   6.529   7.908   3.169
  170DPPC   C28 8478   6.453   7.965   3.289
  170DPPC   C29 8479   6.389   7.848   3.365
  170DPPC   C30 8480   6.497   7.750   3.409
  170DPPC   C31 8481   6.417   7.626   3.451
  170DPPC   C32 8482   7.142   8.036   2.104
  170DPPC   O33 8483   7.228   8.043   2.218
  170DPPC   C34 8484   7.254   8.165   2.271
  170DPPC   O35 8485   7.182   8.262   2.243
  170DPPC   C36 8486   7.374   8.179   2.364
  170DPPC   C37 8487   7.490   8.221   2.273
  170DPPC   C38 8488   7.622   8.223   2.349
  170DPPC   C39 8489   7.617   8.330   2.459
  170DPPC   C40 8490   7.751   8.351   2.530
  170DPPC   C41 8491   7.746   8.477   2.615
  170DPPC   C42 8492   7.893   8.504   2.647
  170DPPC   C43 8493   7.921   8.618   2.746
  170DPPC   C44 8494   8.066   8.605   2.792
  170DPPC   C45 8495   8.084   8.700   2.910
  170DPPC   C46 8496   8.217   8.690   2.985
  170DPPC   C47 8497   8.213   8.758   3.122
  170DPPC   C48 8498   8.336   8.705   3.196
  170DPPC   C49 8499   8.325   8.761   3.338
  170DPPC   C50 8500   8.442   8.734   3.433
  171DPPC    C1 8501   5.774   7.430   1.334
  171DPPC    C2 8502   5.710   7.225   1.263
  171DPPC    C3 8503   5.933   7.255   1.369
  171DPPC    N4 8504   5.790   7.288   1.370
  171DPPC    C5 8505   5.738   7.245   1.500
  171DPPC    C6 8506   5.618   7.322   1.555
  171DPPC    O7 8507   5.572   7.254   1.672
  171DPPC    P8 8508   5.445   7.304   1.757
  171DPPC    O9 8509   5.418   7.198   1.856
  171DPPC   O10 8510   5.343   7.323   1.651
  171DPPC   O11 8511   5.517   7.442   1.797
  171DPPC   C12 8512   5.582   7.418   1.922
  171DPPC   C13 8513   5.695   7.517   1.948
  171DPPC   O14 8514   5.789   7.477   2.049
  171DPPC   C15 8515   5.908   7.535   2.079
  171DPPC   O16 8516   5.962   7.620   2.009
  171DPPC   C17 8517   6.001   7.459   2.174
  171DPPC   C18 8518   6.129   7.539   2.197
  171DPPC   C19 8519   6.236   7.481   2.289
  171DPPC   C20 8520   6.195   7.527   2.429
  171DPPC   C21 8521   6.296   7.498   2.540
  171DPPC   C22 8522   6.252   7.576   2.664
  171DPPC   C23 8523   6.325   7.522   2.787
  171DPPC   C24 8524   6.302   7.374   2.816
  171DPPC   C25 8525   6.338   7.333   2.959
  171DPPC   C26 8526   6.228   7.359   3.062
  171DPPC   C27 8527   6.293   7.326   3.197
  171DPPC   C28 8528   6.190   7.328   3.310
  171DPPC   C29 8529   6.227   7.218   3.410
  171DPPC   C30 8530   6.101   7.166   3.478
  171DPPC   C31 8531   6.124   7.059   3.586
  171DPPC   C32 8532   5.638   7.653   1.989
  171DPPC   O33 8533   5.545   7.645   2.097
  171DPPC   C34 8534   5.492   7.763   2.139
  171DPPC   O35 8535   5.524   7.872   2.093
  171DPPC   C36 8536   5.407   7.768   2.266
  171DPPC   C37 8537   5.465   7.859   2.375
  171DPPC   C38 8538   5.374   7.861   2.498
  171DPPC   C39 8539   5.436   7.949   2.606
  171DPPC   C40 8540   5.452   8.092   2.556
  171DPPC   C41 8541   5.535   8.185   2.645
  171DPPC   C42 8542   5.520   8.327   2.592
  171DPPC   C43 8543   5.497   8.426   2.706
  171DPPC   C44 8544   5.620   8.429   2.798
  171DPPC   C45 8545   5.573   8.468   2.938
  171DPPC   C46 8546   5.457   8.376   2.979
  171DPPC   C47 8547   5.391   8.423   3.108
  171DPPC   C48 8548   5.249   8.369   3.128
  171DPPC   C49 8549   5.185   8.455   3.237
  171DPPC   C50 8550   5.035   8.437   3.216
  172DPPC    C1 8551   2.984   5.043   1.618
  172DPPC    C2 8552   2.971   5.036   1.871
  172DPPC    C3 8553   3.084   4.888   1.748
  172DPPC    N4 8554   3.052   5.031   1.748
  172DPPC    C5 8555   3.181   5.098   1.768
  172DPPC    C6 8556   3.178   5.250   1.759
  172DPPC    O7 8557   3.302   5.321   1.763
  172DPPC    P8 8558   3.273   5.469   1.706
  172DPPC    O9 8559   3.131   5.485   1.669
  172DPPC   O10 8560   3.382   5.539   1.634
  172DPPC   O11 8561   3.261   5.546   1.846
  172DPPC   C12 8562   3.395   5.519   1.889
  172DPPC   C13 8563   3.428   5.551   2.035
  172DPPC   O14 8564   3.404   5.440   2.122
  172DPPC   C15 8565   3.514   5.417   2.199
  172DPPC   O16 8566   3.623   5.411   2.142
  172DPPC   C17 8567   3.493   5.319   2.315
  172DPPC   C18 8568   3.448   5.388   2.443
  172DPPC   C19 8569   3.544   5.496   2.494
  172DPPC   C20 8570   3.503   5.547   2.632
  172DPPC   C21 8571   3.590   5.664   2.676
  172DPPC   C22 8572   3.546   5.726   2.809
  172DPPC   C23 8573   3.625   5.853   2.839
  172DPPC   C24 8574   3.547   5.936   2.941
  172DPPC   C25 8575   3.637   6.058   2.964
  172DPPC   C26 8576   3.582   6.144   3.077
  172DPPC   C27 8577   3.637   6.286   3.062
  172DPPC   C28 8578   3.590   6.368   3.183
  172DPPC   C29 8579   3.604   6.288   3.313
  172DPPC   C30 8580   3.620   6.367   3.443
  172DPPC   C31 8581   3.497   6.459   3.451
  172DPPC   C32 8582   3.352   5.681   2.065
  172DPPC   O33 8583   3.354   5.718   2.203
  172DPPC   C34 8584   3.275   5.816   2.254
  172DPPC   O35 8585   3.233   5.901   2.176
  172DPPC   C36 8586   3.273   5.848   2.404
  172DPPC   C37 8587   3.211   5.740   2.493
  172DPPC   C38 8588   3.192   5.790   2.637
  172DPPC   C39 8589   3.105   5.704   2.728
  172DPPC   C40 8590   3.107   5.757   2.871
  172DPPC   C41 8591   3.033   5.665   2.968
  172DPPC   C42 8592   3.053   5.703   3.115
  172DPPC   C43 8593   3.198   5.664   3.145
  172DPPC   C44 8594   3.246   5.731   3.274
  172DPPC   C45 8595   3.213   5.651   3.400
  172DPPC   C46 8596   3.259   5.727   3.525
  172DPPC   C47 8597   3.408   5.759   3.512
  172DPPC   C48 8598   3.463   5.836   3.632
  172DPPC   C49 8599   3.473   5.747   3.756
  172DPPC   C50 8600   3.564   5.624   3.740
  173DPPC    C1 8601   6.056   2.041   2.185
  173DPPC    C2 8602   5.923   2.056   1.994
  173DPPC    C3 8603   5.931   2.248   2.145
  173DPPC    N4 8604   6.007   2.137   2.085
  173DPPC    C5 8605   6.132   2.188   2.028
  173DPPC    C6 8606   6.135   2.294   1.917
  173DPPC    O7 8607   6.257   2.348   1.866
  173DPPC    P8 8608   6.248   2.493   1.797
  173DPPC    O9 8609   6.126   2.469   1.716
  173DPPC   O10 8610   6.374   2.549   1.744
  173DPPC   O11 8611   6.205   2.572   1.931
  173DPPC   C12 8612   6.324   2.631   1.984
  173DPPC   C13 8613   6.303   2.706   2.116
  173DPPC   O14 8614   6.424   2.752   2.178
  173DPPC   C15 8615   6.404   2.865   2.251
  173DPPC   O16 8616   6.317   2.940   2.208
  173DPPC   C17 8617   6.530   2.926   2.314
  173DPPC   C18 8618   6.501   3.012   2.437
  173DPPC   C19 8619   6.591   2.981   2.556
  173DPPC   C20 8620   6.576   2.843   2.620
  173DPPC   C21 8621   6.671   2.831   2.740
  173DPPC   C22 8622   6.642   2.700   2.813
  173DPPC   C23 8623   6.729   2.663   2.934
  173DPPC   C24 8624   6.674   2.756   3.042
  173DPPC   C25 8625   6.745   2.733   3.176
  173DPPC   C26 8626   6.654   2.810   3.272
  173DPPC   C27 8627   6.723   2.830   3.407
  173DPPC   C28 8628   6.752   2.702   3.486
  173DPPC   C29 8629   6.803   2.749   3.623
  173DPPC   C30 8630   6.693   2.833   3.687
  173DPPC   C31 8631   6.729   2.889   3.825
  173DPPC   C32 8632   6.248   2.587   2.195
  173DPPC   O33 8633   6.211   2.601   2.333
  173DPPC   C34 8634   6.189   2.490   2.408
  173DPPC   O35 8635   6.164   2.384   2.351
  173DPPC   C36 8636   6.155   2.511   2.556
  173DPPC   C37 8637   6.263   2.528   2.663
  173DPPC   C38 8638   6.207   2.602   2.785
  173DPPC   C39 8639   6.291   2.608   2.913
  173DPPC   C40 8640   6.244   2.712   3.014
  173DPPC   C41 8641   6.288   2.681   3.158
  173DPPC   C42 8642   6.223   2.782   3.252
  173DPPC   C43 8643   6.287   2.786   3.391
  173DPPC   C44 8644   6.274   2.643   3.444
  173DPPC   C45 8645   6.320   2.649   3.590
  173DPPC   C46 8646   6.242   2.754   3.669
  173DPPC   C47 8647   6.287   2.763   3.815
  173DPPC   C48 8648   6.240   2.897   3.873
  173DPPC   C49 8649   6.330   3.019   3.853
  173DPPC   C50 8650   6.259   3.153   3.867
  174DPPC    C1 8651   8.975   4.946   1.102
  174DPPC    C2 8652   9.121   4.888   1.262
  174DPPC    C3 8653   8.982   4.709   1.184
  174DPPC    N4 8654   9.055   4.831   1.144
  174DPPC    C5 8655   9.140   4.817   1.025
  174DPPC    C6 8656   9.228   4.692   1.024
  174DPPC    O7 8657   9.303   4.681   1.146
  174DPPC    P8 8658   9.373   4.537   1.126
  174DPPC    O9 8659   9.459   4.542   1.005
  174DPPC   O10 8660   9.258   4.444   1.127
  174DPPC   O11 8661   9.459   4.545   1.262
  174DPPC   C12 8662   9.375   4.508   1.372
  174DPPC   C13 8663   9.445   4.525   1.506
  174DPPC   O14 8664   9.365   4.491   1.620
  174DPPC   C15 8665   9.376   4.359   1.652
  174DPPC   O16 8666   9.425   4.276   1.575
  174DPPC   C17 8667   9.315   4.309   1.783
  174DPPC   C18 8668   9.309   4.415   1.893
  174DPPC   C19 8669   9.250   4.353   2.020
  174DPPC   C20 8670   9.242   4.449   2.139
  174DPPC   C21 8671   9.158   4.403   2.258
  174DPPC   C22 8672   9.159   4.493   2.382
  174DPPC   C23 8673   9.098   4.410   2.495
  174DPPC   C24 8674   9.099   4.475   2.634
  174DPPC   C25 8675   9.087   4.368   2.743
  174DPPC   C26 8676   9.061   4.422   2.884
  174DPPC   C27 8677   9.022   4.311   2.982
  174DPPC   C28 8678   8.893   4.242   2.937
  174DPPC   C29 8679   8.859   4.148   3.053
  174DPPC   C30 8680   8.740   4.057   3.020
  174DPPC   C31 8681   8.656   4.025   3.143
  174DPPC   C32 8682   9.514   4.662   1.507
  174DPPC   O33 8683   9.427   4.772   1.480
  174DPPC   C34 8684   9.489   4.893   1.486
  174DPPC   O35 8685   9.612   4.898   1.480
  174DPPC   C36 8686   9.393   5.012   1.481
  174DPPC   C37 8687   9.433   5.112   1.589
  174DPPC   C38 8688   9.339   5.233   1.586
  174DPPC   C39 8689   9.350   5.335   1.699
  174DPPC   C40 8690   9.341   5.273   1.839
  174DPPC   C41 8691   9.324   5.383   1.945
  174DPPC   C42 8692   9.306   5.314   2.080
  174DPPC   C43 8693   9.336   5.413   2.193
  174DPPC   C44 8694   9.300   5.350   2.328
  174DPPC   C45 8695   9.339   5.446   2.441
  174DPPC   C46 8696   9.281   5.402   2.576
  174DPPC   C47 8697   9.323   5.511   2.675
  174DPPC   C48 8698   9.251   5.478   2.806
  174DPPC   C49 8699   9.101   5.489   2.776
  174DPPC   C50 8700   9.008   5.442   2.888
  175DPPC    C1 8701   3.744   1.778   1.885
  175DPPC    C2 8702   3.934   1.894   1.962
  175DPPC    C3 8703   3.728   1.988   2.001
  175DPPC    N4 8704   3.796   1.858   1.997
  175DPPC    C5 8705   3.804   1.793   2.129
  175DPPC    C6 8706   3.673   1.724   2.171
  175DPPC    O7 8707   3.560   1.809   2.189
  175DPPC    P8 8708   3.422   1.728   2.208
  175DPPC    O9 8709   3.462   1.588   2.234
  175DPPC   O10 8710   3.322   1.780   2.111
  175DPPC   O11 8711   3.401   1.799   2.351
  175DPPC   C12 8712   3.434   1.704   2.453
  175DPPC   C13 8713   3.458   1.770   2.589
  175DPPC   O14 8714   3.541   1.702   2.684
  175DPPC   C15 8715   3.674   1.687   2.661
  175DPPC   O16 8716   3.734   1.755   2.578
  175DPPC   C17 8717   3.744   1.608   2.772
  175DPPC   C18 8718   3.728   1.692   2.899
  175DPPC   C19 8719   3.777   1.636   3.033
  175DPPC   C20 8720   3.790   1.746   3.139
  175DPPC   C21 8721   3.828   1.695   3.278
  175DPPC   C22 8722   3.960   1.620   3.296
  175DPPC   C23 8723   3.987   1.587   3.443
  175DPPC   C24 8724   3.999   1.701   3.544
  175DPPC   C25 8725   4.019   1.657   3.689
  175DPPC   C26 8726   4.047   1.783   3.772
  175DPPC   C27 8727   4.090   1.742   3.913
  175DPPC   C28 8728   4.159   1.856   3.989
  175DPPC   C29 8729   4.178   1.831   4.139
  175DPPC   C30 8730   4.270   1.709   4.142
  175DPPC   C31 8731   4.408   1.732   4.081
  175DPPC   C32 8732   3.323   1.827   2.634
  175DPPC   O33 8733   3.229   1.720   2.645
  175DPPC   C34 8734   3.113   1.739   2.714
  175DPPC   O35 8735   3.040   1.825   2.664
  175DPPC   C36 8736   3.058   1.601   2.751
  175DPPC   C37 8737   2.918   1.624   2.808
  175DPPC   C38 8738   2.853   1.489   2.841
  175DPPC   C39 8739   2.938   1.398   2.930
  175DPPC   C40 8740   2.861   1.267   2.944
  175DPPC   C41 8741   2.942   1.173   3.034
  175DPPC   C42 8742   2.967   1.238   3.170
  175DPPC   C43 8743   3.079   1.171   3.249
  175DPPC   C44 8744   3.136   1.248   3.368
  175DPPC   C45 8745   3.250   1.152   3.402
  175DPPC   C46 8746   3.338   1.208   3.513
  175DPPC   C47 8747   3.272   1.245   3.646
  175DPPC   C48 8748   3.388   1.245   3.746
  175DPPC   C49 8749   3.339   1.293   3.883
  175DPPC   C50 8750   3.433   1.265   4.000
  176DPPC    C1 8751   8.316   4.771   1.162
  176DPPC    C2 8752   8.385   4.798   0.931
  176DPPC    C3 8753   8.152   4.777   0.995
  176DPPC    N4 8754   8.284   4.832   1.032
  176DPPC    C5 8755   8.269   4.978   1.043
  176DPPC    C6 8756   8.399   5.059   1.055
  176DPPC    O7 8757   8.443   5.074   1.190
  176DPPC    P8 8758   8.599   5.113   1.199
  176DPPC    O9 8759   8.608   5.245   1.264
  176DPPC   O10 8760   8.655   5.105   1.062
  176DPPC   O11 8761   8.650   4.986   1.284
  176DPPC   C12 8762   8.579   4.964   1.407
  176DPPC   C13 8763   8.643   4.860   1.499
  176DPPC   O14 8764   8.561   4.827   1.612
  176DPPC   C15 8765   8.587   4.705   1.668
  176DPPC   O16 8766   8.646   4.620   1.603
  176DPPC   C17 8767   8.510   4.671   1.796
  176DPPC   C18 8768   8.369   4.613   1.780
  176DPPC   C19 8769   8.305   4.589   1.917
  176DPPC   C20 8770   8.160   4.540   1.927
  176DPPC   C21 8771   8.135   4.480   2.066
  176DPPC   C22 8772   7.992   4.428   2.075
  176DPPC   C23 8773   7.956   4.368   2.212
  176DPPC   C24 8774   7.923   4.480   2.311
  176DPPC   C25 8775   7.897   4.431   2.454
  176DPPC   C26 8776   7.825   4.532   2.543
  176DPPC   C27 8777   7.805   4.486   2.688
  176DPPC   C28 8778   7.726   4.591   2.766
  176DPPC   C29 8779   7.743   4.561   2.915
  176DPPC   C30 8780   7.894   4.581   2.926
  176DPPC   C31 8781   7.948   4.508   3.050
  176DPPC   C32 8782   8.786   4.905   1.527
  176DPPC   O33 8783   8.790   5.036   1.586
  176DPPC   C34 8784   8.914   5.086   1.613
  176DPPC   O35 8785   9.013   5.020   1.582
  176DPPC   C36 8786   8.904   5.209   1.703
  176DPPC   C37 8787   8.900   5.178   1.853
  176DPPC   C38 8788   8.914   5.313   1.922
  176DPPC   C39 8789   8.884   5.297   2.071
  176DPPC   C40 8790   8.918   5.420   2.156
  176DPPC   C41 8791   8.866   5.407   2.299
  176DPPC   C42 8792   8.853   5.538   2.376
  176DPPC   C43 8793   8.798   5.503   2.514
  176DPPC   C44 8794   8.762   5.640   2.572
  176DPPC   C45 8795   8.701   5.630   2.712
  176DPPC   C46 8796   8.575   5.543   2.718
  176DPPC   C47 8797   8.449   5.620   2.680
  176DPPC   C48 8798   8.326   5.529   2.670
  176DPPC   C49 8799   8.228   5.607   2.582
  176DPPC   C50 8800   8.188   5.727   2.668
  177DPPC    C1 8801   9.158   2.625   1.594
  177DPPC    C2 8802   8.969   2.630   1.441
  177DPPC    C3 8803   8.963   2.707   1.663
  177DPPC    N4 8804   9.046   2.704   1.541
  177DPPC    C5 8805   9.100   2.834   1.499
  177DPPC    C6 8806   9.038   2.906   1.380
  177DPPC    O7 8807   8.906   2.953   1.411
  177DPPC    P8 8808   8.918   3.110   1.445
  177DPPC    O9 8809   8.838   3.197   1.356
  177DPPC   O10 8810   9.055   3.139   1.493
  177DPPC   O11 8811   8.834   3.104   1.582
  177DPPC   C12 8812   8.918   3.109   1.698
  177DPPC   C13 8813   8.855   3.140   1.834
  177DPPC   O14 8814   8.800   3.024   1.897
  177DPPC   C15 8815   8.872   2.937   1.973
  177DPPC   O16 8816   8.995   2.930   1.971
  177DPPC   C17 8817   8.792   2.829   2.046
  177DPPC   C18 8818   8.772   2.864   2.194
  177DPPC   C19 8819   8.689   2.767   2.279
  177DPPC   C20 8820   8.662   2.824   2.418
  177DPPC   C21 8821   8.570   2.726   2.492
  177DPPC   C22 8822   8.583   2.731   2.644
  177DPPC   C23 8823   8.495   2.627   2.713
  177DPPC   C24 8824   8.482   2.632   2.866
  177DPPC   C25 8825   8.433   2.767   2.918
  177DPPC   C26 8826   8.398   2.758   3.067
  177DPPC   C27 8827   8.295   2.651   3.102
  177DPPC   C28 8828   8.274   2.633   3.252
  177DPPC   C29 8829   8.156   2.537   3.267
  177DPPC   C30 8830   8.141   2.511   3.417
  177DPPC   C31 8831   8.011   2.445   3.465
  177DPPC   C32 8832   8.750   3.250   1.817
  177DPPC   O33 8833   8.668   3.280   1.930
  177DPPC   C34 8834   8.565   3.204   1.974
  177DPPC   O35 8835   8.521   3.107   1.911
  177DPPC   C36 8836   8.488   3.249   2.098
  177DPPC   C37 8837   8.585   3.308   2.201
  177DPPC   C38 8838   8.507   3.362   2.322
  177DPPC   C39 8839   8.612   3.419   2.418
  177DPPC   C40 8840   8.705   3.306   2.462
  177DPPC   C41 8841   8.796   3.360   2.573
  177DPPC   C42 8842   8.905   3.253   2.582
  177DPPC   C43 8843   8.846   3.130   2.652
  177DPPC   C44 8844   8.946   3.024   2.695
  177DPPC   C45 8845   8.894   2.902   2.772
  177DPPC   C46 8846   9.002   2.830   2.852
  177DPPC   C47 8847   8.961   2.737   2.967
  177DPPC   C48 8848   8.859   2.630   2.929
  177DPPC   C49 8849   8.785   2.561   3.043
  177DPPC   C50 8850   8.870   2.457   3.116
  178DPPC    C1 8851   8.009   2.264   1.745
  178DPPC    C2 8852   8.111   2.477   1.806
  178DPPC    C3 8853   8.187   2.264   1.895
  178DPPC    N4 8854   8.133   2.334   1.778
  178DPPC    C5 8855   8.220   2.320   1.660
  178DPPC    C6 8856   8.371   2.329   1.684
  178DPPC    O7 8857   8.417   2.461   1.710
  178DPPC    P8 8858   8.566   2.463   1.771
  178DPPC    O9 8859   8.604   2.605   1.792
  178DPPC   O10 8860   8.655   2.387   1.681
  178DPPC   O11 8861   8.521   2.387   1.906
  178DPPC   C12 8862   8.484   2.473   2.014
  178DPPC   C13 8863   8.449   2.392   2.139
  178DPPC   O14 8864   8.420   2.471   2.255
  178DPPC   C15 8865   8.287   2.492   2.277
  178DPPC   O16 8866   8.210   2.492   2.181
  178DPPC   C17 8867   8.237   2.517   2.419
  178DPPC   C18 8868   8.085   2.508   2.432
  178DPPC   C19 8869   8.062   2.543   2.580
  178DPPC   C20 8870   8.103   2.688   2.609
  178DPPC   C21 8871   8.064   2.700   2.757
  178DPPC   C22 8872   8.042   2.848   2.789
  178DPPC   C23 8873   8.015   2.856   2.940
  178DPPC   C24 8874   8.003   3.005   2.974
  178DPPC   C25 8875   8.066   3.037   3.109
  178DPPC   C26 8876   8.099   3.185   3.127
  178DPPC   C27 8877   8.126   3.234   3.269
  178DPPC   C28 8878   8.259   3.171   3.312
  178DPPC   C29 8879   8.303   3.221   3.449
  178DPPC   C30 8880   8.441   3.160   3.473
  178DPPC   C31 8881   8.498   3.203   3.609
  178DPPC   C32 8882   8.572   2.304   2.160
  178DPPC   O33 8883   8.563   2.191   2.248
  178DPPC   C34 8884   8.492   2.077   2.230
  178DPPC   O35 8885   8.443   2.051   2.121
  178DPPC   C36 8886   8.486   1.987   2.354
  178DPPC   C37 8887   8.377   2.034   2.451
  178DPPC   C38 8888   8.383   1.963   2.587
  178DPPC   C39 8889   8.258   2.012   2.660
  178DPPC   C40 8890   8.239   1.941   2.794
  178DPPC   C41 8891   8.118   2.004   2.863
  178DPPC   C42 8892   8.101   1.926   2.993
  178DPPC   C43 8893   7.974   1.983   3.055
  178DPPC   C44 8894   7.944   1.929   3.195
  178DPPC   C45 8895   7.840   2.026   3.251
  178DPPC   C46 8896   7.757   1.969   3.367
  178DPPC   C47 8897   7.670   1.852   3.319
  178DPPC   C48 8898   7.588   1.792   3.433
  178DPPC   C49 8899   7.484   1.888   3.491
  178DPPC   C50 8900   7.349   1.816   3.502
  179DPPC    C1 8901   5.276   6.445   1.911
  179DPPC    C2 8902   5.393   6.345   2.093
  179DPPC    C3 8903   5.165   6.340   2.087
  179DPPC    N4 8904   5.282   6.327   1.998
  179DPPC    C5 8905   5.305   6.193   1.943
  179DPPC    C6 8906   5.185   6.136   1.866
  179DPPC    O7 8907   5.152   6.191   1.738
  179DPPC    P8 8908   4.993   6.185   1.716
  179DPPC    O9 8909   4.939   6.051   1.750
  179DPPC   O10 8910   4.950   6.266   1.600
  179DPPC   O11 8911   4.951   6.271   1.846
  179DPPC   C12 8912   4.835   6.354   1.838
  179DPPC   C13 8913   4.780   6.418   1.966
  179DPPC   O14 8914   4.870   6.516   2.020
  179DPPC   C15 8915   4.816   6.605   2.107
  179DPPC   O16 8916   4.708   6.658   2.079
  179DPPC   C17 8917   4.899   6.649   2.227
  179DPPC   C18 8918   4.867   6.568   2.352
  179DPPC   C19 8919   4.958   6.590   2.474
  179DPPC   C20 8920   5.104   6.578   2.430
  179DPPC   C21 8921   5.206   6.579   2.544
  179DPPC   C22 8922   5.187   6.440   2.606
  179DPPC   C23 8923   5.269   6.423   2.734
  179DPPC   C24 8924   5.205   6.514   2.839
  179DPPC   C25 8925   5.277   6.503   2.973
  179DPPC   C26 8926   5.269   6.360   3.029
  179DPPC   C27 8927   5.347   6.364   3.161
  179DPPC   C28 8928   5.315   6.246   3.253
  179DPPC   C29 8929   5.368   6.278   3.393
  179DPPC   C30 8930   5.367   6.156   3.486
  179DPPC   C31 8931   5.228   6.139   3.547
  179DPPC   C32 8932   4.750   6.288   2.041
  179DPPC   O33 8933   4.742   6.289   2.183
  179DPPC   C34 8934   4.712   6.176   2.253
  179DPPC   O35 8935   4.701   6.072   2.189
  179DPPC   C36 8936   4.721   6.176   2.406
  179DPPC   C37 8937   4.854   6.175   2.482
  179DPPC   C38 8938   4.830   6.167   2.633
  179DPPC   C39 8939   4.960   6.135   2.707
  179DPPC   C40 8940   4.951   6.157   2.858
  179DPPC   C41 8941   4.829   6.072   2.892
  179DPPC   C42 8942   4.809   6.044   3.041
  179DPPC   C43 8943   4.686   5.960   3.074
  179DPPC   C44 8944   4.642   5.980   3.219
  179DPPC   C45 8945   4.525   5.887   3.253
  179DPPC   C46 8946   4.472   5.902   3.396
  179DPPC   C47 8947   4.335   5.835   3.401
  179DPPC   C48 8948   4.344   5.683   3.381
  179DPPC   C49 8949   4.241   5.604   3.461
  179DPPC   C50 8950   4.094   5.645   3.452
  180DPPC    C1 8951   5.976   2.670   1.277
  180DPPC    C2 8952   6.199   2.653   1.346
  180DPPC    C3 8953   6.088   2.866   1.343
  180DPPC    N4 8954   6.073   2.723   1.374
  180DPPC    C5 8955   6.020   2.718   1.511
  180DPPC    C6 8956   6.098   2.791   1.619
  180DPPC    O7 8957   6.014   2.807   1.734
  180DPPC    P8 8958   6.087   2.902   1.842
  180DPPC    O9 8959   6.006   3.026   1.843
  180DPPC   O10 8960   6.234   2.903   1.825
  180DPPC   O11 8961   6.052   2.815   1.973
  180DPPC   C12 8962   5.948   2.884   2.043
  180DPPC   C13 8963   5.932   2.815   2.178
  180DPPC   O14 8964   5.796   2.783   2.209
  180DPPC   C15 8965   5.765   2.663   2.267
  180DPPC   O16 8966   5.788   2.562   2.200
  180DPPC   C17 8967   5.682   2.652   2.395
  180DPPC   C18 8968   5.755   2.551   2.484
  180DPPC   C19 8969   5.731   2.549   2.635
  180DPPC   C20 8970   5.796   2.424   2.694
  180DPPC   C21 8971   5.773   2.404   2.844
  180DPPC   C22 8972   5.832   2.267   2.880
  180DPPC   C23 8973   5.985   2.266   2.865
  180DPPC   C24 8974   6.031   2.122   2.887
  180DPPC   C25 8975   6.163   2.099   2.814
  180DPPC   C26 8976   6.258   2.203   2.873
  180DPPC   C27 8977   6.397   2.186   2.811
  180DPPC   C28 8978   6.503   2.279   2.873
  180DPPC   C29 8979   6.495   2.268   3.025
  180DPPC   C30 8980   6.578   2.376   3.094
  180DPPC   C31 8981   6.581   2.348   3.245
  180DPPC   C32 8982   6.025   2.893   2.271
  180DPPC   O33 8983   5.985   2.908   2.408
  180DPPC   C34 8984   6.052   2.999   2.485
  180DPPC   O35 8985   6.108   3.093   2.431
  180DPPC   C36 8986   6.013   3.007   2.633
  180DPPC   C37 8987   5.866   2.977   2.662
  180DPPC   C38 8988   5.835   3.002   2.809
  180DPPC   C39 8989   5.699   2.949   2.852
  180DPPC   C40 8990   5.675   2.963   3.002
  180DPPC   C41 8991   5.555   2.894   3.068
  180DPPC   C42 8992   5.564   2.895   3.221
  180DPPC   C43 8993   5.431   2.839   3.271
  180DPPC   C44 8994   5.411   2.845   3.423
  180DPPC   C45 8995   5.276   2.784   3.456
  180DPPC   C46 8996   5.175   2.872   3.383
  180DPPC   C47 8997   5.150   2.994   3.472
  180DPPC   C48 8998   5.032   3.076   3.420
  180DPPC   C49 8999   4.951   3.134   3.536
  180DPPC   C50 9000   5.041   3.193   3.645
  181DPPC    C1 9001   5.639   5.903   1.464
  181DPPC    C2 9002   5.799   5.867   1.649
  181DPPC    C3 9003   5.586   5.972   1.672
  181DPPC    N4 9004   5.660   5.865   1.604
  181DPPC    C5 9005   5.597   5.737   1.642
  181DPPC    C6 9006   5.618   5.604   1.571
  181DPPC    O7 9007   5.588   5.489   1.651
  181DPPC    P8 9008   5.670   5.357   1.610
  181DPPC    O9 9009   5.750   5.401   1.494
  181DPPC   O10 9010   5.570   5.250   1.588
  181DPPC   O11 9011   5.749   5.339   1.750
  181DPPC   C12 9012   5.652   5.343   1.855
  181DPPC   C13 9013   5.709   5.321   1.996
  181DPPC   O14 9014   5.619   5.372   2.096
  181DPPC   C15 9015   5.529   5.285   2.149
  181DPPC   O16 9016   5.521   5.166   2.122
  181DPPC   C17 9017   5.485   5.344   2.283
  181DPPC   C18 9018   5.350   5.412   2.263
  181DPPC   C19 9019   5.312   5.500   2.382
  181DPPC   C20 9020   5.252   5.417   2.496
  181DPPC   C21 9021   5.268   5.491   2.629
  181DPPC   C22 9022   5.200   5.424   2.748
  181DPPC   C23 9023   5.206   5.518   2.869
  181DPPC   C24 9024   5.172   5.451   3.003
  181DPPC   C25 9025   5.033   5.387   3.003
  181DPPC   C26 9026   4.922   5.491   3.016
  181DPPC   C27 9027   4.790   5.437   2.963
  181DPPC   C28 9028   4.669   5.511   3.022
  181DPPC   C29 9029   4.545   5.466   2.946
  181DPPC   C30 9030   4.424   5.554   2.980
  181DPPC   C31 9031   4.441   5.691   2.912
  181DPPC   C32 9032   5.850   5.380   2.006
  181DPPC   O33 9033   5.927   5.321   2.111
  181DPPC   C34 9034   6.061   5.342   2.113
  181DPPC   O35 9035   6.109   5.430   2.041
  181DPPC   C36 9036   6.142   5.262   2.215
  181DPPC   C37 9037   6.161   5.356   2.334
  181DPPC   C38 9038   6.215   5.296   2.464
  181DPPC   C39 9039   6.207   5.395   2.581
  181DPPC   C40 9040   6.272   5.333   2.705
  181DPPC   C41 9041   6.423   5.306   2.697
  181DPPC   C42 9042   6.470   5.244   2.829
  181DPPC   C43 9043   6.617   5.200   2.834
  181DPPC   C44 9044   6.634   5.092   2.941
  181DPPC   C45 9045   6.541   4.971   2.927
  181DPPC   C46 9046   6.597   4.845   2.993
  181DPPC   C47 9047   6.620   4.880   3.140
  181DPPC   C48 9048   6.698   4.777   3.222
  181DPPC   C49 9049   6.646   4.634   3.216
  181DPPC   C50 9050   6.732   4.527   3.282
  182DPPC    C1 9051   8.078   0.613   1.377
  182DPPC    C2 9052   8.299   0.706   1.354
  182DPPC    C3 9053   8.175   0.667   1.162
  182DPPC    N4 9054   8.162   0.708   1.302
  182DPPC    C5 9055   8.113   0.847   1.312
  182DPPC    C6 9056   7.969   0.880   1.273
  182DPPC    O7 9057   7.950   1.021   1.257
  182DPPC    P8 9058   7.809   1.033   1.180
  182DPPC    O9 9059   7.802   0.914   1.093
  182DPPC   O10 9060   7.794   1.174   1.138
  182DPPC   O11 9061   7.738   0.992   1.318
  182DPPC   C12 9062   7.725   1.111   1.396
  182DPPC   C13 9063   7.663   1.068   1.530
  182DPPC   O14 9064   7.633   1.184   1.608
  182DPPC   C15 9065   7.517   1.254   1.593
  182DPPC   O16 9066   7.429   1.225   1.513
  182DPPC   C17 9067   7.497   1.379   1.680
  182DPPC   C18 9068   7.380   1.363   1.777
  182DPPC   C19 9069   7.349   1.501   1.835
  182DPPC   C20 9070   7.244   1.492   1.945
  182DPPC   C21 9071   7.193   1.629   1.992
  182DPPC   C22 9072   7.094   1.608   2.107
  182DPPC   C23 9073   7.153   1.545   2.233
  182DPPC   C24 9074   7.045   1.521   2.338
  182DPPC   C25 9075   7.112   1.484   2.471
  182DPPC   C26 9076   7.015   1.471   2.589
  182DPPC   C27 9077   7.081   1.467   2.727
  182DPPC   C28 9078   6.996   1.408   2.839
  182DPPC   C29 9079   7.074   1.419   2.970
  182DPPC   C30 9080   6.990   1.341   3.072
  182DPPC   C31 9081   7.043   1.340   3.215
  182DPPC   C32 9082   7.762   0.964   1.584
  182DPPC   O33 9083   7.882   1.034   1.616
  182DPPC   C34 9084   7.986   0.959   1.661
  182DPPC   O35 9085   7.993   0.837   1.650
  182DPPC   C36 9086   8.083   1.045   1.742
  182DPPC   C37 9087   8.039   1.082   1.884
  182DPPC   C38 9088   8.141   1.172   1.954
  182DPPC   C39 9089   8.111   1.186   2.103
  182DPPC   C40 9090   8.222   1.270   2.166
  182DPPC   C41 9091   8.189   1.309   2.310
  182DPPC   C42 9092   8.094   1.429   2.304
  182DPPC   C43 9093   8.067   1.502   2.436
  182DPPC   C44 9094   8.002   1.635   2.397
  182DPPC   C45 9095   7.962   1.714   2.522
  182DPPC   C46 9096   7.836   1.641   2.568
  182DPPC   C47 9097   7.781   1.711   2.692
  182DPPC   C48 9098   7.648   1.649   2.738
  182DPPC   C49 9099   7.602   1.697   2.876
  182DPPC   C50 9100   7.700   1.672   2.990
  183DPPC    C1 9101   7.527   3.547   1.736
  183DPPC    C2 9102   7.560   3.738   1.613
  183DPPC    C3 9103   7.465   3.539   1.507
  183DPPC    N4 9104   7.467   3.625   1.627
  183DPPC    C5 9105   7.336   3.684   1.656
  183DPPC    C6 9106   7.207   3.602   1.660
  183DPPC    O7 9107   7.194   3.493   1.751
  183DPPC    P8 9108   7.054   3.414   1.749
  183DPPC    O9 9109   7.065   3.309   1.853
  183DPPC   O10 9110   7.020   3.389   1.608
  183DPPC   O11 9111   6.970   3.536   1.812
  183DPPC   C12 9112   6.943   3.508   1.950
  183DPPC   C13 9113   7.020   3.607   2.038
  183DPPC   O14 9114   7.036   3.552   2.169
  183DPPC   C15 9115   7.140   3.614   2.233
  183DPPC   O16 9116   7.244   3.648   2.177
  183DPPC   C17 9117   7.137   3.595   2.384
  183DPPC   C18 9118   7.248   3.504   2.438
  183DPPC   C19 9119   7.222   3.484   2.587
  183DPPC   C20 9120   7.318   3.398   2.670
  183DPPC   C21 9121   7.257   3.403   2.811
  183DPPC   C22 9122   7.354   3.327   2.902
  183DPPC   C23 9123   7.298   3.343   3.043
  183DPPC   C24 9124   7.388   3.297   3.158
  183DPPC   C25 9125   7.309   3.283   3.288
  183DPPC   C26 9126   7.380   3.233   3.414
  183DPPC   C27 9127   7.509   3.310   3.446
  183DPPC   C28 9128   7.567   3.277   3.584
  183DPPC   C29 9129   7.467   3.268   3.699
  183DPPC   C30 9130   7.539   3.214   3.823
  183DPPC   C31 9131   7.604   3.077   3.805
  183DPPC   C32 9132   6.945   3.739   2.024
  183DPPC   O33 9133   7.009   3.851   2.087
  183DPPC   C34 9134   7.117   3.906   2.026
  183DPPC   O35 9135   7.175   3.852   1.932
  183DPPC   C36 9136   7.178   4.029   2.093
  183DPPC   C37 9137   7.269   3.991   2.210
  183DPPC   C38 9138   7.181   3.978   2.334
  183DPPC   C39 9139   7.274   3.960   2.454
  183DPPC   C40 9140   7.183   3.948   2.577
  183DPPC   C41 9141   7.232   3.843   2.677
  183DPPC   C42 9142   7.366   3.899   2.727
  183DPPC   C43 9143   7.425   3.824   2.846
  183DPPC   C44 9144   7.325   3.832   2.962
  183DPPC   C45 9145   7.375   3.782   3.098
  183DPPC   C46 9146   7.274   3.818   3.207
  183DPPC   C47 9147   7.149   3.736   3.176
  183DPPC   C48 9148   7.039   3.748   3.281
  183DPPC   C49 9149   6.946   3.628   3.262
  183DPPC   C50 9150   6.865   3.643   3.133
  184DPPC    C1 9151   1.650   1.780   1.580
  184DPPC    C2 9152   1.440   1.807   1.688
  184DPPC    C3 9153   1.634   1.777   1.810
  184DPPC    N4 9154   1.582   1.847   1.691
  184DPPC    C5 9155   1.608   1.990   1.710
  184DPPC    C6 9156   1.552   2.076   1.596
  184DPPC    O7 9157   1.598   2.211   1.608
  184DPPC    P8 9158   1.525   2.276   1.481
  184DPPC    O9 9159   1.488   2.184   1.371
  184DPPC   O10 9160   1.576   2.415   1.473
  184DPPC   O11 9161   1.396   2.297   1.575
  184DPPC   C12 9162   1.419   2.397   1.675
  184DPPC   C13 9163   1.308   2.410   1.780
  184DPPC   O14 9164   1.326   2.530   1.857
  184DPPC   C15 9165   1.215   2.606   1.880
  184DPPC   O16 9166   1.121   2.584   1.804
  184DPPC   C17 9167   1.235   2.728   1.970
  184DPPC   C18 9168   1.266   2.675   2.110
  184DPPC   C19 9169   1.135   2.624   2.170
  184DPPC   C20 9170   1.152   2.603   2.321
  184DPPC   C21 9171   1.023   2.565   2.394
  184DPPC   C22 9172   1.045   2.580   2.544
  184DPPC   C23 9173   0.920   2.512   2.601
  184DPPC   C24 9174   0.900   2.560   2.745
  184DPPC   C25 9175   0.790   2.502   2.833
  184DPPC   C26 9176   0.777   2.558   2.975
  184DPPC   C27 9177   0.648   2.495   3.027
  184DPPC   C28 9178   0.616   2.521   3.175
  184DPPC   C29 9179   0.722   2.448   3.258
  184DPPC   C30 9180   0.696   2.297   3.252
  184DPPC   C31 9181   0.801   2.234   3.343
  184DPPC   C32 9182   1.297   2.274   1.849
  184DPPC   O33 9183   1.420   2.245   1.915
  184DPPC   C34 9184   1.429   2.126   1.981
  184DPPC   O35 9185   1.391   2.026   1.920
  184DPPC   C36 9186   1.554   2.114   2.069
  184DPPC   C37 9187   1.544   2.019   2.189
  184DPPC   C38 9188   1.670   2.033   2.275
  184DPPC   C39 9189   1.646   1.965   2.410
  184DPPC   C40 9190   1.776   1.994   2.485
  184DPPC   C41 9191   1.793   2.146   2.478
  184DPPC   C42 9192   1.710   2.214   2.587
  184DPPC   C43 9193   1.749   2.146   2.719
  184DPPC   C44 9194   1.711   2.226   2.844
  184DPPC   C45 9195   1.776   2.155   2.963
  184DPPC   C46 9196   1.755   2.005   2.941
  184DPPC   C47 9197   1.834   1.915   3.035
  184DPPC   C48 9198   1.808   1.766   3.015
  184DPPC   C49 9199   1.871   1.687   3.130
  184DPPC   C50 9200   1.822   1.542   3.133
  185DPPC    C1 9201   6.606   7.269   1.483
  185DPPC    C2 9202   6.556   7.356   1.718
  185DPPC    C3 9203   6.430   7.415   1.528
  185DPPC    N4 9204   6.510   7.308   1.588
  185DPPC    C5 9205   6.410   7.203   1.611
  185DPPC    C6 9206   6.443   7.057   1.641
  185DPPC    O7 9207   6.551   7.051   1.734
  185DPPC    P8 9208   6.657   6.937   1.693
  185DPPC    O9 9209   6.782   6.979   1.761
  185DPPC   O10 9210   6.653   6.923   1.546
  185DPPC   O11 9211   6.596   6.820   1.786
  185DPPC   C12 9212   6.611   6.861   1.922
  185DPPC   C13 9213   6.515   6.777   2.007
  185DPPC   O14 9214   6.506   6.802   2.148
  185DPPC   C15 9215   6.394   6.755   2.209
  185DPPC   O16 9216   6.303   6.703   2.144
  185DPPC   C17 9217   6.379   6.790   2.357
  185DPPC   C18 9218   6.244   6.856   2.384
  185DPPC   C19 9219   6.195   6.830   2.527
  185DPPC   C20 9220   6.277   6.895   2.639
  185DPPC   C21 9221   6.228   6.866   2.781
  185DPPC   C22 9222   6.323   6.937   2.877
  185DPPC   C23 9223   6.297   6.901   3.024
  185DPPC   C24 9224   6.394   6.965   3.124
  185DPPC   C25 9225   6.383   6.897   3.261
  185DPPC   C26 9226   6.466   6.985   3.355
  185DPPC   C27 9227   6.504   6.912   3.485
  185DPPC   C28 9228   6.584   6.990   3.589
  185DPPC   C29 9229   6.638   6.892   3.694
  185DPPC   C30 9230   6.533   6.863   3.801
  185DPPC   C31 9231   6.588   6.771   3.910
  185DPPC   C32 9232   6.580   6.640   1.984
  185DPPC   O33 9233   6.722   6.633   1.997
  185DPPC   C34 9234   6.774   6.522   1.938
  185DPPC   O35 9235   6.704   6.444   1.874
  185DPPC   C36 9236   6.925   6.521   1.966
  185DPPC   C37 9237   6.975   6.418   2.067
  185DPPC   C38 9238   6.978   6.470   2.210
  185DPPC   C39 9239   7.012   6.357   2.308
  185DPPC   C40 9240   7.023   6.409   2.451
  185DPPC   C41 9241   7.061   6.302   2.553
  185DPPC   C42 9242   7.191   6.222   2.536
  185DPPC   C43 9243   7.187   6.099   2.628
  185DPPC   C44 9244   7.308   6.010   2.600
  185DPPC   C45 9245   7.312   5.895   2.700
  185DPPC   C46 9246   7.438   5.808   2.703
  185DPPC   C47 9247   7.430   5.711   2.585
  185DPPC   C48 9248   7.550   5.617   2.577
  185DPPC   C49 9249   7.686   5.687   2.573
  185DPPC   C50 9250   7.795   5.585   2.541
  186DPPC    C1 9251   6.759   2.197   1.748
  186DPPC    C2 9252   6.756   2.426   1.742
  186DPPC    C3 9253   6.563   2.309   1.658
  186DPPC    N4 9254   6.667   2.311   1.762
  186DPPC    C5 9255   6.605   2.328   1.894
  186DPPC    C6 9256   6.505   2.222   1.940
  186DPPC    O7 9257   6.559   2.090   1.954
  186DPPC    P8 9258   6.450   1.973   1.966
  186DPPC    O9 9259   6.531   1.850   1.980
  186DPPC   O10 9260   6.366   1.996   1.846
  186DPPC   O11 9261   6.395   2.022   2.109
  186DPPC   C12 9262   6.480   1.947   2.196
  186DPPC   C13 9263   6.445   1.974   2.343
  186DPPC   O14 9264   6.329   1.906   2.391
  186DPPC   C15 9265   6.336   1.770   2.398
  186DPPC   O16 9266   6.426   1.715   2.336
  186DPPC   C17 9267   6.232   1.693   2.481
  186DPPC   C18 9268   6.281   1.631   2.612
  186DPPC   C19 9269   6.286   1.721   2.735
  186DPPC   C20 9270   6.302   1.635   2.861
  186DPPC   C21 9271   6.346   1.731   2.971
  186DPPC   C22 9272   6.330   1.681   3.114
  186DPPC   C23 9273   6.361   1.781   3.226
  186DPPC   C24 9274   6.257   1.893   3.236
  186DPPC   C25 9275   6.290   2.016   3.319
  186DPPC   C26 9276   6.213   2.141   3.277
  186DPPC   C27 9277   6.245   2.249   3.380
  186DPPC   C28 9278   6.169   2.218   3.509
  186DPPC   C29 9279   6.224   2.302   3.625
  186DPPC   C30 9280   6.152   2.267   3.755
  186DPPC   C31 9281   6.211   2.342   3.875
  186DPPC   C32 9282   6.447   2.125   2.365
  186DPPC   O33 9283   6.576   2.171   2.406
  186DPPC   C34 9284   6.586   2.306   2.418
  186DPPC   O35 9285   6.486   2.377   2.420
  186DPPC   C36 9286   6.719   2.364   2.467
  186DPPC   C37 9287   6.737   2.329   2.615
  186DPPC   C38 9288   6.877   2.356   2.669
  186DPPC   C39 9289   6.879   2.288   2.806
  186DPPC   C40 9290   7.027   2.280   2.845
  186DPPC   C41 9291   7.045   2.220   2.985
  186DPPC   C42 9292   7.005   2.313   3.099
  186DPPC   C43 9293   7.007   2.248   3.237
  186DPPC   C44 9294   7.008   2.352   3.349
  186DPPC   C45 9295   7.019   2.294   3.489
  186DPPC   C46 9296   6.966   2.400   3.586
  186DPPC   C47 9297   6.927   2.356   3.727
  186DPPC   C48 9298   6.817   2.249   3.729
  186DPPC   C49 9299   6.679   2.295   3.683
  186DPPC   C50 9300   6.578   2.205   3.755
  187DPPC    C1 9301   9.209   1.287   0.615
  187DPPC    C2 9302   8.986   1.258   0.635
  187DPPC    C3 9303   9.129   1.079   0.551
  187DPPC    N4 9304   9.112   1.184   0.653
  187DPPC    C5 9305   9.139   1.149   0.793
  187DPPC    C6 9306   9.060   1.031   0.849
  187DPPC    O7 9307   8.935   1.076   0.902
  187DPPC    P8 9308   8.883   0.944   0.979
  187DPPC    O9 9309   8.970   0.827   0.957
  187DPPC   O10 9310   8.737   0.920   0.972
  187DPPC   O11 9311   8.936   0.988   1.125
  187DPPC   C12 9312   8.836   1.002   1.226
  187DPPC   C13 9313   8.876   1.026   1.371
  187DPPC   O14 9314   8.784   1.005   1.480
  187DPPC   C15 9315   8.743   0.880   1.516
  187DPPC   O16 9316   8.800   0.785   1.464
  187DPPC   C17 9317   8.638   0.861   1.626
  187DPPC   C18 9318   8.655   0.740   1.717
  187DPPC   C19 9319   8.545   0.721   1.821
  187DPPC   C20 9320   8.407   0.695   1.759
  187DPPC   C21 9321   8.318   0.667   1.880
  187DPPC   C22 9322   8.311   0.801   1.953
  187DPPC   C23 9323   8.296   0.746   2.096
  187DPPC   C24 9324   8.298   0.874   2.180
  187DPPC   C25 9325   8.307   0.854   2.332
  187DPPC   C26 9326   8.323   0.992   2.394
  187DPPC   C27 9327   8.342   0.984   2.546
  187DPPC   C28 9328   8.319   1.116   2.620
  187DPPC   C29 9329   8.338   1.084   2.768
  187DPPC   C30 9330   8.489   1.074   2.793
  187DPPC   C31 9331   8.510   1.071   2.945
  187DPPC   C32 9332   8.923   1.171   1.367
  187DPPC   O33 9333   9.001   1.223   1.475
  187DPPC   C34 9334   9.126   1.169   1.482
  187DPPC   O35 9335   9.179   1.124   1.381
  187DPPC   C36 9336   9.191   1.171   1.621
  187DPPC   C37 9337   9.236   1.033   1.670
  187DPPC   C38 9338   9.124   0.959   1.741
  187DPPC   C39 9339   9.084   1.020   1.876
  187DPPC   C40 9340   8.973   0.932   1.933
  187DPPC   C41 9341   9.023   0.788   1.938
  187DPPC   C42 9342   8.913   0.690   1.979
  187DPPC   C43 9343   8.845   0.736   2.108
  187DPPC   C44 9344   8.743   0.635   2.161
  187DPPC   C45 9345   8.673   0.694   2.283
  187DPPC   C46 9346   8.618   0.592   2.383
  187DPPC   C47 9347   8.567   0.674   2.501
  187DPPC   C48 9348   8.551   0.586   2.625
  187DPPC   C49 9349   8.499   0.676   2.737
  187DPPC   C50 9350   8.427   0.604   2.851
  188DPPC    C1 9351   7.422   2.403   1.679
  188DPPC    C2 9352   7.526   2.197   1.613
  188DPPC    C3 9353   7.296   2.241   1.555
  188DPPC    N4 9354   7.429   2.301   1.573
  188DPPC    C5 9355   7.466   2.366   1.447
  188DPPC    C6 9356   7.602   2.425   1.408
  188DPPC    O7 9357   7.714   2.338   1.422
  188DPPC    P8 9358   7.843   2.434   1.411
  188DPPC    O9 9359   7.816   2.534   1.305
  188DPPC   O10 9360   7.968   2.355   1.418
  188DPPC   O11 9361   7.826   2.515   1.550
  188DPPC   C12 9362   7.845   2.653   1.517
  188DPPC   C13 9363   7.879   2.742   1.637
  188DPPC   O14 9364   8.021   2.749   1.655
  188DPPC   C15 9365   8.070   2.872   1.686
  188DPPC   O16 9366   8.041   2.969   1.617
  188DPPC   C17 9367   8.205   2.862   1.758
  188DPPC   C18 9368   8.203   2.815   1.904
  188DPPC   C19 9369   8.131   2.910   2.001
  188DPPC   C20 9370   8.181   2.890   2.145
  188DPPC   C21 9371   8.157   3.007   2.241
  188DPPC   C22 9372   8.234   2.961   2.364
  188DPPC   C23 9373   8.215   3.076   2.463
  188DPPC   C24 9374   8.301   3.039   2.584
  188DPPC   C25 9375   8.321   3.163   2.670
  188DPPC   C26 9376   8.399   3.138   2.799
  188DPPC   C27 9377   8.402   3.269   2.879
  188DPPC   C28 9378   8.472   3.237   3.011
  188DPPC   C29 9379   8.611   3.178   2.990
  188DPPC   C30 9380   8.662   3.146   3.131
  188DPPC   C31 9381   8.674   2.994   3.146
  188DPPC   C32 9382   7.792   2.684   1.749
  188DPPC   O33 9383   7.776   2.765   1.866
  188DPPC   C34 9384   7.671   2.730   1.945
  188DPPC   O35 9385   7.587   2.651   1.901
  188DPPC   C36 9386   7.641   2.814   2.069
  188DPPC   C37 9387   7.765   2.839   2.154
  188DPPC   C38 9388   7.768   2.942   2.268
  188DPPC   C39 9389   7.661   2.896   2.368
  188DPPC   C40 9390   7.667   2.997   2.482
  188DPPC   C41 9391   7.568   2.969   2.596
  188DPPC   C42 9392   7.626   3.004   2.733
  188DPPC   C43 9393   7.534   2.967   2.850
  188DPPC   C44 9394   7.623   2.990   2.972
  188DPPC   C45 9395   7.582   2.917   3.100
  188DPPC   C46 9396   7.687   2.947   3.207
  188DPPC   C47 9397   7.668   2.875   3.340
  188DPPC   C48 9398   7.799   2.884   3.417
  188DPPC   C49 9399   7.784   2.823   3.557
  188DPPC   C50 9400   7.899   2.851   3.653
  189DPPC    C1 9401   8.963   3.732   1.260
  189DPPC    C2 9402   8.842   3.542   1.350
  189DPPC    C3 9403   8.882   3.742   1.483
  189DPPC    N4 9404   8.854   3.689   1.349
  189DPPC    C5 9405   8.721   3.728   1.302
  189DPPC    C6 9406   8.673   3.872   1.322
  189DPPC    O7 9407   8.774   3.966   1.284
  189DPPC    P8 9408   8.733   4.121   1.273
  189DPPC    O9 9409   8.588   4.121   1.244
  189DPPC   O10 9410   8.830   4.189   1.184
  189DPPC   O11 9411   8.754   4.154   1.429
  189DPPC   C12 9412   8.895   4.146   1.453
  189DPPC   C13 9413   8.952   4.222   1.572
  189DPPC   O14 9414   8.925   4.171   1.703
  189DPPC   C15 9415   8.985   4.056   1.745
  189DPPC   O16 9416   9.040   3.983   1.663
  189DPPC   C17 9417   8.949   4.014   1.887
  189DPPC   C18 9418   8.990   4.120   1.990
  189DPPC   C19 9419   8.901   4.110   2.114
  189DPPC   C20 9420   8.756   4.143   2.080
  189DPPC   C21 9421   8.688   4.198   2.206
  189DPPC   C22 9422   8.539   4.222   2.183
  189DPPC   C23 9423   8.489   4.257   2.324
  189DPPC   C24 9424   8.348   4.315   2.310
  189DPPC   C25 9425   8.298   4.376   2.441
  189DPPC   C26 9426   8.296   4.290   2.568
  189DPPC   C27 9427   8.244   4.361   2.693
  189DPPC   C28 9428   8.223   4.272   2.816
  189DPPC   C29 9429   8.353   4.255   2.893
  189DPPC   C30 9430   8.351   4.289   3.042
  189DPPC   C31 9431   8.246   4.206   3.118
  189DPPC   C32 9432   8.928   4.372   1.551
  189DPPC   O33 9433   9.013   4.458   1.627
  189DPPC   C34 9434   9.030   4.586   1.586
  189DPPC   O35 9435   9.001   4.622   1.471
  189DPPC   C36 9436   9.111   4.678   1.678
  189DPPC   C37 9437   9.019   4.750   1.777
  189DPPC   C38 9438   8.975   4.669   1.900
  189DPPC   C39 9439   8.852   4.738   1.958
  189DPPC   C40 9440   8.829   4.709   2.106
  189DPPC   C41 9441   8.709   4.779   2.171
  189DPPC   C42 9442   8.738   4.772   2.320
  189DPPC   C43 9443   8.719   4.628   2.366
  189DPPC   C44 9444   8.696   4.627   2.517
  189DPPC   C45 9445   8.668   4.490   2.580
  189DPPC   C46 9446   8.621   4.524   2.722
  189DPPC   C47 9447   8.725   4.618   2.784
  189DPPC   C48 9448   8.662   4.676   2.910
  189DPPC   C49 9449   8.595   4.566   2.992
  189DPPC   C50 9450   8.533   4.636   3.113
  190DPPC    C1 9451   5.043   7.192   1.677
  190DPPC    C2 9452   4.810   7.259   1.636
  190DPPC    C3 9453   4.913   7.295   1.850
  190DPPC    N4 9454   4.936   7.288   1.705
  190DPPC    C5 9455   4.974   7.428   1.676
  190DPPC    C6 9456   5.105   7.479   1.736
  190DPPC    O7 9457   5.083   7.573   1.841
  190DPPC    P8 9458   5.229   7.627   1.880
  190DPPC    O9 9459   5.188   7.716   1.990
  190DPPC   O10 9460   5.306   7.665   1.759
  190DPPC   O11 9461   5.270   7.484   1.940
  190DPPC   C12 9462   5.209   7.472   2.068
  190DPPC   C13 9463   5.192   7.323   2.099
  190DPPC   O14 9464   5.075   7.277   2.169
  190DPPC   C15 9465   5.046   7.146   2.150
  190DPPC   O16 9466   5.096   7.068   2.069
  190DPPC   C17 9467   4.932   7.102   2.242
  190DPPC   C18 9468   4.990   7.009   2.348
  190DPPC   C19 9469   5.104   7.077   2.424
  190DPPC   C20 9470   5.189   6.961   2.474
  190DPPC   C21 9471   5.341   6.982   2.476
  190DPPC   C22 9472   5.400   6.903   2.593
  190DPPC   C23 9473   5.548   6.938   2.615
  190DPPC   C24 9474   5.583   6.894   2.757
  190DPPC   C25 9475   5.578   6.741   2.766
  190DPPC   C26 9476   5.676   6.664   2.677
  190DPPC   C27 9477   5.631   6.518   2.681
  190DPPC   C28 9478   5.662   6.456   2.817
  190DPPC   C29 9479   5.648   6.303   2.819
  190DPPC   C30 9480   5.708   6.254   2.951
  190DPPC   C31 9481   5.667   6.111   2.984
  190DPPC   C32 9482   5.329   7.287   2.156
  190DPPC   O33 9483   5.372   7.355   2.275
  190DPPC   C34 9484   5.504   7.320   2.281
  190DPPC   O35 9485   5.533   7.209   2.239
  190DPPC   C36 9486   5.600   7.431   2.325
  190DPPC   C37 9487   5.597   7.447   2.477
  190DPPC   C38 9488   5.665   7.577   2.520
  190DPPC   C39 9489   5.816   7.558   2.535
  190DPPC   C40 9490   5.880   7.675   2.610
  190DPPC   C41 9491   5.856   7.804   2.532
  190DPPC   C42 9492   5.901   7.928   2.610
  190DPPC   C43 9493   5.816   7.940   2.737
  190DPPC   C44 9494   5.867   8.046   2.835
  190DPPC   C45 9495   5.785   8.065   2.963
  190DPPC   C46 9496   5.851   8.165   3.058
  190DPPC   C47 9497   5.774   8.190   3.188
  190DPPC   C48 9498   5.853   8.280   3.283
  190DPPC   C49 9499   5.777   8.294   3.415
  190DPPC   C50 9500   5.854   8.340   3.539
  191DPPC    C1 9501   0.994   2.281   1.301
  191DPPC    C2 9502   1.179   2.161   1.195
  191DPPC    C3 9503   1.137   2.142   1.433
  191DPPC    N4 9504   1.076   2.159   1.300
  191DPPC    C5 9505   0.996   2.044   1.255
  191DPPC    C6 9506   0.903   1.974   1.354
  191DPPC    O7 9507   0.805   2.055   1.419
  191DPPC    P8 9508   0.710   1.966   1.514
  191DPPC    O9 9509   0.814   1.886   1.584
  191DPPC   O10 9510   0.630   1.916   1.401
  191DPPC   O11 9511   0.644   2.098   1.577
  191DPPC   C12 9512   0.705   2.102   1.706
  191DPPC   C13 9513   0.719   2.244   1.760
  191DPPC   O14 9514   0.800   2.270   1.876
  191DPPC   C15 9515   0.928   2.227   1.893
  191DPPC   O16 9516   0.999   2.210   1.794
  191DPPC   C17 9517   0.988   2.239   2.034
  191DPPC   C18 9518   0.998   2.101   2.098
  191DPPC   C19 9519   1.050   2.126   2.240
  191DPPC   C20 9520   1.180   2.207   2.247
  191DPPC   C21 9521   1.235   2.165   2.384
  191DPPC   C22 9522   1.294   2.282   2.461
  191DPPC   C23 9523   1.304   2.245   2.609
  191DPPC   C24 9524   1.364   2.358   2.692
  191DPPC   C25 9525   1.327   2.332   2.838
  191DPPC   C26 9526   1.176   2.317   2.861
  191DPPC   C27 9527   1.145   2.266   3.002
  191DPPC   C28 9528   1.230   2.142   3.031
  191DPPC   C29 9529   1.184   2.089   3.167
  191DPPC   C30 9530   1.248   1.957   3.213
  191DPPC   C31 9531   1.194   1.908   3.347
  191DPPC   C32 9532   0.572   2.283   1.779
  191DPPC   O33 9533   0.496   2.202   1.869
  191DPPC   C34 9534   0.360   2.205   1.862
  191DPPC   O35 9535   0.299   2.273   1.780
  191DPPC   C36 9536   0.292   2.093   1.941
  191DPPC   C37 9537   0.216   2.136   2.066
  191DPPC   C38 9538   0.178   2.008   2.141
  191DPPC   C39 9539   0.138   2.046   2.284
  191DPPC   C40 9540   0.012   2.132   2.281
  191DPPC   C41 9541  -0.035   2.129   2.426
  191DPPC   C42 9542  -0.055   1.981   2.457
  191DPPC   C43 9543  -0.076   1.957   2.607
  191DPPC   C44 9544  -0.188   2.040   2.669
  191DPPC   C45 9545  -0.222   1.949   2.787
  191DPPC   C46 9546  -0.337   2.018   2.861
  191DPPC   C47 9547  -0.307   2.138   2.951
  191DPPC   C48 9548  -0.434   2.184   3.023
  191DPPC   C49 9549  -0.486   2.059   3.094
  191DPPC   C50 9550  -0.616   2.058   3.174
  192DPPC    C1 9551   4.809   1.083   1.687
  192DPPC    C2 9552   4.799   0.844   1.694
  192DPPC    C3 9553   5.011   0.952   1.671
  192DPPC    N4 9554   4.878   0.962   1.733
  192DPPC    C5 9555   4.892   0.948   1.879
  192DPPC    C6 9556   4.945   1.052   1.977
  192DPPC    O7 9557   4.879   1.178   1.965
  192DPPC    P8 9558   4.965   1.286   2.048
  192DPPC    O9 9559   4.903   1.415   2.012
  192DPPC   O10 9560   5.105   1.253   2.014
  192DPPC   O11 9561   4.928   1.261   2.202
  192DPPC   C12 9562   4.812   1.326   2.254
  192DPPC   C13 9563   4.818   1.318   2.406
  192DPPC   O14 9564   4.697   1.363   2.468
  192DPPC   C15 9565   4.590   1.280   2.454
  192DPPC   O16 9566   4.589   1.176   2.387
  192DPPC   C17 9567   4.458   1.333   2.511
  192DPPC   C18 9568   4.474   1.457   2.599
  192DPPC   C19 9569   4.344   1.509   2.660
  192DPPC   C20 9570   4.294   1.430   2.781
  192DPPC   C21 9571   4.174   1.496   2.850
  192DPPC   C22 9572   4.120   1.399   2.955
  192DPPC   C23 9573   4.203   1.389   3.083
  192DPPC   C24 9574   4.139   1.298   3.187
  192DPPC   C25 9575   4.237   1.279   3.302
  192DPPC   C26 9576   4.372   1.251   3.234
  192DPPC   C27 9577   4.448   1.164   3.335
  192DPPC   C28 9578   4.544   1.083   3.248
  192DPPC   C29 9579   4.620   0.983   3.336
  192DPPC   C30 9580   4.710   0.900   3.243
  192DPPC   C31 9581   4.845   0.963   3.210
  192DPPC   C32 9582   4.948   1.384   2.454
  192DPPC   O33 9583   4.987   1.338   2.583
  192DPPC   C34 9584   5.115   1.365   2.621
  192DPPC   O35 9585   5.207   1.355   2.540
  192DPPC   C36 9586   5.131   1.336   2.771
  192DPPC   C37 9587   5.189   1.195   2.780
  192DPPC   C38 9588   5.204   1.185   2.932
  192DPPC   C39 9589   5.169   1.043   2.977
  192DPPC   C40 9590   5.237   1.022   3.113
  192DPPC   C41 9591   5.273   0.878   3.147
  192DPPC   C42 9592   5.330   0.871   3.289
  192DPPC   C43 9593   5.369   0.730   3.333
  192DPPC   C44 9594   5.408   0.710   3.480
  192DPPC   C45 9595   5.395   0.564   3.523
  192DPPC   C46 9596   5.473   0.482   3.419
  192DPPC   C47 9597   5.472   0.336   3.464
  192DPPC   C48 9598   5.552   0.254   3.364
  192DPPC   C49 9599   5.586   0.114   3.415
  192DPPC   C50 9600   5.465   0.038   3.469
  193DPPC    C1 9601   5.432   5.740   6.048
  193DPPC    C2 9602   5.297   5.552   6.043
  193DPPC    C3 9603   5.255   5.741   5.909
  193DPPC    N4 9604   5.361   5.651   5.956
  193DPPC    C5 9605   5.454   5.592   5.858
  193DPPC    C6 9606   5.407   5.466   5.786
  193DPPC    O7 9607   5.475   5.448   5.661
  193DPPC    P8 9608   5.444   5.292   5.632
  193DPPC    O9 9609   5.410   5.228   5.761
  193DPPC   O10 9610   5.551   5.233   5.549
  193DPPC   O11 9611   5.316   5.304   5.535
  193DPPC   C12 9612   5.340   5.267   5.399
  193DPPC   C13 9613   5.227   5.313   5.306
  193DPPC   O14 9614   5.218   5.218   5.199
  193DPPC   C15 9615   5.133   5.112   5.212
  193DPPC   O16 9616   5.044   5.119   5.296
  193DPPC   C17 9617   5.129   5.020   5.090
  193DPPC   C18 9618   5.269   5.004   5.031
  193DPPC   C19 9619   5.263   4.889   4.932
  193DPPC   C20 9620   5.363   4.910   4.818
  193DPPC   C21 9621   5.361   4.785   4.729
  193DPPC   C22 9622   5.477   4.797   4.630
  193DPPC   C23 9623   5.479   4.669   4.545
  193DPPC   C24 9624   5.564   4.714   4.426
  193DPPC   C25 9625   5.578   4.602   4.322
  193DPPC   C26 9626   5.638   4.666   4.196
  193DPPC   C27 9627   5.781   4.713   4.223
  193DPPC   C28 9628   5.834   4.796   4.105
  193DPPC   C29 9629   5.838   4.714   3.976
  193DPPC   C30 9630   5.910   4.798   3.871
  193DPPC   C31 9631   5.818   4.901   3.805
  193DPPC   C32 9632   5.248   5.459   5.266
  193DPPC   O33 9633   5.364   5.484   5.186
  193DPPC   C34 9634   5.317   5.507   5.061
  193DPPC   O35 9635   5.208   5.558   5.039
  193DPPC   C36 9636   5.429   5.499   4.956
  193DPPC   C37 9637   5.468   5.352   4.939
  193DPPC   C38 9638   5.610   5.342   4.882
  193DPPC   C39 9639   5.615   5.193   4.851
  193DPPC   C40 9640   5.753   5.145   4.804
  193DPPC   C41 9641   5.765   4.992   4.797
  193DPPC   C42 9642   5.894   4.944   4.731
  193DPPC   C43 9643   5.929   4.800   4.769
  193DPPC   C44 9644   6.047   4.765   4.678
  193DPPC   C45 9645   6.014   4.794   4.531
  193DPPC   C46 9646   6.124   4.743   4.437
  193DPPC   C47 9647   6.141   4.591   4.450
  193DPPC   C48 9648   6.256   4.542   4.363
  193DPPC   C49 9649   6.216   4.550   4.216
  193DPPC   C50 9650   6.327   4.476   4.140
  194DPPC    C1 9651   8.004   5.527   0.920
  194DPPC    C2 9652   7.841   5.701   0.959
  194DPPC    C3 9653   7.828   5.553   0.770
  194DPPC    N4 9654   7.862   5.563   0.913
  194DPPC    C5 9655   7.761   5.479   0.979
  194DPPC    C6 9656   7.770   5.326   0.981
  194DPPC    O7 9657   7.860   5.283   1.083
  194DPPC    P8 9658   7.857   5.123   1.099
  194DPPC    O9 9659   7.883   5.080   0.959
  194DPPC   O10 9660   7.724   5.095   1.158
  194DPPC   O11 9661   7.979   5.094   1.200
  194DPPC   C12 9662   7.947   5.149   1.328
  194DPPC   C13 9663   8.024   5.272   1.377
  194DPPC   O14 9664   8.115   5.241   1.483
  194DPPC   C15 9665   8.199   5.326   1.547
  194DPPC   O16 9666   8.212   5.440   1.503
  194DPPC   C17 9667   8.290   5.279   1.661
  194DPPC   C18 9668   8.235   5.172   1.755
  194DPPC   C19 9669   8.348   5.075   1.790
  194DPPC   C20 9670   8.405   5.059   1.931
  194DPPC   C21 9671   8.298   4.988   2.013
  194DPPC   C22 9672   8.339   4.971   2.159
  194DPPC   C23 9673   8.274   4.848   2.223
  194DPPC   C24 9674   8.242   4.885   2.367
  194DPPC   C25 9675   8.160   4.774   2.432
  194DPPC   C26 9676   8.163   4.802   2.583
  194DPPC   C27 9677   8.302   4.788   2.645
  194DPPC   C28 9678   8.282   4.791   2.796
  194DPPC   C29 9679   8.191   4.898   2.858
  194DPPC   C30 9680   8.208   4.909   3.010
  194DPPC   C31 9681   8.126   5.030   3.056
  194DPPC   C32 9682   7.913   5.365   1.425
  194DPPC   O33 9683   7.829   5.325   1.534
  194DPPC   C34 9684   7.716   5.398   1.551
  194DPPC   O35 9685   7.697   5.492   1.473
  194DPPC   C36 9686   7.634   5.362   1.674
  194DPPC   C37 9687   7.498   5.431   1.676
  194DPPC   C38 9688   7.424   5.410   1.808
  194DPPC   C39 9689   7.295   5.492   1.811
  194DPPC   C40 9690   7.200   5.467   1.928
  194DPPC   C41 9691   7.135   5.328   1.925
  194DPPC   C42 9692   7.057   5.310   2.055
  194DPPC   C43 9693   7.151   5.317   2.176
  194DPPC   C44 9694   7.078   5.321   2.311
  194DPPC   C45 9695   7.189   5.355   2.410
  194DPPC   C46 9696   7.142   5.329   2.553
  194DPPC   C47 9697   7.241   5.364   2.664
  194DPPC   C48 9698   7.176   5.328   2.797
  194DPPC   C49 9699   7.277   5.356   2.908
  194DPPC   C50 9700   7.402   5.271   2.886
  195DPPC    C1 9701   2.510   3.569   5.456
  195DPPC    C2 9702   2.300   3.630   5.401
  195DPPC    C3 9703   2.432   3.583   5.220
  195DPPC    N4 9704   2.406   3.537   5.357
  195DPPC    C5 9705   2.350   3.402   5.372
  195DPPC    C6 9706   2.411   3.283   5.298
  195DPPC    O7 9707   2.536   3.240   5.353
  195DPPC    P8 9708   2.580   3.094   5.301
  195DPPC    O9 9709   2.545   3.095   5.157
  195DPPC   O10 9710   2.526   2.996   5.399
  195DPPC   O11 9711   2.740   3.106   5.308
  195DPPC   C12 9712   2.771   3.213   5.219
  195DPPC   C13 9713   2.843   3.342   5.262
  195DPPC   O14 9714   2.823   3.440   5.159
  195DPPC   C15 9715   2.854   3.572   5.174
  195DPPC   O16 9716   2.836   3.617   5.287
  195DPPC   C17 9717   2.852   3.661   5.050
  195DPPC   C18 9718   2.959   3.619   4.950
  195DPPC   C19 9719   2.945   3.710   4.828
  195DPPC   C20 9720   3.009   3.648   4.704
  195DPPC   C21 9721   2.927   3.524   4.668
  195DPPC   C22 9722   2.958   3.468   4.530
  195DPPC   C23 9723   2.910   3.578   4.435
  195DPPC   C24 9724   2.940   3.558   4.286
  195DPPC   C25 9725   2.894   3.424   4.228
  195DPPC   C26 9726   2.929   3.405   4.080
  195DPPC   C27 9727   3.080   3.421   4.063
  195DPPC   C28 9728   3.102   3.429   3.912
  195DPPC   C29 9729   3.072   3.291   3.852
  195DPPC   C30 9730   3.166   3.196   3.926
  195DPPC   C31 9731   3.158   3.053   3.872
  195DPPC   C32 9732   2.989   3.304   5.286
  195DPPC   O33 9733   3.042   3.212   5.190
  195DPPC   C34 9734   3.173   3.180   5.208
  195DPPC   O35 9735   3.232   3.227   5.304
  195DPPC   C36 9736   3.240   3.082   5.112
  195DPPC   C37 9737   3.307   3.168   5.005
  195DPPC   C38 9738   3.325   3.086   4.876
  195DPPC   C39 9739   3.190   3.075   4.805
  195DPPC   C40 9740   3.224   3.019   4.666
  195DPPC   C41 9741   3.119   3.052   4.559
  195DPPC   C42 9742   3.181   3.010   4.426
  195DPPC   C43 9743   3.087   3.027   4.306
  195DPPC   C44 9744   2.945   2.973   4.319
  195DPPC   C45 9745   2.868   2.991   4.188
  195DPPC   C46 9746   2.720   2.954   4.203
  195DPPC   C47 9747   2.621   3.008   4.100
  195DPPC   C48 9748   2.621   3.160   4.082
  195DPPC   C49 9749   2.588   3.213   3.943
  195DPPC   C50 9750   2.590   3.364   3.968
  196DPPC    C1 9751   0.644   0.144   1.507
  196DPPC    C2 9752   0.505   0.298   1.408
  196DPPC    C3 9753   0.474   0.254   1.643
  196DPPC    N4 9754   0.573   0.269   1.535
  196DPPC    C5 9755   0.676   0.373   1.549
  196DPPC    C6 9756   0.637   0.521   1.555
  196DPPC    O7 9757   0.524   0.564   1.632
  196DPPC    P8 9758   0.522   0.725   1.627
  196DPPC    O9 9759   0.387   0.776   1.594
  196DPPC   O10 9760   0.637   0.772   1.545
  196DPPC   O11 9761   0.584   0.764   1.770
  196DPPC   C12 9762   0.471   0.749   1.855
  196DPPC   C13 9763   0.506   0.723   2.002
  196DPPC   O14 9764   0.394   0.679   2.080
  196DPPC   C15 9765   0.348   0.553   2.058
  196DPPC   O16 9766   0.413   0.471   1.994
  196DPPC   C17 9767   0.212   0.508   2.113
  196DPPC   C18 9768   0.222   0.489   2.265
  196DPPC   C19 9769   0.099   0.437   2.340
  196DPPC   C20 9770   0.142   0.434   2.487
  196DPPC   C21 9771   0.045   0.372   2.587
  196DPPC   C22 9772   0.146   0.305   2.681
  196DPPC   C23 9773   0.063   0.261   2.801
  196DPPC   C24 9774   0.155   0.207   2.910
  196DPPC   C25 9775   0.062   0.147   3.016
  196DPPC   C26 9776   0.131   0.049   3.111
  196DPPC   C27 9777   0.164  -0.087   3.048
  196DPPC   C28 9778   0.217  -0.185   3.153
  196DPPC   C29 9779   0.263  -0.320   3.096
  196DPPC   C30 9780   0.278  -0.450   3.175
  196DPPC   C31 9781   0.309  -0.567   3.082
  196DPPC   C32 9782   0.592   0.841   2.047
  196DPPC   O33 9783   0.528   0.965   2.014
  196DPPC   C34 9784   0.596   1.083   2.012
  196DPPC   O35 9785   0.713   1.075   2.047
  196DPPC   C36 9786   0.516   1.208   1.976
  196DPPC   C37 9787   0.445   1.286   2.087
  196DPPC   C38 9788   0.348   1.389   2.030
  196DPPC   C39 9789   0.270   1.450   2.147
  196DPPC   C40 9790   0.200   1.343   2.230
  196DPPC   C41 9791   0.123   1.410   2.344
  196DPPC   C42 9792   0.058   1.304   2.433
  196DPPC   C43 9793  -0.015   1.373   2.549
  196DPPC   C44 9794  -0.072   1.268   2.645
  196DPPC   C45 9795  -0.098   1.317   2.788
  196DPPC   C46 9796  -0.172   1.217   2.877
  196DPPC   C47 9797  -0.218   1.280   3.009
  196DPPC   C48 9798  -0.282   1.176   3.101
  196DPPC   C49 9799  -0.183   1.128   3.207
  196DPPC   C50 9800  -0.251   1.057   3.324
  197DPPC    C1 9801   8.829   2.064   5.658
  197DPPC    C2 9802   8.878   1.828   5.674
  197DPPC    C3 9803   8.718   1.914   5.524
  197DPPC    N4 9804   8.850   1.940   5.582
  197DPPC    C5 9805   8.964   1.955   5.491
  197DPPC    C6 9806   9.004   1.836   5.402
  197DPPC    O7 9807   8.904   1.781   5.316
  197DPPC    P8 9808   8.975   1.687   5.206
  197DPPC    O9 9809   8.876   1.596   5.143
  197DPPC   O10 9810   9.109   1.645   5.254
  197DPPC   O11 9811   9.004   1.807   5.104
  197DPPC   C12 9812   8.878   1.855   5.056
  197DPPC   C13 9813   8.879   2.000   5.005
  197DPPC   O14 9814   8.752   2.056   4.970
  197DPPC   C15 9815   8.734   2.189   4.993
  197DPPC   O16 9816   8.787   2.238   5.092
  197DPPC   C17 9817   8.622   2.259   4.917
  197DPPC   C18 9818   8.671   2.293   4.776
  197DPPC   C19 9819   8.546   2.309   4.689
  197DPPC   C20 9820   8.590   2.364   4.554
  197DPPC   C21 9821   8.472   2.395   4.462
  197DPPC   C22 9822   8.513   2.418   4.316
  197DPPC   C23 9823   8.388   2.458   4.238
  197DPPC   C24 9824   8.294   2.544   4.323
  197DPPC   C25 9825   8.181   2.591   4.231
  197DPPC   C26 9826   8.148   2.465   4.149
  197DPPC   C27 9827   8.030   2.509   4.062
  197DPPC   C28 9828   7.983   2.381   3.993
  197DPPC   C29 9829   7.857   2.424   3.918
  197DPPC   C30 9830   7.785   2.297   3.871
  197DPPC   C31 9831   7.866   2.199   3.786
  197DPPC   C32 9832   8.978   1.989   4.889
  197DPPC   O33 9833   9.013   2.110   4.822
  197DPPC   C34 9834   9.111   2.105   4.727
  197DPPC   O35 9835   9.194   2.014   4.723
  197DPPC   C36 9836   9.127   2.229   4.640
  197DPPC   C37 9837   9.005   2.246   4.548
  197DPPC   C38 9838   9.014   2.352   4.438
  197DPPC   C39 9839   8.899   2.360   4.338
  197DPPC   C40 9840   8.930   2.499   4.283
  197DPPC   C41 9841   8.900   2.613   4.380
  197DPPC   C42 9842   8.949   2.750   4.332
  197DPPC   C43 9843   8.913   2.860   4.431
  197DPPC   C44 9844   8.993   2.989   4.406
  197DPPC   C45 9845   8.966   3.091   4.516
  197DPPC   C46 9846   9.080   3.192   4.533
  197DPPC   C47 9847   9.015   3.291   4.629
  197DPPC   C48 9848   9.106   3.407   4.673
  197DPPC   C49 9849   9.047   3.490   4.787
  197DPPC   C50 9850   9.029   3.406   4.913
  198DPPC    C1 9851   3.957   4.857   5.244
  198DPPC    C2 9852   3.747   4.794   5.324
  198DPPC    C3 9853   3.931   4.785   5.472
  198DPPC    N4 9854   3.871   4.863   5.363
  198DPPC    C5 9855   3.841   5.000   5.408
  198DPPC    C6 9856   3.944   5.082   5.487
  198DPPC    O7 9857   4.045   5.134   5.401
  198DPPC    P8 9858   4.182   5.128   5.487
  198DPPC    O9 9859   4.207   4.983   5.466
  198DPPC   O10 9860   4.166   5.194   5.618
  198DPPC   O11 9861   4.268   5.213   5.381
  198DPPC   C12 9862   4.320   5.124   5.282
  198DPPC   C13 9863   4.395   5.185   5.163
  198DPPC   O14 9864   4.518   5.257   5.175
  198DPPC   C15 9865   4.625   5.174   5.192
  198DPPC   O16 9866   4.620   5.061   5.239
  198DPPC   C17 9867   4.766   5.227   5.166
  198DPPC   C18 9868   4.768   5.299   5.031
  198DPPC   C19 9869   4.897   5.348   4.965
  198DPPC   C20 9870   4.873   5.396   4.821
  198DPPC   C21 9871   5.008   5.425   4.756
  198DPPC   C22 9872   5.083   5.296   4.723
  198DPPC   C23 9873   5.197   5.338   4.630
  198DPPC   C24 9874   5.275   5.227   4.560
  198DPPC   C25 9875   5.419   5.267   4.527
  198DPPC   C26 9876   5.485   5.160   4.440
  198DPPC   C27 9877   5.630   5.189   4.402
  198DPPC   C28 9878   5.663   5.112   4.274
  198DPPC   C29 9879   5.805   5.149   4.233
  198DPPC   C30 9880   5.899   5.116   4.349
  198DPPC   C31 9881   6.052   5.115   4.340
  198DPPC   C32 9882   4.282   5.255   5.087
  198DPPC   O33 9883   4.178   5.170   5.040
  198DPPC   C34 9884   4.074   5.233   4.978
  198DPPC   O35 9885   4.077   5.353   4.951
  198DPPC   C36 9886   3.947   5.156   4.944
  198DPPC   C37 9887   4.005   5.023   4.895
  198DPPC   C38 9888   4.065   5.023   4.754
  198DPPC   C39 9889   4.127   4.886   4.728
  198DPPC   C40 9890   4.186   4.886   4.587
  198DPPC   C41 9891   4.243   4.749   4.552
  198DPPC   C42 9892   4.351   4.765   4.445
  198DPPC   C43 9893   4.448   4.648   4.432
  198DPPC   C44 9894   4.549   4.672   4.320
  198DPPC   C45 9895   4.667   4.575   4.309
  198DPPC   C46 9896   4.767   4.608   4.198
  198DPPC   C47 9897   4.884   4.510   4.189
  198DPPC   C48 9898   4.845   4.365   4.162
  198DPPC   C49 9899   4.966   4.279   4.125
  198DPPC   C50 9900   4.915   4.143   4.077
  199DPPC    C1 9901   6.945   6.320   5.286
  199DPPC    C2 9902   6.898   6.543   5.221
  199DPPC    C3 9903   6.811   6.369   5.098
  199DPPC    N4 9904   6.839   6.409   5.237
  199DPPC    C5 9905   6.722   6.399   5.326
  199DPPC    C6 9906   6.613   6.505   5.315
  199DPPC    O7 9907   6.529   6.480   5.202
  199DPPC    P8 9908   6.407   6.585   5.199
  199DPPC    O9 9909   6.480   6.714   5.187
  199DPPC   O10 9910   6.314   6.547   5.307
  199DPPC   O11 9911   6.340   6.530   5.064
  199DPPC   C12 9912   6.439   6.473   4.977
  199DPPC   C13 9913   6.407   6.496   4.829
  199DPPC   O14 9914   6.496   6.436   4.734
  199DPPC   C15 9915   6.480   6.305   4.702
  199DPPC   O16 9916   6.410   6.237   4.777
  199DPPC   C17 9917   6.547   6.245   4.579
  199DPPC   C18 9918   6.503   6.296   4.441
  199DPPC   C19 9919   6.590   6.221   4.340
  199DPPC   C20 9920   6.558   6.286   4.206
  199DPPC   C21 9921   6.640   6.203   4.107
  199DPPC   C22 9922   6.635   6.263   3.967
  199DPPC   C23 9923   6.734   6.379   3.958
  199DPPC   C24 9924   6.728   6.427   3.813
  199DPPC   C25 9925   6.816   6.353   3.714
  199DPPC   C26 9926   6.815   6.434   3.584
  199DPPC   C27 9927   6.870   6.575   3.608
  199DPPC   C28 9928   6.870   6.656   3.478
  199DPPC   C29 9929   6.953   6.783   3.495
  199DPPC   C30 9930   6.983   6.864   3.368
  199DPPC   C31 9931   7.057   6.992   3.405
  199DPPC   C32 9932   6.392   6.648   4.824
  199DPPC   O33 9933   6.497   6.735   4.868
  199DPPC   C34 9934   6.463   6.867   4.861
  199DPPC   O35 9935   6.349   6.900   4.832
  199DPPC   C36 9936   6.568   6.964   4.914
  199DPPC   C37 9937   6.568   7.094   4.833
  199DPPC   C38 9938   6.483   7.205   4.894
  199DPPC   C39 9939   6.455   7.324   4.801
  199DPPC   C40 9940   6.388   7.276   4.673
  199DPPC   C41 9941   6.369   7.398   4.583
  199DPPC   C42 9942   6.507   7.454   4.547
  199DPPC   C43 9943   6.583   7.368   4.446
  199DPPC   C44 9944   6.715   7.439   4.417
  199DPPC   C45 9945   6.703   7.579   4.356
  199DPPC   C46 9946   6.839   7.621   4.301
  199DPPC   C47 9947   6.897   7.522   4.199
  199DPPC   C48 9948   7.037   7.564   4.152
  199DPPC   C49 9949   7.127   7.575   4.275
  199DPPC   C50 9950   7.272   7.613   4.241
  200DPPC    C1 9951   2.643   7.581   5.011
  200DPPC    C2 9952   2.725   7.449   5.204
  200DPPC    C3 9953   2.775   7.669   5.168
  200DPPC    N4 9954   2.664   7.574   5.156
  200DPPC    C5 9955   2.560   7.637   5.240
  200DPPC    C6 9956   2.419   7.581   5.227
  200DPPC    O7 9957   2.398   7.441   5.250
  200DPPC    P8 9958   2.248   7.389   5.228
  200DPPC    O9 9959   2.152   7.496   5.262
  200DPPC   O10 9960   2.255   7.265   5.308
  200DPPC   O11 9961   2.256   7.372   5.068
  200DPPC   C12 9962   2.337   7.255   5.050
  200DPPC   C13 9963   2.318   7.196   4.910
  200DPPC   O14 9964   2.400   7.243   4.801
  200DPPC   C15 9965   2.535   7.227   4.802
  200DPPC   O16 9966   2.605   7.221   4.903
  200DPPC   C17 9967   2.586   7.252   4.660
  200DPPC   C18 9968   2.682   7.140   4.619
  200DPPC   C19 9969   2.731   7.179   4.479
  200DPPC   C20 9970   2.840   7.083   4.432
  200DPPC   C21 9971   2.891   7.104   4.290
  200DPPC   C22 9972   2.785   7.091   4.179
  200DPPC   C23 9973   2.860   7.097   4.046
  200DPPC   C24 9974   2.775   7.094   3.918
  200DPPC   C25 9975   2.851   7.107   3.787
  200DPPC   C26 9976   2.926   7.239   3.769
  200DPPC   C27 9977   3.001   7.249   3.635
  200DPPC   C28 9978   3.100   7.365   3.628
  200DPPC   C29 9979   3.167   7.366   3.491
  200DPPC   C30 9980   3.248   7.237   3.473
  200DPPC   C31 9981   3.346   7.226   3.356
  200DPPC   C32 9982   2.166   7.184   4.902
  200DPPC   O33 9983   2.118   7.103   4.795
  200DPPC   C34 9984   1.983   7.091   4.803
  200DPPC   O35 9985   1.916   7.107   4.905
  200DPPC   C36 9986   1.928   7.018   4.680
  200DPPC   C37 9987   1.888   7.103   4.560
  200DPPC   C38 9988   1.851   7.013   4.441
  200DPPC   C39 9989   1.979   6.959   4.377
  200DPPC   C40 9990   1.960   6.847   4.274
  200DPPC   C41 9991   2.088   6.797   4.207
  200DPPC   C42 9992   2.043   6.690   4.108
  200DPPC   C43 9993   1.924   6.744   4.028
  200DPPC   C44 9994   1.852   6.633   3.952
  200DPPC   C45 9995   1.704   6.668   3.931
  200DPPC   C46 9996   1.675   6.803   3.865
  200DPPC   C47 9997   1.531   6.816   3.814
  200DPPC   C48 9998   1.500   6.963   3.788
  200DPPC   C49 9999   1.358   6.999   3.743
  200DPPC   C5010000   1.339   7.150   3.725
  201DPPC    C110001   7.794   1.518   5.638
  201DPPC    C210002   7.804   1.585   5.871
  201DPPC    C310003   7.828   1.361   5.817
  201DPPC    N410004   7.859   1.496   5.768
  201DPPC    C510005   8.005   1.508   5.781
  201DPPC    C610006   8.079   1.619   5.705
  201DPPC    O710007   8.034   1.743   5.761
  201DPPC    P810008   8.087   1.866   5.672
  201DPPC    O910009   8.229   1.833   5.645
  201DPPC   O1010010   8.053   2.003   5.716
  201DPPC   O1110011   8.000   1.831   5.541
  201DPPC   C1210012   8.070   1.890   5.431
  201DPPC   C1310013   7.995   1.917   5.300
  201DPPC   O1410014   7.896   2.021   5.297
  201DPPC   C1510015   7.935   2.151   5.310
  201DPPC   O1610016   8.027   2.180   5.385
  201DPPC   C1710017   7.843   2.251   5.240
  201DPPC   C1810018   7.865   2.250   5.088
  201DPPC   C1910019   7.783   2.362   5.023
  201DPPC   C2010020   7.635   2.326   5.038
  201DPPC   C2110021   7.545   2.432   4.974
  201DPPC   C2210022   7.401   2.386   4.953
  201DPPC   C2310023   7.320   2.498   4.889
  201DPPC   C2410024   7.358   2.512   4.741
  201DPPC   C2510025   7.266   2.615   4.675
  201DPPC   C2610026   7.289   2.616   4.524
  201DPPC   C2710027   7.173   2.679   4.446
  201DPPC   C2810028   7.176   2.639   4.298
  201DPPC   C2910029   7.050   2.660   4.214
  201DPPC   C3010030   7.058   2.603   4.072
  201DPPC   C3110031   6.941   2.506   4.055
  201DPPC   C3210032   7.941   1.777   5.268
  201DPPC   O3310033   8.051   1.688   5.249
  201DPPC   C3410034   8.017   1.559   5.272
  201DPPC   O3510035   7.903   1.532   5.311
  201DPPC   C3610036   8.125   1.455   5.243
  201DPPC   C3710037   8.181   1.471   5.101
  201DPPC   C3810038   8.261   1.350   5.053
  201DPPC   C3910039   8.320   1.371   4.913
  201DPPC   C4010040   8.209   1.420   4.821
  201DPPC   C4110041   8.260   1.469   4.685
  201DPPC   C4210042   8.146   1.554   4.627
  201DPPC   C4310043   8.169   1.627   4.495
  201DPPC   C4410044   8.037   1.689   4.449
  201DPPC   C4510045   7.919   1.594   4.426
  201DPPC   C4610046   7.796   1.672   4.380
  201DPPC   C4710047   7.670   1.585   4.377
  201DPPC   C4810048   7.553   1.680   4.350
  201DPPC   C4910049   7.424   1.616   4.401
  201DPPC   C5010050   7.435   1.584   4.550
  202DPPC    C110051   0.670   2.612   5.553
  202DPPC    C210052   0.885   2.626   5.652
  202DPPC    C310053   0.683   2.697   5.755
  202DPPC    N410054   0.745   2.589   5.677
  202DPPC    C510055   0.723   2.459   5.742
  202DPPC    C610056   0.702   2.331   5.661
  202DPPC    O710057   0.574   2.324   5.598
  202DPPC    P810058   0.545   2.185   5.523
  202DPPC    O910059   0.401   2.153   5.529
  202DPPC   O1010060   0.658   2.105   5.576
  202DPPC   O1110061   0.590   2.243   5.379
  202DPPC   C1210062   0.489   2.311   5.304
  202DPPC   C1310063   0.548   2.416   5.210
  202DPPC   O1410064   0.447   2.458   5.118
  202DPPC   C1510065   0.443   2.585   5.070
  202DPPC   O1610066   0.435   2.678   5.151
  202DPPC   C1710067   0.388   2.604   4.929
  202DPPC   C1810068   0.351   2.743   4.876
  202DPPC   C1910069   0.325   2.737   4.725
  202DPPC   C2010070   0.266   2.876   4.701
  202DPPC   C2110071   0.209   2.901   4.561
  202DPPC   C2210072   0.319   2.900   4.454
  202DPPC   C2310073   0.253   2.940   4.322
  202DPPC   C2410074   0.348   2.899   4.210
  202DPPC   C2510075   0.288   2.908   4.069
  202DPPC   C2610076   0.384   2.843   3.970
  202DPPC   C2710077   0.341   2.862   3.824
  202DPPC   C2810078   0.454   2.809   3.736
  202DPPC   C2910079   0.431   2.834   3.586
  202DPPC   C3010080   0.556   2.813   3.501
  202DPPC   C3110081   0.550   2.882   3.365
  202DPPC   C3210082   0.661   2.332   5.150
  202DPPC   O3310083   0.716   2.363   5.021
  202DPPC   C3410084   0.803   2.274   4.967
  202DPPC   O3510085   0.820   2.168   5.026
  202DPPC   C3610086   0.834   2.291   4.818
  202DPPC   C3710087   0.784   2.427   4.771
  202DPPC   C3810088   0.778   2.443   4.619
  202DPPC   C3910089   0.768   2.595   4.607
  202DPPC   C4010090   0.723   2.645   4.469
  202DPPC   C4110091   0.694   2.796   4.472
  202DPPC   C4210092   0.684   2.839   4.326
  202DPPC   C4310093   0.811   2.800   4.251
  202DPPC   C4410094   0.786   2.800   4.100
  202DPPC   C4510095   0.907   2.766   4.012
  202DPPC   C4610096   0.862   2.751   3.867
  202DPPC   C4710097   0.987   2.758   3.778
  202DPPC   C4810098   0.942   2.729   3.634
  202DPPC   C4910099   1.045   2.740   3.521
  202DPPC   C5010100   0.978   2.688   3.393
  203DPPC    C110101   1.937   7.637   4.347
  203DPPC    C210102   1.726   7.582   4.242
  203DPPC    C310103   1.843   7.424   4.381
  203DPPC    N410104   1.809   7.566   4.362
  203DPPC    C510105   1.734   7.616   4.478
  203DPPC    C610106   1.758   7.578   4.624
  203DPPC    O710107   1.880   7.631   4.677
  203DPPC    P810108   1.949   7.516   4.766
  203DPPC    O910109   1.856   7.405   4.797
  203DPPC   O1010110   2.035   7.589   4.862
  203DPPC   O1110111   2.045   7.446   4.658
  203DPPC   C1210112   2.184   7.477   4.671
  203DPPC   C1310113   2.244   7.430   4.538
  203DPPC   O1410114   2.233   7.527   4.433
  203DPPC   C1510115   2.340   7.604   4.400
  203DPPC   O1610116   2.381   7.670   4.495
  203DPPC   C1710117   2.349   7.646   4.253
  203DPPC   C1810118   2.489   7.636   4.192
  203DPPC   C1910119   2.485   7.636   4.039
  203DPPC   C2010120   2.619   7.644   3.966
  203DPPC   C2110121   2.726   7.545   4.012
  203DPPC   C2210122   2.853   7.555   3.927
  203DPPC   C2310123   2.876   7.700   3.886
  203DPPC   C2410124   3.001   7.724   3.800
  203DPPC   C2510125   3.022   7.873   3.776
  203DPPC   C2610126   3.126   7.897   3.665
  203DPPC   C2710127   3.161   8.042   3.634
  203DPPC   C2810128   3.206   8.109   3.764
  203DPPC   C2910129   3.262   8.249   3.743
  203DPPC   C3010130   3.272   8.308   3.884
  203DPPC   C3110131   3.371   8.425   3.878
  203DPPC   C3210132   2.209   7.284   4.510
  203DPPC   O3310133   2.265   7.225   4.392
  203DPPC   C3410134   2.218   7.266   4.272
  203DPPC   O3510135   2.113   7.330   4.265
  203DPPC   C3610136   2.313   7.260   4.152
  203DPPC   C3710137   2.275   7.147   4.055
  203DPPC   C3810138   2.385   7.139   3.948
  203DPPC   C3910139   2.373   7.009   3.868
  203DPPC   C4010140   2.265   7.023   3.760
  203DPPC   C4110141   2.213   6.885   3.722
  203DPPC   C4210142   2.082   6.892   3.643
  203DPPC   C4310143   2.021   6.754   3.615
  203DPPC   C4410144   1.894   6.779   3.535
  203DPPC   C4510145   1.821   6.657   3.478
  203DPPC   C4610146   1.691   6.706   3.415
  203DPPC   C4710147   1.584   6.598   3.433
  203DPPC   C4810148   1.457   6.648   3.364
  203DPPC   C4910149   1.381   6.752   3.446
  203DPPC   C5010150   1.246   6.797   3.388
  204DPPC    C110151   9.424   7.704   4.593
  204DPPC    C210152   9.614   7.682   4.444
  204DPPC    C310153   9.627   7.608   4.666
  204DPPC    N410154   9.536   7.618   4.551
  204DPPC    C510155   9.499   7.485   4.501
  204DPPC    C610156   9.379   7.422   4.572
  204DPPC    O710157   9.328   7.310   4.500
  204DPPC    P810158   9.236   7.241   4.612
  204DPPC    O910159   9.197   7.337   4.717
  204DPPC   O1010160   9.302   7.111   4.641
  204DPPC   O1110161   9.112   7.224   4.510
  204DPPC   C1210162   9.129   7.096   4.447
  204DPPC   C1310163   9.007   7.051   4.367
  204DPPC   O1410164   8.994   6.914   4.325
  204DPPC   C1510165   8.966   6.818   4.417
  204DPPC   O1610166   8.947   6.848   4.535
  204DPPC   C1710167   8.952   6.676   4.361
  204DPPC   C1810168   8.814   6.634   4.312
  204DPPC   C1910169   8.815   6.496   4.246
  204DPPC   C2010170   8.907   6.495   4.124
  204DPPC   C2110171   8.869   6.374   4.037
  204DPPC   C2210172   8.930   6.408   3.901
  204DPPC   C2310173   8.834   6.371   3.787
  204DPPC   C2410174   8.902   6.424   3.660
  204DPPC   C2510175   9.036   6.352   3.645
  204DPPC   C2610176   9.103   6.398   3.516
  204DPPC   C2710177   9.002   6.412   3.401
  204DPPC   C2810178   9.062   6.475   3.275
  204DPPC   C2910179   8.944   6.540   3.202
  204DPPC   C3010180   8.880   6.444   3.101
  204DPPC   C3110181   8.770   6.516   3.023
  204DPPC   C3210182   8.982   7.160   4.264
  204DPPC   O3310183   9.087   7.194   4.173
  204DPPC   C3410184   9.050   7.286   4.081
  204DPPC   O3510185   8.939   7.338   4.075
  204DPPC   C3610186   9.165   7.325   3.987
  204DPPC   C3710187   9.120   7.369   3.847
  204DPPC   C3810188   9.236   7.386   3.749
  204DPPC   C3910189   9.289   7.246   3.716
  204DPPC   C4010190   9.177   7.173   3.642
  204DPPC   C4110191   9.236   7.044   3.586
  204DPPC   C4210192   9.134   6.969   3.499
  204DPPC   C4310193   9.212   6.855   3.433
  204DPPC   C4410194   9.330   6.903   3.349
  204DPPC   C4510195   9.416   6.786   3.301
  204DPPC   C4610196   9.459   6.693   3.414
  204DPPC   C4710197   9.538   6.580   3.350
  204DPPC   C4810198   9.456   6.534   3.229
  204DPPC   C4910199   9.529   6.433   3.141
  204DPPC   C5010200   9.602   6.323   3.219
  205DPPC    C110201   2.161   8.139   5.498
  205DPPC    C210202   2.381   8.035   5.492
  205DPPC    C310203   2.197   7.927   5.406
  205DPPC    N410204   2.257   8.061   5.418
  205DPPC    C510205   2.279   8.135   5.293
  205DPPC    C610206   2.167   8.138   5.188
  205DPPC    O710207   2.058   8.223   5.225
  205DPPC    P810208   1.920   8.168   5.162
  205DPPC    O910209   1.806   8.248   5.212
  205DPPC   O1010210   1.923   8.022   5.187
  205DPPC   O1110211   1.953   8.198   5.007
  205DPPC   C1210212   1.893   8.324   4.978
  205DPPC   C1310213   1.976   8.452   4.990
  205DPPC   O1410214   1.894   8.565   4.958
  205DPPC   C1510215   1.937   8.690   4.990
  205DPPC   O1610216   2.017   8.703   5.082
  205DPPC   C1710217   1.841   8.798   4.940
  205DPPC   C1810218   1.850   8.814   4.788
  205DPPC   C1910219   1.781   8.948   4.764
  205DPPC   C2010220   1.751   8.976   4.617
  205DPPC   C2110221   1.648   8.871   4.572
  205DPPC   C2210222   1.609   8.879   4.425
  205DPPC   C2310223   1.501   8.772   4.405
  205DPPC   C2410224   1.367   8.823   4.352
  205DPPC   C2510225   1.385   8.894   4.218
  205DPPC   C2610226   1.259   8.951   4.152
  205DPPC   C2710227   1.295   8.994   4.009
  205DPPC   C2810228   1.166   9.059   3.958
  205DPPC   C2910229   1.206   9.114   3.821
  205DPPC   C3010230   1.090   9.159   3.731
  205DPPC   C3110231   1.144   9.227   3.605
  205DPPC   C3210232   2.102   8.442   4.903
  205DPPC   O3310233   2.084   8.426   4.762
  205DPPC   C3410234   2.164   8.498   4.680
  205DPPC   O3510235   2.241   8.587   4.714
  205DPPC   C3610236   2.160   8.467   4.530
  205DPPC   C3710237   2.249   8.351   4.485
  205DPPC   C3810238   2.229   8.333   4.334
  205DPPC   C3910239   2.306   8.211   4.286
  205DPPC   C4010240   2.290   8.196   4.134
  205DPPC   C4110241   2.345   8.065   4.077
  205DPPC   C4210242   2.323   8.077   3.926
  205DPPC   C4310243   2.346   7.942   3.858
  205DPPC   C4410244   2.381   7.986   3.716
  205DPPC   C4510245   2.424   7.875   3.621
  205DPPC   C4610246   2.452   7.927   3.480
  205DPPC   C4710247   2.527   7.829   3.389
  205DPPC   C4810248   2.648   7.778   3.468
  205DPPC   C4910249   2.744   7.698   3.379
  205DPPC   C5010250   2.861   7.636   3.455
  206DPPC    C110251   2.005   5.384   4.846
  206DPPC    C210252   1.932   5.213   4.699
  206DPPC    C310253   2.045   5.147   4.904
  206DPPC    N410254   1.956   5.245   4.841
  206DPPC    C510255   1.841   5.214   4.927
  206DPPC    C610256   1.718   5.305   4.919
  206DPPC    O710257   1.650   5.314   4.794
  206DPPC    P810258   1.505   5.383   4.804
  206DPPC    O910259   1.523   5.459   4.929
  206DPPC   O1010260   1.387   5.293   4.796
  206DPPC   O1110261   1.518   5.487   4.682
  206DPPC   C1210262   1.474   5.416   4.565
  206DPPC   C1310263   1.496   5.491   4.434
  206DPPC   O1410264   1.428   5.434   4.321
  206DPPC   C1510265   1.292   5.444   4.312
  206DPPC   O1610266   1.224   5.508   4.391
  206DPPC   C1710267   1.224   5.368   4.198
  206DPPC   C1810268   1.176   5.456   4.083
  206DPPC   C1910269   1.148   5.354   3.972
  206DPPC   C2010270   1.110   5.430   3.844
  206DPPC   C2110271   1.083   5.333   3.729
  206DPPC   C2210272   1.048   5.422   3.609
  206DPPC   C2310273   1.014   5.345   3.482
  206DPPC   C2410274   0.988   5.441   3.366
  206DPPC   C2510275   1.115   5.524   3.343
  206DPPC   C2610276   1.100   5.631   3.235
  206DPPC   C2710277   1.222   5.714   3.197
  206DPPC   C2810278   1.255   5.832   3.288
  206DPPC   C2910279   1.391   5.896   3.257
  206DPPC   C3010280   1.440   5.986   3.371
  206DPPC   C3110281   1.483   5.905   3.493
  206DPPC   C3210282   1.648   5.475   4.424
  206DPPC   O3310283   1.696   5.356   4.360
  206DPPC   C3410284   1.832   5.348   4.357
  206DPPC   O3510285   1.910   5.408   4.432
  206DPPC   C3610286   1.883   5.221   4.290
  206DPPC   C3710287   1.931   5.254   4.149
  206DPPC   C3810288   1.984   5.126   4.084
  206DPPC   C3910289   2.083   5.056   4.177
  206DPPC   C4010290   2.114   4.935   4.088
  206DPPC   C4110291   2.217   4.837   4.145
  206DPPC   C4210292   2.243   4.740   4.029
  206DPPC   C4310293   2.311   4.811   3.912
  206DPPC   C4410294   2.452   4.858   3.949
  206DPPC   C4510295   2.546   4.878   3.831
  206DPPC   C4610296   2.692   4.912   3.864
  206DPPC   C4710297   2.786   4.907   3.744
  206DPPC   C4810298   2.923   4.960   3.785
  206DPPC   C4910299   3.014   4.973   3.663
  206DPPC   C5010300   3.159   4.993   3.708
  207DPPC    C110301   6.483   0.328   5.947
  207DPPC    C210302   6.690   0.350   5.838
  207DPPC    C310303   6.520   0.223   5.734
  207DPPC    N410304   6.545   0.343   5.815
  207DPPC    C510305   6.486   0.454   5.738
  207DPPC    C610306   6.532   0.599   5.761
  207DPPC    O710307   6.450   0.688   5.684
  207DPPC    P810308   6.510   0.837   5.694
  207DPPC    O910309   6.528   0.869   5.837
  207DPPC   O1010310   6.427   0.926   5.610
  207DPPC   O1110311   6.644   0.792   5.617
  207DPPC   C1210312   6.674   0.853   5.491
  207DPPC   C1310313   6.816   0.900   5.458
  207DPPC   O1410314   6.829   1.013   5.371
  207DPPC   C1510315   6.946   1.083   5.370
  207DPPC   O1610316   7.024   1.066   5.463
  207DPPC   C1710317   6.974   1.174   5.250
  207DPPC   C1810318   6.914   1.313   5.270
  207DPPC   C1910319   6.912   1.402   5.145
  207DPPC   C2010320   6.830   1.349   5.028
  207DPPC   C2110321   6.827   1.440   4.905
  207DPPC   C2210322   6.955   1.419   4.824
  207DPPC   C2310323   6.928   1.514   4.707
  207DPPC   C2410324   7.029   1.490   4.595
  207DPPC   C2510325   6.980   1.566   4.471
  207DPPC   C2610326   7.090   1.554   4.365
  207DPPC   C2710327   7.054   1.597   4.223
  207DPPC   C2810328   7.010   1.744   4.215
  207DPPC   C2910329   6.937   1.763   4.082
  207DPPC   C3010330   6.972   1.905   4.035
  207DPPC   C3110331   6.922   1.934   3.894
  207DPPC   C3210332   6.882   0.774   5.402
  207DPPC   O3310333   6.807   0.708   5.300
  207DPPC   C3410334   6.878   0.612   5.235
  207DPPC   O3510335   6.989   0.573   5.269
  207DPPC   C3610336   6.801   0.543   5.122
  207DPPC   C3710337   6.685   0.623   5.063
  207DPPC   C3810338   6.607   0.548   4.955
  207DPPC   C3910339   6.514   0.637   4.873
  207DPPC   C4010340   6.472   0.554   4.751
  207DPPC   C4110341   6.382   0.440   4.799
  207DPPC   C4210342   6.340   0.352   4.681
  207DPPC   C4310343   6.296   0.210   4.714
  207DPPC   C4410344   6.287   0.122   4.589
  207DPPC   C4510345   6.419   0.125   4.510
  207DPPC   C4610346   6.385   0.062   4.375
  207DPPC   C4710347   6.503   0.019   4.288
  207DPPC   C4810348   6.460  -0.019   4.146
  207DPPC   C4910349   6.590  -0.048   4.069
  207DPPC   C5010350   6.533  -0.115   3.944
  208DPPC    C110351   5.187   1.511   5.427
  208DPPC    C210352   5.334   1.412   5.273
  208DPPC    C310353   5.232   1.636   5.235
  208DPPC    N410354   5.292   1.541   5.329
  208DPPC    C510355   5.411   1.615   5.374
  208DPPC    C610356   5.499   1.557   5.485
  208DPPC    O710357   5.636   1.594   5.466
  208DPPC    P810358   5.744   1.555   5.578
  208DPPC    O910359   5.668   1.556   5.705
  208DPPC   O1010360   5.875   1.615   5.544
  208DPPC   O1110361   5.759   1.399   5.540
  208DPPC   C1210362   5.814   1.392   5.408
  208DPPC   C1310363   5.831   1.251   5.353
  208DPPC   O1410364   5.931   1.250   5.251
  208DPPC   C1510365   6.040   1.170   5.268
  208DPPC   O1610366   6.043   1.082   5.354
  208DPPC   C1710367   6.159   1.211   5.181
  208DPPC   C1810368   6.121   1.311   5.071
  208DPPC   C1910369   6.247   1.388   5.030
  208DPPC   C2010370   6.213   1.440   4.890
  208DPPC   C2110371   6.316   1.533   4.826
  208DPPC   C2210372   6.240   1.588   4.705
  208DPPC   C2310373   6.163   1.712   4.752
  208DPPC   C2410374   6.102   1.783   4.631
  208DPPC   C2510375   6.020   1.906   4.672
  208DPPC   C2610376   5.955   1.961   4.545
  208DPPC   C2710377   5.838   1.877   4.494
  208DPPC   C2810378   5.800   1.938   4.359
  208DPPC   C2910379   5.927   1.925   4.274
  208DPPC   C3010380   5.883   1.968   4.134
  208DPPC   C3110381   5.980   1.920   4.026
  208DPPC   C3210382   5.687   1.207   5.327
  208DPPC   O3310383   5.653   1.182   5.190
  208DPPC   C3410384   5.661   1.285   5.102
  208DPPC   O3510385   5.632   1.398   5.142
  208DPPC   C3610386   5.655   1.250   4.953
  208DPPC   C3710387   5.777   1.304   4.879
  208DPPC   C3810388   5.772   1.285   4.727
  208DPPC   C3910389   5.898   1.343   4.662
  208DPPC   C4010390   5.888   1.344   4.509
  208DPPC   C4110391   5.984   1.450   4.454
  208DPPC   C4210392   5.982   1.425   4.303
  208DPPC   C4310393   6.068   1.519   4.218
  208DPPC   C4410394   6.219   1.509   4.242
  208DPPC   C4510395   6.275   1.617   4.151
  208DPPC   C4610396   6.412   1.641   4.215
  208DPPC   C4710397   6.479   1.504   4.217
  208DPPC   C4810398   6.625   1.499   4.263
  208DPPC   C4910399   6.632   1.536   4.411
  208DPPC   C5010400   6.600   1.407   4.487
  209DPPC    C110401   4.744   3.865   5.945
  209DPPC    C210402   4.883   4.029   5.828
  209DPPC    C310403   4.877   3.791   5.772
  209DPPC    N410404   4.800   3.909   5.816
  209DPPC    C510405   4.694   3.917   5.715
  209DPPC    C610406   4.591   4.024   5.753
  209DPPC    O710407   4.472   4.033   5.674
  209DPPC    P810408   4.380   4.154   5.727
  209DPPC    O910409   4.431   4.181   5.864
  209DPPC   O1010410   4.240   4.115   5.699
  209DPPC   O1110411   4.442   4.275   5.640
  209DPPC   C1210412   4.459   4.237   5.504
  209DPPC   C1310413   4.327   4.216   5.430
  209DPPC   O1410414   4.338   4.155   5.300
  209DPPC   C1510415   4.225   4.097   5.250
  209DPPC   O1610416   4.136   4.067   5.329
  209DPPC   C1710417   4.236   4.033   5.112
  209DPPC   C1810418   4.099   4.001   5.053
  209DPPC   C1910419   4.117   4.007   4.901
  209DPPC   C2010420   4.225   3.906   4.862
  209DPPC   C2110421   4.239   3.898   4.710
  209DPPC   C2210422   4.348   3.797   4.674
  209DPPC   C2310423   4.381   3.779   4.526
  209DPPC   C2410424   4.503   3.687   4.527
  209DPPC   C2510425   4.498   3.551   4.596
  209DPPC   C2610426   4.623   3.462   4.596
  209DPPC   C2710427   4.669   3.425   4.454
  209DPPC   C2810428   4.795   3.340   4.462
  209DPPC   C2910429   4.837   3.305   4.319
  209DPPC   C3010430   4.975   3.240   4.301
  209DPPC   C3110431   5.016   3.199   4.159
  209DPPC   C3210432   4.245   4.344   5.442
  209DPPC   O3310433   4.294   4.464   5.381
  209DPPC   C3410434   4.237   4.585   5.408
  209DPPC   O3510435   4.199   4.614   5.521
  209DPPC   C3610436   4.284   4.697   5.315
  209DPPC   C3710437   4.308   4.639   5.176
  209DPPC   C3810438   4.391   4.734   5.090
  209DPPC   C3910439   4.401   4.675   4.949
  209DPPC   C4010440   4.523   4.725   4.871
  209DPPC   C4110441   4.489   4.874   4.861
  209DPPC   C4210442   4.604   4.936   4.782
  209DPPC   C4310443   4.735   4.926   4.860
  209DPPC   C4410444   4.862   4.962   4.782
  209DPPC   C4510445   4.863   4.885   4.650
  209DPPC   C4610446   4.964   4.946   4.552
  209DPPC   C4710447   4.935   4.882   4.416
  209DPPC   C4810448   5.011   4.940   4.297
  209DPPC   C4910449   5.160   4.908   4.306
  209DPPC   C5010450   5.180   4.756   4.308
  210DPPC    C110451   6.416   1.429   5.796
  210DPPC    C210452   6.375   1.472   6.033
  210DPPC    C310453   6.257   1.299   5.920
  210DPPC    N410454   6.386   1.370   5.928
  210DPPC    C510455   6.488   1.273   5.971
  210DPPC    C610456   6.563   1.204   5.857
  210DPPC    O710457   6.677   1.279   5.814
  210DPPC    P810458   6.763   1.208   5.698
  210DPPC    O910459   6.817   1.080   5.751
  210DPPC   O1010460   6.839   1.325   5.648
  210DPPC   O1110461   6.643   1.181   5.594
  210DPPC   C1210462   6.632   1.299   5.514
  210DPPC   C1310463   6.523   1.303   5.406
  210DPPC   O1410464   6.403   1.364   5.455
  210DPPC   C1510465   6.398   1.496   5.421
  210DPPC   O1610466   6.503   1.559   5.426
  210DPPC   C1710467   6.266   1.574   5.429
  210DPPC   C1810468   6.290   1.707   5.358
  210DPPC   C1910469   6.161   1.789   5.357
  210DPPC   C2010470   6.179   1.913   5.269
  210DPPC   C2110471   6.080   2.017   5.324
  210DPPC   C2210472   6.114   2.154   5.267
  210DPPC   C2310473   6.124   2.151   5.114
  210DPPC   C2410474   6.168   2.284   5.052
  210DPPC   C2510475   6.170   2.261   4.901
  210DPPC   C2610476   6.239   2.369   4.818
  210DPPC   C2710477   6.237   2.341   4.667
  210DPPC   C2810478   6.289   2.464   4.592
  210DPPC   C2910479   6.313   2.393   4.459
  210DPPC   C3010480   6.182   2.356   4.389
  210DPPC   C3110481   6.190   2.256   4.274
  210DPPC   C3210482   6.524   1.159   5.355
  210DPPC   O3310483   6.551   1.144   5.215
  210DPPC   C3410484   6.538   1.020   5.161
  210DPPC   O3510485   6.451   0.947   5.209
  210DPPC   C3610486   6.584   1.008   5.016
  210DPPC   C3710487   6.494   1.081   4.916
  210DPPC   C3810488   6.556   1.114   4.781
  210DPPC   C3910489   6.623   0.982   4.741
  210DPPC   C4010490   6.693   0.992   4.604
  210DPPC   C4110491   6.812   1.087   4.617
  210DPPC   C4210492   6.889   1.101   4.486
  210DPPC   C4310493   6.803   1.135   4.364
  210DPPC   C4410494   6.895   1.166   4.246
  210DPPC   C4510495   6.926   1.035   4.173
  210DPPC   C4610496   6.805   0.973   4.102
  210DPPC   C4710497   6.835   0.854   4.011
  210DPPC   C4810498   6.707   0.822   3.933
  210DPPC   C4910499   6.671   0.936   3.837
  210DPPC   C5010500   6.547   0.903   3.753
  211DPPC    C110501   1.366   7.987   5.205
  211DPPC    C210502   1.503   8.184   5.198
  211DPPC    C310503   1.547   7.997   5.355
  211DPPC    N410504   1.503   8.038   5.221
  211DPPC    C510505   1.596   7.996   5.115
  211DPPC    C610506   1.602   7.853   5.062
  211DPPC    O710507   1.500   7.827   4.966
  211DPPC    P810508   1.522   7.692   4.882
  211DPPC    O910509   1.384   7.641   4.897
  211DPPC   O1010510   1.641   7.629   4.944
  211DPPC   O1110511   1.560   7.790   4.760
  211DPPC   C1210512   1.440   7.844   4.704
  211DPPC   C1310513   1.467   7.947   4.594
  211DPPC   O1410514   1.485   7.894   4.462
  211DPPC   C1510515   1.373   7.862   4.393
  211DPPC   O1610516   1.266   7.855   4.454
  211DPPC   C1710517   1.398   7.789   4.261
  211DPPC   C1810518   1.382   7.898   4.155
  211DPPC   C1910519   1.234   7.935   4.142
  211DPPC   C2010520   1.199   8.008   4.012
  211DPPC   C2110521   1.059   8.067   4.028
  211DPPC   C2210522   1.021   8.164   3.915
  211DPPC   C2310523   1.062   8.096   3.784
  211DPPC   C2410524   1.039   8.198   3.673
  211DPPC   C2510525   1.053   8.141   3.532
  211DPPC   C2610526   0.932   8.061   3.483
  211DPPC   C2710527   0.840   8.150   3.398
  211DPPC   C2810528   0.919   8.220   3.287
  211DPPC   C2910529   0.815   8.280   3.193
  211DPPC   C3010530   0.865   8.376   3.085
  211DPPC   C3110531   0.962   8.313   2.985
  211DPPC   C3210532   1.578   8.037   4.648
  211DPPC   O3310533   1.599   8.152   4.567
  211DPPC   C3410534   1.667   8.241   4.644
  211DPPC   O3510535   1.715   8.206   4.752
  211DPPC   C3610536   1.681   8.384   4.590
  211DPPC   C3710537   1.800   8.393   4.494
  211DPPC   C3810538   1.784   8.522   4.413
  211DPPC   C3910539   1.883   8.525   4.296
  211DPPC   C4010540   1.843   8.656   4.229
  211DPPC   C4110541   1.808   8.630   4.082
  211DPPC   C4210542   1.760   8.757   4.013
  211DPPC   C4310543   1.725   8.732   3.867
  211DPPC   C4410544   1.707   8.854   3.776
  211DPPC   C4510545   1.567   8.913   3.796
  211DPPC   C4610546   1.546   9.044   3.720
  211DPPC   C4710547   1.588   9.021   3.575
  211DPPC   C4810548   1.569   9.156   3.506
  211DPPC   C4910549   1.666   9.268   3.547
  211DPPC   C5010550   1.601   9.388   3.477
  212DPPC    C110551   4.643   8.245   5.593
  212DPPC    C210552   4.697   8.460   5.514
  212DPPC    C310553   4.852   8.288   5.471
  212DPPC    N410554   4.709   8.317   5.483
  212DPPC    C510555   4.630   8.280   5.364
  212DPPC    C610556   4.638   8.361   5.235
  212DPPC    O710557   4.769   8.382   5.181
  212DPPC    P810558   4.755   8.528   5.113
  212DPPC    O910559   4.876   8.556   5.033
  212DPPC   O1010560   4.697   8.612   5.220
  212DPPC   O1110561   4.644   8.510   4.998
  212DPPC   C1210562   4.697   8.403   4.918
  212DPPC   C1310563   4.606   8.348   4.808
  212DPPC   O1410564   4.659   8.235   4.737
  212DPPC   C1510565   4.674   8.113   4.795
  212DPPC   O1610566   4.624   8.096   4.906
  212DPPC   C1710567   4.729   8.006   4.700
  212DPPC   C1810568   4.663   8.026   4.564
  212DPPC   C1910569   4.713   7.935   4.451
  212DPPC   C2010570   4.615   7.975   4.341
  212DPPC   C2110571   4.659   7.904   4.212
  212DPPC   C2210572   4.530   7.839   4.161
  212DPPC   C2310573   4.540   7.752   4.035
  212DPPC   C2410574   4.413   7.670   4.013
  212DPPC   C2510575   4.433   7.585   3.887
  212DPPC   C2610576   4.443   7.661   3.755
  212DPPC   C2710577   4.485   7.544   3.664
  212DPPC   C2810578   4.532   7.578   3.523
  212DPPC   C2910579   4.571   7.456   3.440
  212DPPC   C3010580   4.604   7.484   3.293
  212DPPC   C3110581   4.648   7.346   3.244
  212DPPC   C3210582   4.558   8.471   4.732
  212DPPC   O3310583   4.670   8.536   4.671
  212DPPC   C3410584   4.649   8.652   4.604
  212DPPC   O3510585   4.543   8.714   4.609
  212DPPC   C3610586   4.782   8.712   4.557
  212DPPC   C3710587   4.778   8.718   4.404
  212DPPC   C3810588   4.912   8.725   4.331
  212DPPC   C3910589   4.875   8.752   4.185
  212DPPC   C4010590   5.001   8.766   4.098
  212DPPC   C4110591   5.113   8.665   4.126
  212DPPC   C4210592   5.235   8.687   4.036
  212DPPC   C4310593   5.368   8.621   4.072
  212DPPC   C4410594   5.423   8.680   4.201
  212DPPC   C4510595   5.545   8.596   4.242
  212DPPC   C4610596   5.645   8.597   4.127
  212DPPC   C4710597   5.777   8.545   4.184
  212DPPC   C4810598   5.884   8.515   4.079
  212DPPC   C4910599   5.993   8.445   4.160
  212DPPC   C5010600   6.086   8.399   4.048
  213DPPC    C110601   7.649   1.971   5.870
  213DPPC    C210602   7.712   2.178   5.793
  213DPPC    C310603   7.734   2.009   5.638
  213DPPC    N410604   7.648   2.053   5.749
  213DPPC    C510605   7.516   2.082   5.690
  213DPPC    C610606   7.411   1.972   5.685
  213DPPC    O710607   7.459   1.852   5.623
  213DPPC    P810608   7.391   1.728   5.698
  213DPPC    O910609   7.311   1.775   5.814
  213DPPC   O1010610   7.496   1.625   5.714
  213DPPC   O1110611   7.294   1.673   5.581
  213DPPC   C1210612   7.360   1.655   5.455
  213DPPC   C1310613   7.271   1.629   5.333
  213DPPC   O1410614   7.341   1.574   5.221
  213DPPC   C1510615   7.377   1.443   5.233
  213DPPC   O1610616   7.354   1.377   5.334
  213DPPC   C1710617   7.438   1.377   5.109
  213DPPC   C1810618   7.340   1.356   4.994
  213DPPC   C1910619   7.390   1.265   4.881
  213DPPC   C2010620   7.281   1.239   4.777
  213DPPC   C2110621   7.322   1.143   4.665
  213DPPC   C2210622   7.443   1.195   4.587
  213DPPC   C2310623   7.508   1.076   4.516
  213DPPC   C2410624   7.419   1.060   4.393
  213DPPC   C2510625   7.401   1.189   4.313
  213DPPC   C2610626   7.522   1.190   4.219
  213DPPC   C2710627   7.513   1.316   4.133
  213DPPC   C2810628   7.395   1.296   4.038
  213DPPC   C2910629   7.376   1.404   3.930
  213DPPC   C3010630   7.234   1.410   3.874
  213DPPC   C3110631   7.243   1.507   3.757
  213DPPC   C3210632   7.177   1.750   5.323
  213DPPC   O3310633   7.063   1.731   5.240
  213DPPC   C3410634   6.975   1.833   5.218
  213DPPC   O3510635   6.975   1.932   5.292
  213DPPC   C3610636   6.862   1.812   5.118
  213DPPC   C3710637   6.737   1.775   5.198
  213DPPC   C3810638   6.614   1.790   5.107
  213DPPC   C3910639   6.606   1.924   5.035
  213DPPC   C4010640   6.570   2.028   5.141
  213DPPC   C4110641   6.569   2.173   5.093
  213DPPC   C4210642   6.546   2.279   5.201
  213DPPC   C4310643   6.540   2.420   5.142
  213DPPC   C4410644   6.659   2.475   5.062
  213DPPC   C4510645   6.645   2.622   5.023
  213DPPC   C4610646   6.513   2.639   4.948
  213DPPC   C4710647   6.500   2.780   4.890
  213DPPC   C4810648   6.373   2.808   4.808
  213DPPC   C4910649   6.374   2.954   4.762
  213DPPC   C5010650   6.325   3.040   4.878
  214DPPC    C110651   5.491   7.927   5.507
  214DPPC    C210652   5.507   7.749   5.659
  214DPPC    C310653   5.459   7.690   5.431
  214DPPC    N410654   5.529   7.785   5.518
  214DPPC    C510655   5.675   7.774   5.513
  214DPPC    C610656   5.755   7.816   5.389
  214DPPC    O710657   5.752   7.712   5.291
  214DPPC    P810658   5.838   7.757   5.162
  214DPPC    O910659   5.911   7.629   5.148
  214DPPC   O1010660   5.903   7.884   5.200
  214DPPC   O1110661   5.707   7.764   5.069
  214DPPC   C1210662   5.699   7.654   4.978
  214DPPC   C1310663   5.553   7.639   4.936
  214DPPC   O1410664   5.526   7.524   4.855
  214DPPC   C1510665   5.544   7.402   4.914
  214DPPC   O1610666   5.565   7.380   5.033
  214DPPC   C1710667   5.550   7.299   4.802
  214DPPC   C1810668   5.632   7.175   4.840
  214DPPC   C1910669   5.678   7.096   4.718
  214DPPC   C2010670   5.760   6.968   4.738
  214DPPC   C2110671   5.752   6.876   4.616
  214DPPC   C2210672   5.846   6.757   4.636
  214DPPC   C2310673   5.986   6.820   4.634
  214DPPC   C2410674   6.088   6.706   4.641
  214DPPC   C2510675   6.061   6.599   4.535
  214DPPC   C2610676   6.149   6.474   4.542
  214DPPC   C2710677   6.097   6.371   4.442
  214DPPC   C2810678   5.944   6.376   4.439
  214DPPC   C2910679   5.895   6.289   4.323
  214DPPC   C3010680   5.894   6.138   4.349
  214DPPC   C3110681   5.883   6.048   4.227
  214DPPC   C3210682   5.533   7.770   4.859
  214DPPC   O3310683   5.624   7.819   4.761
  214DPPC   C3410684   5.584   7.941   4.716
  214DPPC   O3510685   5.502   8.005   4.783
  214DPPC   C3610686   5.645   8.006   4.592
  214DPPC   C3710687   5.702   7.904   4.494
  214DPPC   C3810688   5.797   7.962   4.389
  214DPPC   C3910689   5.873   7.843   4.329
  214DPPC   C4010690   5.937   7.874   4.194
  214DPPC   C4110691   6.029   7.753   4.177
  214DPPC   C4210692   6.016   7.708   4.032
  214DPPC   C4310693   6.109   7.590   4.003
  214DPPC   C4410694   6.251   7.616   4.054
  214DPPC   C4510695   6.352   7.516   3.997
  214DPPC   C4610696   6.303   7.376   4.034
  214DPPC   C4710697   6.391   7.258   3.991
  214DPPC   C4810698   6.530   7.273   4.053
  214DPPC   C4910699   6.613   7.149   4.016
  214DPPC   C5010700   6.748   7.155   4.087
  215DPPC    C110701   8.056   0.314   5.146
  215DPPC    C210702   8.139   0.445   5.335
  215DPPC    C310703   7.950   0.319   5.345
  215DPPC    N410704   8.086   0.315   5.290
  215DPPC    C510705   8.148   0.194   5.347
  215DPPC    C610706   8.299   0.185   5.325
  215DPPC    O710707   8.342   0.117   5.207
  215DPPC    P810708   8.484   0.165   5.149
  215DPPC    O910709   8.583   0.078   5.216
  215DPPC   O1010710   8.475   0.307   5.190
  215DPPC   O1110711   8.451   0.134   4.994
  215DPPC   C1210712   8.391   0.249   4.936
  215DPPC   C1310713   8.372   0.224   4.786
  215DPPC   O1410714   8.341   0.342   4.710
  215DPPC   C1510715   8.235   0.423   4.735
  215DPPC   O1610716   8.182   0.427   4.845
  215DPPC   C1710717   8.208   0.526   4.625
  215DPPC   C1810718   8.169   0.441   4.504
  215DPPC   C1910719   8.147   0.514   4.371
  215DPPC   C2010720   8.109   0.409   4.267
  215DPPC   C2110721   8.069   0.467   4.131
  215DPPC   C2210722   8.188   0.547   4.080
  215DPPC   C2310723   8.143   0.614   3.949
  215DPPC   C2410724   8.079   0.747   3.988
  215DPPC   C2510725   8.027   0.821   3.864
  215DPPC   C2610726   7.962   0.952   3.909
  215DPPC   C2710727   7.901   1.003   3.778
  215DPPC   C2810728   7.823   0.891   3.708
  215DPPC   C2910729   7.740   0.927   3.585
  215DPPC   C3010730   7.613   0.995   3.634
  215DPPC   C3110731   7.546   0.926   3.753
  215DPPC   C3210732   8.259   0.121   4.779
  215DPPC   O3310733   8.214   0.102   4.645
  215DPPC   C3410734   8.290   0.063   4.538
  215DPPC   O3510735   8.388  -0.005   4.569
  215DPPC   C3610736   8.227   0.080   4.400
  215DPPC   C3710737   8.149  -0.043   4.353
  215DPPC   C3810738   8.079   0.004   4.225
  215DPPC   C3910739   7.975  -0.103   4.191
  215DPPC   C4010740   7.881  -0.067   4.076
  215DPPC   C4110741   7.803  -0.191   4.033
  215DPPC   C4210742   7.701  -0.153   3.925
  215DPPC   C4310743   7.775  -0.110   3.798
  215DPPC   C4410744   7.675  -0.103   3.682
  215DPPC   C4510745   7.568   0.006   3.688
  215DPPC   C4610746   7.470   0.000   3.570
  215DPPC   C4710747   7.397  -0.134   3.564
  215DPPC   C4810748   7.333  -0.137   3.425
  215DPPC   C4910749   7.270  -0.273   3.391
  215DPPC   C5010750   7.287  -0.305   3.242
  216DPPC    C110751   4.427   0.257   5.030
  216DPPC    C210752   4.492   0.452   4.888
  216DPPC    C310753   4.332   0.479   5.055
  216DPPC    N410754   4.452   0.401   5.020
  216DPPC    C510755   4.550   0.438   5.124
  216DPPC    C610756   4.611   0.578   5.132
  216DPPC    O710757   4.531   0.679   5.194
  216DPPC    P810758   4.615   0.815   5.177
  216DPPC    O910759   4.760   0.785   5.193
  216DPPC   O1010760   4.530   0.883   5.277
  216DPPC   O1110761   4.569   0.854   5.028
  216DPPC   C1210762   4.431   0.892   5.021
  216DPPC   C1310763   4.380   0.931   4.882
  216DPPC   O1410764   4.319   0.815   4.824
  216DPPC   C1510765   4.186   0.786   4.831
  216DPPC   O1610766   4.131   0.821   4.935
  216DPPC   C1710767   4.163   0.651   4.762
  216DPPC   C1810768   4.236   0.629   4.629
  216DPPC   C1910769   4.218   0.491   4.566
  216DPPC   C2010770   4.255   0.490   4.418
  216DPPC   C2110771   4.224   0.361   4.341
  216DPPC   C2210772   4.283   0.350   4.201
  216DPPC   C2310773   4.435   0.348   4.181
  216DPPC   C2410774   4.484   0.357   4.036
  216DPPC   C2510775   4.531   0.216   4.000
  216DPPC   C2610776   4.652   0.221   3.906
  216DPPC   C2710777   4.718   0.093   3.855
  216DPPC   C2810778   4.831   0.124   3.757
  216DPPC   C2910779   4.897  -0.003   3.701
  216DPPC   C3010780   4.810  -0.077   3.600
  216DPPC   C3110781   4.756   0.009   3.485
  216DPPC   C3210782   4.485   1.004   4.799
  216DPPC   O3310783   4.503   1.145   4.817
  216DPPC   C3410784   4.604   1.197   4.742
  216DPPC   O3510785   4.694   1.126   4.698
  216DPPC   C3610786   4.583   1.341   4.694
  216DPPC   C3710787   4.492   1.355   4.572
  216DPPC   C3810788   4.427   1.494   4.582
  216DPPC   C3910789   4.308   1.511   4.488
  216DPPC   C4010790   4.216   1.398   4.534
  216DPPC   C4110791   4.114   1.355   4.428
  216DPPC   C4210792   4.003   1.460   4.416
  216DPPC   C4310793   3.897   1.406   4.319
  216DPPC   C4410794   3.945   1.380   4.176
  216DPPC   C4510795   3.832   1.418   4.080
  216DPPC   C4610796   3.856   1.375   3.935
  216DPPC   C4710797   3.757   1.435   3.835
  216DPPC   C4810798   3.774   1.352   3.707
  216DPPC   C4910799   3.686   1.404   3.593
  216DPPC   C5010800   3.695   1.314   3.469
  217DPPC    C110801   5.499   6.888   5.413
  217DPPC    C210802   5.518   7.057   5.255
  217DPPC    C310803   5.380   6.875   5.210
  217DPPC    N410804   5.420   6.967   5.318
  217DPPC    C510805   5.298   7.020   5.382
  217DPPC    C610806   5.310   7.161   5.440
  217DPPC    O710807   5.188   7.235   5.434
  217DPPC    P810808   5.204   7.373   5.515
  217DPPC    O910809   5.326   7.387   5.597
  217DPPC   O1010810   5.083   7.443   5.564
  217DPPC   O1110811   5.254   7.451   5.383
  217DPPC   C1210812   5.149   7.469   5.288
  217DPPC   C1310813   5.189   7.527   5.152
  217DPPC   O1410814   5.096   7.622   5.097
  217DPPC   C1510815   5.124   7.707   4.995
  217DPPC   O1610816   5.238   7.747   4.973
  217DPPC   C1710817   5.004   7.766   4.919
  217DPPC   C1810818   5.037   7.787   4.771
  217DPPC   C1910819   5.084   7.930   4.742
  217DPPC   C2010820   5.070   7.967   4.595
  217DPPC   C2110821   5.139   7.874   4.495
  217DPPC   C2210822   5.121   7.920   4.350
  217DPPC   C2310823   5.198   7.821   4.262
  217DPPC   C2410824   5.176   7.871   4.119
  217DPPC   C2510825   5.026   7.856   4.092
  217DPPC   C2610826   5.010   7.880   3.941
  217DPPC   C2710827   4.866   7.904   3.897
  217DPPC   C2810828   4.861   7.990   3.771
  217DPPC   C2910829   4.916   7.909   3.654
  217DPPC   C3010830   4.941   8.008   3.540
  217DPPC   C3110831   5.014   7.934   3.427
  217DPPC   C3210832   5.232   7.409   5.064
  217DPPC   O3310833   5.122   7.317   5.064
  217DPPC   C3410834   5.163   7.197   5.013
  217DPPC   O3510835   5.278   7.168   4.982
  217DPPC   C3610836   5.049   7.096   5.003
  217DPPC   C3710837   4.948   7.134   4.895
  217DPPC   C3810838   5.010   7.106   4.757
  217DPPC   C3910839   4.902   7.046   4.667
  217DPPC   C4010840   4.892   7.097   4.523
  217DPPC   C4110841   4.769   7.043   4.449
  217DPPC   C4210842   4.788   7.066   4.299
  217DPPC   C4310843   4.917   7.014   4.235
  217DPPC   C4410844   4.897   7.063   4.091
  217DPPC   C4510845   5.020   7.029   4.006
  217DPPC   C4610846   4.989   7.051   3.858
  217DPPC   C4710847   5.114   7.027   3.773
  217DPPC   C4810848   5.195   7.140   3.839
  217DPPC   C4910849   5.316   7.173   3.751
  217DPPC   C5010850   5.421   7.269   3.806
  218DPPC    C110851   1.997   4.302   5.744
  218DPPC    C210852   2.178   4.413   5.663
  218DPPC    C310853   2.201   4.277   5.861
  218DPPC    N410854   2.142   4.285   5.726
  218DPPC    C510855   2.159   4.172   5.634
  218DPPC    C610856   2.299   4.150   5.576
  218DPPC    O710857   2.309   4.043   5.482
  218DPPC    P810858   2.458   4.033   5.423
  218DPPC    O910859   2.483   3.888   5.407
  218DPPC   O1010860   2.559   4.109   5.500
  218DPPC   O1110861   2.427   4.073   5.270
  218DPPC   C1210862   2.380   3.964   5.190
  218DPPC   C1310863   2.227   3.971   5.180
  218DPPC   O1410864   2.185   3.853   5.111
  218DPPC   C1510865   2.055   3.814   5.121
  218DPPC   O1610866   1.980   3.873   5.199
  218DPPC   C1710867   2.006   3.699   5.032
  218DPPC   C1810868   1.936   3.755   4.909
  218DPPC   C1910869   1.890   3.636   4.824
  218DPPC   C2010870   1.834   3.673   4.686
  218DPPC   C2110871   1.849   3.554   4.590
  218DPPC   C2210872   1.802   3.603   4.453
  218DPPC   C2310873   1.747   3.485   4.372
  218DPPC   C2410874   1.723   3.529   4.227
  218DPPC   C2510875   1.638   3.430   4.148
  218DPPC   C2610876   1.622   3.485   4.006
  218DPPC   C2710877   1.560   3.380   3.914
  218DPPC   C2810878   1.528   3.441   3.778
  218DPPC   C2910879   1.650   3.513   3.720
  218DPPC   C3010880   1.636   3.541   3.570
  218DPPC   C3110881   1.763   3.613   3.524
  218DPPC   C3210882   2.199   4.105   5.111
  218DPPC   O3310883   2.271   4.118   4.988
  218DPPC   C3410884   2.254   4.236   4.922
  218DPPC   O3510885   2.149   4.298   4.925
  218DPPC   C3610886   2.338   4.245   4.794
  218DPPC   C3710887   2.247   4.269   4.674
  218DPPC   C3810888   2.321   4.254   4.541
  218DPPC   C3910889   2.440   4.347   4.513
  218DPPC   C4010890   2.481   4.327   4.367
  218DPPC   C4110891   2.594   4.424   4.332
  218DPPC   C4210892   2.605   4.456   4.183
  218DPPC   C4310893   2.737   4.531   4.162
  218DPPC   C4410894   2.738   4.657   4.250
  218DPPC   C4510895   2.878   4.717   4.232
  218DPPC   C4610896   2.891   4.851   4.306
  218DPPC   C4710897   3.036   4.900   4.303
  218DPPC   C4810898   3.092   4.905   4.160
  218DPPC   C4910899   3.242   4.936   4.167
  218DPPC   C5010900   3.306   4.921   4.028
  219DPPC    C110901   8.930   6.814   4.964
  219DPPC    C210902   9.108   6.920   4.878
  219DPPC    C310903   9.140   6.809   5.083
  219DPPC    N410904   9.075   6.797   4.952
  219DPPC    C510905   9.119   6.698   4.852
  219DPPC    C610906   9.047   6.572   4.802
  219DPPC    O710907   9.134   6.494   4.719
  219DPPC    P810908   9.036   6.374   4.678
  219DPPC    O910909   8.924   6.443   4.610
  219DPPC   O1010910   9.005   6.291   4.797
  219DPPC   O1110911   9.121   6.272   4.587
  219DPPC   C1210912   9.129   6.344   4.464
  219DPPC   C1310913   9.215   6.286   4.351
  219DPPC   O1410914   9.203   6.359   4.228
  219DPPC   C1510915   9.296   6.347   4.129
  219DPPC   O1610916   9.397   6.282   4.156
  219DPPC   C1710917   9.287   6.432   4.002
  219DPPC   C1810918   9.357   6.374   3.879
  219DPPC   C1910919   9.379   6.483   3.775
  219DPPC   C2010920   9.502   6.458   3.687
  219DPPC   C2110921   9.483   6.325   3.614
  219DPPC   C2210922   9.626   6.270   3.611
  219DPPC   C2310923   9.629   6.124   3.567
  219DPPC   C2410924   9.775   6.092   3.538
  219DPPC   C2510925   9.770   5.951   3.478
  219DPPC   C2610926   9.680   5.864   3.565
  219DPPC   C2710927   9.619   5.746   3.488
  219DPPC   C2810928   9.538   5.807   3.374
  219DPPC   C2910929   9.418   5.890   3.419
  219DPPC   C3010930   9.400   5.998   3.312
  219DPPC   C3110931   9.266   6.070   3.336
  219DPPC   C3210932   9.185   6.137   4.333
  219DPPC   O3310933   9.051   6.092   4.316
  219DPPC   C3410934   9.040   5.957   4.316
  219DPPC   O3510935   9.127   5.895   4.379
  219DPPC   C3610936   8.918   5.890   4.254
  219DPPC   C3710937   8.893   5.758   4.328
  219DPPC   C3810938   8.756   5.708   4.282
  219DPPC   C3910939   8.755   5.668   4.135
  219DPPC   C4010940   8.624   5.610   4.081
  219DPPC   C4110941   8.623   5.589   3.930
  219DPPC   C4210942   8.489   5.523   3.895
  219DPPC   C4310943   8.482   5.486   3.747
  219DPPC   C4410944   8.512   5.609   3.661
  219DPPC   C4510945   8.529   5.573   3.514
  219DPPC   C4610946   8.395   5.521   3.462
  219DPPC   C4710947   8.398   5.541   3.310
  219DPPC   C4810948   8.265   5.527   3.236
  219DPPC   C4910949   8.290   5.494   3.089
  219DPPC   C5010950   8.152   5.480   3.023
  220DPPC    C110951   4.559   6.735   5.199
  220DPPC    C210952   4.400   6.572   5.210
  220DPPC    C310953   4.412   6.716   5.026
  220DPPC    N410954   4.494   6.633   5.116
  220DPPC    C510955   4.573   6.532   5.043
  220DPPC    C610956   4.684   6.465   5.124
  220DPPC    O710957   4.633   6.373   5.220
  220DPPC    P810958   4.727   6.250   5.265
  220DPPC    O910959   4.654   6.200   5.384
  220DPPC   O1010960   4.864   6.305   5.257
  220DPPC   O1110961   4.678   6.163   5.139
  220DPPC   C1210962   4.785   6.125   5.051
  220DPPC   C1310963   4.746   6.087   4.908
  220DPPC   O1410964   4.863   6.061   4.828
  220DPPC   C1510965   4.902   5.930   4.829
  220DPPC   O1610966   4.854   5.849   4.907
  220DPPC   C1710967   5.029   5.908   4.746
  220DPPC   C1810968   5.014   5.914   4.594
  220DPPC   C1910969   5.140   5.904   4.508
  220DPPC   C2010970   5.210   5.769   4.522
  220DPPC   C2110971   5.321   5.729   4.425
  220DPPC   C2210972   5.265   5.690   4.288
  220DPPC   C2310973   5.387   5.672   4.198
  220DPPC   C2410974   5.497   5.577   4.244
  220DPPC   C2510975   5.597   5.538   4.135
  220DPPC   C2610976   5.549   5.428   4.041
  220DPPC   C2710977   5.661   5.388   3.945
  220DPPC   C2810978   5.600   5.295   3.840
  220DPPC   C2910979   5.708   5.253   3.740
  220DPPC   C3010980   5.671   5.298   3.599
  220DPPC   C3110981   5.799   5.304   3.515
  220DPPC   C3210982   4.669   6.206   4.852
  220DPPC   O3310983   4.616   6.202   4.719
  220DPPC   C3410984   4.551   6.313   4.675
  220DPPC   O3510985   4.548   6.419   4.736
  220DPPC   C3610986   4.478   6.290   4.542
  220DPPC   C3710987   4.584   6.308   4.433
  220DPPC   C3810988   4.639   6.170   4.397
  220DPPC   C3910989   4.739   6.189   4.283
  220DPPC   C4010990   4.706   6.124   4.148
  220DPPC   C4110991   4.565   6.159   4.100
  220DPPC   C4210992   4.538   6.068   3.980
  220DPPC   C4310993   4.648   6.079   3.874
  220DPPC   C4410994   4.615   5.993   3.751
  220DPPC   C4510995   4.742   5.972   3.669
  220DPPC   C4610996   4.814   6.104   3.642
  220DPPC   C4710997   4.736   6.201   3.553
  220DPPC   C4810998   4.816   6.330   3.536
  220DPPC   C4910999   4.749   6.428   3.440
  220DPPC   C5011000   4.832   6.556   3.455
  221DPPC    C111001   0.382   6.243   4.471
  221DPPC    C211002   0.331   6.049   4.352
  221DPPC    C311003   0.464   6.209   4.241
  221DPPC    N411004   0.437   6.149   4.373
  221DPPC    C511005   0.558   6.086   4.427
  221DPPC    C611006   0.683   6.164   4.469
  221DPPC    O711007   0.779   6.110   4.560
  221DPPC    P811008   0.888   6.226   4.585
  221DPPC    O911009   0.973   6.184   4.698
  221DPPC   O1011010   0.815   6.355   4.584
  221DPPC   O1111011   0.960   6.211   4.442
  221DPPC   C1211012   1.080   6.136   4.453
  221DPPC   C1311013   1.150   6.103   4.321
  221DPPC   O1411014   1.246   6.188   4.257
  221DPPC   C1511015   1.371   6.207   4.308
  221DPPC   O1611016   1.412   6.129   4.393
  221DPPC   C1711017   1.454   6.295   4.215
  221DPPC   C1811018   1.399   6.438   4.205
  221DPPC   C1911019   1.295   6.463   4.096
  221DPPC   C2011020   1.349   6.427   3.957
  221DPPC   C2111021   1.243   6.426   3.847
  221DPPC   C2211022   1.314   6.373   3.723
  221DPPC   C2311023   1.222   6.376   3.601
  221DPPC   C2411024   1.297   6.310   3.484
  221DPPC   C2511025   1.210   6.323   3.358
  221DPPC   C2611026   1.079   6.245   3.372
  221DPPC   C2711027   0.989   6.248   3.249
  221DPPC   C2811028   0.925   6.385   3.222
  221DPPC   C2911029   0.887   6.416   3.077
  221DPPC   C3011030   0.988   6.514   3.018
  221DPPC   C3111031   0.991   6.630   3.118
  221DPPC   C3211032   1.034   6.070   4.227
  221DPPC   O3311033   0.996   5.934   4.254
  221DPPC   C3411034   0.877   5.914   4.192
  221DPPC   O3511035   0.800   6.007   4.167
  221DPPC   C3611036   0.826   5.772   4.212
  221DPPC   C3711037   0.799   5.705   4.077
  221DPPC   C3811038   0.726   5.571   4.092
  221DPPC   C3911039   0.730   5.462   3.986
  221DPPC   C4011040   0.658   5.507   3.858
  221DPPC   C4111041   0.709   5.407   3.754
  221DPPC   C4211042   0.651   5.448   3.619
  221DPPC   C4311043   0.498   5.436   3.612
  221DPPC   C4411044   0.438   5.434   3.471
  221DPPC   C4511045   0.290   5.394   3.469
  221DPPC   C4611046   0.226   5.437   3.336
  221DPPC   C4711047   0.093   5.366   3.312
  221DPPC   C4811048   0.035   5.397   3.173
  221DPPC   C4911049  -0.095   5.319   3.150
  221DPPC   C5011050  -0.073   5.169   3.169
  222DPPC    C111051   5.846   4.117   6.319
  222DPPC    C211052   5.664   3.986   6.328
  222DPPC    C311053   5.705   4.105   6.121
  222DPPC    N411054   5.767   4.029   6.232
  222DPPC    C511055   5.871   3.941   6.179
  222DPPC    C611056   5.852   3.793   6.144
  222DPPC    O711057   5.735   3.768   6.066
  222DPPC    P811058   5.708   3.609   6.074
  222DPPC    O911059   5.561   3.603   6.091
  222DPPC   O1011060   5.799   3.538   6.166
  222DPPC   O1111061   5.765   3.577   5.927
  222DPPC   C1211062   5.673   3.626   5.829
  222DPPC   C1311063   5.711   3.623   5.681
  222DPPC   O1411064   5.596   3.638   5.595
  222DPPC   C1511065   5.560   3.753   5.531
  222DPPC   O1611066   5.624   3.854   5.559
  222DPPC   C1711067   5.485   3.724   5.401
  222DPPC   C1811068   5.503   3.815   5.279
  222DPPC   C1911069   5.639   3.825   5.210
  222DPPC   C2011070   5.624   3.931   5.102
  222DPPC   C2111071   5.513   3.898   5.002
  222DPPC   C2211072   5.551   3.966   4.870
  222DPPC   C2311073   5.441   3.965   4.764
  222DPPC   C2411074   5.483   4.058   4.650
  222DPPC   C2511075   5.373   4.073   4.546
  222DPPC   C2611076   5.303   4.209   4.549
  222DPPC   C2711077   5.230   4.230   4.416
  222DPPC   C2811078   5.158   4.365   4.419
  222DPPC   C2911079   5.084   4.369   4.553
  222DPPC   C3011080   5.011   4.498   4.589
  222DPPC   C3111081   5.013   4.497   4.742
  222DPPC   C3211082   5.792   3.494   5.663
  222DPPC   O3311083   5.887   3.498   5.556
  222DPPC   C3411084   5.929   3.382   5.500
  222DPPC   O3511085   5.875   3.273   5.513
  222DPPC   C3611086   6.046   3.398   5.401
  222DPPC   C3711087   5.994   3.396   5.258
  222DPPC   C3811088   5.878   3.485   5.214
  222DPPC   C3911089   5.852   3.459   5.065
  222DPPC   C4011090   5.753   3.553   4.997
  222DPPC   C4111091   5.760   3.534   4.846
  222DPPC   C4211092   5.668   3.630   4.770
  222DPPC   C4311093   5.674   3.607   4.619
  222DPPC   C4411094   5.583   3.716   4.562
  222DPPC   C4511095   5.582   3.707   4.410
  222DPPC   C4611096   5.481   3.794   4.335
  222DPPC   C4711097   5.516   3.798   4.186
  222DPPC   C4811098   5.423   3.888   4.104
  222DPPC   C4911099   5.271   3.871   4.116
  222DPPC   C5011100   5.197   3.933   3.998
  223DPPC    C111101   3.440   7.435   5.804
  223DPPC    C211102   3.522   7.213   5.825
  223DPPC    C311103   3.293   7.252   5.771
  223DPPC    N411104   3.431   7.299   5.749
  223DPPC    C511105   3.492   7.293   5.615
  223DPPC    C611106   3.437   7.385   5.505
  223DPPC    O711107   3.479   7.350   5.373
  223DPPC    P811108   3.396   7.432   5.263
  223DPPC    O911109   3.474   7.554   5.235
  223DPPC   O1011110   3.260   7.430   5.320
  223DPPC   O1111111   3.421   7.312   5.158
  223DPPC   C1211112   3.541   7.338   5.085
  223DPPC   C1311113   3.605   7.219   5.012
  223DPPC   O1411114   3.713   7.271   4.934
  223DPPC   C1511115   3.828   7.198   4.933
  223DPPC   O1611116   3.835   7.095   4.999
  223DPPC   C1711117   3.947   7.248   4.851
  223DPPC   C1811118   3.902   7.308   4.718
  223DPPC   C1911119   3.844   7.201   4.625
  223DPPC   C2011120   3.819   7.253   4.483
  223DPPC   C2111121   3.780   7.156   4.372
  223DPPC   C2211122   3.909   7.107   4.306
  223DPPC   C2311123   3.894   7.020   4.181
  223DPPC   C2411124   3.862   7.115   4.065
  223DPPC   C2511125   3.877   7.048   3.929
  223DPPC   C2611126   4.022   7.031   3.881
  223DPPC   C2711127   4.022   6.974   3.739
  223DPPC   C2811128   3.974   6.828   3.739
  223DPPC   C2911129   4.016   6.757   3.610
  223DPPC   C3011130   3.943   6.623   3.601
  223DPPC   C3111131   3.991   6.553   3.473
  223DPPC   C3211132   3.490   7.149   4.939
  223DPPC   O3311133   3.416   7.215   4.836
  223DPPC   C3411134   3.314   7.146   4.777
  223DPPC   O3511135   3.281   7.040   4.830
  223DPPC   C3611136   3.250   7.201   4.649
  223DPPC   C3711137   3.348   7.206   4.532
  223DPPC   C3811138   3.284   7.237   4.396
  223DPPC   C3911139   3.387   7.267   4.288
  223DPPC   C4011140   3.339   7.296   4.145
  223DPPC   C4111141   3.461   7.327   4.058
  223DPPC   C4211142   3.416   7.391   3.926
  223DPPC   C4311143   3.544   7.409   3.844
  223DPPC   C4411144   3.505   7.446   3.701
  223DPPC   C4511145   3.622   7.472   3.606
  223DPPC   C4611146   3.573   7.489   3.462
  223DPPC   C4711147   3.691   7.530   3.374
  223DPPC   C4811148   3.646   7.544   3.229
  223DPPC   C4911149   3.769   7.517   3.141
  223DPPC   C5011150   3.735   7.542   2.994
  224DPPC    C111151   3.544   3.481   5.990
  224DPPC    C211152   3.327   3.396   5.917
  224DPPC    C311153   3.342   3.609   6.003
  224DPPC    N411154   3.417   3.512   5.922
  224DPPC    C511155   3.437   3.581   5.794
  224DPPC    C611156   3.543   3.528   5.697
  224DPPC    O711157   3.530   3.392   5.657
  224DPPC    P811158   3.671   3.330   5.609
  224DPPC    O911159   3.618   3.192   5.612
  224DPPC   O1011160   3.769   3.386   5.704
  224DPPC   O1111161   3.669   3.397   5.463
  224DPPC   C1211162   3.657   3.290   5.369
  224DPPC   C1311163   3.656   3.330   5.221
  224DPPC   O1411164   3.648   3.220   5.130
  224DPPC   C1511165   3.740   3.120   5.122
  224DPPC   O1611166   3.838   3.122   5.196
  224DPPC   C1711167   3.748   3.047   4.988
  224DPPC   C1811168   3.732   3.146   4.873
  224DPPC   C1911169   3.735   3.069   4.740
  224DPPC   C2011170   3.729   3.163   4.619
  224DPPC   C2111171   3.732   3.109   4.476
  224DPPC   C2211172   3.616   3.016   4.438
  224DPPC   C2311173   3.637   2.970   4.294
  224DPPC   C2411174   3.523   2.886   4.237
  224DPPC   C2511175   3.541   2.871   4.086
  224DPPC   C2611176   3.668   2.792   4.054
  224DPPC   C2711177   3.656   2.712   3.924
  224DPPC   C2811178   3.631   2.796   3.798
  224DPPC   C2911179   3.648   2.718   3.668
  224DPPC   C3011180   3.631   2.806   3.544
  224DPPC   C3111181   3.647   2.727   3.414
  224DPPC   C3211182   3.784   3.413   5.209
  224DPPC   O3311183   3.770   3.514   5.109
  224DPPC   C3411184   3.886   3.578   5.077
  224DPPC   O3511185   3.988   3.570   5.145
  224DPPC   C3611186   3.876   3.667   4.953
  224DPPC   C3711187   3.793   3.613   4.835
  224DPPC   C3811188   3.807   3.713   4.720
  224DPPC   C3911189   3.740   3.661   4.592
  224DPPC   C4011190   3.749   3.760   4.476
  224DPPC   C4111191   3.705   3.693   4.345
  224DPPC   C4211192   3.751   3.759   4.215
  224DPPC   C4311193   3.672   3.699   4.099
  224DPPC   C4411194   3.703   3.780   3.973
  224DPPC   C4511195   3.648   3.704   3.852
  224DPPC   C4611196   3.635   3.800   3.734
  224DPPC   C4711197   3.635   3.721   3.603
  224DPPC   C4811198   3.754   3.626   3.593
  224DPPC   C4911199   3.726   3.548   3.465
  224DPPC   C5011200   3.819   3.430   3.433
  225DPPC    C111201   8.951   3.125   5.238
  225DPPC    C211202   9.139   3.256   5.238
  225DPPC    C311203   9.037   3.189   5.446
  225DPPC    N411204   9.077   3.145   5.312
  225DPPC    C511205   9.161   3.025   5.319
  225DPPC    C611206   9.291   3.029   5.400
  225DPPC    O711207   9.385   3.133   5.371
  225DPPC    P811208   9.511   3.106   5.467
  225DPPC    O911209   9.477   3.003   5.568
  225DPPC   O1011210   9.571   3.239   5.494
  225DPPC   O1111211   9.596   3.029   5.354
  225DPPC   C1211212   9.672   3.119   5.273
  225DPPC   C1311213   9.658   3.097   5.123
  225DPPC   O1411214   9.738   3.196   5.056
  225DPPC   C1511215   9.872   3.187   5.034
  225DPPC   O1611216   9.942   3.154   5.129
  225DPPC   C1711217   9.919   3.293   4.935
  225DPPC   C1811218   9.915   3.228   4.796
  225DPPC   C1911219   9.952   3.330   4.689
  225DPPC   C2011220   9.912   3.274   4.552
  225DPPC   C2111221   9.964   3.358   4.435
  225DPPC   C2211222   9.887   3.314   4.311
  225DPPC   C2311223   9.937   3.376   4.180
  225DPPC   C2411224   9.841   3.341   4.066
  225DPPC   C2511225   9.892   3.390   3.930
  225DPPC   C2611226   9.793   3.370   3.815
  225DPPC   C2711227   9.847   3.426   3.684
  225DPPC   C2811228   9.770   3.364   3.567
  225DPPC   C2911229   9.858   3.375   3.443
  225DPPC   C3011230   9.789   3.316   3.320
  225DPPC   C3111231   9.870   3.347   3.194
  225DPPC   C3211232   9.508   3.099   5.097
  225DPPC   O3311233   9.471   3.000   5.000
  225DPPC   C3411234   9.350   3.013   4.939
  225DPPC   O3511235   9.274   3.102   4.977
  225DPPC   C3611236   9.316   2.896   4.847
  225DPPC   C3711237   9.353   2.942   4.706
  225DPPC   C3811238   9.308   2.817   4.629
  225DPPC   C3911239   9.343   2.831   4.481
  225DPPC   C4011240   9.350   2.695   4.411
  225DPPC   C4111241   9.373   2.708   4.261
  225DPPC   C4211242   9.390   2.570   4.197
  225DPPC   C4311243   9.372   2.595   4.047
  225DPPC   C4411244   9.411   2.470   3.967
  225DPPC   C4511245   9.400   2.490   3.815
  225DPPC   C4611246   9.522   2.573   3.775
  225DPPC   C4711247   9.516   2.606   3.625
  225DPPC   C4811248   9.521   2.481   3.537
  225DPPC   C4911249   9.541   2.506   3.387
  225DPPC   C5011250   9.673   2.583   3.373
  226DPPC    C111251   3.823   7.963   5.500
  226DPPC    C211252   3.794   8.193   5.477
  226DPPC    C311253   4.011   8.119   5.459
  226DPPC    N411254   3.873   8.080   5.427
  226DPPC    C511255   3.839   8.061   5.285
  226DPPC    C611256   3.922   7.966   5.197
  226DPPC    O711257   4.029   8.035   5.132
  226DPPC    P811258   4.118   7.921   5.062
  226DPPC    O911259   4.011   7.866   4.977
  226DPPC   O1011260   4.163   7.852   5.186
  226DPPC   O1111261   4.204   8.048   5.015
  226DPPC   C1211262   4.163   8.114   4.895
  226DPPC   C1311263   4.263   8.128   4.780
  226DPPC   O1411264   4.218   8.202   4.665
  226DPPC   C1511265   4.241   8.336   4.656
  226DPPC   O1611266   4.275   8.397   4.757
  226DPPC   C1711267   4.194   8.402   4.527
  226DPPC   C1811268   4.303   8.471   4.444
  226DPPC   C1911269   4.431   8.389   4.422
  226DPPC   C2011270   4.521   8.431   4.306
  226DPPC   C2111271   4.660   8.367   4.318
  226DPPC   C2211272   4.734   8.383   4.185
  226DPPC   C2311273   4.876   8.329   4.198
  226DPPC   C2411274   4.936   8.318   4.058
  226DPPC   C2511275   5.081   8.271   4.051
  226DPPC   C2611276   5.141   8.272   3.910
  226DPPC   C2711277   5.280   8.210   3.920
  226DPPC   C2811278   5.358   8.235   3.792
  226DPPC   C2911279   5.285   8.168   3.675
  226DPPC   C3011280   5.385   8.146   3.562
  226DPPC   C3111281   5.494   8.049   3.606
  226DPPC   C3211282   4.326   7.992   4.751
  226DPPC   O3311283   4.229   7.888   4.740
  226DPPC   C3411284   4.282   7.763   4.741
  226DPPC   O3511285   4.400   7.738   4.763
  226DPPC   C3611286   4.186   7.646   4.715
  226DPPC   C3711287   4.156   7.620   4.567
  226DPPC   C3811288   4.267   7.554   4.486
  226DPPC   C3911289   4.215   7.428   4.417
  226DPPC   C4011290   4.335   7.385   4.333
  226DPPC   C4111291   4.300   7.294   4.215
  226DPPC   C4211292   4.422   7.274   4.126
  226DPPC   C4311293   4.377   7.207   3.996
  226DPPC   C4411294   4.496   7.201   3.901
  226DPPC   C4511295   4.441   7.164   3.763
  226DPPC   C4611296   4.554   7.100   3.683
  226DPPC   C4711297   4.512   7.053   3.543
  226DPPC   C4811298   4.636   6.996   3.474
  226DPPC   C4911299   4.611   6.957   3.329
  226DPPC   C5011300   4.741   6.925   3.253
  227DPPC    C111301   4.694   4.141   1.459
  227DPPC    C211302   4.750   4.356   1.413
  227DPPC    C311303   4.521   4.304   1.397
  227DPPC    N411304   4.642   4.277   1.475
  227DPPC    C511305   4.624   4.320   1.615
  227DPPC    C611306   4.607   4.470   1.641
  227DPPC    O711307   4.580   4.498   1.778
  227DPPC    P811308   4.639   4.640   1.826
  227DPPC    O911309   4.567   4.682   1.948
  227DPPC   O1011310   4.654   4.725   1.705
  227DPPC   O1111311   4.791   4.602   1.864
  227DPPC   C1211312   4.796   4.592   2.006
  227DPPC   C1311313   4.932   4.535   2.045
  227DPPC   O1411314   4.941   4.460   2.166
  227DPPC   C1511315   4.874   4.342   2.180
  227DPPC   O1611316   4.815   4.298   2.082
  227DPPC   C1711317   4.866   4.278   2.319
  227DPPC   C1811318   4.982   4.184   2.353
  227DPPC   C1911319   4.982   4.161   2.505
  227DPPC   C2011320   5.086   4.065   2.562
  227DPPC   C2111321   5.059   4.039   2.710
  227DPPC   C2211322   5.167   3.960   2.784
  227DPPC   C2311323   5.139   3.912   2.926
  227DPPC   C2411324   5.276   3.919   2.993
  227DPPC   C2511325   5.227   3.866   3.128
  227DPPC   C2611326   5.336   3.846   3.234
  227DPPC   C2711327   5.268   3.825   3.369
  227DPPC   C2811328   5.366   3.814   3.487
  227DPPC   C2911329   5.304   3.766   3.618
  227DPPC   C3011330   5.254   3.623   3.599
  227DPPC   C3111331   5.204   3.583   3.738
  227DPPC   C3211332   5.035   4.646   2.022
  227DPPC   O3311333   5.025   4.741   2.129
  227DPPC   C3411334   5.135   4.820   2.142
  227DPPC   O3511335   5.208   4.838   2.045
  227DPPC   C3611336   5.151   4.914   2.262
  227DPPC   C3711337   5.275   4.873   2.341
  227DPPC   C3811338   5.310   4.961   2.462
  227DPPC   C3911339   5.230   4.932   2.589
  227DPPC   C4011340   5.271   5.024   2.704
  227DPPC   C4111341   5.212   5.001   2.843
  227DPPC   C4211342   5.308   5.062   2.945
  227DPPC   C4311343   5.232   5.059   3.078
  227DPPC   C4411344   5.300   5.122   3.200
  227DPPC   C4511345   5.236   5.064   3.327
  227DPPC   C4611346   5.334   5.097   3.440
  227DPPC   C4711347   5.298   5.009   3.560
  227DPPC   C4811348   5.404   5.036   3.668
  227DPPC   C4911349   5.357   4.942   3.778
  227DPPC   C5011350   5.440   4.953   3.906
  228DPPC    C111351   5.525   2.760   1.987
  228DPPC    C211352   5.687   2.683   1.817
  228DPPC    C311353   5.491   2.577   1.833
  228DPPC    N411354   5.547   2.712   1.850
  228DPPC    C511355   5.470   2.787   1.750
  228DPPC    C611356   5.475   2.940   1.751
  228DPPC    O711357   5.599   2.984   1.696
  228DPPC    P811358   5.587   3.140   1.660
  228DPPC    O911359   5.451   3.161   1.607
  228DPPC   O1011360   5.706   3.174   1.578
  228DPPC   O1111361   5.588   3.213   1.803
  228DPPC   C1211362   5.713   3.183   1.865
  228DPPC   C1311363   5.719   3.201   2.017
  228DPPC   O1411364   5.648   3.100   2.089
  228DPPC   C1511365   5.666   3.106   2.224
  228DPPC   O1611366   5.764   3.153   2.281
  228DPPC   C1711367   5.572   3.010   2.298
  228DPPC   C1811368   5.521   3.084   2.422
  228DPPC   C1911369   5.440   2.987   2.507
  228DPPC   C2011370   5.388   3.072   2.622
  228DPPC   C2111371   5.301   2.992   2.720
  228DPPC   C2211372   5.257   3.101   2.818
  228DPPC   C2311373   5.194   3.044   2.946
  228DPPC   C2411374   5.061   2.979   2.906
  228DPPC   C2511375   4.968   2.960   3.026
  228DPPC   C2611376   4.854   2.861   2.999
  228DPPC   C2711377   4.817   2.780   3.124
  228DPPC   C2811378   4.935   2.696   3.173
  228DPPC   C2911379   4.883   2.629   3.300
  228DPPC   C3011380   4.993   2.531   3.343
  228DPPC   C3111381   4.944   2.427   3.444
  228DPPC   C3211382   5.678   3.344   2.052
  228DPPC   O3311383   5.783   3.441   2.054
  228DPPC   C3411384   5.742   3.568   2.081
  228DPPC   O3511385   5.629   3.602   2.045
  228DPPC   C3611386   5.859   3.654   2.128
  228DPPC   C3711387   5.837   3.746   2.248
  228DPPC   C3811388   5.860   3.675   2.382
  228DPPC   C3911389   5.854   3.788   2.485
  228DPPC   C4011390   5.852   3.728   2.625
  228DPPC   C4111391   5.847   3.845   2.723
  228DPPC   C4211392   5.844   3.765   2.854
  228DPPC   C4311393   5.825   3.863   2.970
  228DPPC   C4411394   5.805   3.781   3.097
  228DPPC   C4511395   5.756   3.881   3.203
  228DPPC   C4611396   5.790   3.843   3.347
  228DPPC   C4711397   5.925   3.906   3.380
  228DPPC   C4811398   6.046   3.834   3.319
  228DPPC   C4911399   6.166   3.915   3.369
  228DPPC   C5011400   6.295   3.867   3.303
  229DPPC    C111401   3.275   3.956   2.053
  229DPPC    C211402   3.507   3.997   2.042
  229DPPC    C311403   3.414   3.872   2.231
  229DPPC    N411404   3.406   3.900   2.086
  229DPPC    C511405   3.432   3.773   2.017
  229DPPC    C611406   3.331   3.660   2.041
  229DPPC    O711407   3.388   3.533   2.006
  229DPPC    P811408   3.301   3.402   2.039
  229DPPC    O911409   3.387   3.304   1.968
  229DPPC   O1011410   3.162   3.433   1.998
  229DPPC   O1111411   3.333   3.412   2.197
  229DPPC   C1211412   3.355   3.282   2.252
  229DPPC   C1311413   3.384   3.278   2.402
  229DPPC   O1411414   3.266   3.251   2.479
  229DPPC   C1511415   3.236   3.121   2.508
  229DPPC   O1611416   3.294   3.030   2.449
  229DPPC   C1711417   3.122   3.090   2.605
  229DPPC   C1811418   3.174   2.990   2.709
  229DPPC   C1911419   3.075   2.966   2.823
  229DPPC   C2011420   3.131   2.868   2.926
  229DPPC   C2111421   3.071   2.891   3.065
  229DPPC   C2211422   3.025   2.758   3.126
  229DPPC   C2311423   2.956   2.786   3.259
  229DPPC   C2411424   2.880   2.661   3.303
  229DPPC   C2511425   2.845   2.654   3.452
  229DPPC   C2611426   2.761   2.530   3.481
  229DPPC   C2711427   2.766   2.477   3.624
  229DPPC   C2811428   2.745   2.594   3.721
  229DPPC   C2911429   2.749   2.534   3.862
  229DPPC   C3011430   2.801   2.609   3.984
  229DPPC   C3111431   2.805   2.511   4.102
  229DPPC   C3211432   3.453   3.405   2.451
  229DPPC   O3311433   3.575   3.437   2.382
  229DPPC   C3411434   3.630   3.559   2.402
  229DPPC   O3511435   3.571   3.660   2.440
  229DPPC   C3611436   3.771   3.565   2.341
  229DPPC   C3711437   3.889   3.540   2.435
  229DPPC   C3811438   3.866   3.618   2.565
  229DPPC   C3911439   3.994   3.607   2.649
  229DPPC   C4011440   3.984   3.693   2.775
  229DPPC   C4111441   4.109   3.671   2.861
  229DPPC   C4211442   4.073   3.719   3.002
  229DPPC   C4311443   4.188   3.751   3.098
  229DPPC   C4411444   4.125   3.786   3.233
  229DPPC   C4511445   4.233   3.818   3.336
  229DPPC   C4611446   4.180   3.844   3.477
  229DPPC   C4711447   4.128   3.988   3.487
  229DPPC   C4811448   4.089   4.019   3.631
  229DPPC   C4911449   4.073   4.170   3.646
  229DPPC   C5011450   4.025   4.195   3.789
  230DPPC    C111451   5.529   1.120   2.198
  230DPPC    C211452   5.368   1.108   2.383
  230DPPC    C311453   5.350   1.265   2.202
  230DPPC    N411454   5.388   1.128   2.238
  230DPPC    C511455   5.316   1.016   2.176
  230DPPC    C611456   5.339   0.966   2.033
  230DPPC    O711457   5.228   0.911   1.963
  230DPPC    P811458   5.263   0.764   1.909
  230DPPC    O911459   5.391   0.781   1.838
  230DPPC   O1011460   5.150   0.715   1.826
  230DPPC   O1111461   5.278   0.699   2.055
  230DPPC   C1211462   5.148   0.652   2.093
  230DPPC   C1311463   5.111   0.667   2.241
  230DPPC   O1411464   5.070   0.796   2.287
  230DPPC   C1511465   4.945   0.845   2.262
  230DPPC   O1611466   4.871   0.806   2.172
  230DPPC   C1711467   4.890   0.954   2.354
  230DPPC   C1811468   4.875   0.898   2.496
  230DPPC   C1911469   4.833   1.018   2.580
  230DPPC   C2011470   4.833   0.978   2.728
  230DPPC   C2111471   4.797   1.105   2.806
  230DPPC   C2211472   4.647   1.135   2.811
  230DPPC   C2311473   4.638   1.247   2.915
  230DPPC   C2411474   4.739   1.357   2.882
  230DPPC   C2511475   4.718   1.464   2.989
  230DPPC   C2611476   4.765   1.407   3.124
  230DPPC   C2711477   4.747   1.491   3.250
  230DPPC   C2811478   4.780   1.393   3.363
  230DPPC   C2911479   4.914   1.321   3.352
  230DPPC   C3011480   4.929   1.248   3.485
  230DPPC   C3111481   5.048   1.153   3.498
  230DPPC   C3211482   5.232   0.609   2.315
  230DPPC   O3311483   5.237   0.592   2.456
  230DPPC   C3411484   5.283   0.705   2.515
  230DPPC   O3511485   5.334   0.799   2.454
  230DPPC   C3611486   5.270   0.714   2.667
  230DPPC   C3711487   5.278   0.575   2.730
  230DPPC   C3811488   5.301   0.586   2.881
  230DPPC   C3911489   5.274   0.451   2.946
  230DPPC   C4011490   5.294   0.450   3.098
  230DPPC   C4111491   5.258   0.307   3.141
  230DPPC   C4211492   5.111   0.270   3.127
  230DPPC   C4311493   5.040   0.339   3.244
  230DPPC   C4411494   4.889   0.317   3.243
  230DPPC   C4511495   4.811   0.388   3.355
  230DPPC   C4611496   4.659   0.375   3.348
  230DPPC   C4711497   4.592   0.457   3.459
  230DPPC   C4811498   4.600   0.605   3.424
  230DPPC   C4911499   4.461   0.658   3.387
  230DPPC   C5011500   4.354   0.627   3.492
  231DPPC    C111501   1.072   0.230   1.685
  231DPPC    C211502   1.153   0.410   1.587
  231DPPC    C311503   1.322   0.282   1.700
  231DPPC    N411504   1.197   0.274   1.622
  231DPPC    C511505   1.224   0.199   1.499
  231DPPC    C611506   1.306   0.070   1.496
  231DPPC    O711507   1.240  -0.037   1.565
  231DPPC    P811508   1.346  -0.154   1.598
  231DPPC    O911509   1.441  -0.111   1.703
  231DPPC   O1011510   1.368  -0.235   1.476
  231DPPC   O1111511   1.230  -0.234   1.675
  231DPPC   C1211512   1.219  -0.179   1.807
  231DPPC   C1311513   1.083  -0.201   1.873
  231DPPC   O1411514   1.063  -0.131   1.997
  231DPPC   C1511515   0.962  -0.040   2.001
  231DPPC   O1611516   0.887  -0.027   1.904
  231DPPC   C1711517   0.952   0.054   2.122
  231DPPC   C1811518   0.988   0.198   2.086
  231DPPC   C1911519   0.939   0.301   2.189
  231DPPC   C2011520   0.787   0.318   2.187
  231DPPC   C2111521   0.750   0.435   2.278
  231DPPC   C2211522   0.803   0.418   2.420
  231DPPC   C2311523   0.770   0.537   2.509
  231DPPC   C2411524   0.803   0.498   2.653
  231DPPC   C2511525   0.762   0.621   2.734
  231DPPC   C2611526   0.798   0.607   2.882
  231DPPC   C2711527   0.758   0.729   2.966
  231DPPC   C2811528   0.764   0.691   3.114
  231DPPC   C2911529   0.767   0.819   3.199
  231DPPC   C3011530   0.783   0.789   3.348
  231DPPC   C3111531   0.665   0.710   3.404
  231DPPC   C3211532   1.064  -0.353   1.868
  231DPPC   O3311533   1.185  -0.421   1.902
  231DPPC   C3411534   1.169  -0.554   1.927
  231DPPC   O3511535   1.103  -0.621   1.848
  231DPPC   C3611536   1.274  -0.612   2.022
  231DPPC   C3711537   1.203  -0.649   2.152
  231DPPC   C3811538   1.318  -0.718   2.224
  231DPPC   C3911539   1.290  -0.793   2.355
  231DPPC   C4011540   1.423  -0.850   2.405
  231DPPC   C4111541   1.407  -0.931   2.534
  231DPPC   C4211542   1.548  -0.971   2.577
  231DPPC   C4311543   1.618  -0.839   2.611
  231DPPC   C4411544   1.740  -0.849   2.702
  231DPPC   C4511545   1.804  -0.710   2.705
  231DPPC   C4611546   1.946  -0.723   2.649
  231DPPC   C4711547   2.029  -0.595   2.664
  231DPPC   C4811548   2.163  -0.632   2.728
  231DPPC   C4911549   2.283  -0.571   2.656
  231DPPC   C5011550   2.407  -0.647   2.705
  232DPPC    C111551   7.702   6.907   1.166
  232DPPC    C211552   7.806   7.034   1.347
  232DPPC    C311553   7.583   7.068   1.291
  232DPPC    N411554   7.686   6.963   1.301
  232DPPC    C511555   7.654   6.852   1.392
  232DPPC    C611556   7.765   6.751   1.424
  232DPPC    O711557   7.715   6.632   1.486
  232DPPC    P811558   7.787   6.496   1.438
  232DPPC    O911559   7.833   6.510   1.298
  232DPPC   O1011560   7.698   6.386   1.481
  232DPPC   O1111561   7.910   6.498   1.542
  232DPPC   C1211562   7.869   6.458   1.673
  232DPPC   C1311563   7.950   6.524   1.785
  232DPPC   O1411564   7.953   6.447   1.906
  232DPPC   C1511565   8.061   6.366   1.923
  232DPPC   O1611566   8.152   6.370   1.841
  232DPPC   C1711567   8.066   6.285   2.053
  232DPPC   C1811568   8.194   6.309   2.133
  232DPPC   C1911569   8.184   6.220   2.257
  232DPPC   C2011570   8.291   6.245   2.365
  232DPPC   C2111571   8.258   6.156   2.485
  232DPPC   C2211572   8.358   6.160   2.601
  232DPPC   C2311573   8.308   6.080   2.721
  232DPPC   C2411574   8.395   6.115   2.842
  232DPPC   C2511575   8.546   6.112   2.821
  232DPPC   C2611576   8.615   6.143   2.954
  232DPPC   C2711577   8.614   6.018   3.042
  232DPPC   C2811578   8.677   6.045   3.180
  232DPPC   C2911579   8.605   6.159   3.252
  232DPPC   C3011580   8.654   6.179   3.396
  232DPPC   C3111581   8.574   6.290   3.465
  232DPPC   C3211582   7.900   6.669   1.789
  232DPPC   O3311583   7.760   6.686   1.813
  232DPPC   C3411584   7.719   6.815   1.802
  232DPPC   O3511585   7.783   6.895   1.733
  232DPPC   C3611586   7.581   6.843   1.861
  232DPPC   C3711587   7.589   6.938   1.981
  232DPPC   C3811588   7.621   6.853   2.104
  232DPPC   C3911589   7.630   6.956   2.217
  232DPPC   C4011590   7.495   7.026   2.235
  232DPPC   C4111591   7.500   7.122   2.354
  232DPPC   C4211592   7.550   7.041   2.473
  232DPPC   C4311593   7.556   7.122   2.603
  232DPPC   C4411594   7.602   7.041   2.724
  232DPPC   C4511595   7.729   6.960   2.698
  232DPPC   C4611596   7.731   6.840   2.793
  232DPPC   C4711597   7.875   6.789   2.798
  232DPPC   C4811598   7.893   6.664   2.885
  232DPPC   C4911599   7.786   6.565   2.838
  232DPPC   C5011600   7.781   6.448   2.937
  233DPPC    C111601   0.413   5.384   1.132
  233DPPC    C211602   0.585   5.220   1.135
  233DPPC    C311603   0.621   5.437   1.074
  233DPPC    N411604   0.551   5.357   1.176
  233DPPC    C511605   0.586   5.380   1.317
  233DPPC    C611606   0.572   5.524   1.365
  233DPPC    O711607   0.694   5.579   1.416
  233DPPC    P811608   0.667   5.732   1.457
  233DPPC    O911609   0.578   5.777   1.347
  233DPPC   O1011610   0.792   5.805   1.487
  233DPPC   O1111611   0.577   5.709   1.589
  233DPPC   C1211612   0.532   5.826   1.658
  233DPPC   C1311613   0.412   5.909   1.611
  233DPPC   O1411614   0.394   6.029   1.688
  233DPPC   C1511615   0.458   6.143   1.651
  233DPPC   O1611616   0.538   6.135   1.558
  233DPPC   C1711617   0.452   6.261   1.748
  233DPPC   C1811618   0.587   6.301   1.807
  233DPPC   C1911619   0.555   6.406   1.913
  233DPPC   C2011620   0.686   6.458   1.974
  233DPPC   C2111621   0.763   6.349   2.048
  233DPPC   C2211622   0.890   6.400   2.117
  233DPPC   C2311623   0.956   6.279   2.183
  233DPPC   C2411624   1.102   6.309   2.215
  233DPPC   C2511625   1.162   6.199   2.303
  233DPPC   C2611626   1.160   6.066   2.227
  233DPPC   C2711627   1.257   5.965   2.289
  233DPPC   C2811628   1.249   5.978   2.441
  233DPPC   C2911629   1.353   5.885   2.505
  233DPPC   C3011630   1.331   5.879   2.657
  233DPPC   C3111631   1.407   5.763   2.722
  233DPPC   C3211632   0.293   5.815   1.634
  233DPPC   O3311633   0.307   5.737   1.753
  233DPPC   C3411634   0.198   5.660   1.779
  233DPPC   O3511635   0.107   5.658   1.696
  233DPPC   C3611636   0.193   5.584   1.912
  233DPPC   C3711637   0.125   5.665   2.023
  233DPPC   C3811638   0.194   5.798   2.053
  233DPPC   C3911639   0.120   5.886   2.153
  233DPPC   C4011640   0.205   6.008   2.191
  233DPPC   C4111641   0.340   5.962   2.246
  233DPPC   C4211642   0.431   6.080   2.282
  233DPPC   C4311643   0.563   6.023   2.332
  233DPPC   C4411644   0.661   6.117   2.403
  233DPPC   C4511645   0.759   6.040   2.492
  233DPPC   C4611646   0.810   6.129   2.605
  233DPPC   C4711647   0.934   6.067   2.670
  233DPPC   C4811648   0.990   6.156   2.782
  233DPPC   C4911649   1.081   6.073   2.873
  233DPPC   C5011650   0.986   5.963   2.922
  234DPPC    C111651   8.535   1.903   1.004
  234DPPC    C211652   8.464   1.682   1.053
  234DPPC    C311653   8.674   1.709   0.983
  234DPPC    N411654   8.575   1.777   1.068
  234DPPC    C511655   8.624   1.789   1.206
  234DPPC    C611656   8.733   1.882   1.260
  234DPPC    O711657   8.862   1.866   1.200
  234DPPC    P811658   8.958   1.991   1.231
  234DPPC    O911659   8.861   2.099   1.202
  234DPPC   O1011660   9.076   1.961   1.146
  234DPPC   O1111661   8.979   1.942   1.383
  234DPPC   C1211662   8.933   2.040   1.477
  234DPPC   C1311663   8.904   1.966   1.608
  234DPPC   O1411664   8.880   2.058   1.715
  234DPPC   C1511665   8.780   2.020   1.800
  234DPPC   O1611666   8.671   1.983   1.757
  234DPPC   C1711667   8.791   2.078   1.941
  234DPPC   C1811668   8.938   2.095   1.979
  234DPPC   C1911669   8.966   2.107   2.129
  234DPPC   C2011670   8.922   1.984   2.210
  234DPPC   C2111671   8.952   1.998   2.359
  234DPPC   C2211672   8.894   1.873   2.426
  234DPPC   C2311673   8.886   1.906   2.576
  234DPPC   C2411674   8.774   1.828   2.644
  234DPPC   C2511675   8.771   1.862   2.794
  234DPPC   C2611676   8.648   1.808   2.866
  234DPPC   C2711677   8.643   1.833   3.017
  234DPPC   C2811678   8.516   1.776   3.081
  234DPPC   C2911679   8.521   1.773   3.234
  234DPPC   C3011680   8.385   1.723   3.282
  234DPPC   C3111681   8.382   1.724   3.435
  234DPPC   C3211682   9.035   1.894   1.639
  234DPPC   O3311683   9.040   1.790   1.737
  234DPPC   C3411684   8.982   1.667   1.729
  234DPPC   O3511685   8.961   1.625   1.616
  234DPPC   C3611686   8.988   1.575   1.851
  234DPPC   C3711687   8.877   1.635   1.939
  234DPPC   C3811688   8.877   1.555   2.070
  234DPPC   C3911689   8.753   1.594   2.150
  234DPPC   C4011690   8.735   1.531   2.288
  234DPPC   C4111691   8.589   1.563   2.320
  234DPPC   C4211692   8.545   1.503   2.453
  234DPPC   C4311693   8.412   1.560   2.502
  234DPPC   C4411694   8.383   1.488   2.634
  234DPPC   C4511695   8.279   1.576   2.704
  234DPPC   C4611696   8.253   1.508   2.839
  234DPPC   C4711697   8.375   1.472   2.924
  234DPPC   C4811698   8.342   1.408   3.058
  234DPPC   C4911699   8.465   1.368   3.140
  234DPPC   C5011700   8.425   1.271   3.252
  235DPPC    C111701   2.596   4.070   1.891
  235DPPC    C211702   2.410   4.218   1.869
  235DPPC    C311703   2.500   4.168   2.082
  235DPPC    N411704   2.535   4.194   1.942
  235DPPC    C511705   2.629   4.307   1.947
  235DPPC    C611706   2.677   4.357   1.811
  235DPPC    O711707   2.754   4.476   1.824
  235DPPC    P811708   2.796   4.522   1.675
  235DPPC    O911709   2.772   4.411   1.580
  235DPPC   O1011710   2.929   4.585   1.662
  235DPPC   O1111711   2.677   4.628   1.650
  235DPPC   C1211712   2.700   4.729   1.748
  235DPPC   C1311713   2.583   4.821   1.785
  235DPPC   O1411714   2.628   4.935   1.860
  235DPPC   C1511715   2.541   5.038   1.866
  235DPPC   O1611716   2.448   5.046   1.785
  235DPPC   C1711717   2.557   5.136   1.983
  235DPPC   C1811718   2.589   5.051   2.106
  235DPPC   C1911719   2.475   4.968   2.164
  235DPPC   C2011720   2.539   4.910   2.291
  235DPPC   C2111721   2.448   4.818   2.373
  235DPPC   C2211722   2.508   4.816   2.514
  235DPPC   C2311723   2.471   4.941   2.593
  235DPPC   C2411724   2.545   4.933   2.726
  235DPPC   C2511725   2.530   5.072   2.787
  235DPPC   C2611726   2.382   5.112   2.797
  235DPPC   C2711727   2.355   5.251   2.854
  235DPPC   C2811728   2.384   5.237   3.004
  235DPPC   C2911729   2.357   5.359   3.091
  235DPPC   C3011730   2.369   5.316   3.238
  235DPPC   C3111731   2.309   5.413   3.339
  235DPPC   C3211732   2.470   4.730   1.834
  235DPPC   O3311733   2.473   4.652   1.953
  235DPPC   C3411734   2.359   4.588   1.990
  235DPPC   O3511735   2.282   4.563   1.898
  235DPPC   C3611736   2.365   4.522   2.128
  235DPPC   C3711737   2.233   4.452   2.161
  235DPPC   C3811738   2.241   4.370   2.290
  235DPPC   C3911739   2.289   4.441   2.416
  235DPPC   C4011740   2.275   4.356   2.543
  235DPPC   C4111741   2.322   4.420   2.674
  235DPPC   C4211742   2.228   4.526   2.731
  235DPPC   C4311743   2.308   4.588   2.846
  235DPPC   C4411744   2.202   4.674   2.914
  235DPPC   C4511745   2.252   4.730   3.048
  235DPPC   C4611746   2.186   4.861   3.093
  235DPPC   C4711747   2.248   4.915   3.222
  235DPPC   C4811748   2.233   4.811   3.334
  235DPPC   C4911749   2.295   4.872   3.460
  235DPPC   C5011750   2.441   4.911   3.435
  236DPPC    C111751   0.274   1.152   1.111
  236DPPC    C211752   0.141   1.278   0.953
  236DPPC    C311753   0.039   1.112   1.092
  236DPPC    N411754   0.144   1.216   1.087
  236DPPC    C511755   0.118   1.308   1.198
  236DPPC    C611756   0.184   1.446   1.205
  236DPPC    O711757   0.327   1.440   1.216
  236DPPC    P811758   0.393   1.587   1.213
  236DPPC    O911759   0.315   1.662   1.112
  236DPPC   O1011760   0.539   1.563   1.208
  236DPPC   O1111761   0.332   1.636   1.354
  236DPPC   C1211762   0.401   1.577   1.464
  236DPPC   C1311763   0.378   1.662   1.589
  236DPPC   O1411764   0.475   1.645   1.694
  236DPPC   C1511765   0.509   1.746   1.779
  236DPPC   O1611766   0.484   1.861   1.745
  236DPPC   C1711767   0.622   1.726   1.880
  236DPPC   C1811768   0.592   1.820   1.997
  236DPPC   C1911769   0.700   1.800   2.103
  236DPPC   C2011770   0.678   1.897   2.219
  236DPPC   C2111771   0.568   1.842   2.310
  236DPPC   C2211772   0.578   1.896   2.452
  236DPPC   C2311773   0.481   1.816   2.540
  236DPPC   C2411774   0.339   1.815   2.484
  236DPPC   C2511775   0.244   1.788   2.601
  236DPPC   C2611776   0.292   1.653   2.655
  236DPPC   C2711777   0.207   1.608   2.774
  236DPPC   C2811778   0.194   1.706   2.892
  236DPPC   C2911779   0.087   1.650   2.985
  236DPPC   C3011780   0.086   1.726   3.118
  236DPPC   C3111781  -0.036   1.700   3.207
  236DPPC   C3211782   0.233   1.627   1.622
  236DPPC   O3311783   0.220   1.486   1.640
  236DPPC   C3411784   0.093   1.437   1.633
  236DPPC   O3511785   0.002   1.505   1.584
  236DPPC   C3611786   0.064   1.297   1.686
  236DPPC   C3711787   0.055   1.294   1.839
  236DPPC   C3811788  -0.092   1.317   1.877
  236DPPC   C3911789  -0.128   1.267   2.017
  236DPPC   C4011790  -0.271   1.290   2.066
  236DPPC   C4111791  -0.279   1.247   2.212
  236DPPC   C4211792  -0.259   1.096   2.227
  236DPPC   C4311793  -0.264   1.053   2.374
  236DPPC   C4411794  -0.254   0.902   2.392
  236DPPC   C4511795  -0.253   0.886   2.545
  236DPPC   C4611796  -0.220   0.745   2.593
  236DPPC   C4711797  -0.228   0.734   2.746
  236DPPC   C4811798  -0.101   0.795   2.807
  236DPPC   C4911799  -0.112   0.807   2.959
  236DPPC   C5011800   0.012   0.877   3.015
  237DPPC    C111801   7.367   7.752   1.629
  237DPPC    C211802   7.579   7.640   1.654
  237DPPC    C311803   7.424   7.569   1.507
  237DPPC    N411804   7.482   7.694   1.557
  237DPPC    C511805   7.552   7.764   1.448
  237DPPC    C611806   7.594   7.910   1.468
  237DPPC    O711807   7.485   8.003   1.471
  237DPPC    P811808   7.541   8.152   1.498
  237DPPC    O911809   7.444   8.253   1.452
  237DPPC   O1011810   7.684   8.151   1.462
  237DPPC   O1111811   7.521   8.136   1.657
  237DPPC   C1211812   7.386   8.140   1.704
  237DPPC   C1311813   7.381   8.156   1.857
  237DPPC   O1411814   7.381   8.290   1.907
  237DPPC   C1511815   7.270   8.368   1.892
  237DPPC   O1611816   7.170   8.316   1.842
  237DPPC   C1711817   7.281   8.514   1.936
  237DPPC   C1811818   7.373   8.515   2.058
  237DPPC   C1911819   7.382   8.654   2.122
  237DPPC   C2011820   7.446   8.643   2.260
  237DPPC   C2111821   7.339   8.613   2.365
  237DPPC   C2211822   7.405   8.629   2.502
  237DPPC   C2311823   7.309   8.614   2.620
  237DPPC   C2411824   7.371   8.673   2.746
  237DPPC   C2511825   7.387   8.824   2.727
  237DPPC   C2611826   7.483   8.872   2.836
  237DPPC   C2711827   7.474   8.811   2.977
  237DPPC   C2811828   7.580   8.863   3.074
  237DPPC   C2911829   7.725   8.847   3.027
  237DPPC   C3011830   7.813   8.912   3.134
  237DPPC   C3111831   7.783   9.061   3.146
  237DPPC   C3211832   7.476   8.049   1.911
  237DPPC   O3311833   7.402   7.930   1.935
  237DPPC   C3411834   7.481   7.834   1.990
  237DPPC   O3511835   7.599   7.817   1.958
  237DPPC   C3611836   7.420   7.722   2.074
  237DPPC   C3711837   7.417   7.758   2.223
  237DPPC   C3811838   7.385   7.641   2.317
  237DPPC   C3911839   7.366   7.684   2.462
  237DPPC   C4011840   7.317   7.568   2.550
  237DPPC   C4111841   7.255   7.632   2.674
  237DPPC   C4211842   7.196   7.521   2.761
  237DPPC   C4311843   7.296   7.412   2.801
  237DPPC   C4411844   7.406   7.480   2.883
  237DPPC   C4511845   7.506   7.376   2.935
  237DPPC   C4611846   7.599   7.445   3.035
  237DPPC   C4711847   7.718   7.351   3.058
  237DPPC   C4811848   7.678   7.211   3.105
  237DPPC   C4911849   7.806   7.137   3.067
  237DPPC   C5011850   7.918   7.183   3.161
  238DPPC    C111851   3.267   2.093   2.341
  238DPPC    C211852   3.344   2.151   2.125
  238DPPC    C311853   3.112   2.104   2.152
  238DPPC    N411854   3.230   2.163   2.217
  238DPPC    C511855   3.175   2.297   2.239
  238DPPC    C611856   3.251   2.391   2.332
  238DPPC    O711857   3.351   2.467   2.262
  238DPPC    P811858   3.424   2.573   2.359
  238DPPC    O911859   3.349   2.594   2.485
  238DPPC   O1011860   3.490   2.684   2.287
  238DPPC   O1111861   3.540   2.464   2.386
  238DPPC   C1211862   3.535   2.443   2.528
  238DPPC   C1311863   3.585   2.313   2.590
  238DPPC   O1411864   3.536   2.299   2.724
  238DPPC   C1511865   3.524   2.175   2.779
  238DPPC   O1611866   3.521   2.074   2.708
  238DPPC   C1711867   3.489   2.163   2.927
  238DPPC   C1811868   3.609   2.139   3.019
  238DPPC   C1911869   3.586   2.143   3.170
  238DPPC   C2011870   3.529   2.273   3.226
  238DPPC   C2111871   3.507   2.252   3.376
  238DPPC   C2211872   3.449   2.382   3.433
  238DPPC   C2311873   3.456   2.375   3.586
  238DPPC   C2411874   3.596   2.347   3.643
  238DPPC   C2511875   3.580   2.331   3.794
  238DPPC   C2611876   3.526   2.205   3.862
  238DPPC   C2711877   3.556   2.207   4.012
  238DPPC   C2811878   3.461   2.298   4.090
  238DPPC   C2911879   3.485   2.279   4.239
  238DPPC   C3011880   3.444   2.138   4.280
  238DPPC   C3111881   3.450   2.098   4.428
  238DPPC   C3211882   3.737   2.318   2.575
  238DPPC   O3311883   3.803   2.444   2.590
  238DPPC   C3411884   3.937   2.450   2.572
  238DPPC   O3511885   4.000   2.347   2.548
  238DPPC   C3611886   4.004   2.588   2.574
  238DPPC   C3711887   4.077   2.622   2.704
  238DPPC   C3811888   4.164   2.748   2.694
  238DPPC   C3911889   4.249   2.763   2.820
  238DPPC   C4011890   4.156   2.756   2.941
  238DPPC   C4111891   4.223   2.761   3.079
  238DPPC   C4211892   4.119   2.731   3.187
  238DPPC   C4311893   4.163   2.727   3.333
  238DPPC   C4411894   4.060   2.718   3.447
  238DPPC   C4511895   3.982   2.587   3.442
  238DPPC   C4611896   4.045   2.469   3.517
  238DPPC   C4711897   3.956   2.345   3.504
  238DPPC   C4811898   3.985   2.226   3.595
  238DPPC   C4911899   4.093   2.138   3.532
  238DPPC   C5011900   4.038   2.104   3.393
  239DPPC    C111901   3.297   2.653   2.004
  239DPPC    C211902   3.477   2.750   1.872
  239DPPC    C311903   3.311   2.606   1.777
  239DPPC    N411904   3.334   2.713   1.875
  239DPPC    C511905   3.266   2.838   1.839
  239DPPC    C611906   3.114   2.822   1.824
  239DPPC    O711907   3.046   2.916   1.741
  239DPPC    P811908   2.897   2.862   1.713
  239DPPC    O911909   2.928   2.723   1.675
  239DPPC   O1011910   2.846   2.960   1.614
  239DPPC   O1111911   2.848   2.885   1.865
  239DPPC   C1211912   2.726   2.960   1.868
  239DPPC   C1311913   2.613   2.858   1.880
  239DPPC   O1411914   2.478   2.898   1.852
  239DPPC   C1511915   2.374   2.811   1.852
  239DPPC   O1611916   2.379   2.689   1.839
  239DPPC   C1711917   2.236   2.875   1.872
  239DPPC   C1811918   2.182   2.844   2.012
  239DPPC   C1911919   2.058   2.930   2.036
  239DPPC   C2011920   1.991   2.916   2.172
  239DPPC   C2111921   2.083   2.976   2.279
  239DPPC   C2211922   1.998   2.970   2.406
  239DPPC   C2311923   2.060   3.064   2.510
  239DPPC   C2411924   1.987   3.063   2.644
  239DPPC   C2511925   1.860   3.148   2.642
  239DPPC   C2611926   1.795   3.172   2.779
  239DPPC   C2711927   1.892   3.232   2.881
  239DPPC   C2811928   1.809   3.243   3.009
  239DPPC   C2911929   1.886   3.343   3.096
  239DPPC   C3011930   1.795   3.381   3.212
  239DPPC   C3111931   1.693   3.484   3.161
  239DPPC   C3211932   2.642   2.824   2.026
  239DPPC   O3311933   2.611   2.922   2.125
  239DPPC   C3411934   2.605   2.875   2.253
  239DPPC   O3511935   2.621   2.757   2.282
  239DPPC   C3611936   2.564   2.980   2.357
  239DPPC   C3711937   2.551   2.910   2.493
  239DPPC   C3811938   2.453   2.988   2.580
  239DPPC   C3911939   2.452   2.928   2.721
  239DPPC   C4011940   2.376   3.017   2.820
  239DPPC   C4111941   2.432   2.986   2.959
  239DPPC   C4211942   2.350   3.060   3.064
  239DPPC   C4311943   2.389   3.039   3.210
  239DPPC   C4411944   2.296   3.095   3.319
  239DPPC   C4511945   2.327   3.238   3.363
  239DPPC   C4611946   2.208   3.310   3.426
  239DPPC   C4711947   2.221   3.352   3.573
  239DPPC   C4811948   2.087   3.389   3.636
  239DPPC   C4911949   2.114   3.444   3.776
  239DPPC   C5011950   2.159   3.330   3.867
  240DPPC    C111951   1.260   4.726   1.213
  240DPPC    C211952   1.462   4.740   1.099
  240DPPC    C311953   1.244   4.779   0.991
  240DPPC    N411954   1.330   4.802   1.109
  240DPPC    C511955   1.341   4.947   1.131
  240DPPC    C611956   1.401   4.983   1.267
  240DPPC    O711957   1.306   5.023   1.366
  240DPPC    P811958   1.396   5.050   1.497
  240DPPC    O911959   1.305   5.127   1.585
  240DPPC   O1011960   1.517   5.115   1.441
  240DPPC   O1111961   1.410   4.893   1.528
  240DPPC   C1211962   1.301   4.850   1.610
  240DPPC   C1311963   1.261   4.703   1.622
  240DPPC   O1411964   1.140   4.679   1.695
  240DPPC   C1511965   1.027   4.647   1.627
  240DPPC   O1611966   1.041   4.635   1.505
  240DPPC   C1711967   0.893   4.623   1.697
  240DPPC   C1811968   0.836   4.742   1.774
  240DPPC   C1911969   0.691   4.708   1.809
  240DPPC   C2011970   0.652   4.828   1.895
  240DPPC   C2111971   0.580   4.770   2.017
  240DPPC   C2211972   0.540   4.886   2.108
  240DPPC   C2311973   0.678   4.941   2.146
  240DPPC   C2411974   0.657   5.046   2.256
  240DPPC   C2511975   0.801   5.081   2.297
  240DPPC   C2611976   0.885   5.162   2.198
  240DPPC   C2711977   1.020   5.170   2.270
  240DPPC   C2811978   0.986   5.221   2.410
  240DPPC   C2911979   1.110   5.273   2.484
  240DPPC   C3011980   1.078   5.309   2.629
  240DPPC   C3111981   1.166   5.421   2.685
  240DPPC   C3211982   1.389   4.638   1.674
  240DPPC   O3311983   1.431   4.679   1.805
  240DPPC   C3411984   1.512   4.589   1.865
  240DPPC   O3511985   1.562   4.497   1.800
  240DPPC   C3611986   1.541   4.606   2.015
  240DPPC   C3711987   1.441   4.703   2.079
  240DPPC   C3811988   1.469   4.684   2.228
  240DPPC   C3911989   1.499   4.539   2.266
  240DPPC   C4011990   1.507   4.509   2.416
  240DPPC   C4111991   1.377   4.524   2.496
  240DPPC   C4211992   1.411   4.513   2.645
  240DPPC   C4311993   1.291   4.566   2.723
  240DPPC   C4411994   1.307   4.575   2.875
  240DPPC   C4511995   1.201   4.667   2.936
  240DPPC   C4611996   1.233   4.672   3.085
  240DPPC   C4711997   1.361   4.749   3.120
  240DPPC   C4811998   1.376   4.757   3.272
  240DPPC   C4911999   1.486   4.856   3.306
  240DPPC   C5012000   1.483   4.906   3.451
  241DPPC    C112001   3.034   3.248   1.741
  241DPPC    C212002   3.238   3.288   1.647
  241DPPC    C312003   3.041   3.307   1.515
  241DPPC    N412004   3.100   3.339   1.646
  241DPPC    C512005   3.098   3.484   1.666
  241DPPC    C612006   2.957   3.534   1.697
  241DPPC    O712007   2.960   3.677   1.700
  241DPPC    P812008   2.808   3.714   1.739
  241DPPC    O912009   2.723   3.613   1.674
  241DPPC   O1012010   2.774   3.857   1.720
  241DPPC   O1112011   2.812   3.679   1.896
  241DPPC   C1212012   2.893   3.787   1.943
  241DPPC   C1312013   2.891   3.795   2.096
  241DPPC   O1412014   2.972   3.905   2.139
  241DPPC   C1512015   2.912   4.024   2.167
  241DPPC   O1612016   2.837   4.071   2.082
  241DPPC   C1712017   2.984   4.109   2.271
  241DPPC   C1812018   3.073   4.044   2.378
  241DPPC   C1912019   3.130   4.158   2.462
  241DPPC   C2012020   3.248   4.116   2.549
  241DPPC   C2112021   3.210   4.021   2.663
  241DPPC   C2212022   3.331   4.012   2.757
  241DPPC   C2312023   3.357   3.866   2.794
  241DPPC   C2412024   3.476   3.872   2.890
  241DPPC   C2512025   3.521   3.738   2.949
  241DPPC   C2612026   3.641   3.758   3.041
  241DPPC   C2712027   3.688   3.620   3.088
  241DPPC   C2812028   3.700   3.519   2.974
  241DPPC   C2912029   3.757   3.391   3.036
  241DPPC   C3012030   3.781   3.288   2.925
  241DPPC   C3112031   3.654   3.281   2.840
  241DPPC   C3212032   2.953   3.662   2.140
  241DPPC   O3312033   2.950   3.629   2.279
  241DPPC   C3412034   3.053   3.670   2.357
  241DPPC   O3512035   3.165   3.708   2.322
  241DPPC   C3612036   3.021   3.633   2.502
  241DPPC   C3712037   3.131   3.551   2.569
  241DPPC   C3812038   3.093   3.513   2.712
  241DPPC   C3912039   3.195   3.423   2.782
  241DPPC   C4012040   3.140   3.397   2.922
  241DPPC   C4112041   3.231   3.317   3.016
  241DPPC   C4212042   3.157   3.289   3.146
  241DPPC   C4312043   3.247   3.207   3.239
  241DPPC   C4412044   3.202   3.247   3.379
  241DPPC   C4512045   3.188   3.399   3.389
  241DPPC   C4612046   3.091   3.420   3.505
  241DPPC   C4712047   3.051   3.560   3.553
  241DPPC   C4812048   2.926   3.555   3.641
  241DPPC   C4912049   2.889   3.696   3.688
  241DPPC   C5012050   2.761   3.697   3.771
  242DPPC    C112051   5.222   5.196   1.835
  242DPPC    C212052   5.217   5.179   1.605
  242DPPC    C312053   5.043   5.298   1.711
  242DPPC    N412054   5.187   5.273   1.714
  242DPPC    C512055   5.269   5.394   1.709
  242DPPC    C612056   5.241   5.501   1.815
  242DPPC    O712057   5.336   5.608   1.824
  242DPPC    P812058   5.264   5.752   1.824
  242DPPC    O912059   5.132   5.715   1.879
  242DPPC   O1012060   5.276   5.822   1.695
  242DPPC   O1112061   5.368   5.827   1.922
  242DPPC   C1212062   5.433   5.740   2.015
  242DPPC   C1312063   5.528   5.825   2.100
  242DPPC   O1412064   5.618   5.764   2.194
  242DPPC   C1512065   5.725   5.694   2.147
  242DPPC   O1612066   5.760   5.699   2.030
  242DPPC   C1712067   5.799   5.607   2.249
  242DPPC   C1812068   5.730   5.597   2.385
  242DPPC   C1912069   5.813   5.662   2.497
  242DPPC   C2012070   5.753   5.641   2.636
  242DPPC   C2112071   5.864   5.665   2.738
  242DPPC   C2212072   5.809   5.694   2.878
  242DPPC   C2312073   5.905   5.715   2.996
  242DPPC   C2412074   5.991   5.589   3.012
  242DPPC   C2512075   6.051   5.588   3.153
  242DPPC   C2612076   6.144   5.469   3.173
  242DPPC   C2712077   6.067   5.337   3.173
  242DPPC   C2812078   6.161   5.222   3.212
  242DPPC   C2912079   6.085   5.089   3.217
  242DPPC   C3012080   6.182   4.976   3.254
  242DPPC   C3112081   6.102   4.845   3.261
  242DPPC   C3212082   5.426   5.927   2.151
  242DPPC   O3312083   5.320   5.872   2.230
  242DPPC   C3412084   5.227   5.964   2.268
  242DPPC   O3512085   5.254   6.079   2.232
  242DPPC   C3612086   5.123   5.930   2.375
  242DPPC   C3712087   4.992   5.880   2.314
  242DPPC   C3812088   4.893   5.811   2.408
  242DPPC   C3912089   4.950   5.684   2.472
  242DPPC   C4012090   4.831   5.610   2.533
  242DPPC   C4112091   4.888   5.477   2.584
  242DPPC   C4212092   4.771   5.379   2.589
  242DPPC   C4312093   4.825   5.245   2.639
  242DPPC   C4412094   4.722   5.133   2.650
  242DPPC   C4512095   4.599   5.181   2.728
  242DPPC   C4612096   4.528   5.058   2.783
  242DPPC   C4712097   4.467   4.979   2.666
  242DPPC   C4812098   4.411   4.840   2.698
  242DPPC   C4912099   4.320   4.803   2.580
  242DPPC   C5012100   4.209   4.907   2.564
  243DPPC    C112101   8.242   6.219   1.521
  243DPPC    C212102   8.397   6.140   1.693
  243DPPC    C312103   8.172   6.045   1.649
  243DPPC    N412104   8.295   6.103   1.593
  243DPPC    C512105   8.344   5.991   1.511
  243DPPC    C612106   8.457   6.022   1.412
  243DPPC    O712107   8.513   5.907   1.348
  243DPPC    P812108   8.651   5.953   1.280
  243DPPC    O912109   8.658   6.089   1.222
  243DPPC   O1012110   8.700   5.833   1.208
  243DPPC   O1112111   8.735   5.979   1.415
  243DPPC   C1212112   8.795   5.856   1.457
  243DPPC   C1312113   8.800   5.825   1.607
  243DPPC   O1412114   8.701   5.732   1.651
  243DPPC   C1512115   8.711   5.597   1.632
  243DPPC   O1612116   8.779   5.554   1.539
  243DPPC   C1712117   8.599   5.525   1.707
  243DPPC   C1812118   8.648   5.508   1.850
  243DPPC   C1912119   8.545   5.457   1.951
  243DPPC   C2012120   8.426   5.553   1.966
  243DPPC   C2112121   8.357   5.484   2.084
  243DPPC   C2212122   8.451   5.463   2.203
  243DPPC   C2312123   8.432   5.328   2.271
  243DPPC   C2412124   8.505   5.304   2.404
  243DPPC   C2512125   8.498   5.152   2.414
  243DPPC   C2612126   8.576   5.105   2.537
  243DPPC   C2712127   8.510   5.168   2.660
  243DPPC   C2812128   8.577   5.133   2.794
  243DPPC   C2912129   8.521   5.198   2.920
  243DPPC   C3012130   8.607   5.150   3.037
  243DPPC   C3112131   8.562   5.216   3.168
  243DPPC   C3212132   8.795   5.963   1.674
  243DPPC   O3312133   8.787   5.965   1.816
  243DPPC   C3412134   8.749   6.086   1.868
  243DPPC   O3512135   8.721   6.180   1.795
  243DPPC   C3612136   8.718   6.078   2.018
  243DPPC   C3712137   8.804   5.974   2.090
  243DPPC   C3812138   8.762   5.955   2.236
  243DPPC   C3912139   8.789   6.085   2.311
  243DPPC   C4012140   8.769   6.055   2.460
  243DPPC   C4112141   8.804   6.176   2.546
  243DPPC   C4212142   8.723   6.296   2.495
  243DPPC   C4312143   8.746   6.401   2.604
  243DPPC   C4412144   8.894   6.439   2.592
  243DPPC   C4512145   8.929   6.551   2.691
  243DPPC   C4612146   9.078   6.571   2.718
  243DPPC   C4712147   9.117   6.426   2.750
  243DPPC   C4812148   9.242   6.418   2.839
  243DPPC   C4912149   9.311   6.283   2.860
  243DPPC   C5012150   9.245   6.197   2.968
  244DPPC    C112151   6.684   3.066   1.549
  244DPPC    C212152   6.808   2.882   1.465
  244DPPC    C312153   6.861   3.101   1.386
  244DPPC    N412154   6.817   3.023   1.503
  244DPPC    C512155   6.912   3.053   1.611
  244DPPC    C612156   7.051   2.990   1.621
  244DPPC    O712157   7.048   2.867   1.694
  244DPPC    P812158   7.186   2.787   1.677
  244DPPC    O912159   7.290   2.871   1.613
  244DPPC   O1012160   7.134   2.669   1.604
  244DPPC   O1112161   7.209   2.749   1.832
  244DPPC   C1212162   7.111   2.654   1.874
  244DPPC   C1312163   7.122   2.624   2.023
  244DPPC   O1412164   7.064   2.732   2.097
  244DPPC   C1512165   6.945   2.703   2.156
  244DPPC   O1612166   6.873   2.616   2.108
  244DPPC   C1712167   6.886   2.808   2.251
  244DPPC   C1812168   6.860   2.763   2.394
  244DPPC   C1912169   6.994   2.743   2.464
  244DPPC   C2012170   6.979   2.702   2.610
  244DPPC   C2112171   7.112   2.694   2.686
  244DPPC   C2212172   7.084   2.655   2.831
  244DPPC   C2312173   7.216   2.623   2.902
  244DPPC   C2412174   7.203   2.636   3.053
  244DPPC   C2512175   7.130   2.766   3.088
  244DPPC   C2612176   7.109   2.787   3.239
  244DPPC   C2712177   7.239   2.789   3.320
  244DPPC   C2812178   7.215   2.798   3.471
  244DPPC   C2912179   7.344   2.790   3.553
  244DPPC   C3012180   7.316   2.779   3.703
  244DPPC   C3112181   7.240   2.899   3.760
  244DPPC   C3212182   7.269   2.598   2.056
  244DPPC   O3312183   7.305   2.546   2.184
  244DPPC   C3412184   7.354   2.642   2.266
  244DPPC   O3512185   7.363   2.761   2.233
  244DPPC   C3612186   7.397   2.588   2.403
  244DPPC   C3712187   7.542   2.542   2.387
  244DPPC   C3812188   7.596   2.459   2.504
  244DPPC   C3912189   7.607   2.523   2.643
  244DPPC   C4012190   7.714   2.450   2.724
  244DPPC   C4112191   7.760   2.529   2.846
  244DPPC   C4212192   7.710   2.469   2.977
  244DPPC   C4312193   7.774   2.548   3.092
  244DPPC   C4412194   7.712   2.501   3.224
  244DPPC   C4512195   7.560   2.521   3.220
  244DPPC   C4612196   7.479   2.475   3.342
  244DPPC   C4712197   7.509   2.334   3.392
  244DPPC   C4812198   7.443   2.305   3.527
  244DPPC   C4912199   7.509   2.395   3.632
  244DPPC   C5012200   7.419   2.369   3.754
  245DPPC    C112201   5.390   3.608   1.513
  245DPPC    C212202   5.455   3.500   1.713
  245DPPC    C312203   5.594   3.669   1.632
  245DPPC    N412204   5.452   3.630   1.645
  245DPPC    C512205   5.389   3.734   1.728
  245DPPC    C612206   5.341   3.863   1.662
  245DPPC    O712207   5.439   3.966   1.653
  245DPPC    P812208   5.351   4.097   1.616
  245DPPC    O912209   5.269   4.058   1.499
  245DPPC   O1012210   5.431   4.220   1.601
  245DPPC   O1112211   5.258   4.105   1.748
  245DPPC   C1212212   5.330   4.151   1.863
  245DPPC   C1312213   5.239   4.191   1.979
  245DPPC   O1412214   5.302   4.260   2.088
  245DPPC   C1512215   5.312   4.396   2.089
  245DPPC   O1612216   5.301   4.461   1.985
  245DPPC   C1712217   5.387   4.441   2.214
  245DPPC   C1812218   5.296   4.429   2.337
  245DPPC   C1912219   5.360   4.507   2.451
  245DPPC   C2012220   5.282   4.503   2.583
  245DPPC   C2112221   5.346   4.588   2.693
  245DPPC   C2212222   5.242   4.587   2.804
  245DPPC   C2312223   5.314   4.648   2.925
  245DPPC   C2412224   5.212   4.639   3.039
  245DPPC   C2512225   5.275   4.684   3.171
  245DPPC   C2612226   5.193   4.628   3.287
  245DPPC   C2712227   5.278   4.617   3.414
  245DPPC   C2812228   5.198   4.579   3.539
  245DPPC   C2912229   5.279   4.580   3.669
  245DPPC   C3012230   5.203   4.527   3.791
  245DPPC   C3112231   5.301   4.522   3.909
  245DPPC   C3212232   5.158   4.066   2.010
  245DPPC   O3312233   5.244   3.965   2.064
  245DPPC   C3412234   5.181   3.844   2.067
  245DPPC   O3512235   5.068   3.837   2.021
  245DPPC   C3612236   5.270   3.726   2.107
  245DPPC   C3712237   5.264   3.676   2.251
  245DPPC   C3812238   5.384   3.587   2.284
  245DPPC   C3912239   5.392   3.551   2.432
  245DPPC   C4012240   5.513   3.464   2.469
  245DPPC   C4112241   5.501   3.406   2.610
  245DPPC   C4212242   5.638   3.365   2.664
  245DPPC   C4312243   5.618   3.352   2.815
  245DPPC   C4412244   5.573   3.491   2.862
  245DPPC   C4512245   5.581   3.494   3.015
  245DPPC   C4612246   5.505   3.381   3.084
  245DPPC   C4712247   5.513   3.390   3.237
  245DPPC   C4812248   5.428   3.287   3.311
  245DPPC   C4912249   5.447   3.312   3.461
  245DPPC   C5012250   5.594   3.316   3.502
  246DPPC    C112251   9.244   7.972   1.358
  246DPPC    C212252   9.414   8.099   1.445
  246DPPC    C312253   9.245   8.011   1.590
  246DPPC    N412254   9.332   7.981   1.475
  246DPPC    C512255   9.422   7.865   1.472
  246DPPC    C612256   9.495   7.810   1.594
  246DPPC    O712257   9.593   7.909   1.627
  246DPPC    P812258   9.686   7.845   1.741
  246DPPC    O912259   9.803   7.935   1.756
  246DPPC   O1012260   9.695   7.698   1.735
  246DPPC   O1112261   9.573   7.883   1.849
  246DPPC   C1212262   9.583   8.020   1.888
  246DPPC   C1312263   9.452   8.098   1.899
  246DPPC   O1412264   9.482   8.235   1.931
  246DPPC   C1512265   9.526   8.327   1.842
  246DPPC   O1612266   9.513   8.294   1.724
  246DPPC   C1712267   9.602   8.451   1.891
  246DPPC   C1812268   9.550   8.528   2.012
  246DPPC   C1912269   9.636   8.650   2.048
  246DPPC   C2012270   9.785   8.623   2.067
  246DPPC   C2112271   9.840   8.581   2.204
  246DPPC   C2212272   9.993   8.578   2.205
  246DPPC   C2312273  10.054   8.567   2.345
  246DPPC   C2412274   9.985   8.448   2.412
  246DPPC   C2512275   9.994   8.451   2.565
  246DPPC   C2612276   9.908   8.342   2.629
  246DPPC   C2712277   9.927   8.337   2.781
  246DPPC   C2812278  10.062   8.285   2.829
  246DPPC   C2912279  10.069   8.146   2.765
  246DPPC   C3012280  10.191   8.075   2.824
  246DPPC   C3112281  10.191   7.940   2.752
  246DPPC   C3212282   9.342   8.049   1.993
  246DPPC   O3312283   9.264   7.943   1.938
  246DPPC   C3412284   9.180   7.891   2.032
  246DPPC   O3512285   9.196   7.918   2.151
  246DPPC   C3612286   9.097   7.778   1.971
  246DPPC   C3712287   8.949   7.778   2.011
  246DPPC   C3812288   8.928   7.705   2.144
  246DPPC   C3912289   8.783   7.707   2.194
  246DPPC   C4012290   8.772   7.642   2.332
  246DPPC   C4112291   8.822   7.743   2.436
  246DPPC   C4212292   8.790   7.694   2.578
  246DPPC   C4312293   8.874   7.769   2.681
  246DPPC   C4412294   8.832   7.726   2.822
  246DPPC   C4512295   8.953   7.698   2.911
  246DPPC   C4612296   9.027   7.829   2.938
  246DPPC   C4712297   9.145   7.821   3.036
  246DPPC   C4812298   9.225   7.950   3.048
  246DPPC   C4912299   9.275   8.001   2.913
  246DPPC   C5012300   9.369   8.122   2.913
  247DPPC    C112301   7.027   1.286   0.978
  247DPPC    C212302   7.269   1.304   0.995
  247DPPC    C312303   7.154   1.168   1.151
  247DPPC    N412304   7.153   1.216   1.012
  247DPPC    C512305   7.142   1.101   0.921
  247DPPC    C612306   7.258   1.002   0.912
  247DPPC    O712307   7.291   0.937   1.035
  247DPPC    P812308   7.451   0.948   1.045
  247DPPC    O912309   7.469   1.053   1.148
  247DPPC   O1012310   7.518   0.959   0.914
  247DPPC   O1112311   7.477   0.804   1.112
  247DPPC   C1212312   7.466   0.828   1.253
  247DPPC   C1312313   7.474   0.705   1.343
  247DPPC   O1412314   7.437   0.736   1.479
  247DPPC   C1512315   7.306   0.727   1.513
  247DPPC   O1612316   7.209   0.721   1.438
  247DPPC   C1712317   7.284   0.757   1.662
  247DPPC   C1812318   7.366   0.880   1.699
  247DPPC   C1912319   7.351   0.908   1.849
  247DPPC   C2012320   7.436   1.020   1.910
  247DPPC   C2112321   7.389   1.064   2.049
  247DPPC   C2212322   7.384   0.946   2.146
  247DPPC   C2312323   7.304   0.978   2.273
  247DPPC   C2412324   7.362   1.108   2.329
  247DPPC   C2512325   7.362   1.105   2.482
  247DPPC   C2612326   7.429   1.216   2.563
  247DPPC   C2712327   7.422   1.185   2.713
  247DPPC   C2812328   7.503   1.286   2.795
  247DPPC   C2912329   7.468   1.287   2.944
  247DPPC   C3012330   7.537   1.179   3.027
  247DPPC   C3112331   7.512   1.194   3.177
  247DPPC   C3212332   7.621   0.674   1.315
  247DPPC   O3312333   7.711   0.636   1.419
  247DPPC   C3412334   7.684   0.513   1.470
  247DPPC   O3512335   7.626   0.427   1.404
  247DPPC   C3612336   7.746   0.482   1.606
  247DPPC   C3712337   7.706   0.593   1.704
  247DPPC   C3812338   7.805   0.617   1.818
  247DPPC   C3912339   7.748   0.727   1.908
  247DPPC   C4012340   7.824   0.743   2.040
  247DPPC   C4112341   7.778   0.848   2.141
  247DPPC   C4212342   7.859   0.863   2.270
  247DPPC   C4312343   7.823   0.997   2.334
  247DPPC   C4412344   7.885   1.011   2.473
  247DPPC   C4512345   7.869   1.155   2.522
  247DPPC   C4612346   7.923   1.157   2.665
  247DPPC   C4712347   7.903   1.286   2.744
  247DPPC   C4812348   7.935   1.267   2.893
  247DPPC   C4912349   7.889   1.380   2.985
  247DPPC   C5012350   7.929   1.354   3.130
  248DPPC    C112351   6.300   1.288   1.673
  248DPPC    C212352   6.438   1.459   1.784
  248DPPC    C312353   6.211   1.470   1.789
  248DPPC    N412354   6.320   1.371   1.793
  248DPPC    C512355   6.328   1.299   1.921
  248DPPC    C612356   6.222   1.192   1.945
  248DPPC    O712357   6.090   1.236   1.975
  248DPPC    P812358   5.978   1.127   1.935
  248DPPC    O912359   5.998   1.085   1.795
  248DPPC   O1012360   5.851   1.192   1.973
  248DPPC   O1112361   6.012   1.009   2.040
  248DPPC   C1212362   5.988   1.056   2.173
  248DPPC   C1312363   6.039   0.957   2.277
  248DPPC   O1412364   5.961   0.951   2.397
  248DPPC   C1512365   5.836   0.898   2.396
  248DPPC   O1612366   5.782   0.859   2.293
  248DPPC   C1712367   5.767   0.882   2.532
  248DPPC   C1812368   5.688   1.012   2.555
  248DPPC   C1912369   5.606   1.008   2.684
  248DPPC   C2012370   5.689   0.985   2.809
  248DPPC   C2112371   5.616   0.998   2.943
  248DPPC   C2212372   5.705   1.043   3.059
  248DPPC   C2312373   5.649   0.989   3.190
  248DPPC   C2412374   5.732   1.013   3.316
  248DPPC   C2512375   5.654   0.957   3.435
  248DPPC   C2612376   5.740   0.982   3.559
  248DPPC   C2712377   5.655   0.967   3.686
  248DPPC   C2812378   5.540   1.067   3.672
  248DPPC   C2912379   5.451   1.082   3.795
  248DPPC   C3012380   5.393   1.220   3.830
  248DPPC   C3112381   5.304   1.277   3.720
  248DPPC   C3212382   6.190   0.961   2.302
  248DPPC   O3312383   6.230   1.097   2.323
  248DPPC   C3412384   6.357   1.129   2.361
  248DPPC   O3512385   6.460   1.065   2.344
  248DPPC   C3612386   6.354   1.277   2.400
  248DPPC   C3712387   6.475   1.315   2.486
  248DPPC   C3812388   6.487   1.238   2.618
  248DPPC   C3912389   6.524   1.331   2.733
  248DPPC   C4012390   6.523   1.229   2.846
  248DPPC   C4112391   6.586   1.305   2.964
  248DPPC   C4212392   6.553   1.223   3.088
  248DPPC   C4312393   6.613   1.275   3.219
  248DPPC   C4412394   6.656   1.167   3.318
  248DPPC   C4512395   6.759   1.224   3.416
  248DPPC   C4612396   6.801   1.142   3.538
  248DPPC   C4712397   6.922   1.208   3.604
  248DPPC   C4812398   7.005   1.129   3.706
  248DPPC   C4912399   7.083   1.007   3.656
  248DPPC   C5012400   7.146   0.921   3.766
  249DPPC    C112401   1.825   5.613   1.569
  249DPPC    C212402   1.997   5.728   1.446
  249DPPC    C312403   1.987   5.493   1.447
  249DPPC    N412404   1.904   5.614   1.445
  249DPPC    C512405   1.828   5.626   1.319
  249DPPC    C612406   1.769   5.760   1.278
  249DPPC    O712407   1.656   5.807   1.353
  249DPPC    P812408   1.641   5.965   1.324
  249DPPC    O912409   1.500   6.003   1.348
  249DPPC   O1012410   1.738   6.012   1.223
  249DPPC   O1112411   1.713   5.988   1.466
  249DPPC   C1212412   1.630   5.945   1.574
  249DPPC   C1312413   1.705   5.924   1.706
  249DPPC   O1412414   1.616   5.915   1.819
  249DPPC   C1512415   1.551   5.797   1.835
  249DPPC   O1612416   1.572   5.706   1.755
  249DPPC   C1712417   1.463   5.771   1.958
  249DPPC   C1812418   1.542   5.766   2.089
  249DPPC   C1912419   1.614   5.631   2.101
  249DPPC   C2012420   1.696   5.642   2.229
  249DPPC   C2112421   1.599   5.667   2.346
  249DPPC   C2212422   1.663   5.675   2.485
  249DPPC   C2312423   1.725   5.544   2.535
  249DPPC   C2412424   1.796   5.579   2.666
  249DPPC   C2512425   1.891   5.469   2.713
  249DPPC   C2612426   1.933   5.503   2.856
  249DPPC   C2712427   1.959   5.379   2.942
  249DPPC   C2812428   1.966   5.424   3.089
  249DPPC   C2912429   1.954   5.297   3.173
  249DPPC   C3012430   1.817   5.230   3.183
  249DPPC   C3112431   1.820   5.084   3.230
  249DPPC   C3212432   1.800   6.044   1.714
  249DPPC   O3312433   1.901   6.051   1.815
  249DPPC   C3412434   1.993   5.951   1.820
  249DPPC   O3512435   2.004   5.863   1.734
  249DPPC   C3612436   2.096   5.960   1.933
  249DPPC   C3712437   2.057   5.860   2.042
  249DPPC   C3812438   2.162   5.825   2.146
  249DPPC   C3912439   2.106   5.752   2.269
  249DPPC   C4012440   2.211   5.763   2.380
  249DPPC   C4112441   2.149   5.691   2.500
  249DPPC   C4212442   2.256   5.677   2.609
  249DPPC   C4312443   2.308   5.814   2.651
  249DPPC   C4412444   2.213   5.887   2.747
  249DPPC   C4512445   2.250   5.851   2.891
  249DPPC   C4612446   2.393   5.867   2.944
  249DPPC   C4712447   2.396   5.884   3.096
  249DPPC   C4812448   2.542   5.893   3.139
  249DPPC   C4912449   2.569   5.925   3.286
  249DPPC   C5012450   2.470   5.840   3.365
  250DPPC    C112451   8.687   8.137   1.065
  250DPPC    C212452   8.875   8.191   1.196
  250DPPC    C312453   8.917   8.162   0.968
  250DPPC    N412454   8.815   8.210   1.063
  250DPPC    C512455   8.806   8.351   1.023
  250DPPC    C612456   8.791   8.467   1.121
  250DPPC    O712457   8.910   8.488   1.198
  250DPPC    P812458   8.879   8.579   1.327
  250DPPC    O912459   8.815   8.700   1.271
  250DPPC   O1012460   9.016   8.585   1.384
  250DPPC   O1112461   8.777   8.463   1.372
  250DPPC   C1212462   8.713   8.497   1.495
  250DPPC   C1312463   8.654   8.383   1.578
  250DPPC   O1412464   8.568   8.426   1.684
  250DPPC   C1512465   8.438   8.385   1.683
  250DPPC   O1612466   8.392   8.315   1.593
  250DPPC   C1712467   8.346   8.439   1.792
  250DPPC   C1812468   8.342   8.351   1.917
  250DPPC   C1912469   8.291   8.440   2.031
  250DPPC   C2012470   8.281   8.360   2.161
  250DPPC   C2112471   8.169   8.258   2.149
  250DPPC   C2212472   8.142   8.210   2.292
  250DPPC   C2312473   8.035   8.102   2.276
  250DPPC   C2412474   8.011   8.019   2.401
  250DPPC   C2512475   7.884   7.933   2.394
  250DPPC   C2612476   7.849   7.872   2.529
  250DPPC   C2712477   7.714   7.799   2.524
  250DPPC   C2812478   7.711   7.728   2.660
  250DPPC   C2912479   7.749   7.820   2.776
  250DPPC   C3012480   7.762   7.728   2.898
  250DPPC   C3112481   7.803   7.826   3.008
  250DPPC   C3212482   8.771   8.288   1.608
  250DPPC   O3312483   8.873   8.360   1.677
  250DPPC   C3412484   8.978   8.282   1.716
  250DPPC   O3512485   8.983   8.163   1.685
  250DPPC   C3612486   9.087   8.339   1.807
  250DPPC   C3712487   9.029   8.357   1.948
  250DPPC   C3812488   9.121   8.446   2.031
  250DPPC   C3912489   9.061   8.463   2.171
  250DPPC   C4012490   9.164   8.531   2.260
  250DPPC   C4112491   9.120   8.533   2.407
  250DPPC   C4212492   9.223   8.601   2.497
  250DPPC   C4312493   9.353   8.521   2.499
  250DPPC   C4412494   9.351   8.380   2.560
  250DPPC   C4512495   9.494   8.325   2.559
  250DPPC   C4612496   9.517   8.259   2.424
  250DPPC   C4712497   9.656   8.196   2.422
  250DPPC   C4812498   9.687   8.134   2.285
  250DPPC   C4912499   9.833   8.088   2.276
  250DPPC   C5012500   9.870   7.991   2.388
  251DPPC    C112501   6.512   5.708   1.440
  251DPPC    C212502   6.731   5.695   1.353
  251DPPC    C312503   6.578   5.850   1.262
  251DPPC    N412504   6.623   5.789   1.387
  251DPPC    C512505   6.666   5.890   1.485
  251DPPC    C612506   6.582   6.013   1.520
  251DPPC    O712507   6.466   5.986   1.600
  251DPPC    P812508   6.387   6.103   1.678
  251DPPC    O912509   6.282   6.021   1.742
  251DPPC   O1012510   6.351   6.212   1.585
  251DPPC   O1112511   6.491   6.162   1.786
  251DPPC   C1212512   6.538   6.043   1.849
  251DPPC   C1312513   6.630   6.073   1.968
  251DPPC   O1412514   6.690   5.952   2.015
  251DPPC   C1512515   6.825   5.941   2.010
  251DPPC   O1612516   6.894   5.990   1.920
  251DPPC   C1712517   6.880   5.837   2.108
  251DPPC   C1812518   6.926   5.908   2.235
  251DPPC   C1912519   6.981   5.808   2.337
  251DPPC   C2012520   7.103   5.734   2.281
  251DPPC   C2112521   7.216   5.832   2.253
  251DPPC   C2212522   7.336   5.756   2.195
  251DPPC   C2312523   7.467   5.830   2.168
  251DPPC   C2412524   7.568   5.730   2.111
  251DPPC   C2512525   7.705   5.798   2.112
  251DPPC   C2612526   7.784   5.729   2.223
  251DPPC   C2712527   7.910   5.816   2.233
  251DPPC   C2812528   8.000   5.822   2.110
  251DPPC   C2912529   8.130   5.893   2.147
  251DPPC   C3012530   8.230   5.902   2.032
  251DPPC   C3112531   8.367   5.939   2.089
  251DPPC   C3212532   6.552   6.164   2.063
  251DPPC   O3312533   6.638   6.254   2.133
  251DPPC   C3412534   6.564   6.339   2.210
  251DPPC   O3512535   6.442   6.342   2.197
  251DPPC   C3612536   6.629   6.435   2.309
  251DPPC   C3712537   6.533   6.442   2.428
  251DPPC   C3812538   6.607   6.516   2.541
  251DPPC   C3912539   6.553   6.481   2.680
  251DPPC   C4012540   6.594   6.577   2.792
  251DPPC   C4112541   6.555   6.510   2.924
  251DPPC   C4212542   6.597   6.603   3.039
  251DPPC   C4312543   6.583   6.544   3.179
  251DPPC   C4412544   6.444   6.485   3.202
  251DPPC   C4512545   6.423   6.435   3.346
  251DPPC   C4612546   6.440   6.565   3.425
  251DPPC   C4712547   6.442   6.538   3.576
  251DPPC   C4812548   6.303   6.524   3.637
  251DPPC   C4912549   6.230   6.659   3.634
  251DPPC   C5012550   6.086   6.655   3.685
  252DPPC    C112551   4.421   2.611   1.680
  252DPPC    C212552   4.618   2.636   1.827
  252DPPC    C312553   4.426   2.750   1.864
  252DPPC    N412554   4.472   2.619   1.817
  252DPPC    C512555   4.422   2.495   1.879
  252DPPC    C612556   4.276   2.456   1.903
  252DPPC    O712557   4.204   2.557   1.973
  252DPPC    P812558   4.070   2.490   2.033
  252DPPC    O912559   4.112   2.374   2.115
  252DPPC   O1012560   3.980   2.472   1.917
  252DPPC   O1112561   4.032   2.616   2.124
  252DPPC   C1212562   4.132   2.634   2.225
  252DPPC   C1312563   4.193   2.774   2.227
  252DPPC   O1412564   4.303   2.793   2.318
  252DPPC   C1512565   4.414   2.868   2.297
  252DPPC   O1612566   4.432   2.936   2.196
  252DPPC   C1712567   4.505   2.872   2.420
  252DPPC   C1812568   4.594   2.748   2.427
  252DPPC   C1912569   4.649   2.737   2.569
  252DPPC   C2012570   4.755   2.628   2.589
  252DPPC   C2112571   4.778   2.591   2.736
  252DPPC   C2212572   4.820   2.446   2.759
  252DPPC   C2312573   4.820   2.418   2.910
  252DPPC   C2412574   4.865   2.274   2.931
  252DPPC   C2512575   4.912   2.237   3.072
  252DPPC   C2612576   4.966   2.095   3.085
  252DPPC   C2712577   4.851   2.003   3.046
  252DPPC   C2812578   4.896   1.865   2.996
  252DPPC   C2912579   5.011   1.876   2.896
  252DPPC   C3012580   5.099   1.751   2.882
  252DPPC   C3112581   5.229   1.783   2.808
  252DPPC   C3212582   4.079   2.874   2.250
  252DPPC   O3312583   3.997   2.854   2.365
  252DPPC   C3412584   3.889   2.936   2.361
  252DPPC   O3512585   3.866   2.999   2.258
  252DPPC   C3612586   3.805   2.946   2.489
  252DPPC   C3712587   3.692   2.844   2.472
  252DPPC   C3812588   3.591   2.839   2.587
  252DPPC   C3912589   3.670   2.797   2.711
  252DPPC   C4012590   3.585   2.791   2.838
  252DPPC   C4112591   3.662   2.725   2.952
  252DPPC   C4212592   3.709   2.581   2.928
  252DPPC   C4312593   3.793   2.530   3.046
  252DPPC   C4412594   3.843   2.390   3.009
  252DPPC   C4512595   3.988   2.377   3.056
  252DPPC   C4612596   4.053   2.240   3.038
  252DPPC   C4712597   4.058   2.205   2.889
  252DPPC   C4812598   4.140   2.076   2.886
  252DPPC   C4912599   4.064   1.979   2.978
  252DPPC   C5012600   4.116   1.835   2.972
  253DPPC    C112601   3.768   7.549   1.726
  253DPPC    C212602   3.739   7.781   1.674
  253DPPC    C312603   3.561   7.619   1.627
  253DPPC    N412604   3.670   7.658   1.717
  253DPPC    C512605   3.611   7.672   1.851
  253DPPC    C612606   3.691   7.687   1.981
  253DPPC    O712607   3.748   7.813   2.019
  253DPPC    P812608   3.905   7.801   2.052
  253DPPC    O912609   3.976   7.930   2.042
  253DPPC   O1012610   3.957   7.697   1.960
  253DPPC   O1112611   3.898   7.754   2.206
  253DPPC   C1212612   3.824   7.849   2.283
  253DPPC   C1312613   3.747   7.780   2.396
  253DPPC   O1412614   3.651   7.857   2.470
  253DPPC   C1512615   3.520   7.858   2.431
  253DPPC   O1612616   3.484   7.798   2.330
  253DPPC   C1712617   3.422   7.933   2.521
  253DPPC   C1812618   3.278   7.893   2.490
  253DPPC   C1912619   3.191   7.977   2.585
  253DPPC   C2012620   3.047   7.929   2.603
  253DPPC   C2112621   3.004   7.991   2.735
  253DPPC   C2212622   2.865   7.936   2.770
  253DPPC   C2312623   2.816   8.018   2.889
  253DPPC   C2412624   2.665   8.020   2.912
  253DPPC   C2512625   2.622   8.075   3.048
  253DPPC   C2612626   2.477   8.040   3.085
  253DPPC   C2712627   2.380   8.110   2.989
  253DPPC   C2812628   2.327   8.249   3.025
  253DPPC   C2912629   2.256   8.311   2.904
  253DPPC   C3012630   2.211   8.447   2.958
  253DPPC   C3112631   2.130   8.541   2.870
  253DPPC   C3212632   3.854   7.718   2.485
  253DPPC   O3312633   3.957   7.793   2.550
  253DPPC   C3412634   4.056   7.727   2.615
  253DPPC   O3512635   4.052   7.604   2.624
  253DPPC   C3612636   4.176   7.807   2.667
  253DPPC   C3712637   4.165   7.869   2.807
  253DPPC   C3812638   4.294   7.947   2.827
  253DPPC   C3912639   4.306   8.084   2.759
  253DPPC   C4012640   4.434   8.156   2.804
  253DPPC   C4112641   4.560   8.070   2.792
  253DPPC   C4212642   4.667   8.126   2.886
  253DPPC   C4312643   4.770   8.014   2.897
  253DPPC   C4412644   4.883   8.065   2.988
  253DPPC   C4512645   5.010   7.985   2.959
  253DPPC   C4612646   5.124   8.031   3.049
  253DPPC   C4712647   5.243   7.940   3.018
  253DPPC   C4812648   5.352   7.968   3.121
  253DPPC   C4912649   5.469   7.870   3.141
  253DPPC   C5012650   5.558   7.897   3.262
  254DPPC    C112651   3.071   1.469   2.371
  254DPPC    C212652   2.978   1.689   2.352
  254DPPC    C312653   3.093   1.586   2.175
  254DPPC    N412654   2.996   1.561   2.282
  254DPPC    C512655   2.873   1.499   2.230
  254DPPC    C612656   2.796   1.555   2.110
  254DPPC    O712657   2.661   1.589   2.141
  254DPPC    P812658   2.611   1.659   2.005
  254DPPC    O912659   2.668   1.580   1.894
  254DPPC   O1012660   2.637   1.802   2.035
  254DPPC   O1112661   2.463   1.625   2.057
  254DPPC   C1212662   2.418   1.719   2.156
  254DPPC   C1312663   2.272   1.717   2.201
  254DPPC   O1412664   2.228   1.801   2.308
  254DPPC   C1512665   2.248   1.935   2.299
  254DPPC   O1612666   2.297   2.000   2.207
  254DPPC   C1712667   2.188   2.012   2.417
  254DPPC   C1812668   2.294   2.076   2.507
  254DPPC   C1912669   2.230   2.119   2.639
  254DPPC   C2012670   2.345   2.152   2.733
  254DPPC   C2112671   2.290   2.232   2.851
  254DPPC   C2212672   2.369   2.198   2.977
  254DPPC   C2312673   2.378   2.054   3.027
  254DPPC   C2412674   2.268   2.014   3.126
  254DPPC   C2512675   2.293   1.872   3.178
  254DPPC   C2612676   2.185   1.844   3.282
  254DPPC   C2712677   2.192   1.713   3.360
  254DPPC   C2812678   2.329   1.723   3.429
  254DPPC   C2912679   2.362   1.599   3.513
  254DPPC   C3012680   2.248   1.562   3.609
  254DPPC   C3112681   2.304   1.453   3.700
  254DPPC   C3212682   2.256   1.566   2.225
  254DPPC   O3312683   2.326   1.515   2.339
  254DPPC   C3412684   2.352   1.382   2.331
  254DPPC   O3512685   2.314   1.315   2.235
  254DPPC   C3612686   2.437   1.327   2.446
  254DPPC   C3712687   2.356   1.230   2.532
  254DPPC   C3812688   2.450   1.171   2.637
  254DPPC   C3912689   2.383   1.069   2.728
  254DPPC   C4012690   2.486   1.018   2.829
  254DPPC   C4112691   2.433   0.904   2.916
  254DPPC   C4212692   2.558   0.834   2.968
  254DPPC   C4312693   2.642   0.900   3.077
  254DPPC   C4412694   2.745   0.796   3.121
  254DPPC   C4512695   2.819   0.829   3.251
  254DPPC   C4612696   2.732   0.838   3.377
  254DPPC   C4712697   2.825   0.828   3.499
  254DPPC   C4812698   2.754   0.815   3.634
  254DPPC   C4912699   2.856   0.804   3.747
  254DPPC   C5012700   2.808   0.865   3.879
  255DPPC    C112701   1.499   7.703   1.690
  255DPPC    C212702   1.507   7.474   1.615
  255DPPC    C312703   1.343   7.611   1.534
  255DPPC    N412704   1.484   7.613   1.575
  255DPPC    C512705   1.566   7.663   1.464
  255DPPC    C612706   1.718   7.677   1.467
  255DPPC    O712707   1.808   7.566   1.464
  255DPPC    P812708   1.963   7.604   1.444
  255DPPC    O912709   1.967   7.725   1.360
  255DPPC   O1012710   2.032   7.477   1.411
  255DPPC   O1112711   1.972   7.631   1.603
  255DPPC   C1212712   1.956   7.504   1.668
  255DPPC   C1312713   1.975   7.506   1.819
  255DPPC   O1412714   1.983   7.376   1.878
  255DPPC   C1512715   2.108   7.323   1.892
  255DPPC   O1612716   2.208   7.367   1.837
  255DPPC   C1712717   2.117   7.190   1.968
  255DPPC   C1812718   2.002   7.149   2.059
  255DPPC   C1912719   2.042   7.035   2.153
  255DPPC   C2012720   1.919   6.971   2.218
  255DPPC   C2112721   1.848   6.877   2.120
  255DPPC   C2212722   1.719   6.820   2.178
  255DPPC   C2312723   1.740   6.718   2.291
  255DPPC   C2412724   1.610   6.694   2.369
  255DPPC   C2512725   1.641   6.570   2.453
  255DPPC   C2612726   1.532   6.542   2.556
  255DPPC   C2712727   1.541   6.394   2.595
  255DPPC   C2812728   1.423   6.354   2.684
  255DPPC   C2912729   1.429   6.437   2.812
  255DPPC   C3012730   1.354   6.345   2.908
  255DPPC   C3112731   1.419   6.211   2.942
  255DPPC   C3212732   1.869   7.606   1.867
  255DPPC   O3312733   1.877   7.672   1.994
  255DPPC   C3412734   1.755   7.721   2.029
  255DPPC   O3512735   1.660   7.704   1.953
  255DPPC   C3612736   1.722   7.772   2.169
  255DPPC   C3712737   1.794   7.904   2.194
  255DPPC   C3812738   1.750   7.962   2.328
  255DPPC   C3912739   1.820   8.095   2.357
  255DPPC   C4012740   1.784   8.129   2.502
  255DPPC   C4112741   1.841   8.269   2.525
  255DPPC   C4212742   1.818   8.321   2.667
  255DPPC   C4312743   1.909   8.239   2.759
  255DPPC   C4412744   1.834   8.173   2.875
  255DPPC   C4512745   1.943   8.092   2.946
  255DPPC   C4612746   1.893   8.030   3.076
  255DPPC   C4712747   1.994   7.937   3.143
  255DPPC   C4812748   1.960   7.790   3.118
  255DPPC   C4912749   2.069   7.705   3.183
  255DPPC   C5012750   2.064   7.734   3.333
  256DPPC    C112751   2.695   6.745   1.722
  256DPPC    C212752   2.657   6.519   1.772
  256DPPC    C312753   2.546   6.633   1.584
  256DPPC    N412754   2.670   6.614   1.661
  256DPPC    C512755   2.781   6.587   1.569
  256DPPC    C612756   2.822   6.440   1.559
  256DPPC    O712757   2.722   6.368   1.486
  256DPPC    P812758   2.768   6.215   1.471
  256DPPC    O912759   2.915   6.222   1.456
  256DPPC   O1012760   2.670   6.172   1.369
  256DPPC   O1112761   2.715   6.179   1.619
  256DPPC   C1212762   2.575   6.172   1.593
  256DPPC   C1312763   2.497   6.119   1.714
  256DPPC   O1412764   2.451   6.222   1.803
  256DPPC   C1512765   2.326   6.273   1.791
  256DPPC   O1612766   2.259   6.266   1.688
  256DPPC   C1712767   2.293   6.377   1.898
  256DPPC   C1812768   2.218   6.304   2.010
  256DPPC   C1912769   2.172   6.419   2.100
  256DPPC   C2012770   2.088   6.353   2.210
  256DPPC   C2112771   2.065   6.458   2.318
  256DPPC   C2212772   2.183   6.518   2.395
  256DPPC   C2312773   2.132   6.602   2.512
  256DPPC   C2412774   2.093   6.739   2.455
  256DPPC   C2512775   2.047   6.817   2.579
  256DPPC   C2612776   1.939   6.749   2.663
  256DPPC   C2712777   1.909   6.807   2.801
  256DPPC   C2812778   1.781   6.749   2.860
  256DPPC   C2912779   1.808   6.604   2.902
  256DPPC   C3012780   1.709   6.563   3.011
  256DPPC   C3112781   1.764   6.434   3.073
  256DPPC   C3212782   2.581   6.003   1.767
  256DPPC   O3312783   2.524   5.919   1.867
  256DPPC   C3412784   2.598   5.814   1.913
  256DPPC   O3512785   2.717   5.802   1.886
  256DPPC   C3612786   2.509   5.710   1.982
  256DPPC   C3712787   2.580   5.647   2.103
  256DPPC   C3812788   2.486   5.584   2.205
  256DPPC   C3912789   2.439   5.448   2.152
  256DPPC   C4012790   2.332   5.394   2.247
  256DPPC   C4112791   2.400   5.376   2.383
  256DPPC   C4212792   2.286   5.345   2.481
  256DPPC   C4312793   2.217   5.216   2.437
  256DPPC   C4412794   2.113   5.161   2.534
  256DPPC   C4512795   2.063   5.023   2.488
  256DPPC   C4612796   1.949   4.983   2.581
  256DPPC   C4712797   1.997   4.973   2.726
  256DPPC   C4812798   1.875   4.969   2.819
  256DPPC   C4912799   1.864   4.823   2.864
  256DPPC   C5012800   1.740   4.815   2.953
  257SOL     OW12801   0.230   0.628   0.113
  257SOL    HW112802   0.137   0.626   0.150
  257SOL    HW212803   0.231   0.589   0.021
  258SOL     OW12804   0.225   0.275   0.996
  258SOL    HW112805   0.260   0.258   1.088
  258SOL    HW212806   0.137   0.230   0.984
  259SOL     OW12807   0.019   0.368   0.647
  259SOL    HW112808  -0.063   0.411   0.686
  259SOL    HW212809  -0.009   0.295   0.584
  260SOL     OW12810   0.569   1.275   1.165
  260SOL    HW112811   0.476   1.268   1.128
  260SOL    HW212812   0.580   1.364   1.209
  261SOL     OW12813   1.555   1.511   0.703
  261SOL    HW112814   1.498   1.495   0.784
  261SOL    HW212815   1.496   1.521   0.623
  262SOL     OW12816   1.135   0.703   0.717
  262SOL    HW112817   1.192   0.781   0.692
  262SOL    HW212818   1.075   0.729   0.793
  263SOL     OW12819   1.755   0.607   0.231
  263SOL    HW112820   1.743   0.594   0.132
  263SOL    HW212821   1.725   0.526   0.280
  264SOL     OW12822   0.768   1.144   1.023
  264SOL    HW112823   0.690   1.161   1.083
  264SOL    HW212824   0.802   1.231   0.987
  265SOL     OW12825   0.850   0.798   1.823
  265SOL    HW112826   0.846   0.874   1.888
  265SOL    HW212827   0.872   0.834   1.732
  266SOL     OW12828   0.685   1.012   0.665
  266SOL    HW112829   0.754   0.996   0.735
  266SOL    HW212830   0.612   1.069   0.703
  267SOL     OW12831   0.686   1.161   1.803
  267SOL    HW112832   0.746   1.240   1.817
  267SOL    HW212833   0.600   1.192   1.762
  268SOL     OW12834   1.603   0.447   0.737
  268SOL    HW112835   1.529   0.493   0.687
  268SOL    HW212836   1.654   0.515   0.790
  269SOL     OW12837   0.231   1.713   0.483
  269SOL    HW112838   0.265   1.790   0.537
  269SOL    HW212839   0.275   1.713   0.393
  270SOL     OW12840   0.230   1.434   0.538
  270SOL    HW112841   0.204   1.530   0.538
  270SOL    HW212842   0.159   1.380   0.583
  271SOL     OW12843   0.606   0.964   0.123
  271SOL    HW112844   0.613   1.048   0.069
  271SOL    HW212845   0.652   0.977   0.211
  272SOL     OW12846   1.594   0.114   1.480
  272SOL    HW112847   1.576   0.181   1.408
  272SOL    HW212848   1.591   0.160   1.569
  273SOL     OW12849   0.122   0.643   0.563
  273SOL    HW112850   0.077   0.555   0.580
  273SOL    HW212851   0.121   0.697   0.647
  274SOL     OW12852   1.842   1.767   0.359
  274SOL    HW112853   1.896   1.738   0.439
  274SOL    HW212854   1.872   1.857   0.330
  275SOL     OW12855   0.027   1.596   0.117
  275SOL    HW112856   0.008   1.500   0.138
  275SOL    HW212857  -0.006   1.654   0.192
  276SOL     OW12858   1.689   0.922   0.612
  276SOL    HW112859   1.784   0.893   0.620
  276SOL    HW212860   1.681   0.987   0.537
  277SOL     OW12861   1.641   1.108   0.432
  277SOL    HW112862   1.727   1.110   0.380
  277SOL    HW212863   1.655   1.155   0.520
  278SOL     OW12864   0.613   1.365   0.726
  278SOL    HW112865   0.564   1.278   0.735
  278SOL    HW212866   0.590   1.408   0.639
  279SOL     OW12867   0.809   0.004   0.502
  279SOL    HW112868   0.849   0.095   0.493
  279SOL    HW212869   0.709   0.012   0.508
  280SOL     OW12870   0.197   0.976   1.264
  280SOL    HW112871   0.286   0.931   1.250
  280SOL    HW212872   0.124   0.911   1.245
  281SOL     OW12873   1.525   0.999   0.190
  281SOL    HW112874   1.462   0.923   0.203
  281SOL    HW212875   1.573   1.017   0.276
  282SOL     OW12876   1.187   1.792   1.616
  282SOL    HW112877   1.211   1.852   1.540
  282SOL    HW212878   1.194   1.697   1.586
  283SOL     OW12879   0.317   0.251   1.801
  283SOL    HW112880   0.388   0.322   1.807
  283SOL    HW212881   0.229   0.290   1.829
  284SOL     OW12882   1.466   1.417   0.953
  284SOL    HW112883   1.407   1.423   1.033
  284SOL    HW212884   1.451   1.329   0.907
  285SOL     OW12885   1.667   1.714   0.572
  285SOL    HW112886   1.626   1.691   0.484
  285SOL    HW212887   1.649   1.640   0.637
  286SOL     OW12888   0.598   0.729   0.270
  286SOL    HW112889   0.622   0.798   0.202
  286SOL    HW212890   0.520   0.762   0.324
  287SOL     OW12891   1.281   0.345   0.944
  287SOL    HW112892   1.195   0.295   0.931
  287SOL    HW212893   1.343   0.291   1.000
  288SOL     OW12894   1.576   1.662   0.307
  288SOL    HW112895   1.665   1.708   0.310
  288SOL    HW212896   1.555   1.638   0.212
  289SOL     OW12897   1.394   0.469   1.674
  289SOL    HW112898   1.374   0.512   1.762
  289SOL    HW212899   1.472   0.407   1.683
  290SOL     OW12900   0.973   0.890   1.572
  290SOL    HW112901   1.019   0.806   1.543
  290SOL    HW212902   0.917   0.924   1.497
  291SOL     OW12903   0.991   0.410   1.242
  291SOL    HW112904   0.914   0.444   1.296
  291SOL    HW212905   0.957   0.359   1.163
  292SOL     OW12906   1.041   0.701   0.429
  292SOL    HW112907   1.067   0.697   0.525
  292SOL    HW212908   0.956   0.650   0.415
  293SOL     OW12909   0.076   0.811   0.789
  293SOL    HW112910   0.175   0.799   0.798
  293SOL    HW212911   0.052   0.906   0.810
  294SOL     OW12912   0.130   1.821   1.571
  294SOL    HW112913   0.120   1.806   1.670
  294SOL    HW212914   0.044   1.857   1.535
  295SOL     OW12915   0.865   0.348   0.195
  295SOL    HW112916   0.924   0.411   0.146
  295SOL    HW212917   0.884   0.254   0.166
  296SOL     OW12918   1.362   1.144   0.545
  296SOL    HW112919   1.445   1.115   0.497
  296SOL    HW212920   1.313   1.211   0.489
  297SOL     OW12921   0.550   0.196   0.885
  297SOL    HW112922   0.545   0.191   0.985
  297SOL    HW212923   0.552   0.292   0.856
  298SOL     OW12924   1.008   1.456   0.477
  298SOL    HW112925   0.962   1.528   0.425
  298SOL    HW212926   1.004   1.476   0.575
  299SOL     OW12927   0.351   1.801   0.853
  299SOL    HW112928   0.401   1.715   0.859
  299SOL    HW212929   0.416   1.878   0.850
  300SOL     OW12930   1.795   1.066   0.873
  300SOL    HW112931   1.733   1.051   0.797
  300SOL    HW212932   1.743   1.077   0.958
  301SOL     OW12933   0.321   0.943   0.242
  301SOL    HW112934   0.403   0.982   0.200
  301SOL    HW212935   0.294   0.861   0.193
  302SOL     OW12936   1.458   0.735   0.728
  302SOL    HW112937   1.453   0.670   0.803
  302SOL    HW212938   1.538   0.794   0.741
  303SOL     OW12939   0.461   1.266   1.727
  303SOL    HW112940   0.411   1.267   1.641
  303SOL    HW212941   0.398   1.248   1.803
  304SOL     OW12942   1.111   1.776   0.237
  304SOL    HW112943   1.051   1.714   0.287
  304SOL    HW212944   1.142   1.732   0.152
  305SOL     OW12945   1.632   1.377   0.081
  305SOL    HW112946   1.600   1.471   0.071
  305SOL    HW212947   1.556   1.314   0.069
  306SOL     OW12948   0.464   1.743   0.323
  306SOL    HW112949   0.497   1.782   0.409
  306SOL    HW212950   0.540   1.736   0.258
  307SOL     OW12951   1.400   0.107   0.426
  307SOL    HW112952   1.376   0.070   0.336
  307SOL    HW212953   1.499   0.123   0.430
  308SOL     OW12954   0.940   1.698   0.904
  308SOL    HW112955   1.020   1.641   0.925
  308SOL    HW212956   0.891   1.658   0.827
  309SOL     OW12957   0.382   0.700   0.480
  309SOL    HW112958   0.427   0.610   0.477
  309SOL    HW212959   0.288   0.689   0.513
  310SOL     OW12960   1.547   0.222   1.729
  310SOL    HW112961   1.542   0.259   1.821
  310SOL    HW212962   1.475   0.153   1.717
  311SOL     OW12963   0.614   0.122   0.117
  311SOL    HW112964   0.712   0.100   0.124
  311SOL    HW212965   0.583   0.105   0.024
  312SOL     OW12966   0.781   0.264   1.749
  312SOL    HW112967   0.848   0.203   1.792
  312SOL    HW212968   0.708   0.283   1.814
  313SOL     OW12969   0.888   1.514   1.195
  313SOL    HW112970   0.865   1.489   1.101
  313SOL    HW212971   0.949   1.445   1.234
  314SOL     OW12972   0.803   1.402   0.924
  314SOL    HW112973   0.893   1.416   0.882
  314SOL    HW212974   0.732   1.404   0.853
  315SOL     OW12975   0.922   0.503   0.899
  315SOL    HW112976   0.897   0.494   0.803
  315SOL    HW212977   0.970   0.421   0.930
  316SOL     OW12978   0.539   0.064   0.512
  316SOL    HW112979   0.458   0.065   0.570
  316SOL    HW212980   0.542   0.147   0.457
  317SOL     OW12981   1.434   1.188   0.041
  317SOL    HW112982   1.466   1.112   0.098
  317SOL    HW212983   1.342   1.215   0.071
  318SOL     OW12984   0.297   0.035   0.171
  318SOL    HW112985   0.346   0.119   0.150
  318SOL    HW212986   0.359  -0.030   0.216
  319SOL     OW12987   0.935   0.236   0.480
  319SOL    HW112988   0.887   0.277   0.402
  319SOL    HW212989   1.034   0.234   0.461
  320SOL     OW12990   1.076   0.683   1.464
  320SOL    HW112991   0.996   0.622   1.467
  320SOL    HW212992   1.157   0.630   1.440
  321SOL     OW12993   1.227   1.570   0.793
  321SOL    HW112994   1.248   1.644   0.728
  321SOL    HW212995   1.295   1.570   0.866
  322SOL     OW12996   0.459   1.152   0.741
  322SOL    HW112997   0.388   1.125   0.806
  322SOL    HW212998   0.433   1.124   0.648
  323SOL     OW12999   1.271   1.797   0.591
  323SOL    HW113000   1.315   1.861   0.527
  323SOL    HW213001   1.221   1.849   0.661
  324SOL     OW13002   1.032   0.549   0.016
  324SOL    HW113003   0.991   0.631  -0.023
  324SOL    HW213004   1.096   0.575   0.089
  325SOL     OW13005   0.561   0.222   1.147
  325SOL    HW113006   0.599   0.138   1.184
  325SOL    HW213007   0.473   0.241   1.191
  326SOL     OW13008   0.866   0.454   0.642
  326SOL    HW113009   0.834   0.526   0.580
  326SOL    HW213010   0.890   0.373   0.589
  327SOL     OW13011   1.017   0.039   0.753
  327SOL    HW113012   0.945   0.044   0.684
  327SOL    HW213013   0.993  -0.030   0.822
  328SOL     OW13014   1.429   1.173   0.867
  328SOL    HW113015   1.374   1.089   0.860
  328SOL    HW213016   1.455   1.202   0.775
  329SOL     OW13017   1.466   0.590   0.992
  329SOL    HW113018   1.436   0.495   0.999
  329SOL    HW213019   1.539   0.606   1.058
  330SOL     OW13020   1.857   0.833   0.377
  330SOL    HW113021   1.899   0.769   0.441
  330SOL    HW213022   1.819   0.782   0.299
  331SOL     OW13023   0.488   1.385   0.174
  331SOL    HW113024   0.401   1.370   0.221
  331SOL    HW213025   0.471   1.411   0.079
  332SOL     OW13026   1.664   1.280   0.657
  332SOL    HW113027   1.763   1.288   0.671
  332SOL    HW213028   1.619   1.364   0.688
  333SOL     OW13029   1.390   0.575   0.078
  333SOL    HW113030   1.336   0.554   0.159
  333SOL    HW213031   1.481   0.534   0.087
  334SOL     OW13032   0.527   0.256   0.328
  334SOL    HW113033   0.554   0.197   0.253
  334SOL    HW213034   0.527   0.351   0.297
  335SOL     OW13035   1.111   1.195   1.100
  335SOL    HW113036   1.071   1.239   1.181
  335SOL    HW213037   1.070   1.232   1.017
  336SOL     OW13038   1.638   1.099   1.079
  336SOL    HW113039   1.643   1.180   1.138
  336SOL    HW213040   1.552   1.101   1.028
  337SOL     OW13041   0.915   0.089   1.402
  337SOL    HW113042   0.940   0.069   1.307
  337SOL    HW213043   0.987   0.145   1.444
  338SOL     OW13044   0.980   1.116   1.719
  338SOL    HW113045   0.881   1.122   1.729
  338SOL    HW213046   1.003   1.036   1.663
  339SOL     OW13047   0.705   1.050   0.368
  339SOL    HW113048   0.691   1.057   0.467
  339SOL    HW213049   0.789   0.999   0.350
  340SOL     OW13050   0.410   0.813   1.251
  340SOL    HW113051   0.496   0.825   1.301
  340SOL    HW213052   0.368   0.726   1.278
  341SOL     OW13053   1.274   0.386   1.262
  341SOL    HW113054   1.295   0.460   1.326
  341SOL    HW213055   1.185   0.403   1.219
  342SOL     OW13056   0.064   1.564   1.331
  342SOL    HW113057   0.018   1.646   1.297
  342SOL    HW213058   0.162   1.583   1.340
  343SOL     OW13059   0.367   1.100   0.501
  343SOL    HW113060   0.360   1.183   0.445
  343SOL    HW213061   0.371   1.020   0.441
  344SOL     OW13062   0.566   0.537   0.865
  344SOL    HW113063   0.578   0.603   0.791
  344SOL    HW213064   0.612   0.571   0.948
  345SOL     OW13065   1.252   1.348   0.388
  345SOL    HW113066   1.302   1.425   0.428
  345SOL    HW213067   1.157   1.350   0.420
  346SOL     OW13068   1.272   1.445   1.142
  346SOL    HW113069   1.319   1.458   1.229
  346SOL    HW213070   1.206   1.371   1.151
  347SOL     OW13071   1.582   0.639   0.472
  347SOL    HW113072   1.551   0.700   0.545
  347SOL    HW213073   1.632   0.691   0.403
  348SOL     OW13074   0.504   0.050   1.740
  348SOL    HW113075   0.462  -0.007   1.670
  348SOL    HW213076   0.438   0.119   1.772
  349SOL     OW13077   0.573   0.870   1.029
  349SOL    HW113078   0.617   0.959   1.020
  349SOL    HW213079   0.510   0.870   1.106
  350SOL     OW13080   1.360   0.862   1.045
  350SOL    HW113081   1.285   0.862   0.979
  350SOL    HW213082   1.397   0.770   1.054
  351SOL     OW13083   1.209   0.525   0.275
  351SOL    HW113084   1.222   0.441   0.329
  351SOL    HW213085   1.180   0.599   0.335
  352SOL     OW13086   0.307   0.213   1.231
  352SOL    HW113087   0.284   0.250   1.321
  352SOL    HW213088   0.277   0.118   1.225
  353SOL     OW13089   0.732   0.634   1.064
  353SOL    HW113090   0.791   0.608   0.988
  353SOL    HW213091   0.704   0.730   1.053
  354SOL     OW13092   1.728   0.935   1.854
  354SOL    HW113093   1.682   0.928   1.765
  354SOL    HW213094   1.666   0.979   1.920
  355SOL     OW13095   0.307   0.063   0.618
  355SOL    HW113096   0.296   0.157   0.651
  355SOL    HW213097   0.302   0.000   0.695
  356SOL     OW13098   1.622   0.367   0.374
  356SOL    HW113099   1.624   0.291   0.438
  356SOL    HW213100   1.574   0.444   0.414
  357SOL     OW13101   1.023   0.766   0.966
  357SOL    HW113102   1.038   0.787   1.062
  357SOL    HW213103   0.993   0.671   0.957
  358SOL     OW13104   1.859   1.518   1.605
  358SOL    HW113105   1.873   1.545   1.510
  358SOL    HW213106   1.942   1.540   1.658
  359SOL     OW13107   1.540   0.274   0.125
  359SOL    HW113108   1.479   0.199   0.148
  359SOL    HW213109   1.562   0.326   0.208
  360SOL     OW13110   1.303   0.838   0.042
  360SOL    HW113111   1.337   0.745   0.057
  360SOL    HW213112   1.321   0.865  -0.053
  361SOL     OW13113   1.068   1.333   0.849
  361SOL    HW113114   1.075   1.249   0.794
  361SOL    HW213115   1.130   1.402   0.813
  362SOL     OW13116   0.319   0.810   0.949
  362SOL    HW113117   0.412   0.846   0.954
  362SOL    HW213118   0.313   0.725   1.001
  363SOL     OW13119   0.339   0.509   1.006
  363SOL    HW113120   0.287   0.426   0.989
  363SOL    HW213121   0.416   0.514   0.942
  364SOL     OW13122   0.008   1.326   0.200
  364SOL    HW113123  -0.085   1.347   0.169
  364SOL    HW213124   0.018   1.227   0.213
  365SOL     OW13125   0.088   1.801   0.927
  365SOL    HW113126   0.046   1.715   0.900
  365SOL    HW213127   0.182   1.804   0.893
  366SOL     OW13128   0.504   1.568   0.910
  366SOL    HW113129   0.570   1.642   0.919
  366SOL    HW213130   0.548   1.489   0.868
  367SOL     OW13131   1.002   0.796   1.238
  367SOL    HW113132   1.043   0.764   1.324
  367SOL    HW213133   0.906   0.769   1.235
  368SOL     OW13134   0.815   0.572   0.325
  368SOL    HW113135   0.822   0.483   0.279
  368SOL    HW213136   0.721   0.606   0.317
  369SOL     OW13137   1.657   0.604   1.206
  369SOL    HW113138   1.619   0.535   1.268
  369SOL    HW213139   1.739   0.568   1.162
  370SOL     OW13140   0.671   0.464   1.269
  370SOL    HW113141   0.637   0.375   1.239
  370SOL    HW213142   0.697   0.518   1.189
  371SOL     OW13143   0.473   0.500   0.191
  371SOL    HW113144   0.534   0.580   0.195
  371SOL    HW213145   0.378   0.531   0.198
  372SOL     OW13146   0.159   1.137   1.466
  372SOL    HW113147   0.181   1.076   1.542
  372SOL    HW213148   0.169   1.088   1.380
  373SOL     OW13149   1.347   1.059   1.234
  373SOL    HW113150   1.371   0.996   1.160
  373SOL    HW213151   1.257   1.099   1.216
  374SOL     OW13152   1.302   0.855   0.309
  374SOL    HW113153   1.216   0.824   0.351
  374SOL    HW213154   1.298   0.841   0.210
  375SOL     OW13155   1.759   1.747   1.154
  375SOL    HW113156   1.820   1.777   1.081
  375SOL    HW213157   1.721   1.658   1.132
  376SOL     OW13158   1.252   1.731   1.128
  376SOL    HW113159   1.336   1.736   1.074
  376SOL    HW213160   1.229   1.635   1.146
  377SOL     OW13161   0.903   0.086   0.133
  377SOL    HW113162   0.954   0.087   0.047
  377SOL    HW213163   0.959   0.044   0.204
  378SOL     OW13164   1.726   0.135   0.523
  378SOL    HW113165   1.799   0.118   0.456
  378SOL    HW213166   1.695   0.048   0.561
  379SOL     OW13167   1.388   1.573   0.477
  379SOL    HW113168   1.455   1.585   0.403
  379SOL    HW213169   1.348   1.662   0.500
  380SOL     OW13170   0.130   1.794   1.851
  380SOL    HW113171   0.089   1.720   1.904
  380SOL    HW213172   0.194   1.845   1.909
  381SOL     OW13173   1.280   0.927   0.672
  381SOL    HW113174   1.340   0.846   0.674
  381SOL    HW213175   1.320   0.996   0.612
  382SOL     OW13176   0.830   1.273   1.422
  382SOL    HW113177   0.825   1.306   1.517
  382SOL    HW213178   0.744   1.292   1.376
  383SOL     OW13179   0.672   1.616   0.154
  383SOL    HW113180   0.681   1.626   0.055
  383SOL    HW213181   0.632   1.527   0.175
  384SOL     OW13182   1.841   0.175   0.963
  384SOL    HW113183   1.880   0.090   0.927
  384SOL    HW213184   1.743   0.177   0.944
  385SOL     OW13185   0.263   0.326   0.720
  385SOL    HW113186   0.184   0.377   0.686
  385SOL    HW213187   0.254   0.311   0.818
  386SOL     OW13188   1.194   1.612   0.031
  386SOL    HW113189   1.200   1.519   0.068
  386SOL    HW213190   1.135   1.612  -0.049
  387SOL     OW13191   0.822   1.002   1.372
  387SOL    HW113192   0.862   1.001   1.280
  387SOL    HW213193   0.832   1.094   1.412
  388SOL     OW13194   0.916   0.910   0.291
  388SOL    HW113195   0.979   0.948   0.223
  388SOL    HW213196   0.956   0.827   0.330
  389SOL     OW13197   1.504   1.607   0.044
  389SOL    HW113198   1.412   1.644   0.051
  389SOL    HW213199   1.542   1.627  -0.046
  390SOL     OW13200   0.372   1.288   1.490
  390SOL    HW113201   0.359   1.381   1.456
  390SOL    HW213202   0.288   1.236   1.477
  391SOL     OW13203   1.039   1.098   0.696
  391SOL    HW113204   0.969   1.051   0.750
  391SOL    HW213205   1.098   1.030   0.653
  392SOL     OW13206   1.014   0.236   0.971
  392SOL    HW113207   1.006   0.200   0.878
  392SOL    HW213208   1.012   0.160   1.036
  393SOL     OW13209   0.590   1.487   0.491
  393SOL    HW113210   0.632   1.429   0.421
  393SOL    HW213211   0.546   1.566   0.447
  394SOL     OW13212   1.709   0.385   1.381
  394SOL    HW113213   1.782   0.454   1.385
  394SOL    HW213214   1.737   0.310   1.322
  395SOL     OW13215   0.255   1.348   0.290
  395SOL    HW113216   0.159   1.349   0.263
  395SOL    HW213217   0.267   1.401   0.374
  396SOL     OW13218   0.075   0.345   0.033
  396SOL    HW113219  -0.017   0.317   0.004
  396SOL    HW213220   0.106   0.422  -0.023
  397SOL     OW13221   0.072   0.166   0.318
  397SOL    HW113222   0.055   0.249   0.264
  397SOL    HW213223   0.162   0.129   0.296
  398SOL     OW13224   1.183   1.335   0.119
  398SOL    HW113225   1.084   1.324   0.121
  398SOL    HW213226   1.217   1.350   0.212
  399SOL     OW13227   1.493   1.767   0.959
  399SOL    HW113228   1.526   1.831   0.890
  399SOL    HW213229   1.559   1.761   1.034
  400SOL     OW13230   1.225   0.325   0.449
  400SOL    HW113231   1.290   0.251   0.438
  400SOL    HW213232   1.245   0.375   0.533
  401SOL     OW13233   0.594   0.745   0.652
  401SOL    HW113234   0.644   0.830   0.633
  401SOL    HW213235   0.506   0.747   0.604
  402SOL     OW13236   1.777   0.342   1.642
  402SOL    HW113237   1.760   0.373   1.548
  402SOL    HW213238   1.693   0.305   1.680
  403SOL     OW13239   0.859   1.374   0.016
  403SOL    HW113240   0.813   1.389   0.104
  403SOL    HW213241   0.903   1.459  -0.014
  404SOL     OW13242   0.661   1.790   0.953
  404SOL    HW113243   0.615   1.878   0.940
  404SOL    HW213244   0.760   1.802   0.946
  405SOL     OW13245   0.859   0.956   0.861
  405SOL    HW113246   0.913   0.887   0.909
  405SOL    HW213247   0.827   1.025   0.927
  406SOL     OW13248   1.083   0.984   0.087
  406SOL    HW113249   1.060   1.037   0.005
  406SOL    HW213250   1.164   0.928   0.068
  407SOL     OW13251   1.861   1.569   0.851
  407SOL    HW113252   1.790   1.557   0.781
  407SOL    HW213253   1.862   1.490   0.911
  408SOL     OW13254   0.079   1.240   0.653
  408SOL    HW113255   0.078   1.193   0.741
  408SOL    HW213256   0.161   1.212   0.602
  409SOL     OW13257   1.824   0.192   1.227
  409SOL    HW113258   1.820   0.102   1.271
  409SOL    HW213259   1.827   0.181   1.128
  410SOL     OW13260   0.428   0.424   0.520
  410SOL    HW113261   0.458   0.352   0.458
  410SOL    HW213262   0.389   0.384   0.603
  411SOL     OW13263   1.705   1.487   1.104
  411SOL    HW113264   1.612   1.462   1.077
  411SOL    HW213265   1.731   1.437   1.186
  412SOL     OW13266   0.317   0.547   1.280
  412SOL    HW113267   0.355   0.488   1.352
  412SOL    HW213268   0.357   0.521   1.192
  413SOL     OW13269   0.812   1.586   0.687
  413SOL    HW113270   0.844   1.596   0.593
  413SOL    HW213271   0.733   1.524   0.689
  414SOL     OW13272   1.424   0.214   1.112
  414SOL    HW113273   1.476   0.149   1.167
  414SOL    HW213274   1.375   0.277   1.173
  415SOL     OW13275   1.001   0.034   1.154
  415SOL    HW113276   0.938  -0.038   1.123
  415SOL    HW213277   1.094  -0.002   1.154
  416SOL     OW13278   0.770   1.330   0.301
  416SOL    HW113279   0.724   1.243   0.318
  416SOL    HW213280   0.861   1.327   0.342
  417SOL     OW13281   1.352   0.052   0.168
  417SOL    HW113282   1.387   0.011   0.084
  417SOL    HW213283   1.262   0.014   0.188
  418SOL     OW13284   1.300   0.453   0.691
  418SOL    HW113285   1.241   0.533   0.695
  418SOL    HW213286   1.315   0.418   0.784
  419SOL     OW13287   1.593   0.221   0.882
  419SOL    HW113288   1.509   0.220   0.936
  419SOL    HW213289   1.595   0.304   0.826
  420SOL     OW13290   0.039   1.077   0.300
  420SOL    HW113291   0.138   1.066   0.291
  420SOL    HW213292  -0.001   0.991   0.332
  421SOL     OW13293   0.875   1.646   0.337
  421SOL    HW113294   0.798   1.611   0.283
  421SOL    HW213295   0.843   1.717   0.399
  422SOL     OW13296   0.569   1.275   3.027
  422SOL    HW113297   0.476   1.268   2.990
  422SOL    HW213298   0.580   1.364   3.071
  423SOL     OW13299   0.850   0.798   3.685
  423SOL    HW113300   0.846   0.874   3.750
  423SOL    HW213301   0.872   0.834   3.594
  424SOL     OW13302   0.335   1.435   2.923
  424SOL    HW113303   0.257   1.404   2.870
  424SOL    HW213304   0.393   1.493   2.866
  425SOL     OW13305   1.460   1.505   3.201
  425SOL    HW113306   1.484   1.599   3.227
  425SOL    HW213307   1.444   1.451   3.283
  426SOL     OW13308   1.127   1.341   3.552
  426SOL    HW113309   1.174   1.341   3.640
  426SOL    HW213310   1.079   1.254   3.541
  427SOL     OW13311   0.240   1.091   2.748
  427SOL    HW113312   0.254   1.007   2.800
  427SOL    HW213313   0.185   1.155   2.803
  428SOL     OW13314   0.620   1.786   3.301
  428SOL    HW113315   0.528   1.769   3.336
  428SOL    HW213316   0.648   1.878   3.327
  429SOL     OW13317   0.027   1.596   1.979
  429SOL    HW113318   0.008   1.500   2.000
  429SOL    HW213319  -0.006   1.654   2.054
  430SOL     OW13320   0.317   0.251   3.663
  430SOL    HW113321   0.388   0.322   3.669
  430SOL    HW213322   0.229   0.290   3.691
  431SOL     OW13323   1.281   0.345   2.806
  431SOL    HW113324   1.195   0.295   2.793
  431SOL    HW213325   1.343   0.291   2.862
  432SOL     OW13326   1.576   1.662   2.169
  432SOL    HW113327   1.665   1.708   2.172
  432SOL    HW213328   1.555   1.638   2.074
  433SOL     OW13329   1.394   0.469   3.536
  433SOL    HW113330   1.374   0.512   3.624
  433SOL    HW213331   1.472   0.407   3.545
  434SOL     OW13332   0.973   0.890   3.434
  434SOL    HW113333   1.019   0.806   3.405
  434SOL    HW213334   0.917   0.924   3.359
  435SOL     OW13335   1.041   0.701   2.291
  435SOL    HW113336   1.067   0.697   2.387
  435SOL    HW213337   0.956   0.650   2.277
  436SOL     OW13338   0.076   0.811   2.651
  436SOL    HW113339   0.175   0.799   2.660
  436SOL    HW213340   0.052   0.906   2.672
  437SOL     OW13341   0.130   1.821   3.433
  437SOL    HW113342   0.120   1.806   3.532
  437SOL    HW213343   0.044   1.857   3.397
  438SOL     OW13344   0.550   0.196   2.747
  438SOL    HW113345   0.545   0.191   2.847
  438SOL    HW213346   0.552   0.292   2.718
  439SOL     OW13347   1.008   1.456   2.339
  439SOL    HW113348   0.962   1.528   2.287
  439SOL    HW213349   1.004   1.476   2.437
  440SOL     OW13350   1.795   1.066   2.735
  440SOL    HW113351   1.733   1.051   2.659
  440SOL    HW213352   1.743   1.077   2.820
  441SOL     OW13353   1.227   1.550   3.368
  441SOL    HW113354   1.233   1.473   3.432
  441SOL    HW213355   1.175   1.524   3.288
  442SOL     OW13356   1.111   1.776   2.099
  442SOL    HW113357   1.051   1.714   2.149
  442SOL    HW213358   1.142   1.732   2.014
  443SOL     OW13359   0.940   1.698   2.766
  443SOL    HW113360   1.020   1.641   2.787
  443SOL    HW213361   0.891   1.658   2.689
  444SOL     OW13362   1.547   0.222   3.591
  444SOL    HW113363   1.542   0.259   3.683
  444SOL    HW213364   1.475   0.153   3.579
  445SOL     OW13365   0.614   0.122   1.979
  445SOL    HW113366   0.712   0.100   1.986
  445SOL    HW213367   0.583   0.105   1.886
  446SOL     OW13368   0.888   1.514   3.057
  446SOL    HW113369   0.865   1.489   2.963
  446SOL    HW213370   0.949   1.445   3.096
  447SOL     OW13371   1.351   0.590   3.295
  447SOL    HW113372   1.379   0.547   3.380
  447SOL    HW213373   1.376   0.686   3.296
  448SOL     OW13374   1.076   0.683   3.326
  448SOL    HW113375   0.996   0.622   3.329
  448SOL    HW213376   1.157   0.630   3.302
  449SOL     OW13377   0.459   1.152   2.603
  449SOL    HW113378   0.388   1.125   2.668
  449SOL    HW213379   0.433   1.124   2.510
  450SOL     OW13380   0.078   0.556   3.248
  450SOL    HW113381   0.170   0.555   3.207
  450SOL    HW213382   0.072   0.630   3.315
  451SOL     OW13383   0.561   0.222   3.009
  451SOL    HW113384   0.599   0.138   3.046
  451SOL    HW213385   0.473   0.241   3.053
  452SOL     OW13386   1.466   0.590   2.854
  452SOL    HW113387   1.436   0.495   2.861
  452SOL    HW213388   1.539   0.606   2.920
  453SOL     OW13389   1.754   1.223   3.450
  453SOL    HW113390   1.845   1.184   3.437
  453SOL    HW213391   1.762   1.319   3.474
  454SOL     OW13392   0.980   1.116   3.581
  454SOL    HW113393   0.881   1.122   3.591
  454SOL    HW213394   1.003   1.036   3.525
  455SOL     OW13395   0.367   1.100   2.363
  455SOL    HW113396   0.360   1.183   2.307
  455SOL    HW213397   0.371   1.020   2.303
  456SOL     OW13398   0.566   0.537   2.727
  456SOL    HW113399   0.578   0.603   2.653
  456SOL    HW213400   0.612   0.571   2.810
  457SOL     OW13401   1.272   1.445   3.004
  457SOL    HW113402   1.319   1.458   3.091
  457SOL    HW213403   1.206   1.371   3.013
  458SOL     OW13404   0.354   1.510   3.191
  458SOL    HW113405   0.333   1.466   3.104
  458SOL    HW213406   0.451   1.536   3.194
  459SOL     OW13407   0.402   0.751   3.460
  459SOL    HW113408   0.470   0.806   3.413
  459SOL    HW213409   0.442   0.663   3.487
  460SOL     OW13410   1.360   0.862   2.907
  460SOL    HW113411   1.285   0.862   2.841
  460SOL    HW213412   1.397   0.770   2.916
  461SOL     OW13413   1.728   0.935   3.716
  461SOL    HW113414   1.682   0.928   3.627
  461SOL    HW213415   1.666   0.979   3.782
  462SOL     OW13416   0.307   0.063   2.480
  462SOL    HW113417   0.296   0.157   2.513
  462SOL    HW213418   0.302   0.000   2.557
  463SOL     OW13419   1.622   0.367   2.236
  463SOL    HW113420   1.624   0.291   2.300
  463SOL    HW213421   1.574   0.444   2.276
  464SOL     OW13422   1.023   0.766   2.828
  464SOL    HW113423   1.038   0.787   2.924
  464SOL    HW213424   0.993   0.671   2.819
  465SOL     OW13425   0.980   1.573   3.562
  465SOL    HW113426   0.960   1.617   3.474
  465SOL    HW213427   1.019   1.482   3.546
  466SOL     OW13428   1.859   1.518   3.467
  466SOL    HW113429   1.873   1.545   3.372
  466SOL    HW213430   1.942   1.540   3.520
  467SOL     OW13431   1.540   0.274   1.987
  467SOL    HW113432   1.479   0.199   2.010
  467SOL    HW213433   1.562   0.326   2.070
  468SOL     OW13434   0.339   0.509   2.868
  468SOL    HW113435   0.287   0.426   2.851
  468SOL    HW213436   0.416   0.514   2.804
  469SOL     OW13437   1.138   0.380   3.540
  469SOL    HW113438   1.093   0.443   3.604
  469SOL    HW213439   1.231   0.411   3.523
  470SOL     OW13440   0.504   1.568   2.772
  470SOL    HW113441   0.570   1.642   2.781
  470SOL    HW213442   0.548   1.489   2.730
  471SOL     OW13443   0.040   0.544   2.976
  471SOL    HW113444   0.125   0.511   2.935
  471SOL    HW213445   0.053   0.559   3.074
  472SOL     OW13446   1.369   0.950   3.522
  472SOL    HW113447   1.408   1.039   3.542
  472SOL    HW213448   1.379   0.930   3.425
  473SOL     OW13449   0.671   0.464   3.131
  473SOL    HW113450   0.637   0.375   3.101
  473SOL    HW213451   0.697   0.518   3.051
  474SOL     OW13452   0.930   1.678   3.327
  474SOL    HW113453   0.906   1.660   3.232
  474SOL    HW213454   0.960   1.772   3.337
  475SOL     OW13455   1.252   1.731   2.990
  475SOL    HW113456   1.336   1.736   2.936
  475SOL    HW213457   1.229   1.635   3.008
  476SOL     OW13458   0.688   1.662   3.578
  476SOL    HW113459   0.632   1.743   3.587
  476SOL    HW213460   0.740   1.666   3.492
  477SOL     OW13461   1.726   0.135   2.385
  477SOL    HW113462   1.799   0.118   2.318
  477SOL    HW213463   1.695   0.048   2.423
  478SOL     OW13464   0.130   1.794   3.713
  478SOL    HW113465   0.089   1.720   3.766
  478SOL    HW213466   0.194   1.845   3.771
  479SOL     OW13467   0.830   1.273   3.284
  479SOL    HW113468   0.825   1.306   3.379
  479SOL    HW213469   0.744   1.292   3.238
  480SOL     OW13470   1.650   1.720   3.256
  480SOL    HW113471   1.703   1.730   3.172
  480SOL    HW213472   1.623   1.810   3.290
  481SOL     OW13473   1.194   1.612   1.893
  481SOL    HW113474   1.200   1.519   1.930
  481SOL    HW213475   1.135   1.612   1.813
  482SOL     OW13476   0.822   1.002   3.234
  482SOL    HW113477   0.862   1.001   3.142
  482SOL    HW213478   0.832   1.094   3.274
  483SOL     OW13479   0.916   0.910   2.153
  483SOL    HW113480   0.979   0.948   2.085
  483SOL    HW213481   0.956   0.827   2.192
  484SOL     OW13482   1.504   1.607   1.906
  484SOL    HW113483   1.412   1.644   1.913
  484SOL    HW213484   1.542   1.627   1.816
  485SOL     OW13485   1.614   1.292   3.151
  485SOL    HW113486   1.674   1.295   3.231
  485SOL    HW213487   1.539   1.356   3.164
  486SOL     OW13488   1.709   0.385   3.243
  486SOL    HW113489   1.782   0.454   3.247
  486SOL    HW213490   1.737   0.310   3.184
  487SOL     OW13491   0.075   0.345   1.895
  487SOL    HW113492  -0.017   0.317   1.866
  487SOL    HW213493   0.106   0.422   1.839
  488SOL     OW13494   1.493   1.767   2.821
  488SOL    HW113495   1.526   1.831   2.752
  488SOL    HW213496   1.559   1.761   2.896
  489SOL     OW13497   0.716   0.565   3.570
  489SOL    HW113498   0.735   0.630   3.644
  489SOL    HW213499   0.776   0.485   3.579
  490SOL     OW13500   1.777   0.342   3.504
  490SOL    HW113501   1.760   0.373   3.410
  490SOL    HW213502   1.693   0.305   3.542
  491SOL     OW13503   0.859   1.374   1.878
  491SOL    HW113504   0.813   1.389   1.966
  491SOL    HW213505   0.903   1.459   1.848
  492SOL     OW13506   0.661   1.790   2.815
  492SOL    HW113507   0.615   1.878   2.802
  492SOL    HW213508   0.760   1.802   2.808
  493SOL     OW13509   0.672   1.391   3.486
  493SOL    HW113510   0.594   1.341   3.524
  493SOL    HW213511   0.669   1.486   3.517
  494SOL     OW13512   1.824   0.192   3.089
  494SOL    HW113513   1.820   0.102   3.133
  494SOL    HW213514   1.827   0.181   2.990
  495SOL     OW13515   0.428   0.424   2.382
  495SOL    HW113516   0.458   0.352   2.320
  495SOL    HW213517   0.389   0.384   2.465
  496SOL     OW13518   0.618   1.567   3.146
  496SOL    HW113519   0.613   1.649   3.203
  496SOL    HW213520   0.707   1.564   3.101
  497SOL     OW13521   1.352   0.052   2.030
  497SOL    HW113522   1.387   0.011   1.946
  497SOL    HW213523   1.262   0.014   2.050
  498SOL     OW13524   0.875   1.646   2.199
  498SOL    HW113525   0.798   1.611   2.145
  498SOL    HW213526   0.843   1.717   2.261
  499SOL     OW13527   0.225   0.275   4.720
  499SOL    HW113528   0.260   0.258   4.812
  499SOL    HW213529   0.137   0.230   4.708
  500SOL     OW13530   0.019   0.368   4.371
  500SOL    HW113531  -0.063   0.411   4.410
  500SOL    HW213532  -0.009   0.295   4.308
  501SOL     OW13533   0.569   1.275   4.889
  501SOL    HW113534   0.476   1.268   4.852
  501SOL    HW213535   0.580   1.364   4.933
  502SOL     OW13536   1.555   1.511   4.427
  502SOL    HW113537   1.498   1.495   4.508
  502SOL    HW213538   1.496   1.521   4.347
  503SOL     OW13539   1.135   0.703   4.441
  503SOL    HW113540   1.192   0.781   4.416
  503SOL    HW213541   1.075   0.729   4.517
  504SOL     OW13542   1.755   0.607   3.955
  504SOL    HW113543   1.743   0.594   3.856
  504SOL    HW213544   1.725   0.526   4.004
  505SOL     OW13545   0.768   1.144   4.747
  505SOL    HW113546   0.690   1.161   4.807
  505SOL    HW213547   0.802   1.231   4.711
  506SOL     OW13548   0.850   0.798   5.547
  506SOL    HW113549   0.846   0.874   5.612
  506SOL    HW213550   0.872   0.834   5.456
  507SOL     OW13551   0.686   1.161   5.527
  507SOL    HW113552   0.746   1.240   5.541
  507SOL    HW213553   0.600   1.192   5.486
  508SOL     OW13554   0.231   1.713   4.207
  508SOL    HW113555   0.265   1.790   4.261
  508SOL    HW213556   0.275   1.713   4.117
  509SOL     OW13557   0.620   1.786   5.163
  509SOL    HW113558   0.528   1.769   5.198
  509SOL    HW213559   0.648   1.878   5.189
  510SOL     OW13560   1.594   0.114   5.204
  510SOL    HW113561   1.576   0.181   5.132
  510SOL    HW213562   1.591   0.160   5.293
  511SOL     OW13563   1.842   1.767   4.083
  511SOL    HW113564   1.896   1.738   4.163
  511SOL    HW213565   1.872   1.857   4.054
  512SOL     OW13566   1.525   0.999   3.914
  512SOL    HW113567   1.462   0.923   3.927
  512SOL    HW213568   1.573   1.017   4.000
  513SOL     OW13569   0.317   0.251   5.525
  513SOL    HW113570   0.388   0.322   5.531
  513SOL    HW213571   0.229   0.290   5.553
  514SOL     OW13572   0.598   0.729   3.994
  514SOL    HW113573   0.622   0.798   3.926
  514SOL    HW213574   0.520   0.762   4.048
  515SOL     OW13575   1.281   0.345   4.668
  515SOL    HW113576   1.195   0.295   4.655
  515SOL    HW213577   1.343   0.291   4.724
  516SOL     OW13578   0.807   0.605   5.189
  516SOL    HW113579   0.760   0.602   5.278
  516SOL    HW213580   0.756   0.550   5.123
  517SOL     OW13581   1.394   0.469   5.398
  517SOL    HW113582   1.374   0.512   5.486
  517SOL    HW213583   1.472   0.407   5.407
  518SOL     OW13584   0.991   0.410   4.966
  518SOL    HW113585   0.914   0.444   5.020
  518SOL    HW213586   0.957   0.359   4.887
  519SOL     OW13587   1.719   0.585   5.555
  519SOL    HW113588   1.693   0.674   5.519
  519SOL    HW213589   1.717   0.517   5.482
  520SOL     OW13590   0.550   0.196   4.609
  520SOL    HW113591   0.545   0.191   4.709
  520SOL    HW213592   0.552   0.292   4.580
  521SOL     OW13593   0.351   1.801   4.577
  521SOL    HW113594   0.401   1.715   4.583
  521SOL    HW213595   0.416   1.878   4.574
  522SOL     OW13596   0.321   0.943   3.966
  522SOL    HW113597   0.403   0.982   3.924
  522SOL    HW213598   0.294   0.861   3.917
  523SOL     OW13599   1.458   0.735   4.452
  523SOL    HW113600   1.453   0.670   4.527
  523SOL    HW213601   1.538   0.794   4.465
  524SOL     OW13602   0.940   1.698   4.628
  524SOL    HW113603   1.020   1.641   4.649
  524SOL    HW213604   0.891   1.658   4.551
  525SOL     OW13605   0.382   0.700   4.204
  525SOL    HW113606   0.427   0.610   4.201
  525SOL    HW213607   0.288   0.689   4.237
  526SOL     OW13608   1.547   0.222   5.453
  526SOL    HW113609   1.542   0.259   5.545
  526SOL    HW213610   1.475   0.153   5.441
  527SOL     OW13611   0.781   0.264   5.473
  527SOL    HW113612   0.848   0.203   5.516
  527SOL    HW213613   0.708   0.283   5.538
  528SOL     OW13614   0.803   1.402   4.648
  528SOL    HW113615   0.893   1.416   4.606
  528SOL    HW213616   0.732   1.404   4.577
  529SOL     OW13617   0.297   0.035   3.895
  529SOL    HW113618   0.346   0.119   3.874
  529SOL    HW213619   0.359  -0.030   3.940
  530SOL     OW13620   1.271   1.797   4.315
  530SOL    HW113621   1.315   1.861   4.251
  530SOL    HW213622   1.221   1.849   4.385
  531SOL     OW13623   0.561   0.222   4.871
  531SOL    HW113624   0.599   0.138   4.908
  531SOL    HW213625   0.473   0.241   4.915
  532SOL     OW13626   1.466   0.590   4.716
  532SOL    HW113627   1.436   0.495   4.723
  532SOL    HW213628   1.539   0.606   4.782
  533SOL     OW13629   0.488   1.385   3.898
  533SOL    HW113630   0.401   1.370   3.945
  533SOL    HW213631   0.471   1.411   3.803
  534SOL     OW13632   1.664   1.280   4.381
  534SOL    HW113633   1.763   1.288   4.395
  534SOL    HW213634   1.619   1.364   4.412
  535SOL     OW13635   1.754   1.223   5.312
  535SOL    HW113636   1.845   1.184   5.299
  535SOL    HW213637   1.762   1.319   5.336
  536SOL     OW13638   0.915   0.089   5.126
  536SOL    HW113639   0.940   0.069   5.031
  536SOL    HW213640   0.987   0.145   5.168
  537SOL     OW13641   0.980   1.116   5.443
  537SOL    HW113642   0.881   1.122   5.453
  537SOL    HW213643   1.003   1.036   5.387
  538SOL     OW13644   1.274   0.386   4.986
  538SOL    HW113645   1.295   0.460   5.050
  538SOL    HW213646   1.185   0.403   4.943
  539SOL     OW13647   1.252   1.348   4.112
  539SOL    HW113648   1.302   1.425   4.152
  539SOL    HW213649   1.157   1.350   4.144
  540SOL     OW13650   1.013   0.105   5.494
  540SOL    HW113651   1.019   0.190   5.442
  540SOL    HW213652   1.045   0.029   5.437
  541SOL     OW13653   0.504   0.050   5.464
  541SOL    HW113654   0.462  -0.007   5.394
  541SOL    HW213655   0.438   0.119   5.496
  542SOL     OW13656   1.360   0.862   4.769
  542SOL    HW113657   1.285   0.862   4.703
  542SOL    HW213658   1.397   0.770   4.778
  543SOL     OW13659   1.728   0.935   5.578
  543SOL    HW113660   1.682   0.928   5.489
  543SOL    HW213661   1.666   0.979   5.644
  544SOL     OW13662   1.622   0.367   4.098
  544SOL    HW113663   1.624   0.291   4.162
  544SOL    HW213664   1.574   0.444   4.138
  545SOL     OW13665   0.350   0.898   5.528
  545SOL    HW113666   0.426   0.942   5.576
  545SOL    HW213667   0.385   0.851   5.446
  546SOL     OW13668   1.303   0.838   3.766
  546SOL    HW113669   1.337   0.745   3.781
  546SOL    HW213670   1.321   0.865   3.671
  547SOL     OW13671   0.339   0.509   4.730
  547SOL    HW113672   0.287   0.426   4.713
  547SOL    HW213673   0.416   0.514   4.666
  548SOL     OW13674   1.138   0.380   5.402
  548SOL    HW113675   1.093   0.443   5.466
  548SOL    HW213676   1.231   0.411   5.385
  549SOL     OW13677   1.160   0.207   5.201
  549SOL    HW113678   1.160   0.271   5.278
  549SOL    HW213679   1.188   0.255   5.118
  550SOL     OW13680   0.189   0.520   5.446
  550SOL    HW113681   0.248   0.480   5.376
  550SOL    HW213682   0.131   0.591   5.405
  551SOL     OW13683   1.302   0.855   4.033
  551SOL    HW113684   1.216   0.824   4.075
  551SOL    HW213685   1.298   0.841   3.934
  552SOL     OW13686   1.759   1.747   4.878
  552SOL    HW113687   1.820   1.777   4.805
  552SOL    HW213688   1.721   1.658   4.856
  553SOL     OW13689   0.688   1.662   5.440
  553SOL    HW113690   0.632   1.743   5.449
  553SOL    HW213691   0.740   1.666   5.354
  554SOL     OW13692   0.130   1.794   5.575
  554SOL    HW113693   0.089   1.720   5.628
  554SOL    HW213694   0.194   1.845   5.633
  555SOL     OW13695   1.280   0.927   4.396
  555SOL    HW113696   1.340   0.846   4.398
  555SOL    HW213697   1.320   0.996   4.336
  556SOL     OW13698   0.830   1.273   5.146
  556SOL    HW113699   0.825   1.306   5.241
  556SOL    HW213700   0.744   1.292   5.100
  557SOL     OW13701   0.672   1.616   3.878
  557SOL    HW113702   0.681   1.626   3.779
  557SOL    HW213703   0.632   1.527   3.899
  558SOL     OW13704   0.263   0.326   4.444
  558SOL    HW113705   0.184   0.377   4.410
  558SOL    HW213706   0.254   0.311   4.542
  559SOL     OW13707   0.105   1.013   5.450
  559SOL    HW113708   0.028   0.980   5.504
  559SOL    HW213709   0.190   0.983   5.492
  560SOL     OW13710   0.672   0.203   5.213
  560SOL    HW113711   0.762   0.187   5.173
  560SOL    HW213712   0.680   0.208   5.312
  561SOL     OW13713   1.183   1.335   3.843
  561SOL    HW113714   1.084   1.324   3.845
  561SOL    HW213715   1.217   1.350   3.936
  562SOL     OW13716   0.613   0.842   5.155
  562SOL    HW113717   0.669   0.923   5.138
  562SOL    HW213718   0.672   0.762   5.158
  563SOL     OW13719   0.716   0.565   5.432
  563SOL    HW113720   0.735   0.630   5.506
  563SOL    HW213721   0.776   0.485   5.441
  564SOL     OW13722   1.450   1.220   5.357
  564SOL    HW113723   1.441   1.210   5.456
  564SOL    HW213724   1.546   1.213   5.331
  565SOL     OW13725   1.674   0.883   4.978
  565SOL    HW113726   1.647   0.794   4.941
  565SOL    HW213727   1.675   0.951   4.905
  566SOL     OW13728   0.594   0.745   4.376
  566SOL    HW113729   0.644   0.830   4.357
  566SOL    HW213730   0.506   0.747   4.328
  567SOL     OW13731   1.777   0.342   5.366
  567SOL    HW113732   1.760   0.373   5.272
  567SOL    HW213733   1.693   0.305   5.404
  568SOL     OW13734   1.730   0.934   5.241
  568SOL    HW113735   1.768   1.025   5.256
  568SOL    HW213736   1.722   0.917   5.142
  569SOL     OW13737   1.083   0.984   3.811
  569SOL    HW113738   1.060   1.037   3.729
  569SOL    HW213739   1.164   0.928   3.792
  570SOL     OW13740   0.221   1.314   5.568
  570SOL    HW113741   0.156   1.241   5.547
  570SOL    HW213742   0.225   1.328   5.666
  571SOL     OW13743   0.079   1.240   4.377
  571SOL    HW113744   0.078   1.193   4.465
  571SOL    HW213745   0.161   1.212   4.326
  572SOL     OW13746   0.672   1.391   5.348
  572SOL    HW113747   0.594   1.341   5.386
  572SOL    HW213748   0.669   1.486   5.379
  573SOL     OW13749   1.705   1.487   4.828
  573SOL    HW113750   1.612   1.462   4.801
  573SOL    HW213751   1.731   1.437   4.910
  574SOL     OW13752   1.424   0.214   4.836
  574SOL    HW113753   1.476   0.149   4.891
  574SOL    HW213754   1.375   0.277   4.897
  575SOL     OW13755   0.618   1.567   5.008
  575SOL    HW113756   0.613   1.649   5.065
  575SOL    HW213757   0.707   1.564   4.963
  576SOL     OW13758   0.875   1.646   4.061
  576SOL    HW113759   0.798   1.611   4.007
  576SOL    HW213760   0.843   1.717   4.123
  577SOL     OW13761   0.230   0.628   5.699
  577SOL    HW113762   0.137   0.626   5.736
  577SOL    HW213763   0.231   0.589   5.607
  578SOL     OW13764   0.225   0.275   6.582
  578SOL    HW113765   0.260   0.258   6.674
  578SOL    HW213766   0.137   0.230   6.570
  579SOL     OW13767   0.019   0.368   6.233
  579SOL    HW113768  -0.063   0.411   6.272
  579SOL    HW213769  -0.009   0.295   6.170
  580SOL     OW13770   0.569   1.275   6.751
  580SOL    HW113771   0.476   1.268   6.714
  580SOL    HW213772   0.580   1.364   6.795
  581SOL     OW13773   1.555   1.511   6.289
  581SOL    HW113774   1.498   1.495   6.370
  581SOL    HW213775   1.496   1.521   6.209
  582SOL     OW13776   1.135   0.703   6.303
  582SOL    HW113777   1.192   0.781   6.278
  582SOL    HW213778   1.075   0.729   6.379
  583SOL     OW13779   1.755   0.607   5.817
  583SOL    HW113780   1.743   0.594   5.718
  583SOL    HW213781   1.725   0.526   5.866
  584SOL     OW13782   0.768   1.144   6.609
  584SOL    HW113783   0.690   1.161   6.669
  584SOL    HW213784   0.802   1.231   6.573
  585SOL     OW13785   0.685   1.012   6.251
  585SOL    HW113786   0.754   0.996   6.321
  585SOL    HW213787   0.612   1.069   6.289
  586SOL     OW13788   0.335   1.435   6.647
  586SOL    HW113789   0.257   1.404   6.594
  586SOL    HW213790   0.393   1.493   6.590
  587SOL     OW13791   1.603   0.447   6.323
  587SOL    HW113792   1.529   0.493   6.273
  587SOL    HW213793   1.654   0.515   6.376
  588SOL     OW13794   0.231   1.713   6.069
  588SOL    HW113795   0.265   1.790   6.123
  588SOL    HW213796   0.275   1.713   5.979
  589SOL     OW13797   0.230   1.434   6.124
  589SOL    HW113798   0.204   1.530   6.124
  589SOL    HW213799   0.159   1.380   6.169
  590SOL     OW13800   0.240   1.091   6.472
  590SOL    HW113801   0.254   1.007   6.524
  590SOL    HW213802   0.185   1.155   6.527
  591SOL     OW13803   0.620   1.786   7.025
  591SOL    HW113804   0.528   1.769   7.060
  591SOL    HW213805   0.648   1.878   7.051
  592SOL     OW13806   0.606   0.964   5.709
  592SOL    HW113807   0.613   1.048   5.655
  592SOL    HW213808   0.652   0.977   5.797
  593SOL     OW13809   0.122   0.643   6.149
  593SOL    HW113810   0.077   0.555   6.166
  593SOL    HW213811   0.121   0.697   6.233
  594SOL     OW13812   1.842   1.767   5.945
  594SOL    HW113813   1.896   1.738   6.025
  594SOL    HW213814   1.872   1.857   5.916
  595SOL     OW13815   0.027   1.596   5.703
  595SOL    HW113816   0.008   1.500   5.724
  595SOL    HW213817  -0.006   1.654   5.778
  596SOL     OW13818   1.689   0.922   6.198
  596SOL    HW113819   1.784   0.893   6.206
  596SOL    HW213820   1.681   0.987   6.123
  597SOL     OW13821   1.641   1.108   6.018
  597SOL    HW113822   1.727   1.110   5.966
  597SOL    HW213823   1.655   1.155   6.106
  598SOL     OW13824   0.613   1.365   6.312
  598SOL    HW113825   0.564   1.278   6.321
  598SOL    HW213826   0.590   1.408   6.225
  599SOL     OW13827   0.809   0.004   6.088
  599SOL    HW113828   0.849   0.095   6.079
  599SOL    HW213829   0.709   0.012   6.094
  600SOL     OW13830   0.197   0.976   6.850
  600SOL    HW113831   0.286   0.931   6.836
  600SOL    HW213832   0.124   0.911   6.831
  601SOL     OW13833   1.525   0.999   5.776
  601SOL    HW113834   1.462   0.923   5.789
  601SOL    HW213835   1.573   1.017   5.862
  602SOL     OW13836   1.466   1.417   6.539
  602SOL    HW113837   1.407   1.423   6.619
  602SOL    HW213838   1.451   1.329   6.493
  603SOL     OW13839   1.667   1.714   6.158
  603SOL    HW113840   1.626   1.691   6.070
  603SOL    HW213841   1.649   1.640   6.223
  604SOL     OW13842   0.598   0.729   5.856
  604SOL    HW113843   0.622   0.798   5.788
  604SOL    HW213844   0.520   0.762   5.910
  605SOL     OW13845   1.281   0.345   6.530
  605SOL    HW113846   1.195   0.295   6.517
  605SOL    HW213847   1.343   0.291   6.586
  606SOL     OW13848   1.576   1.662   5.893
  606SOL    HW113849   1.665   1.708   5.896
  606SOL    HW213850   1.555   1.638   5.798
  607SOL     OW13851   0.991   0.410   6.828
  607SOL    HW113852   0.914   0.444   6.882
  607SOL    HW213853   0.957   0.359   6.749
  608SOL     OW13854   1.041   0.701   6.015
  608SOL    HW113855   1.067   0.697   6.111
  608SOL    HW213856   0.956   0.650   6.001
  609SOL     OW13857   0.076   0.811   6.375
  609SOL    HW113858   0.175   0.799   6.384
  609SOL    HW213859   0.052   0.906   6.396
  610SOL     OW13860   0.130   1.821   7.157
  610SOL    HW113861   0.120   1.806   7.256
  610SOL    HW213862   0.044   1.857   7.121
  611SOL     OW13863   0.865   0.348   5.781
  611SOL    HW113864   0.924   0.411   5.732
  611SOL    HW213865   0.884   0.254   5.752
  612SOL     OW13866   1.362   1.144   6.131
  612SOL    HW113867   1.445   1.115   6.083
  612SOL    HW213868   1.313   1.211   6.075
  613SOL     OW13869   0.550   0.196   6.471
  613SOL    HW113870   0.545   0.191   6.571
  613SOL    HW213871   0.552   0.292   6.442
  614SOL     OW13872   1.008   1.456   6.063
  614SOL    HW113873   0.962   1.528   6.011
  614SOL    HW213874   1.004   1.476   6.161
  615SOL     OW13875   0.351   1.801   6.439
  615SOL    HW113876   0.401   1.715   6.445
  615SOL    HW213877   0.416   1.878   6.436
  616SOL     OW13878   1.795   1.066   6.459
  616SOL    HW113879   1.733   1.051   6.383
  616SOL    HW213880   1.743   1.077   6.544
  617SOL     OW13881   0.321   0.943   5.828
  617SOL    HW113882   0.403   0.982   5.786
  617SOL    HW213883   0.294   0.861   5.779
  618SOL     OW13884   1.458   0.735   6.314
  618SOL    HW113885   1.453   0.670   6.389
  618SOL    HW213886   1.538   0.794   6.327
  619SOL     OW13887   1.111   1.776   5.823
  619SOL    HW113888   1.051   1.714   5.873
  619SOL    HW213889   1.142   1.732   5.738
  620SOL     OW13890   1.632   1.377   5.667
  620SOL    HW113891   1.600   1.471   5.657
  620SOL    HW213892   1.556   1.314   5.655
  621SOL     OW13893   0.464   1.743   5.909
  621SOL    HW113894   0.497   1.782   5.995
  621SOL    HW213895   0.540   1.736   5.844
  622SOL     OW13896   1.400   0.107   6.012
  622SOL    HW113897   1.376   0.070   5.922
  622SOL    HW213898   1.499   0.123   6.016
  623SOL     OW13899   0.249   1.785   6.827
  623SOL    HW113900   0.306   1.720   6.877
  623SOL    HW213901   0.233   1.752   6.734
  624SOL     OW13902   0.940   1.698   6.490
  624SOL    HW113903   1.020   1.641   6.511
  624SOL    HW213904   0.891   1.658   6.413
  625SOL     OW13905   0.382   0.700   6.066
  625SOL    HW113906   0.427   0.610   6.063
  625SOL    HW213907   0.288   0.689   6.099
  626SOL     OW13908   0.614   0.122   5.703
  626SOL    HW113909   0.712   0.100   5.710
  626SOL    HW213910   0.583   0.105   5.610
  627SOL     OW13911   0.803   1.402   6.510
  627SOL    HW113912   0.893   1.416   6.468
  627SOL    HW213913   0.732   1.404   6.439
  628SOL     OW13914   0.922   0.503   6.485
  628SOL    HW113915   0.897   0.494   6.389
  628SOL    HW213916   0.970   0.421   6.516
  629SOL     OW13917   0.539   0.064   6.098
  629SOL    HW113918   0.458   0.065   6.156
  629SOL    HW213919   0.542   0.147   6.043
  630SOL     OW13920   1.434   1.188   5.627
  630SOL    HW113921   1.466   1.112   5.684
  630SOL    HW213922   1.342   1.215   5.657
  631SOL     OW13923   0.297   0.035   5.757
  631SOL    HW113924   0.346   0.119   5.736
  631SOL    HW213925   0.359  -0.030   5.802
  632SOL     OW13926   0.935   0.236   6.066
  632SOL    HW113927   0.887   0.277   5.988
  632SOL    HW213928   1.034   0.234   6.047
  633SOL     OW13929   1.227   1.570   6.379
  633SOL    HW113930   1.248   1.644   6.314
  633SOL    HW213931   1.295   1.570   6.452
  634SOL     OW13932   0.459   1.152   6.327
  634SOL    HW113933   0.388   1.125   6.392
  634SOL    HW213934   0.433   1.124   6.234
  635SOL     OW13935   1.271   1.797   6.177
  635SOL    HW113936   1.315   1.861   6.113
  635SOL    HW213937   1.221   1.849   6.247
  636SOL     OW13938   1.032   0.549   5.602
  636SOL    HW113939   0.991   0.631   5.563
  636SOL    HW213940   1.096   0.575   5.675
  637SOL     OW13941   0.561   0.222   6.733
  637SOL    HW113942   0.599   0.138   6.770
  637SOL    HW213943   0.473   0.241   6.777
  638SOL     OW13944   0.866   0.454   6.228
  638SOL    HW113945   0.834   0.526   6.166
  638SOL    HW213946   0.890   0.373   6.175
  639SOL     OW13947   1.017   0.039   6.339
  639SOL    HW113948   0.945   0.044   6.270
  639SOL    HW213949   0.993  -0.030   6.408
  640SOL     OW13950   1.429   1.173   6.453
  640SOL    HW113951   1.374   1.089   6.446
  640SOL    HW213952   1.455   1.202   6.361
  641SOL     OW13953   1.466   0.590   6.578
  641SOL    HW113954   1.436   0.495   6.585
  641SOL    HW213955   1.539   0.606   6.644
  642SOL     OW13956   1.857   0.833   5.963
  642SOL    HW113957   1.899   0.769   6.027
  642SOL    HW213958   1.819   0.782   5.885
  643SOL     OW13959   0.488   1.385   5.760
  643SOL    HW113960   0.401   1.370   5.807
  643SOL    HW213961   0.471   1.411   5.665
  644SOL     OW13962   1.664   1.280   6.243
  644SOL    HW113963   1.763   1.288   6.257
  644SOL    HW213964   1.619   1.364   6.274
  645SOL     OW13965   1.390   0.575   5.664
  645SOL    HW113966   1.336   0.554   5.745
  645SOL    HW213967   1.481   0.534   5.673
  646SOL     OW13968   0.527   0.256   5.914
  646SOL    HW113969   0.554   0.197   5.839
  646SOL    HW213970   0.527   0.351   5.883
  647SOL     OW13971   1.111   1.195   6.686
  647SOL    HW113972   1.071   1.239   6.767
  647SOL    HW213973   1.070   1.232   6.603
  648SOL     OW13974   1.638   1.099   6.665
  648SOL    HW113975   1.643   1.180   6.724
  648SOL    HW213976   1.552   1.101   6.614
  649SOL     OW13977   0.705   1.050   5.954
  649SOL    HW113978   0.691   1.057   6.053
  649SOL    HW213979   0.789   0.999   5.936
  650SOL     OW13980   0.410   0.813   6.837
  650SOL    HW113981   0.496   0.825   6.887
  650SOL    HW213982   0.368   0.726   6.864
  651SOL     OW13983   1.274   0.386   6.848
  651SOL    HW113984   1.295   0.460   6.912
  651SOL    HW213985   1.185   0.403   6.805
  652SOL     OW13986   0.367   1.100   6.087
  652SOL    HW113987   0.360   1.183   6.031
  652SOL    HW213988   0.371   1.020   6.027
  653SOL     OW13989   0.566   0.537   6.451
  653SOL    HW113990   0.578   0.603   6.377
  653SOL    HW213991   0.612   0.571   6.534
  654SOL     OW13992   1.252   1.348   5.974
  654SOL    HW113993   1.302   1.425   6.014
  654SOL    HW213994   1.157   1.350   6.006
  655SOL     OW13995   1.272   1.445   6.728
  655SOL    HW113996   1.319   1.458   6.815
  655SOL    HW213997   1.206   1.371   6.737
  656SOL     OW13998   1.582   0.639   6.058
  656SOL    HW113999   1.551   0.700   6.131
  656SOL    HW214000   1.632   0.691   5.989
  657SOL     OW14001   0.354   1.510   6.915
  657SOL    HW114002   0.333   1.466   6.828
  657SOL    HW214003   0.451   1.536   6.918
  658SOL     OW14004   0.573   0.870   6.615
  658SOL    HW114005   0.617   0.959   6.606
  658SOL    HW214006   0.510   0.870   6.692
  659SOL     OW14007   1.360   0.862   6.631
  659SOL    HW114008   1.285   0.862   6.565
  659SOL    HW214009   1.397   0.770   6.640
  660SOL     OW14010   1.209   0.525   5.861
  660SOL    HW114011   1.222   0.441   5.915
  660SOL    HW214012   1.180   0.599   5.921
  661SOL     OW14013   0.307   0.213   6.817
  661SOL    HW114014   0.284   0.250   6.907
  661SOL    HW214015   0.277   0.118   6.811
  662SOL     OW14016   0.037   1.310   6.868
  662SOL    HW114017   0.090   1.261   6.936
  662SOL    HW214018   0.059   1.408   6.873
  663SOL     OW14019   0.732   0.634   6.650
  663SOL    HW114020   0.791   0.608   6.574
  663SOL    HW214021   0.704   0.730   6.639
  664SOL     OW14022   0.307   0.063   6.204
  664SOL    HW114023   0.296   0.157   6.237
  664SOL    HW214024   0.302   0.000   6.281
  665SOL     OW14025   1.622   0.367   5.960
  665SOL    HW114026   1.624   0.291   6.024
  665SOL    HW214027   1.574   0.444   6.000
  666SOL     OW14028   1.023   0.766   6.552
  666SOL    HW114029   1.038   0.787   6.648
  666SOL    HW214030   0.993   0.671   6.543
  667SOL     OW14031   1.540   0.274   5.711
  667SOL    HW114032   1.479   0.199   5.734
  667SOL    HW214033   1.562   0.326   5.794
  668SOL     OW14034   1.303   0.838   5.628
  668SOL    HW114035   1.337   0.745   5.643
  668SOL    HW214036   1.321   0.865   5.533
  669SOL     OW14037   1.068   1.333   6.435
  669SOL    HW114038   1.075   1.249   6.380
  669SOL    HW214039   1.130   1.402   6.399
  670SOL     OW14040   0.319   0.810   6.535
  670SOL    HW114041   0.412   0.846   6.540
  670SOL    HW214042   0.313   0.725   6.587
  671SOL     OW14043   0.339   0.509   6.592
  671SOL    HW114044   0.287   0.426   6.575
  671SOL    HW214045   0.416   0.514   6.528
  672SOL     OW14046   1.160   0.207   7.063
  672SOL    HW114047   1.160   0.271   7.140
  672SOL    HW214048   1.188   0.255   6.980
  673SOL     OW14049   0.008   1.326   5.786
  673SOL    HW114050  -0.085   1.347   5.755
  673SOL    HW214051   0.018   1.227   5.799
  674SOL     OW14052   0.088   1.801   6.513
  674SOL    HW114053   0.046   1.715   6.486
  674SOL    HW214054   0.182   1.804   6.479
  675SOL     OW14055   0.504   1.568   6.496
  675SOL    HW114056   0.570   1.642   6.505
  675SOL    HW214057   0.548   1.489   6.454
  676SOL     OW14058   1.002   0.796   6.824
  676SOL    HW114059   1.043   0.764   6.910
  676SOL    HW214060   0.906   0.769   6.821
  677SOL     OW14061   0.040   0.544   6.700
  677SOL    HW114062   0.125   0.511   6.659
  677SOL    HW214063   0.053   0.559   6.798
  678SOL     OW14064   0.815   0.572   5.911
  678SOL    HW114065   0.822   0.483   5.865
  678SOL    HW214066   0.721   0.606   5.903
  679SOL     OW14067   1.657   0.604   6.792
  679SOL    HW114068   1.619   0.535   6.854
  679SOL    HW214069   1.739   0.568   6.748
  680SOL     OW14070   0.671   0.464   6.855
  680SOL    HW114071   0.637   0.375   6.825
  680SOL    HW214072   0.697   0.518   6.775
  681SOL     OW14073   0.930   1.678   7.051
  681SOL    HW114074   0.906   1.660   6.956
  681SOL    HW214075   0.960   1.772   7.061
  682SOL     OW14076   0.473   0.500   5.777
  682SOL    HW114077   0.534   0.580   5.781
  682SOL    HW214078   0.378   0.531   5.784
  683SOL     OW14079   1.347   1.059   6.820
  683SOL    HW114080   1.371   0.996   6.746
  683SOL    HW214081   1.257   1.099   6.802
  684SOL     OW14082   1.302   0.855   5.895
  684SOL    HW114083   1.216   0.824   5.937
  684SOL    HW214084   1.298   0.841   5.796
  685SOL     OW14085   1.759   1.747   6.740
  685SOL    HW114086   1.820   1.777   6.667
  685SOL    HW214087   1.721   1.658   6.718
  686SOL     OW14088   1.252   1.731   6.714
  686SOL    HW114089   1.336   1.736   6.660
  686SOL    HW214090   1.229   1.635   6.732
  687SOL     OW14091   0.083   1.258   6.608
  687SOL    HW114092   0.078   1.257   6.708
  687SOL    HW214093   0.000   1.217   6.570
  688SOL     OW14094   1.726   0.135   6.109
  688SOL    HW114095   1.799   0.118   6.042
  688SOL    HW214096   1.695   0.048   6.147
  689SOL     OW14097   1.388   1.573   6.063
  689SOL    HW114098   1.455   1.585   5.989
  689SOL    HW214099   1.348   1.662   6.086
  690SOL     OW14100   1.280   0.927   6.258
  690SOL    HW114101   1.340   0.846   6.260
  690SOL    HW214102   1.320   0.996   6.198
  691SOL     OW14103   0.672   1.616   5.740
  691SOL    HW114104   0.681   1.626   5.641
  691SOL    HW214105   0.632   1.527   5.761
  692SOL     OW14106   1.650   1.720   6.980
  692SOL    HW114107   1.703   1.730   6.896
  692SOL    HW214108   1.623   1.810   7.014
  693SOL     OW14109   1.841   0.175   6.549
  693SOL    HW114110   1.880   0.090   6.513
  693SOL    HW214111   1.743   0.177   6.530
  694SOL     OW14112   0.263   0.326   6.306
  694SOL    HW114113   0.184   0.377   6.272
  694SOL    HW214114   0.254   0.311   6.404
  695SOL     OW14115   1.194   1.612   5.617
  695SOL    HW114116   1.200   1.519   5.654
  695SOL    HW214117   1.135   1.612   5.537
  696SOL     OW14118   0.822   1.002   6.958
  696SOL    HW114119   0.862   1.001   6.866
  696SOL    HW214120   0.832   1.094   6.998
  697SOL     OW14121   0.916   0.910   5.877
  697SOL    HW114122   0.979   0.948   5.809
  697SOL    HW214123   0.956   0.827   5.916
  698SOL     OW14124   1.504   1.607   5.630
  698SOL    HW114125   1.412   1.644   5.637
  698SOL    HW214126   1.542   1.627   5.540
  699SOL     OW14127   1.039   1.098   6.282
  699SOL    HW114128   0.969   1.051   6.336
  699SOL    HW214129   1.098   1.030   6.239
  700SOL     OW14130   1.014   0.236   6.557
  700SOL    HW114131   1.006   0.200   6.464
  700SOL    HW214132   1.012   0.160   6.622
  701SOL     OW14133   0.590   1.487   6.077
  701SOL    HW114134   0.632   1.429   6.007
  701SOL    HW214135   0.546   1.566   6.033
  702SOL     OW14136   1.709   0.385   6.967
  702SOL    HW114137   1.782   0.454   6.971
  702SOL    HW214138   1.737   0.310   6.908
  703SOL     OW14139   0.255   1.348   5.876
  703SOL    HW114140   0.159   1.349   5.849
  703SOL    HW214141   0.267   1.401   5.960
  704SOL     OW14142   0.075   0.345   5.619
  704SOL    HW114143  -0.017   0.317   5.590
  704SOL    HW214144   0.106   0.422   5.563
  705SOL     OW14145   0.072   0.166   5.904
  705SOL    HW114146   0.055   0.249   5.850
  705SOL    HW214147   0.162   0.129   5.882
  706SOL     OW14148   1.183   1.335   5.705
  706SOL    HW114149   1.084   1.324   5.707
  706SOL    HW214150   1.217   1.350   5.798
  707SOL     OW14151   1.493   1.767   6.545
  707SOL    HW114152   1.526   1.831   6.476
  707SOL    HW214153   1.559   1.761   6.620
  708SOL     OW14154   1.450   1.220   7.219
  708SOL    HW114155   1.441   1.210   7.318
  708SOL    HW214156   1.546   1.213   7.193
  709SOL     OW14157   1.674   0.883   6.840
  709SOL    HW114158   1.647   0.794   6.803
  709SOL    HW214159   1.675   0.951   6.767
  710SOL     OW14160   1.225   0.325   6.035
  710SOL    HW114161   1.290   0.251   6.024
  710SOL    HW214162   1.245   0.375   6.119
  711SOL     OW14163   0.594   0.745   6.238
  711SOL    HW114164   0.644   0.830   6.219
  711SOL    HW214165   0.506   0.747   6.190
  712SOL     OW14166   1.730   0.934   7.103
  712SOL    HW114167   1.768   1.025   7.118
  712SOL    HW214168   1.722   0.917   7.004
  713SOL     OW14169   0.859   1.374   5.602
  713SOL    HW114170   0.813   1.389   5.690
  713SOL    HW214171   0.903   1.459   5.572
  714SOL     OW14172   0.661   1.790   6.539
  714SOL    HW114173   0.615   1.878   6.526
  714SOL    HW214174   0.760   1.802   6.532
  715SOL     OW14175   0.859   0.956   6.447
  715SOL    HW114176   0.913   0.887   6.495
  715SOL    HW214177   0.827   1.025   6.513
  716SOL     OW14178   1.083   0.984   5.673
  716SOL    HW114179   1.060   1.037   5.591
  716SOL    HW214180   1.164   0.928   5.654
  717SOL     OW14181   1.861   1.569   6.437
  717SOL    HW114182   1.790   1.557   6.367
  717SOL    HW214183   1.862   1.490   6.497
  718SOL     OW14184   0.079   1.240   6.239
  718SOL    HW114185   0.078   1.193   6.327
  718SOL    HW214186   0.161   1.212   6.188
  719SOL     OW14187   1.824   0.192   6.813
  719SOL    HW114188   1.820   0.102   6.857
  719SOL    HW214189   1.827   0.181   6.714
  720SOL     OW14190   0.428   0.424   6.106
  720SOL    HW114191   0.458   0.352   6.044
  720SOL    HW214192   0.389   0.384   6.189
  721SOL     OW14193   1.705   1.487   6.690
  721SOL    HW114194   1.612   1.462   6.663
  721SOL    HW214195   1.731   1.437   6.772
  722SOL     OW14196   0.812   1.586   6.273
  722SOL    HW114197   0.844   1.596   6.179
  722SOL    HW214198   0.733   1.524   6.275
  723SOL     OW14199   1.424   0.214   6.698
  723SOL    HW114200   1.476   0.149   6.753
  723SOL    HW214201   1.375   0.277   6.759
  724SOL     OW14202   1.001   0.034   6.740
  724SOL    HW114203   0.938  -0.038   6.709
  724SOL    HW214204   1.094  -0.002   6.740
  725SOL     OW14205   0.770   1.330   5.887
  725SOL    HW114206   0.724   1.243   5.904
  725SOL    HW214207   0.861   1.327   5.928
  726SOL     OW14208   1.352   0.052   5.754
  726SOL    HW114209   1.387   0.011   5.670
  726SOL    HW214210   1.262   0.014   5.774
  727SOL     OW14211   1.300   0.453   6.277
  727SOL    HW114212   1.241   0.533   6.281
  727SOL    HW214213   1.315   0.418   6.370
  728SOL     OW14214   1.593   0.221   6.468
  728SOL    HW114215   1.509   0.220   6.522
  728SOL    HW214216   1.595   0.304   6.412
  729SOL     OW14217   0.039   1.077   5.886
  729SOL    HW114218   0.138   1.066   5.877
  729SOL    HW214219  -0.001   0.991   5.918
  730SOL     OW14220   0.875   1.646   5.923
  730SOL    HW114221   0.798   1.611   5.869
  730SOL    HW214222   0.843   1.717   5.985
  731SOL     OW14223   0.230   2.490   0.113
  731SOL    HW114224   0.137   2.488   0.150
  731SOL    HW214225   0.231   2.451   0.021
  732SOL     OW14226   0.225   2.137   0.996
  732SOL    HW114227   0.260   2.120   1.088
  732SOL    HW214228   0.137   2.092   0.984
  733SOL     OW14229   0.019   2.230   0.647
  733SOL    HW114230  -0.063   2.273   0.686
  733SOL    HW214231  -0.009   2.157   0.584
  734SOL     OW14232   0.569   3.137   1.165
  734SOL    HW114233   0.476   3.130   1.128
  734SOL    HW214234   0.580   3.226   1.209
  735SOL     OW14235   1.555   3.373   0.703
  735SOL    HW114236   1.498   3.357   0.784
  735SOL    HW214237   1.496   3.383   0.623
  736SOL     OW14238   1.135   2.565   0.717
  736SOL    HW114239   1.192   2.643   0.692
  736SOL    HW214240   1.075   2.591   0.793
  737SOL     OW14241   1.755   2.469   0.231
  737SOL    HW114242   1.743   2.456   0.132
  737SOL    HW214243   1.725   2.388   0.280
  738SOL     OW14244   0.768   3.006   1.023
  738SOL    HW114245   0.690   3.023   1.083
  738SOL    HW214246   0.802   3.093   0.987
  739SOL     OW14247   0.685   2.874   0.665
  739SOL    HW114248   0.754   2.858   0.735
  739SOL    HW214249   0.612   2.931   0.703
  740SOL     OW14250   0.335   3.297   1.061
  740SOL    HW114251   0.257   3.266   1.008
  740SOL    HW214252   0.393   3.355   1.004
  741SOL     OW14253   1.460   3.367   1.339
  741SOL    HW114254   1.484   3.461   1.365
  741SOL    HW214255   1.444   3.313   1.421
  742SOL     OW14256   0.438   2.254   1.499
  742SOL    HW114257   0.520   2.198   1.508
  742SOL    HW214258   0.357   2.196   1.503
  743SOL     OW14259   1.603   2.309   0.737
  743SOL    HW114260   1.529   2.355   0.687
  743SOL    HW214261   1.654   2.377   0.790
  744SOL     OW14262   0.231   3.575   0.483
  744SOL    HW114263   0.265   3.652   0.537
  744SOL    HW214264   0.275   3.575   0.393
  745SOL     OW14265   0.230   3.296   0.538
  745SOL    HW114266   0.204   3.392   0.538
  745SOL    HW214267   0.159   3.242   0.583
  746SOL     OW14268   0.240   2.953   0.886
  746SOL    HW114269   0.254   2.869   0.938
  746SOL    HW214270   0.185   3.017   0.941
  747SOL     OW14271   0.606   2.826   0.123
  747SOL    HW114272   0.613   2.910   0.069
  747SOL    HW214273   0.652   2.839   0.211
  748SOL     OW14274   0.122   2.505   0.563
  748SOL    HW114275   0.077   2.417   0.580
  748SOL    HW214276   0.121   2.559   0.647
  749SOL     OW14277   1.842   3.629   0.359
  749SOL    HW114278   1.896   3.600   0.439
  749SOL    HW214279   1.872   3.719   0.330
  750SOL     OW14280   0.027   3.458   0.117
  750SOL    HW114281   0.008   3.362   0.138
  750SOL    HW214282  -0.006   3.516   0.192
  751SOL     OW14283   1.689   2.784   0.612
  751SOL    HW114284   1.784   2.755   0.620
  751SOL    HW214285   1.681   2.849   0.537
  752SOL     OW14286   1.641   2.970   0.432
  752SOL    HW114287   1.727   2.972   0.380
  752SOL    HW214288   1.655   3.017   0.520
  753SOL     OW14289   0.613   3.227   0.726
  753SOL    HW114290   0.564   3.140   0.735
  753SOL    HW214291   0.590   3.270   0.639
  754SOL     OW14292   0.809   1.866   0.502
  754SOL    HW114293   0.849   1.957   0.493
  754SOL    HW214294   0.709   1.874   0.508
  755SOL     OW14295   1.525   2.861   0.190
  755SOL    HW114296   1.462   2.785   0.203
  755SOL    HW214297   1.573   2.879   0.276
  756SOL     OW14298   1.667   3.576   0.572
  756SOL    HW114299   1.626   3.553   0.484
  756SOL    HW214300   1.649   3.502   0.637
  757SOL     OW14301   0.598   2.591   0.270
  757SOL    HW114302   0.622   2.660   0.202
  757SOL    HW214303   0.520   2.624   0.324
  758SOL     OW14304   1.281   2.207   0.944
  758SOL    HW114305   1.195   2.157   0.931
  758SOL    HW214306   1.343   2.153   1.000
  759SOL     OW14307   1.576   3.524   0.307
  759SOL    HW114308   1.665   3.570   0.310
  759SOL    HW214309   1.555   3.500   0.212
  760SOL     OW14310   0.807   2.467   1.465
  760SOL    HW114311   0.760   2.464   1.554
  760SOL    HW214312   0.756   2.412   1.399
  761SOL     OW14313   0.973   2.752   1.572
  761SOL    HW114314   1.019   2.668   1.543
  761SOL    HW214315   0.917   2.786   1.497
  762SOL     OW14316   1.041   2.563   0.429
  762SOL    HW114317   1.067   2.559   0.525
  762SOL    HW214318   0.956   2.512   0.415
  763SOL     OW14319   0.076   2.673   0.789
  763SOL    HW114320   0.175   2.661   0.798
  763SOL    HW214321   0.052   2.768   0.810
  764SOL     OW14322   0.130   3.683   1.571
  764SOL    HW114323   0.120   3.668   1.670
  764SOL    HW214324   0.044   3.719   1.535
  765SOL     OW14325   0.865   2.210   0.195
  765SOL    HW114326   0.924   2.273   0.146
  765SOL    HW214327   0.884   2.116   0.166
  766SOL     OW14328   1.719   2.447   1.831
  766SOL    HW114329   1.693   2.536   1.795
  766SOL    HW214330   1.717   2.379   1.758
  767SOL     OW14331   1.362   3.006   0.545
  767SOL    HW114332   1.445   2.977   0.497
  767SOL    HW214333   1.313   3.073   0.489
  768SOL     OW14334   0.550   2.058   0.885
  768SOL    HW114335   0.545   2.053   0.985
  768SOL    HW214336   0.552   2.154   0.856
  769SOL     OW14337   1.008   3.318   0.477
  769SOL    HW114338   0.962   3.390   0.425
  769SOL    HW214339   1.004   3.338   0.575
  770SOL     OW14340   0.351   3.663   0.853
  770SOL    HW114341   0.401   3.577   0.859
  770SOL    HW214342   0.416   3.740   0.850
  771SOL     OW14343   1.795   2.928   0.873
  771SOL    HW114344   1.733   2.913   0.797
  771SOL    HW214345   1.743   2.939   0.958
  772SOL     OW14346   0.321   2.805   0.242
  772SOL    HW114347   0.403   2.844   0.200
  772SOL    HW214348   0.294   2.723   0.193
  773SOL     OW14349   1.458   2.597   0.728
  773SOL    HW114350   1.453   2.532   0.803
  773SOL    HW214351   1.538   2.656   0.741
  774SOL     OW14352   1.111   3.638   0.237
  774SOL    HW114353   1.051   3.576   0.287
  774SOL    HW214354   1.142   3.594   0.152
  775SOL     OW14355   1.632   3.239   0.081
  775SOL    HW114356   1.600   3.333   0.071
  775SOL    HW214357   1.556   3.176   0.069
  776SOL     OW14358   0.464   3.605   0.323
  776SOL    HW114359   0.497   3.644   0.409
  776SOL    HW214360   0.540   3.598   0.258
  777SOL     OW14361   1.400   1.969   0.426
  777SOL    HW114362   1.376   1.932   0.336
  777SOL    HW214363   1.499   1.985   0.430
  778SOL     OW14364   0.940   3.560   0.904
  778SOL    HW114365   1.020   3.503   0.925
  778SOL    HW214366   0.891   3.520   0.827
  779SOL     OW14367   0.382   2.562   0.480
  779SOL    HW114368   0.427   2.472   0.477
  779SOL    HW214369   0.288   2.551   0.513
  780SOL     OW14370   0.803   3.264   0.924
  780SOL    HW114371   0.893   3.278   0.882
  780SOL    HW214372   0.732   3.266   0.853
  781SOL     OW14373   0.922   2.365   0.899
  781SOL    HW114374   0.897   2.356   0.803
  781SOL    HW214375   0.970   2.283   0.930
  782SOL     OW14376   0.539   1.926   0.512
  782SOL    HW114377   0.458   1.927   0.570
  782SOL    HW214378   0.542   2.009   0.457
  783SOL     OW14379   1.434   3.050   0.041
  783SOL    HW114380   1.466   2.974   0.098
  783SOL    HW214381   1.342   3.077   0.071
  784SOL     OW14382   0.297   1.897   0.171
  784SOL    HW114383   0.346   1.981   0.150
  784SOL    HW214384   0.359   1.832   0.216
  785SOL     OW14385   0.935   2.098   0.480
  785SOL    HW114386   0.887   2.139   0.402
  785SOL    HW214387   1.034   2.096   0.461
  786SOL     OW14388   1.076   2.545   1.464
  786SOL    HW114389   0.996   2.484   1.467
  786SOL    HW214390   1.157   2.492   1.440
  787SOL     OW14391   0.459   3.014   0.741
  787SOL    HW114392   0.388   2.987   0.806
  787SOL    HW214393   0.433   2.986   0.648
  788SOL     OW14394   1.271   3.659   0.591
  788SOL    HW114395   1.315   3.723   0.527
  788SOL    HW214396   1.221   3.711   0.661
  789SOL     OW14397   1.032   2.411   0.016
  789SOL    HW114398   0.991   2.493  -0.023
  789SOL    HW214399   1.096   2.437   0.089
  790SOL     OW14400   0.561   2.084   1.147
  790SOL    HW114401   0.599   2.000   1.184
  790SOL    HW214402   0.473   2.103   1.191
  791SOL     OW14403   0.866   2.316   0.642
  791SOL    HW114404   0.834   2.388   0.580
  791SOL    HW214405   0.890   2.235   0.589
  792SOL     OW14406   1.017   1.901   0.753
  792SOL    HW114407   0.945   1.906   0.684
  792SOL    HW214408   0.993   1.832   0.822
  793SOL     OW14409   1.429   3.035   0.867
  793SOL    HW114410   1.374   2.951   0.860
  793SOL    HW214411   1.455   3.064   0.775
  794SOL     OW14412   1.466   2.452   0.992
  794SOL    HW114413   1.436   2.357   0.999
  794SOL    HW214414   1.539   2.468   1.058
  795SOL     OW14415   1.857   2.695   0.377
  795SOL    HW114416   1.899   2.631   0.441
  795SOL    HW214417   1.819   2.644   0.299
  796SOL     OW14418   0.488   3.247   0.174
  796SOL    HW114419   0.401   3.232   0.221
  796SOL    HW214420   0.471   3.273   0.079
  797SOL     OW14421   1.664   3.142   0.657
  797SOL    HW114422   1.763   3.150   0.671
  797SOL    HW214423   1.619   3.226   0.688
  798SOL     OW14424   1.390   2.437   0.078
  798SOL    HW114425   1.336   2.416   0.159
  798SOL    HW214426   1.481   2.396   0.087
  799SOL     OW14427   0.527   2.118   0.328
  799SOL    HW114428   0.554   2.059   0.253
  799SOL    HW214429   0.527   2.213   0.297
  800SOL     OW14430   1.111   3.057   1.100
  800SOL    HW114431   1.071   3.101   1.181
  800SOL    HW214432   1.070   3.094   1.017
  801SOL     OW14433   0.705   2.912   0.368
  801SOL    HW114434   0.691   2.919   0.467
  801SOL    HW214435   0.789   2.861   0.350
  802SOL     OW14436   0.367   2.962   0.501
  802SOL    HW114437   0.360   3.045   0.445
  802SOL    HW214438   0.371   2.882   0.441
  803SOL     OW14439   0.566   2.399   0.865
  803SOL    HW114440   0.578   2.465   0.791
  803SOL    HW214441   0.612   2.433   0.948
  804SOL     OW14442   1.252   3.210   0.388
  804SOL    HW114443   1.302   3.287   0.428
  804SOL    HW214444   1.157   3.212   0.420
  805SOL     OW14445   1.272   3.307   1.142
  805SOL    HW114446   1.319   3.320   1.229
  805SOL    HW214447   1.206   3.233   1.151
  806SOL     OW14448   1.582   2.501   0.472
  806SOL    HW114449   1.551   2.562   0.545
  806SOL    HW214450   1.632   2.553   0.403
  807SOL     OW14451   1.013   1.967   1.770
  807SOL    HW114452   1.019   2.052   1.718
  807SOL    HW214453   1.045   1.891   1.713
  808SOL     OW14454   1.360   2.724   1.045
  808SOL    HW114455   1.285   2.724   0.979
  808SOL    HW214456   1.397   2.632   1.054
  809SOL     OW14457   1.209   2.387   0.275
  809SOL    HW114458   1.222   2.303   0.329
  809SOL    HW214459   1.180   2.461   0.335
  810SOL     OW14460   0.307   2.075   1.231
  810SOL    HW114461   0.284   2.112   1.321
  810SOL    HW214462   0.277   1.980   1.225
  811SOL     OW14463   0.732   2.496   1.064
  811SOL    HW114464   0.791   2.470   0.988
  811SOL    HW214465   0.704   2.592   1.053
  812SOL     OW14466   0.307   1.925   0.618
  812SOL    HW114467   0.296   2.019   0.651
  812SOL    HW214468   0.302   1.862   0.695
  813SOL     OW14469   1.622   2.229   0.374
  813SOL    HW114470   1.624   2.153   0.438
  813SOL    HW214471   1.574   2.306   0.414
  814SOL     OW14472   1.023   2.628   0.966
  814SOL    HW114473   1.038   2.649   1.062
  814SOL    HW214474   0.993   2.533   0.957
  815SOL     OW14475   0.350   2.760   1.804
  815SOL    HW114476   0.426   2.804   1.852
  815SOL    HW214477   0.385   2.713   1.722
  816SOL     OW14478   1.540   2.136   0.125
  816SOL    HW114479   1.479   2.061   0.148
  816SOL    HW214480   1.562   2.188   0.208
  817SOL     OW14481   1.303   2.700   0.042
  817SOL    HW114482   1.337   2.607   0.057
  817SOL    HW214483   1.321   2.727  -0.053
  818SOL     OW14484   1.068   3.195   0.849
  818SOL    HW114485   1.075   3.111   0.794
  818SOL    HW214486   1.130   3.264   0.813
  819SOL     OW14487   0.319   2.672   0.949
  819SOL    HW114488   0.412   2.708   0.954
  819SOL    HW214489   0.313   2.587   1.001
  820SOL     OW14490   0.339   2.371   1.006
  820SOL    HW114491   0.287   2.288   0.989
  820SOL    HW214492   0.416   2.376   0.942
  821SOL     OW14493   0.008   3.188   0.200
  821SOL    HW114494  -0.085   3.209   0.169
  821SOL    HW214495   0.018   3.089   0.213
  822SOL     OW14496   0.088   3.663   0.927
  822SOL    HW114497   0.046   3.577   0.900
  822SOL    HW214498   0.182   3.666   0.893
  823SOL     OW14499   0.504   3.430   0.910
  823SOL    HW114500   0.570   3.504   0.919
  823SOL    HW214501   0.548   3.351   0.868
  824SOL     OW14502   1.002   2.658   1.238
  824SOL    HW114503   1.043   2.626   1.324
  824SOL    HW214504   0.906   2.631   1.235
  825SOL     OW14505   0.040   2.406   1.114
  825SOL    HW114506   0.125   2.373   1.073
  825SOL    HW214507   0.053   2.421   1.212
  826SOL     OW14508   0.815   2.434   0.325
  826SOL    HW114509   0.822   2.345   0.279
  826SOL    HW214510   0.721   2.468   0.317
  827SOL     OW14511   1.657   2.466   1.206
  827SOL    HW114512   1.619   2.397   1.268
  827SOL    HW214513   1.739   2.430   1.162
  828SOL     OW14514   0.671   2.326   1.269
  828SOL    HW114515   0.637   2.237   1.239
  828SOL    HW214516   0.697   2.380   1.189
  829SOL     OW14517   0.473   2.362   0.191
  829SOL    HW114518   0.534   2.442   0.195
  829SOL    HW214519   0.378   2.393   0.198
  830SOL     OW14520   1.347   2.921   1.234
  830SOL    HW114521   1.371   2.858   1.160
  830SOL    HW214522   1.257   2.961   1.216
  831SOL     OW14523   1.302   2.717   0.309
  831SOL    HW114524   1.216   2.686   0.351
  831SOL    HW214525   1.298   2.703   0.210
  832SOL     OW14526   1.759   3.609   1.154
  832SOL    HW114527   1.820   3.639   1.081
  832SOL    HW214528   1.721   3.520   1.132
  833SOL     OW14529   0.083   3.120   1.022
  833SOL    HW114530   0.078   3.119   1.122
  833SOL    HW214531   0.000   3.079   0.984
  834SOL     OW14532   0.903   1.948   0.133
  834SOL    HW114533   0.954   1.949   0.047
  834SOL    HW214534   0.959   1.906   0.204
  835SOL     OW14535   1.726   1.997   0.523
  835SOL    HW114536   1.799   1.980   0.456
  835SOL    HW214537   1.695   1.910   0.561
  836SOL     OW14538   1.388   3.435   0.477
  836SOL    HW114539   1.455   3.447   0.403
  836SOL    HW214540   1.348   3.524   0.500
  837SOL     OW14541   1.280   2.789   0.672
  837SOL    HW114542   1.340   2.708   0.674
  837SOL    HW214543   1.320   2.858   0.612
  838SOL     OW14544   0.830   3.135   1.422
  838SOL    HW114545   0.825   3.168   1.517
  838SOL    HW214546   0.744   3.154   1.376
  839SOL     OW14547   0.672   3.478   0.154
  839SOL    HW114548   0.681   3.488   0.055
  839SOL    HW214549   0.632   3.389   0.175
  840SOL     OW14550   1.841   2.037   0.963
  840SOL    HW114551   1.880   1.952   0.927
  840SOL    HW214552   1.743   2.039   0.944
  841SOL     OW14553   0.263   2.188   0.720
  841SOL    HW114554   0.184   2.239   0.686
  841SOL    HW214555   0.254   2.173   0.818
  842SOL     OW14556   1.194   3.474   0.031
  842SOL    HW114557   1.200   3.381   0.068
  842SOL    HW214558   1.135   3.474  -0.049
  843SOL     OW14559   0.822   2.864   1.372
  843SOL    HW114560   0.862   2.863   1.280
  843SOL    HW214561   0.832   2.956   1.412
  844SOL     OW14562   0.916   2.772   0.291
  844SOL    HW114563   0.979   2.810   0.223
  844SOL    HW214564   0.956   2.689   0.330
  845SOL     OW14565   1.504   3.469   0.044
  845SOL    HW114566   1.412   3.506   0.051
  845SOL    HW214567   1.542   3.489  -0.046
  846SOL     OW14568   1.039   2.960   0.696
  846SOL    HW114569   0.969   2.913   0.750
  846SOL    HW214570   1.098   2.892   0.653
  847SOL     OW14571   1.014   2.098   0.971
  847SOL    HW114572   1.006   2.062   0.878
  847SOL    HW214573   1.012   2.022   1.036
  848SOL     OW14574   0.590   3.349   0.491
  848SOL    HW114575   0.632   3.291   0.421
  848SOL    HW214576   0.546   3.428   0.447
  849SOL     OW14577   1.709   2.247   1.381
  849SOL    HW114578   1.782   2.316   1.385
  849SOL    HW214579   1.737   2.172   1.322
  850SOL     OW14580   0.255   3.210   0.290
  850SOL    HW114581   0.159   3.211   0.263
  850SOL    HW214582   0.267   3.263   0.374
  851SOL     OW14583   0.075   2.207   0.033
  851SOL    HW114584  -0.017   2.179   0.004
  851SOL    HW214585   0.106   2.284  -0.023
  852SOL     OW14586   0.072   2.028   0.318
  852SOL    HW114587   0.055   2.111   0.264
  852SOL    HW214588   0.162   1.991   0.296
  853SOL     OW14589   1.183   3.197   0.119
  853SOL    HW114590   1.084   3.186   0.121
  853SOL    HW214591   1.217   3.212   0.212
  854SOL     OW14592   1.674   2.745   1.254
  854SOL    HW114593   1.647   2.656   1.217
  854SOL    HW214594   1.675   2.813   1.181
  855SOL     OW14595   1.225   2.187   0.449
  855SOL    HW114596   1.290   2.113   0.438
  855SOL    HW214597   1.245   2.237   0.533
  856SOL     OW14598   0.594   2.607   0.652
  856SOL    HW114599   0.644   2.692   0.633
  856SOL    HW214600   0.506   2.609   0.604
  857SOL     OW14601   0.859   3.236   0.016
  857SOL    HW114602   0.813   3.251   0.104
  857SOL    HW214603   0.903   3.321  -0.014
  858SOL     OW14604   0.661   3.652   0.953
  858SOL    HW114605   0.615   3.740   0.940
  858SOL    HW214606   0.760   3.664   0.946
  859SOL     OW14607   0.859   2.818   0.861
  859SOL    HW114608   0.913   2.749   0.909
  859SOL    HW214609   0.827   2.887   0.927
  860SOL     OW14610   1.083   2.846   0.087
  860SOL    HW114611   1.060   2.899   0.005
  860SOL    HW214612   1.164   2.790   0.068
  861SOL     OW14613   1.861   3.431   0.851
  861SOL    HW114614   1.790   3.419   0.781
  861SOL    HW214615   1.862   3.352   0.911
  862SOL     OW14616   0.079   3.102   0.653
  862SOL    HW114617   0.078   3.055   0.741
  862SOL    HW214618   0.161   3.074   0.602
  863SOL     OW14619   1.824   2.054   1.227
  863SOL    HW114620   1.820   1.964   1.271
  863SOL    HW214621   1.827   2.043   1.128
  864SOL     OW14622   0.428   2.286   0.520
  864SOL    HW114623   0.458   2.214   0.458
  864SOL    HW214624   0.389   2.246   0.603
  865SOL     OW14625   0.812   3.448   0.687
  865SOL    HW114626   0.844   3.458   0.593
  865SOL    HW214627   0.733   3.386   0.689
  866SOL     OW14628   1.424   2.076   1.112
  866SOL    HW114629   1.476   2.011   1.167
  866SOL    HW214630   1.375   2.139   1.173
  867SOL     OW14631   0.770   3.192   0.301
  867SOL    HW114632   0.724   3.105   0.318
  867SOL    HW214633   0.861   3.189   0.342
  868SOL     OW14634   1.352   1.914   0.168
  868SOL    HW114635   1.387   1.873   0.084
  868SOL    HW214636   1.262   1.876   0.188
  869SOL     OW14637   1.300   2.315   0.691
  869SOL    HW114638   1.241   2.395   0.695
  869SOL    HW214639   1.315   2.280   0.784
  870SOL     OW14640   1.593   2.083   0.882
  870SOL    HW114641   1.509   2.082   0.936
  870SOL    HW214642   1.595   2.166   0.826
  871SOL     OW14643   0.039   2.939   0.300
  871SOL    HW114644   0.138   2.928   0.291
  871SOL    HW214645  -0.001   2.853   0.332
  872SOL     OW14646   0.875   3.508   0.337
  872SOL    HW114647   0.798   3.473   0.283
  872SOL    HW214648   0.843   3.579   0.399
  873SOL     OW14649   0.230   2.490   1.975
  873SOL    HW114650   0.137   2.488   2.012
  873SOL    HW214651   0.231   2.451   1.883
  874SOL     OW14652   0.685   2.874   2.527
  874SOL    HW114653   0.754   2.858   2.597
  874SOL    HW214654   0.612   2.931   2.565
  875SOL     OW14655   0.335   3.297   2.923
  875SOL    HW114656   0.257   3.266   2.870
  875SOL    HW214657   0.393   3.355   2.866
  876SOL     OW14658   0.231   3.575   2.345
  876SOL    HW114659   0.265   3.652   2.399
  876SOL    HW214660   0.275   3.575   2.255
  877SOL     OW14661   1.127   3.203   3.552
  877SOL    HW114662   1.174   3.203   3.640
  877SOL    HW214663   1.079   3.116   3.541
  878SOL     OW14664   0.230   3.296   2.400
  878SOL    HW114665   0.204   3.392   2.400
  878SOL    HW214666   0.159   3.242   2.445
  879SOL     OW14667   1.641   2.970   2.294
  879SOL    HW114668   1.727   2.972   2.242
  879SOL    HW214669   1.655   3.017   2.382
  880SOL     OW14670   1.525   2.861   2.052
  880SOL    HW114671   1.462   2.785   2.065
  880SOL    HW214672   1.573   2.879   2.138
  881SOL     OW14673   1.576   3.524   2.169
  881SOL    HW114674   1.665   3.570   2.172
  881SOL    HW214675   1.555   3.500   2.074
  882SOL     OW14676   0.991   2.272   3.104
  882SOL    HW114677   0.914   2.306   3.158
  882SOL    HW214678   0.957   2.221   3.025
  883SOL     OW14679   0.550   2.058   2.747
  883SOL    HW114680   0.545   2.053   2.847
  883SOL    HW214681   0.552   2.154   2.718
  884SOL     OW14682   0.351   3.663   2.715
  884SOL    HW114683   0.401   3.577   2.721
  884SOL    HW214684   0.416   3.740   2.712
  885SOL     OW14685   0.461   3.128   3.589
  885SOL    HW114686   0.411   3.129   3.503
  885SOL    HW214687   0.398   3.110   3.665
  886SOL     OW14688   1.111   3.638   2.099
  886SOL    HW114689   1.051   3.576   2.149
  886SOL    HW214690   1.142   3.594   2.014
  887SOL     OW14691   0.249   3.647   3.103
  887SOL    HW114692   0.306   3.582   3.153
  887SOL    HW214693   0.233   3.614   3.010
  888SOL     OW14694   0.781   2.126   3.611
  888SOL    HW114695   0.848   2.065   3.654
  888SOL    HW214696   0.708   2.145   3.676
  889SOL     OW14697   0.888   3.376   3.057
  889SOL    HW114698   0.865   3.351   2.963
  889SOL    HW214699   0.949   3.307   3.096
  890SOL     OW14700   0.922   2.365   2.761
  890SOL    HW114701   0.897   2.356   2.665
  890SOL    HW214702   0.970   2.283   2.792
  891SOL     OW14703   1.076   2.545   3.326
  891SOL    HW114704   0.996   2.484   3.329
  891SOL    HW214705   1.157   2.492   3.302
  892SOL     OW14706   1.227   3.432   2.655
  892SOL    HW114707   1.248   3.506   2.590
  892SOL    HW214708   1.295   3.432   2.728
  893SOL     OW14709   1.032   2.411   1.878
  893SOL    HW114710   0.991   2.493   1.839
  893SOL    HW214711   1.096   2.437   1.951
  894SOL     OW14712   0.866   2.316   2.504
  894SOL    HW114713   0.834   2.388   2.442
  894SOL    HW214714   0.890   2.235   2.451
  895SOL     OW14715   1.429   3.035   2.729
  895SOL    HW114716   1.374   2.951   2.722
  895SOL    HW214717   1.455   3.064   2.637
  896SOL     OW14718   1.638   2.961   2.941
  896SOL    HW114719   1.643   3.042   3.000
  896SOL    HW214720   1.552   2.963   2.890
  897SOL     OW14721   0.915   1.951   3.264
  897SOL    HW114722   0.940   1.931   3.169
  897SOL    HW214723   0.987   2.007   3.306
  898SOL     OW14724   0.410   2.675   3.113
  898SOL    HW114725   0.496   2.687   3.163
  898SOL    HW214726   0.368   2.588   3.140
  899SOL     OW14727   0.064   3.426   3.193
  899SOL    HW114728   0.018   3.508   3.159
  899SOL    HW214729   0.162   3.445   3.202
  900SOL     OW14730   0.402   2.613   3.460
  900SOL    HW114731   0.470   2.668   3.413
  900SOL    HW214732   0.442   2.525   3.487
  901SOL     OW14733   1.587   2.641   3.532
  901SOL    HW114734   1.495   2.679   3.527
  901SOL    HW214735   1.647   2.688   3.467
  902SOL     OW14736   1.013   1.967   3.632
  902SOL    HW114737   1.019   2.052   3.580
  902SOL    HW214738   1.045   1.891   3.575
  903SOL     OW14739   0.504   1.912   3.602
  903SOL    HW114740   0.462   1.855   3.532
  903SOL    HW214741   0.438   1.981   3.634
  904SOL     OW14742   0.573   2.732   2.891
  904SOL    HW114743   0.617   2.821   2.882
  904SOL    HW214744   0.510   2.732   2.968
  905SOL     OW14745   0.037   3.172   3.144
  905SOL    HW114746   0.090   3.123   3.212
  905SOL    HW214747   0.059   3.270   3.149
  906SOL     OW14748   1.728   2.797   3.716
  906SOL    HW114749   1.682   2.790   3.627
  906SOL    HW214750   1.666   2.841   3.782
  907SOL     OW14751   0.980   3.435   3.562
  907SOL    HW114752   0.960   3.479   3.474
  907SOL    HW214753   1.019   3.344   3.546
  908SOL     OW14754   1.859   3.380   3.467
  908SOL    HW114755   1.873   3.407   3.372
  908SOL    HW214756   1.942   3.402   3.520
  909SOL     OW14757   0.319   2.672   2.811
  909SOL    HW114758   0.412   2.708   2.816
  909SOL    HW214759   0.313   2.587   2.863
  910SOL     OW14760   0.088   3.663   2.789
  910SOL    HW114761   0.046   3.577   2.762
  910SOL    HW214762   0.182   3.666   2.755
  911SOL     OW14763   0.504   3.430   2.772
  911SOL    HW114764   0.570   3.504   2.781
  911SOL    HW214765   0.548   3.351   2.730
  912SOL     OW14766   1.002   2.658   3.100
  912SOL    HW114767   1.043   2.626   3.186
  912SOL    HW214768   0.906   2.631   3.097
  913SOL     OW14769   0.040   2.406   2.976
  913SOL    HW114770   0.125   2.373   2.935
  913SOL    HW214771   0.053   2.421   3.074
  914SOL     OW14772   1.657   2.466   3.068
  914SOL    HW114773   1.619   2.397   3.130
  914SOL    HW214774   1.739   2.430   3.024
  915SOL     OW14775   0.473   2.362   2.053
  915SOL    HW114776   0.534   2.442   2.057
  915SOL    HW214777   0.378   2.393   2.060
  916SOL     OW14778   1.347   2.921   3.096
  916SOL    HW114779   1.371   2.858   3.022
  916SOL    HW214780   1.257   2.961   3.078
  917SOL     OW14781   0.083   3.120   2.884
  917SOL    HW114782   0.078   3.119   2.984
  917SOL    HW214783   0.000   3.079   2.846
  918SOL     OW14784   1.388   3.435   2.339
  918SOL    HW114785   1.455   3.447   2.265
  918SOL    HW214786   1.348   3.524   2.362
  919SOL     OW14787   1.280   2.789   2.534
  919SOL    HW114788   1.340   2.708   2.536
  919SOL    HW214789   1.320   2.858   2.474
  920SOL     OW14790   0.916   2.772   2.153
  920SOL    HW114791   0.979   2.810   2.085
  920SOL    HW214792   0.956   2.689   2.192
  921SOL     OW14793   1.614   3.154   3.151
  921SOL    HW114794   1.674   3.157   3.231
  921SOL    HW214795   1.539   3.218   3.164
  922SOL     OW14796   1.014   2.098   2.833
  922SOL    HW114797   1.006   2.062   2.740
  922SOL    HW214798   1.012   2.022   2.898
  923SOL     OW14799   0.255   3.210   2.152
  923SOL    HW114800   0.159   3.211   2.125
  923SOL    HW214801   0.267   3.263   2.236
  924SOL     OW14802   0.105   2.875   3.588
  924SOL    HW114803   0.028   2.842   3.642
  924SOL    HW214804   0.190   2.845   3.630
  925SOL     OW14805   0.672   2.065   3.351
  925SOL    HW114806   0.762   2.049   3.311
  925SOL    HW214807   0.680   2.070   3.450
  926SOL     OW14808   0.613   2.704   3.293
  926SOL    HW114809   0.669   2.785   3.276
  926SOL    HW214810   0.672   2.624   3.296
  927SOL     OW14811   0.716   2.427   3.570
  927SOL    HW114812   0.735   2.492   3.644
  927SOL    HW214813   0.776   2.347   3.579
  928SOL     OW14814   0.594   2.607   2.514
  928SOL    HW114815   0.644   2.692   2.495
  928SOL    HW214816   0.506   2.609   2.466
  929SOL     OW14817   0.661   3.652   2.815
  929SOL    HW114818   0.615   3.740   2.802
  929SOL    HW214819   0.760   3.664   2.808
  930SOL     OW14820   0.859   2.818   2.723
  930SOL    HW114821   0.913   2.749   2.771
  930SOL    HW214822   0.827   2.887   2.789
  931SOL     OW14823   0.221   3.176   3.706
  931SOL    HW114824   0.156   3.103   3.685
  931SOL    HW214825   0.225   3.190   3.804
  932SOL     OW14826   0.672   3.253   3.486
  932SOL    HW114827   0.594   3.203   3.524
  932SOL    HW214828   0.669   3.348   3.517
  933SOL     OW14829   0.317   2.409   3.142
  933SOL    HW114830   0.355   2.350   3.214
  933SOL    HW214831   0.357   2.383   3.054
  934SOL     OW14832   1.001   1.896   3.016
  934SOL    HW114833   0.938   1.824   2.985
  934SOL    HW214834   1.094   1.860   3.016
  935SOL     OW14835   0.618   3.429   3.146
  935SOL    HW114836   0.613   3.511   3.203
  935SOL    HW214837   0.707   3.426   3.101
  936SOL     OW14838   0.039   2.939   2.162
  936SOL    HW114839   0.138   2.928   2.153
  936SOL    HW214840  -0.001   2.853   2.194
  937SOL     OW14841   0.230   2.490   3.837
  937SOL    HW114842   0.137   2.488   3.874
  937SOL    HW214843   0.231   2.451   3.745
  938SOL     OW14844   1.135   2.565   4.441
  938SOL    HW114845   1.192   2.643   4.416
  938SOL    HW214846   1.075   2.591   4.517
  939SOL     OW14847   0.686   3.023   5.527
  939SOL    HW114848   0.746   3.102   5.541
  939SOL    HW214849   0.600   3.054   5.486
  940SOL     OW14850   1.127   3.203   5.414
  940SOL    HW114851   1.174   3.203   5.502
  940SOL    HW214852   1.079   3.116   5.403
  941SOL     OW14853   0.606   2.826   3.847
  941SOL    HW114854   0.613   2.910   3.793
  941SOL    HW214855   0.652   2.839   3.935
  942SOL     OW14856   1.594   1.976   5.204
  942SOL    HW114857   1.576   2.043   5.132
  942SOL    HW214858   1.591   2.022   5.293
  943SOL     OW14859   1.842   3.629   4.083
  943SOL    HW114860   1.896   3.600   4.163
  943SOL    HW214861   1.872   3.719   4.054
  944SOL     OW14862   0.027   3.458   3.841
  944SOL    HW114863   0.008   3.362   3.862
  944SOL    HW214864  -0.006   3.516   3.916
  945SOL     OW14865   1.641   2.970   4.156
  945SOL    HW114866   1.727   2.972   4.104
  945SOL    HW214867   1.655   3.017   4.244
  946SOL     OW14868   1.525   2.861   3.914
  946SOL    HW114869   1.462   2.785   3.927
  946SOL    HW214870   1.573   2.879   4.000
  947SOL     OW14871   1.187   3.654   5.340
  947SOL    HW114872   1.211   3.714   5.264
  947SOL    HW214873   1.194   3.559   5.310
  948SOL     OW14874   0.598   2.591   3.994
  948SOL    HW114875   0.622   2.660   3.926
  948SOL    HW214876   0.520   2.624   4.048
  949SOL     OW14877   1.041   2.563   4.153
  949SOL    HW114878   1.067   2.559   4.249
  949SOL    HW214879   0.956   2.512   4.139
  950SOL     OW14880   0.076   2.673   4.513
  950SOL    HW114881   0.175   2.661   4.522
  950SOL    HW214882   0.052   2.768   4.534
  951SOL     OW14883   1.719   2.447   5.555
  951SOL    HW114884   1.693   2.536   5.519
  951SOL    HW214885   1.717   2.379   5.482
  952SOL     OW14886   0.461   3.128   5.451
  952SOL    HW114887   0.411   3.129   5.365
  952SOL    HW214888   0.398   3.110   5.527
  953SOL     OW14889   0.202   2.147   5.222
  953SOL    HW114890   0.122   2.207   5.209
  953SOL    HW214891   0.192   2.098   5.308
  954SOL     OW14892   0.464   3.605   4.047
  954SOL    HW114893   0.497   3.644   4.133
  954SOL    HW214894   0.540   3.598   3.982
  955SOL     OW14895   0.888   3.376   4.919
  955SOL    HW114896   0.865   3.351   4.825
  955SOL    HW214897   0.949   3.307   4.958
  956SOL     OW14898   1.351   2.452   5.157
  956SOL    HW114899   1.379   2.409   5.242
  956SOL    HW214900   1.376   2.548   5.158
  957SOL     OW14901   1.227   3.432   4.517
  957SOL    HW114902   1.248   3.506   4.452
  957SOL    HW214903   1.295   3.432   4.590
  958SOL     OW14904   0.866   2.316   4.366
  958SOL    HW114905   0.834   2.388   4.304
  958SOL    HW214906   0.890   2.235   4.313
  959SOL     OW14907   1.664   3.142   4.381
  959SOL    HW114908   1.763   3.150   4.395
  959SOL    HW214909   1.619   3.226   4.412
  960SOL     OW14910   1.390   2.437   3.802
  960SOL    HW114911   1.336   2.416   3.883
  960SOL    HW214912   1.481   2.396   3.811
  961SOL     OW14913   0.527   2.118   4.052
  961SOL    HW114914   0.554   2.059   3.977
  961SOL    HW214915   0.527   2.213   4.021
  962SOL     OW14916   1.638   2.961   4.803
  962SOL    HW114917   1.643   3.042   4.862
  962SOL    HW214918   1.552   2.963   4.752
  963SOL     OW14919   0.915   1.951   5.126
  963SOL    HW114920   0.940   1.931   5.031
  963SOL    HW214921   0.987   2.007   5.168
  964SOL     OW14922   0.980   2.978   5.443
  964SOL    HW114923   0.881   2.984   5.453
  964SOL    HW214924   1.003   2.898   5.387
  965SOL     OW14925   0.566   2.399   4.589
  965SOL    HW114926   0.578   2.465   4.515
  965SOL    HW214927   0.612   2.433   4.672
  966SOL     OW14928   1.582   2.501   4.196
  966SOL    HW114929   1.551   2.562   4.269
  966SOL    HW214930   1.632   2.553   4.127
  967SOL     OW14931   1.587   2.641   5.394
  967SOL    HW114932   1.495   2.679   5.389
  967SOL    HW214933   1.647   2.688   5.329
  968SOL     OW14934   0.504   1.912   5.464
  968SOL    HW114935   0.462   1.855   5.394
  968SOL    HW214936   0.438   1.981   5.496
  969SOL     OW14937   0.573   2.732   4.753
  969SOL    HW114938   0.617   2.821   4.744
  969SOL    HW214939   0.510   2.732   4.830
  970SOL     OW14940   1.360   2.724   4.769
  970SOL    HW114941   1.285   2.724   4.703
  970SOL    HW214942   1.397   2.632   4.778
  971SOL     OW14943   1.728   2.797   5.578
  971SOL    HW114944   1.682   2.790   5.489
  971SOL    HW214945   1.666   2.841   5.644
  972SOL     OW14946   0.307   1.925   4.342
  972SOL    HW114947   0.296   2.019   4.375
  972SOL    HW214948   0.302   1.862   4.419
  973SOL     OW14949   1.859   3.380   5.329
  973SOL    HW114950   1.873   3.407   5.234
  973SOL    HW214951   1.942   3.402   5.382
  974SOL     OW14952   1.303   2.700   3.766
  974SOL    HW114953   1.337   2.607   3.781
  974SOL    HW214954   1.321   2.727   3.671
  975SOL     OW14955   1.068   3.195   4.573
  975SOL    HW114956   1.075   3.111   4.518
  975SOL    HW214957   1.130   3.264   4.537
  976SOL     OW14958   1.160   2.069   5.201
  976SOL    HW114959   1.160   2.133   5.278
  976SOL    HW214960   1.188   2.117   5.118
  977SOL     OW14961   0.088   3.663   4.651
  977SOL    HW114962   0.046   3.577   4.624
  977SOL    HW214963   0.182   3.666   4.617
  978SOL     OW14964   0.189   2.382   5.446
  978SOL    HW114965   0.248   2.342   5.376
  978SOL    HW214966   0.131   2.453   5.405
  979SOL     OW14967   1.369   2.812   5.384
  979SOL    HW114968   1.408   2.901   5.404
  979SOL    HW214969   1.379   2.792   5.287
  980SOL     OW14970   0.815   2.434   4.049
  980SOL    HW114971   0.822   2.345   4.003
  980SOL    HW214972   0.721   2.468   4.041
  981SOL     OW14973   0.252   3.426   5.468
  981SOL    HW114974   0.222   3.483   5.544
  981SOL    HW214975   0.245   3.329   5.494
  982SOL     OW14976   0.930   3.540   5.189
  982SOL    HW114977   0.906   3.522   5.094
  982SOL    HW214978   0.960   3.634   5.199
  983SOL     OW14979   1.302   2.717   4.033
  983SOL    HW114980   1.216   2.686   4.075
  983SOL    HW214981   1.298   2.703   3.934
  984SOL     OW14982   0.083   3.120   4.746
  984SOL    HW114983   0.078   3.119   4.846
  984SOL    HW214984   0.000   3.079   4.708
  985SOL     OW14985   0.688   3.524   5.440
  985SOL    HW114986   0.632   3.605   5.449
  985SOL    HW214987   0.740   3.528   5.354
  986SOL     OW14988   1.726   1.997   4.247
  986SOL    HW114989   1.799   1.980   4.180
  986SOL    HW214990   1.695   1.910   4.285
  987SOL     OW14991   1.280   2.789   4.396
  987SOL    HW114992   1.340   2.708   4.398
  987SOL    HW214993   1.320   2.858   4.336
  988SOL     OW14994   0.830   3.135   5.146
  988SOL    HW114995   0.825   3.168   5.241
  988SOL    HW214996   0.744   3.154   5.100
  989SOL     OW14997   0.672   3.478   3.878
  989SOL    HW114998   0.681   3.488   3.779
  989SOL    HW214999   0.632   3.389   3.899
  990SOL     OW15000   0.263   2.188   4.444
  990SOL    HW115001   0.184   2.239   4.410
  990SOL    HW215002   0.254   2.173   4.542
  991SOL     OW15003   1.039   2.960   4.420
  991SOL    HW115004   0.969   2.913   4.474
  991SOL    HW215005   1.098   2.892   4.377
  992SOL     OW15006   0.105   2.875   5.450
  992SOL    HW115007   0.028   2.842   5.504
  992SOL    HW215008   0.190   2.845   5.492
  993SOL     OW15009   0.672   2.065   5.213
  993SOL    HW115010   0.762   2.049   5.173
  993SOL    HW215011   0.680   2.070   5.312
  994SOL     OW15012   0.075   2.207   3.757
  994SOL    HW115013  -0.017   2.179   3.728
  994SOL    HW215014   0.106   2.284   3.701
  995SOL     OW15015   0.072   2.028   4.042
  995SOL    HW115016   0.055   2.111   3.988
  995SOL    HW215017   0.162   1.991   4.020
  996SOL     OW15018   1.183   3.197   3.843
  996SOL    HW115019   1.084   3.186   3.845
  996SOL    HW215020   1.217   3.212   3.936
  997SOL     OW15021   1.450   3.082   5.357
  997SOL    HW115022   1.441   3.072   5.456
  997SOL    HW215023   1.546   3.075   5.331
  998SOL     OW15024   1.674   2.745   4.978
  998SOL    HW115025   1.647   2.656   4.941
  998SOL    HW215026   1.675   2.813   4.905
  999SOL     OW15027   1.730   2.796   5.241
  999SOL    HW115028   1.768   2.887   5.256
  999SOL    HW215029   1.722   2.779   5.142
 1000SOL     OW15030   0.672   3.253   5.348
 1000SOL    HW115031   0.594   3.203   5.386
 1000SOL    HW215032   0.669   3.348   5.379
 1001SOL     OW15033   0.618   3.429   5.008
 1001SOL    HW115034   0.613   3.511   5.065
 1001SOL    HW215035   0.707   3.426   4.963
 1002SOL     OW15036   1.300   2.315   4.415
 1002SOL    HW115037   1.241   2.395   4.419
 1002SOL    HW215038   1.315   2.280   4.508
 1003SOL     OW15039   1.593   2.083   4.606
 1003SOL    HW115040   1.509   2.082   4.660
 1003SOL    HW215041   1.595   2.166   4.550
 1004SOL     OW15042   0.875   3.508   4.061
 1004SOL    HW115043   0.798   3.473   4.007
 1004SOL    HW215044   0.843   3.579   4.123
 1005SOL     OW15045   0.230   2.490   5.699
 1005SOL    HW115046   0.137   2.488   5.736
 1005SOL    HW215047   0.231   2.451   5.607
 1006SOL     OW15048   0.225   2.137   6.582
 1006SOL    HW115049   0.260   2.120   6.674
 1006SOL    HW215050   0.137   2.092   6.570
 1007SOL     OW15051   0.019   2.230   6.233
 1007SOL    HW115052  -0.063   2.273   6.272
 1007SOL    HW215053  -0.009   2.157   6.170
 1008SOL     OW15054   0.569   3.137   6.751
 1008SOL    HW115055   0.476   3.130   6.714
 1008SOL    HW215056   0.580   3.226   6.795
 1009SOL     OW15057   1.555   3.373   6.289
 1009SOL    HW115058   1.498   3.357   6.370
 1009SOL    HW215059   1.496   3.383   6.209
 1010SOL     OW15060   1.135   2.565   6.303
 1010SOL    HW115061   1.192   2.643   6.278
 1010SOL    HW215062   1.075   2.591   6.379
 1011SOL     OW15063   1.755   2.469   5.817
 1011SOL    HW115064   1.743   2.456   5.718
 1011SOL    HW215065   1.725   2.388   5.866
 1012SOL     OW15066   0.768   3.006   6.609
 1012SOL    HW115067   0.690   3.023   6.669
 1012SOL    HW215068   0.802   3.093   6.573
 1013SOL     OW15069   0.685   2.874   6.251
 1013SOL    HW115070   0.754   2.858   6.321
 1013SOL    HW215071   0.612   2.931   6.289
 1014SOL     OW15072   0.335   3.297   6.647
 1014SOL    HW115073   0.257   3.266   6.594
 1014SOL    HW215074   0.393   3.355   6.590
 1015SOL     OW15075   1.603   2.309   6.323
 1015SOL    HW115076   1.529   2.355   6.273
 1015SOL    HW215077   1.654   2.377   6.376
 1016SOL     OW15078   0.231   3.575   6.069
 1016SOL    HW115079   0.265   3.652   6.123
 1016SOL    HW215080   0.275   3.575   5.979
 1017SOL     OW15081   0.230   3.296   6.124
 1017SOL    HW115082   0.204   3.392   6.124
 1017SOL    HW215083   0.159   3.242   6.169
 1018SOL     OW15084   0.240   2.953   6.472
 1018SOL    HW115085   0.254   2.869   6.524
 1018SOL    HW215086   0.185   3.017   6.527
 1019SOL     OW15087   0.620   3.648   7.025
 1019SOL    HW115088   0.528   3.631   7.060
 1019SOL    HW215089   0.648   3.740   7.051
 1020SOL     OW15090   0.122   2.505   6.149
 1020SOL    HW115091   0.077   2.417   6.166
 1020SOL    HW215092   0.121   2.559   6.233
 1021SOL     OW15093   1.842   3.629   5.945
 1021SOL    HW115094   1.896   3.600   6.025
 1021SOL    HW215095   1.872   3.719   5.916
 1022SOL     OW15096   1.689   2.784   6.198
 1022SOL    HW115097   1.784   2.755   6.206
 1022SOL    HW215098   1.681   2.849   6.123
 1023SOL     OW15099   1.641   2.970   6.018
 1023SOL    HW115100   1.727   2.972   5.966
 1023SOL    HW215101   1.655   3.017   6.106
 1024SOL     OW15102   0.613   3.227   6.312
 1024SOL    HW115103   0.564   3.140   6.321
 1024SOL    HW215104   0.590   3.270   6.225
 1025SOL     OW15105   0.809   1.866   6.088
 1025SOL    HW115106   0.849   1.957   6.079
 1025SOL    HW215107   0.709   1.874   6.094
 1026SOL     OW15108   0.197   2.838   6.850
 1026SOL    HW115109   0.286   2.793   6.836
 1026SOL    HW215110   0.124   2.773   6.831
 1027SOL     OW15111   1.525   2.861   5.776
 1027SOL    HW115112   1.462   2.785   5.789
 1027SOL    HW215113   1.573   2.879   5.862
 1028SOL     OW15114   1.466   3.279   6.539
 1028SOL    HW115115   1.407   3.285   6.619
 1028SOL    HW215116   1.451   3.191   6.493
 1029SOL     OW15117   1.667   3.576   6.158
 1029SOL    HW115118   1.626   3.553   6.070
 1029SOL    HW215119   1.649   3.502   6.223
 1030SOL     OW15120   1.281   2.207   6.530
 1030SOL    HW115121   1.195   2.157   6.517
 1030SOL    HW215122   1.343   2.153   6.586
 1031SOL     OW15123   1.576   3.524   5.893
 1031SOL    HW115124   1.665   3.570   5.896
 1031SOL    HW215125   1.555   3.500   5.798
 1032SOL     OW15126   0.991   2.272   6.828
 1032SOL    HW115127   0.914   2.306   6.882
 1032SOL    HW215128   0.957   2.221   6.749
 1033SOL     OW15129   1.041   2.563   6.015
 1033SOL    HW115130   1.067   2.559   6.111
 1033SOL    HW215131   0.956   2.512   6.001
 1034SOL     OW15132   0.076   2.673   6.375
 1034SOL    HW115133   0.175   2.661   6.384
 1034SOL    HW215134   0.052   2.768   6.396
 1035SOL     OW15135   0.130   3.683   7.157
 1035SOL    HW115136   0.120   3.668   7.256
 1035SOL    HW215137   0.044   3.719   7.121
 1036SOL     OW15138   1.362   3.006   6.131
 1036SOL    HW115139   1.445   2.977   6.083
 1036SOL    HW215140   1.313   3.073   6.075
 1037SOL     OW15141   0.550   2.058   6.471
 1037SOL    HW115142   0.545   2.053   6.571
 1037SOL    HW215143   0.552   2.154   6.442
 1038SOL     OW15144   1.008   3.318   6.063
 1038SOL    HW115145   0.962   3.390   6.011
 1038SOL    HW215146   1.004   3.338   6.161
 1039SOL     OW15147   0.351   3.663   6.439
 1039SOL    HW115148   0.401   3.577   6.445
 1039SOL    HW215149   0.416   3.740   6.436
 1040SOL     OW15150   1.795   2.928   6.459
 1040SOL    HW115151   1.733   2.913   6.383
 1040SOL    HW215152   1.743   2.939   6.544
 1041SOL     OW15153   0.321   2.805   5.828
 1041SOL    HW115154   0.403   2.844   5.786
 1041SOL    HW215155   0.294   2.723   5.779
 1042SOL     OW15156   1.458   2.597   6.314
 1042SOL    HW115157   1.453   2.532   6.389
 1042SOL    HW215158   1.538   2.656   6.327
 1043SOL     OW15159   1.111   3.638   5.823
 1043SOL    HW115160   1.051   3.576   5.873
 1043SOL    HW215161   1.142   3.594   5.738
 1044SOL     OW15162   0.464   3.605   5.909
 1044SOL    HW115163   0.497   3.644   5.995
 1044SOL    HW215164   0.540   3.598   5.844
 1045SOL     OW15165   1.400   1.969   6.012
 1045SOL    HW115166   1.376   1.932   5.922
 1045SOL    HW215167   1.499   1.985   6.016
 1046SOL     OW15168   0.249   3.647   6.827
 1046SOL    HW115169   0.306   3.582   6.877
 1046SOL    HW215170   0.233   3.614   6.734
 1047SOL     OW15171   0.940   3.560   6.490
 1047SOL    HW115172   1.020   3.503   6.511
 1047SOL    HW215173   0.891   3.520   6.413
 1048SOL     OW15174   0.382   2.562   6.066
 1048SOL    HW115175   0.427   2.472   6.063
 1048SOL    HW215176   0.288   2.551   6.099
 1049SOL     OW15177   0.614   1.984   5.703
 1049SOL    HW115178   0.712   1.962   5.710
 1049SOL    HW215179   0.583   1.967   5.610
 1050SOL     OW15180   0.803   3.264   6.510
 1050SOL    HW115181   0.893   3.278   6.468
 1050SOL    HW215182   0.732   3.266   6.439
 1051SOL     OW15183   0.922   2.365   6.485
 1051SOL    HW115184   0.897   2.356   6.389
 1051SOL    HW215185   0.970   2.283   6.516
 1052SOL     OW15186   0.539   1.926   6.098
 1052SOL    HW115187   0.458   1.927   6.156
 1052SOL    HW215188   0.542   2.009   6.043
 1053SOL     OW15189   1.434   3.050   5.627
 1053SOL    HW115190   1.466   2.974   5.684
 1053SOL    HW215191   1.342   3.077   5.657
 1054SOL     OW15192   0.297   1.897   5.757
 1054SOL    HW115193   0.346   1.981   5.736
 1054SOL    HW215194   0.359   1.832   5.802
 1055SOL     OW15195   0.935   2.098   6.066
 1055SOL    HW115196   0.887   2.139   5.988
 1055SOL    HW215197   1.034   2.096   6.047
 1056SOL     OW15198   1.227   3.432   6.379
 1056SOL    HW115199   1.248   3.506   6.314
 1056SOL    HW215200   1.295   3.432   6.452
 1057SOL     OW15201   0.459   3.014   6.327
 1057SOL    HW115202   0.388   2.987   6.392
 1057SOL    HW215203   0.433   2.986   6.234
 1058SOL     OW15204   1.271   3.659   6.177
 1058SOL    HW115205   1.315   3.723   6.113
 1058SOL    HW215206   1.221   3.711   6.247
 1059SOL     OW15207   0.561   2.084   6.733
 1059SOL    HW115208   0.599   2.000   6.770
 1059SOL    HW215209   0.473   2.103   6.777
 1060SOL     OW15210   0.866   2.316   6.228
 1060SOL    HW115211   0.834   2.388   6.166
 1060SOL    HW215212   0.890   2.235   6.175
 1061SOL     OW15213   1.017   1.901   6.339
 1061SOL    HW115214   0.945   1.906   6.270
 1061SOL    HW215215   0.993   1.832   6.408
 1062SOL     OW15216   1.429   3.035   6.453
 1062SOL    HW115217   1.374   2.951   6.446
 1062SOL    HW215218   1.455   3.064   6.361
 1063SOL     OW15219   1.466   2.452   6.578
 1063SOL    HW115220   1.436   2.357   6.585
 1063SOL    HW215221   1.539   2.468   6.644
 1064SOL     OW15222   1.857   2.695   5.963
 1064SOL    HW115223   1.899   2.631   6.027
 1064SOL    HW215224   1.819   2.644   5.885
 1065SOL     OW15225   0.488   3.247   5.760
 1065SOL    HW115226   0.401   3.232   5.807
 1065SOL    HW215227   0.471   3.273   5.665
 1066SOL     OW15228   1.664   3.142   6.243
 1066SOL    HW115229   1.763   3.150   6.257
 1066SOL    HW215230   1.619   3.226   6.274
 1067SOL     OW15231   1.390   2.437   5.664
 1067SOL    HW115232   1.336   2.416   5.745
 1067SOL    HW215233   1.481   2.396   5.673
 1068SOL     OW15234   0.527   2.118   5.914
 1068SOL    HW115235   0.554   2.059   5.839
 1068SOL    HW215236   0.527   2.213   5.883
 1069SOL     OW15237   1.111   3.057   6.686
 1069SOL    HW115238   1.071   3.101   6.767
 1069SOL    HW215239   1.070   3.094   6.603
 1070SOL     OW15240   1.638   2.961   6.665
 1070SOL    HW115241   1.643   3.042   6.724
 1070SOL    HW215242   1.552   2.963   6.614
 1071SOL     OW15243   0.705   2.912   5.954
 1071SOL    HW115244   0.691   2.919   6.053
 1071SOL    HW215245   0.789   2.861   5.936
 1072SOL     OW15246   0.410   2.675   6.837
 1072SOL    HW115247   0.496   2.687   6.887
 1072SOL    HW215248   0.368   2.588   6.864
 1073SOL     OW15249   1.274   2.248   6.848
 1073SOL    HW115250   1.295   2.322   6.912
 1073SOL    HW215251   1.185   2.265   6.805
 1074SOL     OW15252   0.367   2.962   6.087
 1074SOL    HW115253   0.360   3.045   6.031
 1074SOL    HW215254   0.371   2.882   6.027
 1075SOL     OW15255   0.566   2.399   6.451
 1075SOL    HW115256   0.578   2.465   6.377
 1075SOL    HW215257   0.612   2.433   6.534
 1076SOL     OW15258   1.252   3.210   5.974
 1076SOL    HW115259   1.302   3.287   6.014
 1076SOL    HW215260   1.157   3.212   6.006
 1077SOL     OW15261   1.272   3.307   6.728
 1077SOL    HW115262   1.319   3.320   6.815
 1077SOL    HW215263   1.206   3.233   6.737
 1078SOL     OW15264   1.582   2.501   6.058
 1078SOL    HW115265   1.551   2.562   6.131
 1078SOL    HW215266   1.632   2.553   5.989
 1079SOL     OW15267   0.354   3.372   6.915
 1079SOL    HW115268   0.333   3.328   6.828
 1079SOL    HW215269   0.451   3.398   6.918
 1080SOL     OW15270   0.573   2.732   6.615
 1080SOL    HW115271   0.617   2.821   6.606
 1080SOL    HW215272   0.510   2.732   6.692
 1081SOL     OW15273   1.360   2.724   6.631
 1081SOL    HW115274   1.285   2.724   6.565
 1081SOL    HW215275   1.397   2.632   6.640
 1082SOL     OW15276   1.209   2.387   5.861
 1082SOL    HW115277   1.222   2.303   5.915
 1082SOL    HW215278   1.180   2.461   5.921
 1083SOL     OW15279   0.307   2.075   6.817
 1083SOL    HW115280   0.284   2.112   6.907
 1083SOL    HW215281   0.277   1.980   6.811
 1084SOL     OW15282   0.037   3.172   6.868
 1084SOL    HW115283   0.090   3.123   6.936
 1084SOL    HW215284   0.059   3.270   6.873
 1085SOL     OW15285   0.732   2.496   6.650
 1085SOL    HW115286   0.791   2.470   6.574
 1085SOL    HW215287   0.704   2.592   6.639
 1086SOL     OW15288   0.307   1.925   6.204
 1086SOL    HW115289   0.296   2.019   6.237
 1086SOL    HW215290   0.302   1.862   6.281
 1087SOL     OW15291   1.622   2.229   5.960
 1087SOL    HW115292   1.624   2.153   6.024
 1087SOL    HW215293   1.574   2.306   6.000
 1088SOL     OW15294   1.023   2.628   6.552
 1088SOL    HW115295   1.038   2.649   6.648
 1088SOL    HW215296   0.993   2.533   6.543
 1089SOL     OW15297   1.540   2.136   5.711
 1089SOL    HW115298   1.479   2.061   5.734
 1089SOL    HW215299   1.562   2.188   5.794
 1090SOL     OW15300   1.303   2.700   5.628
 1090SOL    HW115301   1.337   2.607   5.643
 1090SOL    HW215302   1.321   2.727   5.533
 1091SOL     OW15303   1.068   3.195   6.435
 1091SOL    HW115304   1.075   3.111   6.380
 1091SOL    HW215305   1.130   3.264   6.399
 1092SOL     OW15306   0.319   2.672   6.535
 1092SOL    HW115307   0.412   2.708   6.540
 1092SOL    HW215308   0.313   2.587   6.587
 1093SOL     OW15309   0.339   2.371   6.592
 1093SOL    HW115310   0.287   2.288   6.575
 1093SOL    HW215311   0.416   2.376   6.528
 1094SOL     OW15312   1.160   2.069   7.063
 1094SOL    HW115313   1.160   2.133   7.140
 1094SOL    HW215314   1.188   2.117   6.980
 1095SOL     OW15315   0.008   3.188   5.786
 1095SOL    HW115316  -0.085   3.209   5.755
 1095SOL    HW215317   0.018   3.089   5.799
 1096SOL     OW15318   0.088   3.663   6.513
 1096SOL    HW115319   0.046   3.577   6.486
 1096SOL    HW215320   0.182   3.666   6.479
 1097SOL     OW15321   0.504   3.430   6.496
 1097SOL    HW115322   0.570   3.504   6.505
 1097SOL    HW215323   0.548   3.351   6.454
 1098SOL     OW15324   1.002   2.658   6.824
 1098SOL    HW115325   1.043   2.626   6.910
 1098SOL    HW215326   0.906   2.631   6.821
 1099SOL     OW15327   0.040   2.406   6.700
 1099SOL    HW115328   0.125   2.373   6.659
 1099SOL    HW215329   0.053   2.421   6.798
 1100SOL     OW15330   1.657   2.466   6.792
 1100SOL    HW115331   1.619   2.397   6.854
 1100SOL    HW215332   1.739   2.430   6.748
 1101SOL     OW15333   0.671   2.326   6.855
 1101SOL    HW115334   0.637   2.237   6.825
 1101SOL    HW215335   0.697   2.380   6.775
 1102SOL     OW15336   0.930   3.540   7.051
 1102SOL    HW115337   0.906   3.522   6.956
 1102SOL    HW215338   0.960   3.634   7.061
 1103SOL     OW15339   0.473   2.362   5.777
 1103SOL    HW115340   0.534   2.442   5.781
 1103SOL    HW215341   0.378   2.393   5.784
 1104SOL     OW15342   1.347   2.921   6.820
 1104SOL    HW115343   1.371   2.858   6.746
 1104SOL    HW215344   1.257   2.961   6.802
 1105SOL     OW15345   1.302   2.717   5.895
 1105SOL    HW115346   1.216   2.686   5.937
 1105SOL    HW215347   1.298   2.703   5.796
 1106SOL     OW15348   1.759   3.609   6.740
 1106SOL    HW115349   1.820   3.639   6.667
 1106SOL    HW215350   1.721   3.520   6.718
 1107SOL     OW15351   1.252   3.593   6.714
 1107SOL    HW115352   1.336   3.598   6.660
 1107SOL    HW215353   1.229   3.497   6.732
 1108SOL     OW15354   0.083   3.120   6.608
 1108SOL    HW115355   0.078   3.119   6.708
 1108SOL    HW215356   0.000   3.079   6.570
 1109SOL     OW15357   1.726   1.997   6.109
 1109SOL    HW115358   1.799   1.980   6.042
 1109SOL    HW215359   1.695   1.910   6.147
 1110SOL     OW15360   1.388   3.435   6.063
 1110SOL    HW115361   1.455   3.447   5.989
 1110SOL    HW215362   1.348   3.524   6.086
 1111SOL     OW15363   1.280   2.789   6.258
 1111SOL    HW115364   1.340   2.708   6.260
 1111SOL    HW215365   1.320   2.858   6.198
 1112SOL     OW15366   0.672   3.478   5.740
 1112SOL    HW115367   0.681   3.488   5.641
 1112SOL    HW215368   0.632   3.389   5.761
 1113SOL     OW15369   1.650   3.582   6.980
 1113SOL    HW115370   1.703   3.592   6.896
 1113SOL    HW215371   1.623   3.672   7.014
 1114SOL     OW15372   1.841   2.037   6.549
 1114SOL    HW115373   1.880   1.952   6.513
 1114SOL    HW215374   1.743   2.039   6.530
 1115SOL     OW15375   0.263   2.188   6.306
 1115SOL    HW115376   0.184   2.239   6.272
 1115SOL    HW215377   0.254   2.173   6.404
 1116SOL     OW15378   0.822   2.864   6.958
 1116SOL    HW115379   0.862   2.863   6.866
 1116SOL    HW215380   0.832   2.956   6.998
 1117SOL     OW15381   0.916   2.772   5.877
 1117SOL    HW115382   0.979   2.810   5.809
 1117SOL    HW215383   0.956   2.689   5.916
 1118SOL     OW15384   1.039   2.960   6.282
 1118SOL    HW115385   0.969   2.913   6.336
 1118SOL    HW215386   1.098   2.892   6.239
 1119SOL     OW15387   1.014   2.098   6.557
 1119SOL    HW115388   1.006   2.062   6.464
 1119SOL    HW215389   1.012   2.022   6.622
 1120SOL     OW15390   0.590   3.349   6.077
 1120SOL    HW115391   0.632   3.291   6.007
 1120SOL    HW215392   0.546   3.428   6.033
 1121SOL     OW15393   1.709   2.247   6.967
 1121SOL    HW115394   1.782   2.316   6.971
 1121SOL    HW215395   1.737   2.172   6.908
 1122SOL     OW15396   0.255   3.210   5.876
 1122SOL    HW115397   0.159   3.211   5.849
 1122SOL    HW215398   0.267   3.263   5.960
 1123SOL     OW15399   0.075   2.207   5.619
 1123SOL    HW115400  -0.017   2.179   5.590
 1123SOL    HW215401   0.106   2.284   5.563
 1124SOL     OW15402   0.072   2.028   5.904
 1124SOL    HW115403   0.055   2.111   5.850
 1124SOL    HW215404   0.162   1.991   5.882
 1125SOL     OW15405   1.183   3.197   5.705
 1125SOL    HW115406   1.084   3.186   5.707
 1125SOL    HW215407   1.217   3.212   5.798
 1126SOL     OW15408   1.493   3.629   6.545
 1126SOL    HW115409   1.526   3.693   6.476
 1126SOL    HW215410   1.559   3.623   6.620
 1127SOL     OW15411   1.450   3.082   7.219
 1127SOL    HW115412   1.441   3.072   7.318
 1127SOL    HW215413   1.546   3.075   7.193
 1128SOL     OW15414   1.674   2.745   6.840
 1128SOL    HW115415   1.647   2.656   6.803
 1128SOL    HW215416   1.675   2.813   6.767
 1129SOL     OW15417   1.225   2.187   6.035
 1129SOL    HW115418   1.290   2.113   6.024
 1129SOL    HW215419   1.245   2.237   6.119
 1130SOL     OW15420   0.594   2.607   6.238
 1130SOL    HW115421   0.644   2.692   6.219
 1130SOL    HW215422   0.506   2.609   6.190
 1131SOL     OW15423   1.730   2.796   7.103
 1131SOL    HW115424   1.768   2.887   7.118
 1131SOL    HW215425   1.722   2.779   7.004
 1132SOL     OW15426   0.661   3.652   6.539
 1132SOL    HW115427   0.615   3.740   6.526
 1132SOL    HW215428   0.760   3.664   6.532
 1133SOL     OW15429   0.859   2.818   6.447
 1133SOL    HW115430   0.913   2.749   6.495
 1133SOL    HW215431   0.827   2.887   6.513
 1134SOL     OW15432   1.083   2.846   5.673
 1134SOL    HW115433   1.060   2.899   5.591
 1134SOL    HW215434   1.164   2.790   5.654
 1135SOL     OW15435   1.861   3.431   6.437
 1135SOL    HW115436   1.790   3.419   6.367
 1135SOL    HW215437   1.862   3.352   6.497
 1136SOL     OW15438   0.079   3.102   6.239
 1136SOL    HW115439   0.078   3.055   6.327
 1136SOL    HW215440   0.161   3.074   6.188
 1137SOL     OW15441   1.824   2.054   6.813
 1137SOL    HW115442   1.820   1.964   6.857
 1137SOL    HW215443   1.827   2.043   6.714
 1138SOL     OW15444   0.428   2.286   6.106
 1138SOL    HW115445   0.458   2.214   6.044
 1138SOL    HW215446   0.389   2.246   6.189
 1139SOL     OW15447   1.705   3.349   6.690
 1139SOL    HW115448   1.612   3.324   6.663
 1139SOL    HW215449   1.731   3.299   6.772
 1140SOL     OW15450   0.812   3.448   6.273
 1140SOL    HW115451   0.844   3.458   6.179
 1140SOL    HW215452   0.733   3.386   6.275
 1141SOL     OW15453   1.424   2.076   6.698
 1141SOL    HW115454   1.476   2.011   6.753
 1141SOL    HW215455   1.375   2.139   6.759
 1142SOL     OW15456   1.001   1.896   6.740
 1142SOL    HW115457   0.938   1.824   6.709
 1142SOL    HW215458   1.094   1.860   6.740
 1143SOL     OW15459   0.770   3.192   5.887
 1143SOL    HW115460   0.724   3.105   5.904
 1143SOL    HW215461   0.861   3.189   5.928
 1144SOL     OW15462   1.352   1.914   5.754
 1144SOL    HW115463   1.387   1.873   5.670
 1144SOL    HW215464   1.262   1.876   5.774
 1145SOL     OW15465   1.300   2.315   6.277
 1145SOL    HW115466   1.241   2.395   6.281
 1145SOL    HW215467   1.315   2.280   6.370
 1146SOL     OW15468   1.593   2.083   6.468
 1146SOL    HW115469   1.509   2.082   6.522
 1146SOL    HW215470   1.595   2.166   6.412
 1147SOL     OW15471   0.039   2.939   5.886
 1147SOL    HW115472   0.138   2.928   5.877
 1147SOL    HW215473  -0.001   2.853   5.918
 1148SOL     OW15474   0.875   3.508   5.923
 1148SOL    HW115475   0.798   3.473   5.869
 1148SOL    HW215476   0.843   3.579   5.985
 1149SOL     OW15477   0.230   4.352   0.113
 1149SOL    HW115478   0.137   4.350   0.150
 1149SOL    HW215479   0.231   4.313   0.021
 1150SOL     OW15480   0.225   3.999   0.996
 1150SOL    HW115481   0.260   3.982   1.088
 1150SOL    HW215482   0.137   3.954   0.984
 1151SOL     OW15483   0.019   4.092   0.647
 1151SOL    HW115484  -0.063   4.135   0.686
 1151SOL    HW215485  -0.009   4.019   0.584
 1152SOL     OW15486   1.555   5.235   0.703
 1152SOL    HW115487   1.498   5.219   0.784
 1152SOL    HW215488   1.496   5.245   0.623
 1153SOL     OW15489   1.135   4.427   0.717
 1153SOL    HW115490   1.192   4.505   0.692
 1153SOL    HW215491   1.075   4.453   0.793
 1154SOL     OW15492   1.755   4.331   0.231
 1154SOL    HW115493   1.743   4.318   0.132
 1154SOL    HW215494   1.725   4.250   0.280
 1155SOL     OW15495   0.768   4.868   1.023
 1155SOL    HW115496   0.690   4.885   1.083
 1155SOL    HW215497   0.802   4.955   0.987
 1156SOL     OW15498   0.685   4.736   0.665
 1156SOL    HW115499   0.754   4.720   0.735
 1156SOL    HW215500   0.612   4.793   0.703
 1157SOL     OW15501   0.335   5.159   1.061
 1157SOL    HW115502   0.257   5.128   1.008
 1157SOL    HW215503   0.393   5.217   1.004
 1158SOL     OW15504   1.603   4.171   0.737
 1158SOL    HW115505   1.529   4.217   0.687
 1158SOL    HW215506   1.654   4.239   0.790
 1159SOL     OW15507   0.231   5.437   0.483
 1159SOL    HW115508   0.265   5.514   0.537
 1159SOL    HW215509   0.275   5.437   0.393
 1160SOL     OW15510   1.127   5.065   1.690
 1160SOL    HW115511   1.174   5.065   1.778
 1160SOL    HW215512   1.079   4.978   1.679
 1161SOL     OW15513   0.230   5.158   0.538
 1161SOL    HW115514   0.204   5.254   0.538
 1161SOL    HW215515   0.159   5.104   0.583
 1162SOL     OW15516   0.240   4.815   0.886
 1162SOL    HW115517   0.254   4.731   0.938
 1162SOL    HW215518   0.185   4.879   0.941
 1163SOL     OW15519   0.606   4.688   0.123
 1163SOL    HW115520   0.613   4.772   0.069
 1163SOL    HW215521   0.652   4.701   0.211
 1164SOL     OW15522   1.594   3.838   1.480
 1164SOL    HW115523   1.576   3.905   1.408
 1164SOL    HW215524   1.591   3.884   1.569
 1165SOL     OW15525   0.122   4.367   0.563
 1165SOL    HW115526   0.077   4.279   0.580
 1165SOL    HW215527   0.121   4.421   0.647
 1166SOL     OW15528   1.842   5.491   0.359
 1166SOL    HW115529   1.896   5.462   0.439
 1166SOL    HW215530   1.872   5.581   0.330
 1167SOL     OW15531   0.027   5.320   0.117
 1167SOL    HW115532   0.008   5.224   0.138
 1167SOL    HW215533  -0.006   5.378   0.192
 1168SOL     OW15534   1.689   4.646   0.612
 1168SOL    HW115535   1.784   4.617   0.620
 1168SOL    HW215536   1.681   4.711   0.537
 1169SOL     OW15537   1.641   4.832   0.432
 1169SOL    HW115538   1.727   4.834   0.380
 1169SOL    HW215539   1.655   4.879   0.520
 1170SOL     OW15540   0.613   5.089   0.726
 1170SOL    HW115541   0.564   5.002   0.735
 1170SOL    HW215542   0.590   5.132   0.639
 1171SOL     OW15543   0.809   3.728   0.502
 1171SOL    HW115544   0.849   3.819   0.493
 1171SOL    HW215545   0.709   3.736   0.508
 1172SOL     OW15546   0.197   4.700   1.264
 1172SOL    HW115547   0.286   4.655   1.250
 1172SOL    HW215548   0.124   4.635   1.245
 1173SOL     OW15549   1.525   4.723   0.190
 1173SOL    HW115550   1.462   4.647   0.203
 1173SOL    HW215551   1.573   4.741   0.276
 1174SOL     OW15552   1.187   5.516   1.616
 1174SOL    HW115553   1.211   5.576   1.540
 1174SOL    HW215554   1.194   5.421   1.586
 1175SOL     OW15555   1.466   5.141   0.953
 1175SOL    HW115556   1.407   5.147   1.033
 1175SOL    HW215557   1.451   5.053   0.907
 1176SOL     OW15558   1.667   5.438   0.572
 1176SOL    HW115559   1.626   5.415   0.484
 1176SOL    HW215560   1.649   5.364   0.637
 1177SOL     OW15561   0.598   4.453   0.270
 1177SOL    HW115562   0.622   4.522   0.202
 1177SOL    HW215563   0.520   4.486   0.324
 1178SOL     OW15564   1.281   4.069   0.944
 1178SOL    HW115565   1.195   4.019   0.931
 1178SOL    HW215566   1.343   4.015   1.000
 1179SOL     OW15567   1.576   5.386   0.307
 1179SOL    HW115568   1.665   5.432   0.310
 1179SOL    HW215569   1.555   5.362   0.212
 1180SOL     OW15570   0.807   4.329   1.465
 1180SOL    HW115571   0.760   4.326   1.554
 1180SOL    HW215572   0.756   4.274   1.399
 1181SOL     OW15573   1.041   4.425   0.429
 1181SOL    HW115574   1.067   4.421   0.525
 1181SOL    HW215575   0.956   4.374   0.415
 1182SOL     OW15576   0.076   4.535   0.789
 1182SOL    HW115577   0.175   4.523   0.798
 1182SOL    HW215578   0.052   4.630   0.810
 1183SOL     OW15579   0.865   4.072   0.195
 1183SOL    HW115580   0.924   4.135   0.146
 1183SOL    HW215581   0.884   3.978   0.166
 1184SOL     OW15582   1.362   4.868   0.545
 1184SOL    HW115583   1.445   4.839   0.497
 1184SOL    HW215584   1.313   4.935   0.489
 1185SOL     OW15585   0.550   3.920   0.885
 1185SOL    HW115586   0.545   3.915   0.985
 1185SOL    HW215587   0.552   4.016   0.856
 1186SOL     OW15588   1.008   5.180   0.477
 1186SOL    HW115589   0.962   5.252   0.425
 1186SOL    HW215590   1.004   5.200   0.575
 1187SOL     OW15591   0.351   5.525   0.853
 1187SOL    HW115592   0.401   5.439   0.859
 1187SOL    HW215593   0.416   5.602   0.850
 1188SOL     OW15594   1.795   4.790   0.873
 1188SOL    HW115595   1.733   4.775   0.797
 1188SOL    HW215596   1.743   4.801   0.958
 1189SOL     OW15597   0.321   4.667   0.242
 1189SOL    HW115598   0.403   4.706   0.200
 1189SOL    HW215599   0.294   4.585   0.193
 1190SOL     OW15600   1.458   4.459   0.728
 1190SOL    HW115601   1.453   4.394   0.803
 1190SOL    HW215602   1.538   4.518   0.741
 1191SOL     OW15603   1.111   5.500   0.237
 1191SOL    HW115604   1.051   5.438   0.287
 1191SOL    HW215605   1.142   5.456   0.152
 1192SOL     OW15606   0.202   4.009   1.498
 1192SOL    HW115607   0.122   4.069   1.485
 1192SOL    HW215608   0.192   3.960   1.584
 1193SOL     OW15609   1.632   5.101   0.081
 1193SOL    HW115610   1.600   5.195   0.071
 1193SOL    HW215611   1.556   5.038   0.069
 1194SOL     OW15612   0.464   5.467   0.323
 1194SOL    HW115613   0.497   5.506   0.409
 1194SOL    HW215614   0.540   5.460   0.258
 1195SOL     OW15615   1.400   3.831   0.426
 1195SOL    HW115616   1.376   3.794   0.336
 1195SOL    HW215617   1.499   3.847   0.430
 1196SOL     OW15618   0.249   5.509   1.241
 1196SOL    HW115619   0.306   5.444   1.291
 1196SOL    HW215620   0.233   5.476   1.148
 1197SOL     OW15621   0.940   5.422   0.904
 1197SOL    HW115622   1.020   5.365   0.925
 1197SOL    HW215623   0.891   5.382   0.827
 1198SOL     OW15624   0.382   4.424   0.480
 1198SOL    HW115625   0.427   4.334   0.477
 1198SOL    HW215626   0.288   4.413   0.513
 1199SOL     OW15627   0.781   3.988   1.749
 1199SOL    HW115628   0.848   3.927   1.792
 1199SOL    HW215629   0.708   4.007   1.814
 1200SOL     OW15630   0.888   5.238   1.195
 1200SOL    HW115631   0.865   5.213   1.101
 1200SOL    HW215632   0.949   5.169   1.234
 1201SOL     OW15633   1.351   4.314   1.433
 1201SOL    HW115634   1.379   4.271   1.518
 1201SOL    HW215635   1.376   4.410   1.434
 1202SOL     OW15636   0.803   5.126   0.924
 1202SOL    HW115637   0.893   5.140   0.882
 1202SOL    HW215638   0.732   5.128   0.853
 1203SOL     OW15639   0.922   4.227   0.899
 1203SOL    HW115640   0.897   4.218   0.803
 1203SOL    HW215641   0.970   4.145   0.930
 1204SOL     OW15642   0.539   3.788   0.512
 1204SOL    HW115643   0.458   3.789   0.570
 1204SOL    HW215644   0.542   3.871   0.457
 1205SOL     OW15645   1.434   4.912   0.041
 1205SOL    HW115646   1.466   4.836   0.098
 1205SOL    HW215647   1.342   4.939   0.071
 1206SOL     OW15648   0.297   3.759   0.171
 1206SOL    HW115649   0.346   3.843   0.150
 1206SOL    HW215650   0.359   3.694   0.216
 1207SOL     OW15651   0.935   3.960   0.480
 1207SOL    HW115652   0.887   4.001   0.402
 1207SOL    HW215653   1.034   3.958   0.461
 1208SOL     OW15654   1.076   4.407   1.464
 1208SOL    HW115655   0.996   4.346   1.467
 1208SOL    HW215656   1.157   4.354   1.440
 1209SOL     OW15657   1.227   5.294   0.793
 1209SOL    HW115658   1.248   5.368   0.728
 1209SOL    HW215659   1.295   5.294   0.866
 1210SOL     OW15660   0.459   4.876   0.741
 1210SOL    HW115661   0.388   4.849   0.806
 1210SOL    HW215662   0.433   4.848   0.648
 1211SOL     OW15663   1.271   5.521   0.591
 1211SOL    HW115664   1.315   5.585   0.527
 1211SOL    HW215665   1.221   5.573   0.661
 1212SOL     OW15666   1.032   4.273   0.016
 1212SOL    HW115667   0.991   4.355  -0.023
 1212SOL    HW215668   1.096   4.299   0.089
 1213SOL     OW15669   0.866   4.178   0.642
 1213SOL    HW115670   0.834   4.250   0.580
 1213SOL    HW215671   0.890   4.097   0.589
 1214SOL     OW15672   1.017   3.763   0.753
 1214SOL    HW115673   0.945   3.768   0.684
 1214SOL    HW215674   0.993   3.694   0.822
 1215SOL     OW15675   1.429   4.897   0.867
 1215SOL    HW115676   1.374   4.813   0.860
 1215SOL    HW215677   1.455   4.926   0.775
 1216SOL     OW15678   1.466   4.314   0.992
 1216SOL    HW115679   1.436   4.219   0.999
 1216SOL    HW215680   1.539   4.330   1.058
 1217SOL     OW15681   1.857   4.557   0.377
 1217SOL    HW115682   1.899   4.493   0.441
 1217SOL    HW215683   1.819   4.506   0.299
 1218SOL     OW15684   0.488   5.109   0.174
 1218SOL    HW115685   0.401   5.094   0.221
 1218SOL    HW215686   0.471   5.135   0.079
 1219SOL     OW15687   1.664   5.004   0.657
 1219SOL    HW115688   1.763   5.012   0.671
 1219SOL    HW215689   1.619   5.088   0.688
 1220SOL     OW15690   1.390   4.299   0.078
 1220SOL    HW115691   1.336   4.278   0.159
 1220SOL    HW215692   1.481   4.258   0.087
 1221SOL     OW15693   0.527   3.980   0.328
 1221SOL    HW115694   0.554   3.921   0.253
 1221SOL    HW215695   0.527   4.075   0.297
 1222SOL     OW15696   1.064   5.071   1.340
 1222SOL    HW115697   0.984   5.048   1.395
 1222SOL    HW215698   1.147   5.045   1.389
 1223SOL     OW15699   1.592   5.353   1.625
 1223SOL    HW115700   1.619   5.387   1.535
 1223SOL    HW215701   1.671   5.315   1.671
 1224SOL     OW15702   1.111   4.919   1.100
 1224SOL    HW115703   1.071   4.963   1.181
 1224SOL    HW215704   1.070   4.956   1.017
 1225SOL     OW15705   0.915   3.813   1.402
 1225SOL    HW115706   0.940   3.793   1.307
 1225SOL    HW215707   0.987   3.869   1.444
 1226SOL     OW15708   0.705   4.774   0.368
 1226SOL    HW115709   0.691   4.781   0.467
 1226SOL    HW215710   0.789   4.723   0.350
 1227SOL     OW15711   1.274   4.110   1.262
 1227SOL    HW115712   1.295   4.184   1.326
 1227SOL    HW215713   1.185   4.127   1.219
 1228SOL     OW15714   0.064   5.288   1.331
 1228SOL    HW115715   0.018   5.370   1.297
 1228SOL    HW215716   0.162   5.307   1.340
 1229SOL     OW15717   0.367   4.824   0.501
 1229SOL    HW115718   0.360   4.907   0.445
 1229SOL    HW215719   0.371   4.744   0.441
 1230SOL     OW15720   0.566   4.261   0.865
 1230SOL    HW115721   0.578   4.327   0.791
 1230SOL    HW215722   0.612   4.295   0.948
 1231SOL     OW15723   1.252   5.072   0.388
 1231SOL    HW115724   1.302   5.149   0.428
 1231SOL    HW215725   1.157   5.074   0.420
 1232SOL     OW15726   1.272   5.169   1.142
 1232SOL    HW115727   1.319   5.182   1.229
 1232SOL    HW215728   1.206   5.095   1.151
 1233SOL     OW15729   1.582   4.363   0.472
 1233SOL    HW115730   1.551   4.424   0.545
 1233SOL    HW215731   1.632   4.415   0.403
 1234SOL     OW15732   0.354   5.234   1.329
 1234SOL    HW115733   0.333   5.190   1.242
 1234SOL    HW215734   0.451   5.260   1.332
 1235SOL     OW15735   0.402   4.475   1.598
 1235SOL    HW115736   0.470   4.530   1.551
 1235SOL    HW215737   0.442   4.387   1.625
 1236SOL     OW15738   0.573   4.594   1.029
 1236SOL    HW115739   0.617   4.683   1.020
 1236SOL    HW215740   0.510   4.594   1.106
 1237SOL     OW15741   1.360   4.586   1.045
 1237SOL    HW115742   1.285   4.586   0.979
 1237SOL    HW215743   1.397   4.494   1.054
 1238SOL     OW15744   1.209   4.249   0.275
 1238SOL    HW115745   1.222   4.165   0.329
 1238SOL    HW215746   1.180   4.323   0.335
 1239SOL     OW15747   0.037   5.034   1.282
 1239SOL    HW115748   0.090   4.985   1.350
 1239SOL    HW215749   0.059   5.132   1.287
 1240SOL     OW15750   0.732   4.358   1.064
 1240SOL    HW115751   0.791   4.332   0.988
 1240SOL    HW215752   0.704   4.454   1.053
 1241SOL     OW15753   1.728   4.659   1.854
 1241SOL    HW115754   1.682   4.652   1.765
 1241SOL    HW215755   1.666   4.703   1.920
 1242SOL     OW15756   0.307   3.787   0.618
 1242SOL    HW115757   0.296   3.881   0.651
 1242SOL    HW215758   0.302   3.724   0.695
 1243SOL     OW15759   1.622   4.091   0.374
 1243SOL    HW115760   1.624   4.015   0.438
 1243SOL    HW215761   1.574   4.168   0.414
 1244SOL     OW15762   1.023   4.490   0.966
 1244SOL    HW115763   1.038   4.511   1.062
 1244SOL    HW215764   0.993   4.395   0.957
 1245SOL     OW15765   1.859   5.242   1.605
 1245SOL    HW115766   1.873   5.269   1.510
 1245SOL    HW215767   1.942   5.264   1.658
 1246SOL     OW15768   1.540   3.998   0.125
 1246SOL    HW115769   1.479   3.923   0.148
 1246SOL    HW215770   1.562   4.050   0.208
 1247SOL     OW15771   1.303   4.562   0.042
 1247SOL    HW115772   1.337   4.469   0.057
 1247SOL    HW215773   1.321   4.589  -0.053
 1248SOL     OW15774   1.068   5.057   0.849
 1248SOL    HW115775   1.075   4.973   0.794
 1248SOL    HW215776   1.130   5.126   0.813
 1249SOL     OW15777   0.008   5.050   0.200
 1249SOL    HW115778  -0.085   5.071   0.169
 1249SOL    HW215779   0.018   4.951   0.213
 1250SOL     OW15780   0.088   5.525   0.927
 1250SOL    HW115781   0.046   5.439   0.900
 1250SOL    HW215782   0.182   5.528   0.893
 1251SOL     OW15783   0.504   5.292   0.910
 1251SOL    HW115784   0.570   5.366   0.919
 1251SOL    HW215785   0.548   5.213   0.868
 1252SOL     OW15786   1.002   4.520   1.238
 1252SOL    HW115787   1.043   4.488   1.324
 1252SOL    HW215788   0.906   4.493   1.235
 1253SOL     OW15789   0.040   4.268   1.114
 1253SOL    HW115790   0.125   4.235   1.073
 1253SOL    HW215791   0.053   4.283   1.212
 1254SOL     OW15792   0.189   4.244   1.722
 1254SOL    HW115793   0.248   4.204   1.652
 1254SOL    HW215794   0.131   4.315   1.681
 1255SOL     OW15795   0.815   4.296   0.325
 1255SOL    HW115796   0.822   4.207   0.279
 1255SOL    HW215797   0.721   4.330   0.317
 1256SOL     OW15798   1.657   4.328   1.206
 1256SOL    HW115799   1.619   4.259   1.268
 1256SOL    HW215800   1.739   4.292   1.162
 1257SOL     OW15801   0.671   4.188   1.269
 1257SOL    HW115802   0.637   4.099   1.239
 1257SOL    HW215803   0.697   4.242   1.189
 1258SOL     OW15804   0.930   5.402   1.465
 1258SOL    HW115805   0.906   5.384   1.370
 1258SOL    HW215806   0.960   5.496   1.475
 1259SOL     OW15807   0.473   4.224   0.191
 1259SOL    HW115808   0.534   4.304   0.195
 1259SOL    HW215809   0.378   4.255   0.198
 1260SOL     OW15810   1.302   4.579   0.309
 1260SOL    HW115811   1.216   4.548   0.351
 1260SOL    HW215812   1.298   4.565   0.210
 1261SOL     OW15813   1.759   5.471   1.154
 1261SOL    HW115814   1.820   5.501   1.081
 1261SOL    HW215815   1.721   5.382   1.132
 1262SOL     OW15816   1.252   5.455   1.128
 1262SOL    HW115817   1.336   5.460   1.074
 1262SOL    HW215818   1.229   5.359   1.146
 1263SOL     OW15819   0.083   4.982   1.022
 1263SOL    HW115820   0.078   4.981   1.122
 1263SOL    HW215821   0.000   4.941   0.984
 1264SOL     OW15822   0.903   3.810   0.133
 1264SOL    HW115823   0.954   3.811   0.047
 1264SOL    HW215824   0.959   3.768   0.204
 1265SOL     OW15825   1.726   3.859   0.523
 1265SOL    HW115826   1.799   3.842   0.456
 1265SOL    HW215827   1.695   3.772   0.561
 1266SOL     OW15828   1.388   5.297   0.477
 1266SOL    HW115829   1.455   5.309   0.403
 1266SOL    HW215830   1.348   5.386   0.500
 1267SOL     OW15831   1.280   4.651   0.672
 1267SOL    HW115832   1.340   4.570   0.674
 1267SOL    HW215833   1.320   4.720   0.612
 1268SOL     OW15834   0.672   5.340   0.154
 1268SOL    HW115835   0.681   5.350   0.055
 1268SOL    HW215836   0.632   5.251   0.175
 1269SOL     OW15837   1.650   5.444   1.394
 1269SOL    HW115838   1.703   5.454   1.310
 1269SOL    HW215839   1.623   5.534   1.428
 1270SOL     OW15840   1.841   3.899   0.963
 1270SOL    HW115841   1.880   3.814   0.927
 1270SOL    HW215842   1.743   3.901   0.944
 1271SOL     OW15843   0.263   4.050   0.720
 1271SOL    HW115844   0.184   4.101   0.686
 1271SOL    HW215845   0.254   4.035   0.818
 1272SOL     OW15846   1.194   5.336   0.031
 1272SOL    HW115847   1.200   5.243   0.068
 1272SOL    HW215848   1.135   5.336  -0.049
 1273SOL     OW15849   0.916   4.634   0.291
 1273SOL    HW115850   0.979   4.672   0.223
 1273SOL    HW215851   0.956   4.551   0.330
 1274SOL     OW15852   1.504   5.331   0.044
 1274SOL    HW115853   1.412   5.368   0.051
 1274SOL    HW215854   1.542   5.351  -0.046
 1275SOL     OW15855   1.039   4.822   0.696
 1275SOL    HW115856   0.969   4.775   0.750
 1275SOL    HW215857   1.098   4.754   0.653
 1276SOL     OW15858   0.590   5.211   0.491
 1276SOL    HW115859   0.632   5.153   0.421
 1276SOL    HW215860   0.546   5.290   0.447
 1277SOL     OW15861   0.255   5.072   0.290
 1277SOL    HW115862   0.159   5.073   0.263
 1277SOL    HW215863   0.267   5.125   0.374
 1278SOL     OW15864   0.075   4.069   0.033
 1278SOL    HW115865  -0.017   4.041   0.004
 1278SOL    HW215866   0.106   4.146  -0.023
 1279SOL     OW15867   0.072   3.890   0.318
 1279SOL    HW115868   0.055   3.973   0.264
 1279SOL    HW215869   0.162   3.853   0.296
 1280SOL     OW15870   1.183   5.059   0.119
 1280SOL    HW115871   1.084   5.048   0.121
 1280SOL    HW215872   1.217   5.074   0.212
 1281SOL     OW15873   0.613   4.566   1.431
 1281SOL    HW115874   0.669   4.647   1.414
 1281SOL    HW215875   0.672   4.486   1.434
 1282SOL     OW15876   1.493   5.491   0.959
 1282SOL    HW115877   1.526   5.555   0.890
 1282SOL    HW215878   1.559   5.485   1.034
 1283SOL     OW15879   0.390   5.465   1.560
 1283SOL    HW115880   0.299   5.506   1.558
 1283SOL    HW215881   0.383   5.371   1.592
 1284SOL     OW15882   1.674   4.607   1.254
 1284SOL    HW115883   1.647   4.518   1.217
 1284SOL    HW215884   1.675   4.675   1.181
 1285SOL     OW15885   1.225   4.049   0.449
 1285SOL    HW115886   1.290   3.975   0.438
 1285SOL    HW215887   1.245   4.099   0.533
 1286SOL     OW15888   0.594   4.469   0.652
 1286SOL    HW115889   0.644   4.554   0.633
 1286SOL    HW215890   0.506   4.471   0.604
 1287SOL     OW15891   0.859   5.098   0.016
 1287SOL    HW115892   0.813   5.113   0.104
 1287SOL    HW215893   0.903   5.183  -0.014
 1288SOL     OW15894   0.859   4.680   0.861
 1288SOL    HW115895   0.913   4.611   0.909
 1288SOL    HW215896   0.827   4.749   0.927
 1289SOL     OW15897   1.083   4.708   0.087
 1289SOL    HW115898   1.060   4.761   0.005
 1289SOL    HW215899   1.164   4.652   0.068
 1290SOL     OW15900   1.861   5.293   0.851
 1290SOL    HW115901   1.790   5.281   0.781
 1290SOL    HW215902   1.862   5.214   0.911
 1291SOL     OW15903   0.079   4.964   0.653
 1291SOL    HW115904   0.078   4.917   0.741
 1291SOL    HW215905   0.161   4.936   0.602
 1292SOL     OW15906   0.428   4.148   0.520
 1292SOL    HW115907   0.458   4.076   0.458
 1292SOL    HW215908   0.389   4.108   0.603
 1293SOL     OW15909   1.705   5.211   1.104
 1293SOL    HW115910   1.612   5.186   1.077
 1293SOL    HW215911   1.731   5.161   1.186
 1294SOL     OW15912   0.812   5.310   0.687
 1294SOL    HW115913   0.844   5.320   0.593
 1294SOL    HW215914   0.733   5.248   0.689
 1295SOL     OW15915   1.424   3.938   1.112
 1295SOL    HW115916   1.476   3.873   1.167
 1295SOL    HW215917   1.375   4.001   1.173
 1296SOL     OW15918   0.770   5.054   0.301
 1296SOL    HW115919   0.724   4.967   0.318
 1296SOL    HW215920   0.861   5.051   0.342
 1297SOL     OW15921   1.352   3.776   0.168
 1297SOL    HW115922   1.387   3.735   0.084
 1297SOL    HW215923   1.262   3.738   0.188
 1298SOL     OW15924   1.300   4.177   0.691
 1298SOL    HW115925   1.241   4.257   0.695
 1298SOL    HW215926   1.315   4.142   0.784
 1299SOL     OW15927   1.593   3.945   0.882
 1299SOL    HW115928   1.509   3.944   0.936
 1299SOL    HW215929   1.595   4.028   0.826
 1300SOL     OW15930   0.039   4.801   0.300
 1300SOL    HW115931   0.138   4.790   0.291
 1300SOL    HW215932  -0.001   4.715   0.332
 1301SOL     OW15933   0.875   5.370   0.337
 1301SOL    HW115934   0.798   5.335   0.283
 1301SOL    HW215935   0.843   5.441   0.399
 1302SOL     OW15936   1.135   4.427   2.579
 1302SOL    HW115937   1.192   4.505   2.554
 1302SOL    HW215938   1.075   4.453   2.655
 1303SOL     OW15939   0.685   4.736   2.527
 1303SOL    HW115940   0.754   4.720   2.597
 1303SOL    HW215941   0.612   4.793   2.565
 1304SOL     OW15942   0.335   5.159   2.923
 1304SOL    HW115943   0.257   5.128   2.870
 1304SOL    HW215944   0.393   5.217   2.866
 1305SOL     OW15945   1.460   5.229   3.201
 1305SOL    HW115946   1.484   5.323   3.227
 1305SOL    HW215947   1.444   5.175   3.283
 1306SOL     OW15948   0.438   4.116   3.361
 1306SOL    HW115949   0.520   4.060   3.370
 1306SOL    HW215950   0.357   4.058   3.365
 1307SOL     OW15951   0.231   5.437   2.345
 1307SOL    HW115952   0.265   5.514   2.399
 1307SOL    HW215953   0.275   5.437   2.255
 1308SOL     OW15954   0.240   4.815   2.748
 1308SOL    HW115955   0.254   4.731   2.800
 1308SOL    HW215956   0.185   4.879   2.803
 1309SOL     OW15957   0.620   5.510   3.301
 1309SOL    HW115958   0.528   5.493   3.336
 1309SOL    HW215959   0.648   5.602   3.327
 1310SOL     OW15960   1.842   5.491   2.221
 1310SOL    HW115961   1.896   5.462   2.301
 1310SOL    HW215962   1.872   5.581   2.192
 1311SOL     OW15963   0.027   5.320   1.979
 1311SOL    HW115964   0.008   5.224   2.000
 1311SOL    HW215965  -0.006   5.378   2.054
 1312SOL     OW15966   1.641   4.832   2.294
 1312SOL    HW115967   1.727   4.834   2.242
 1312SOL    HW215968   1.655   4.879   2.382
 1313SOL     OW15969   0.809   3.728   2.364
 1313SOL    HW115970   0.849   3.819   2.355
 1313SOL    HW215971   0.709   3.736   2.370
 1314SOL     OW15972   1.576   5.386   2.169
 1314SOL    HW115973   1.665   5.432   2.172
 1314SOL    HW215974   1.555   5.362   2.074
 1315SOL     OW15975   0.807   4.329   3.327
 1315SOL    HW115976   0.760   4.326   3.416
 1315SOL    HW215977   0.756   4.274   3.261
 1316SOL     OW15978   0.973   4.614   3.434
 1316SOL    HW115979   1.019   4.530   3.405
 1316SOL    HW215980   0.917   4.648   3.359
 1317SOL     OW15981   0.991   4.134   3.104
 1317SOL    HW115982   0.914   4.168   3.158
 1317SOL    HW215983   0.957   4.083   3.025
 1318SOL     OW15984   0.865   4.072   2.057
 1318SOL    HW115985   0.924   4.135   2.008
 1318SOL    HW215986   0.884   3.978   2.028
 1319SOL     OW15987   1.719   4.309   3.693
 1319SOL    HW115988   1.693   4.398   3.657
 1319SOL    HW215989   1.717   4.241   3.620
 1320SOL     OW15990   0.550   3.920   2.747
 1320SOL    HW115991   0.545   3.915   2.847
 1320SOL    HW215992   0.552   4.016   2.718
 1321SOL     OW15993   1.227   5.274   3.368
 1321SOL    HW115994   1.233   5.197   3.432
 1321SOL    HW215995   1.175   5.248   3.288
 1322SOL     OW15996   0.321   4.667   2.104
 1322SOL    HW115997   0.403   4.706   2.062
 1322SOL    HW215998   0.294   4.585   2.055
 1323SOL     OW15999   0.202   4.009   3.360
 1323SOL    HW116000   0.122   4.069   3.347
 1323SOL    HW216001   0.192   3.960   3.446
 1324SOL     OW16002   0.249   5.509   3.103
 1324SOL    HW116003   0.306   5.444   3.153
 1324SOL    HW216004   0.233   5.476   3.010
 1325SOL     OW16005   0.940   5.422   2.766
 1325SOL    HW116006   1.020   5.365   2.787
 1325SOL    HW216007   0.891   5.382   2.689
 1326SOL     OW16008   0.382   4.424   2.342
 1326SOL    HW116009   0.427   4.334   2.339
 1326SOL    HW216010   0.288   4.413   2.375
 1327SOL     OW16011   0.781   3.988   3.611
 1327SOL    HW116012   0.848   3.927   3.654
 1327SOL    HW216013   0.708   4.007   3.676
 1328SOL     OW16014   0.888   5.238   3.057
 1328SOL    HW116015   0.865   5.213   2.963
 1328SOL    HW216016   0.949   5.169   3.096
 1329SOL     OW16017   0.935   3.960   2.342
 1329SOL    HW116018   0.887   4.001   2.264
 1329SOL    HW216019   1.034   3.958   2.323
 1330SOL     OW16020   1.076   4.407   3.326
 1330SOL    HW116021   0.996   4.346   3.329
 1330SOL    HW216022   1.157   4.354   3.302
 1331SOL     OW16023   0.459   4.876   2.603
 1331SOL    HW116024   0.388   4.849   2.668
 1331SOL    HW216025   0.433   4.848   2.510
 1332SOL     OW16026   1.271   5.521   2.453
 1332SOL    HW116027   1.315   5.585   2.389
 1332SOL    HW216028   1.221   5.573   2.523
 1333SOL     OW16029   1.032   4.273   1.878
 1333SOL    HW116030   0.991   4.355   1.839
 1333SOL    HW216031   1.096   4.299   1.951
 1334SOL     OW16032   0.078   4.280   3.248
 1334SOL    HW116033   0.170   4.279   3.207
 1334SOL    HW216034   0.072   4.354   3.315
 1335SOL     OW16035   0.561   3.946   3.009
 1335SOL    HW116036   0.599   3.862   3.046
 1335SOL    HW216037   0.473   3.965   3.053
 1336SOL     OW16038   1.754   4.947   3.450
 1336SOL    HW116039   1.845   4.908   3.437
 1336SOL    HW216040   1.762   5.043   3.474
 1337SOL     OW16041   0.705   4.774   2.230
 1337SOL    HW116042   0.691   4.781   2.329
 1337SOL    HW216043   0.789   4.723   2.212
 1338SOL     OW16044   0.410   4.537   3.113
 1338SOL    HW116045   0.496   4.549   3.163
 1338SOL    HW216046   0.368   4.450   3.140
 1339SOL     OW16047   1.252   5.072   2.250
 1339SOL    HW116048   1.302   5.149   2.290
 1339SOL    HW216049   1.157   5.074   2.282
 1340SOL     OW16050   0.402   4.475   3.460
 1340SOL    HW116051   0.470   4.530   3.413
 1340SOL    HW216052   0.442   4.387   3.487
 1341SOL     OW16053   1.013   3.829   3.632
 1341SOL    HW116054   1.019   3.914   3.580
 1341SOL    HW216055   1.045   3.753   3.575
 1342SOL     OW16056   0.307   3.787   2.480
 1342SOL    HW116057   0.296   3.881   2.513
 1342SOL    HW216058   0.302   3.724   2.557
 1343SOL     OW16059   1.622   4.091   2.236
 1343SOL    HW116060   1.624   4.015   2.300
 1343SOL    HW216061   1.574   4.168   2.276
 1344SOL     OW16062   1.068   5.057   2.711
 1344SOL    HW116063   1.075   4.973   2.656
 1344SOL    HW216064   1.130   5.126   2.675
 1345SOL     OW16065   1.160   3.931   3.339
 1345SOL    HW116066   1.160   3.995   3.416
 1345SOL    HW216067   1.188   3.979   3.256
 1346SOL     OW16068   0.040   4.268   2.976
 1346SOL    HW116069   0.125   4.235   2.935
 1346SOL    HW216070   0.053   4.283   3.074
 1347SOL     OW16071   0.189   4.244   3.584
 1347SOL    HW116072   0.248   4.204   3.514
 1347SOL    HW216073   0.131   4.315   3.543
 1348SOL     OW16074   0.671   4.188   3.131
 1348SOL    HW116075   0.637   4.099   3.101
 1348SOL    HW216076   0.697   4.242   3.051
 1349SOL     OW16077   1.302   4.579   2.171
 1349SOL    HW116078   1.216   4.548   2.213
 1349SOL    HW216079   1.298   4.565   2.072
 1350SOL     OW16080   1.252   5.455   2.990
 1350SOL    HW116081   1.336   5.460   2.936
 1350SOL    HW216082   1.229   5.359   3.008
 1351SOL     OW16083   0.083   4.982   2.884
 1351SOL    HW116084   0.078   4.981   2.984
 1351SOL    HW216085   0.000   4.941   2.846
 1352SOL     OW16086   1.388   5.297   2.339
 1352SOL    HW116087   1.455   5.309   2.265
 1352SOL    HW216088   1.348   5.386   2.362
 1353SOL     OW16089   0.672   5.340   2.016
 1353SOL    HW116090   0.681   5.350   1.917
 1353SOL    HW216091   0.632   5.251   2.037
 1354SOL     OW16092   1.650   5.444   3.256
 1354SOL    HW116093   1.703   5.454   3.172
 1354SOL    HW216094   1.623   5.534   3.290
 1355SOL     OW16095   0.263   4.050   2.582
 1355SOL    HW116096   0.184   4.101   2.548
 1355SOL    HW216097   0.254   4.035   2.680
 1356SOL     OW16098   0.822   4.726   3.234
 1356SOL    HW116099   0.862   4.725   3.142
 1356SOL    HW216100   0.832   4.818   3.274
 1357SOL     OW16101   0.916   4.634   2.153
 1357SOL    HW116102   0.979   4.672   2.085
 1357SOL    HW216103   0.956   4.551   2.192
 1358SOL     OW16104   0.372   5.012   3.352
 1358SOL    HW116105   0.359   5.105   3.318
 1358SOL    HW216106   0.288   4.960   3.339
 1359SOL     OW16107   1.014   3.960   2.833
 1359SOL    HW116108   1.006   3.924   2.740
 1359SOL    HW216109   1.012   3.884   2.898
 1360SOL     OW16110   1.709   4.109   3.243
 1360SOL    HW116111   1.782   4.178   3.247
 1360SOL    HW216112   1.737   4.034   3.184
 1361SOL     OW16113   0.672   3.927   3.351
 1361SOL    HW116114   0.762   3.911   3.311
 1361SOL    HW216115   0.680   3.932   3.450
 1362SOL     OW16116   1.183   5.059   1.981
 1362SOL    HW116117   1.084   5.048   1.983
 1362SOL    HW216118   1.217   5.074   2.074
 1363SOL     OW16119   1.493   5.491   2.821
 1363SOL    HW116120   1.526   5.555   2.752
 1363SOL    HW216121   1.559   5.485   2.896
 1364SOL     OW16122   0.716   4.289   3.570
 1364SOL    HW116123   0.735   4.354   3.644
 1364SOL    HW216124   0.776   4.209   3.579
 1365SOL     OW16125   1.674   4.607   3.116
 1365SOL    HW116126   1.647   4.518   3.079
 1365SOL    HW216127   1.675   4.675   3.043
 1366SOL     OW16128   1.225   4.049   2.311
 1366SOL    HW116129   1.290   3.975   2.300
 1366SOL    HW216130   1.245   4.099   2.395
 1367SOL     OW16131   1.777   4.066   3.504
 1367SOL    HW116132   1.760   4.097   3.410
 1367SOL    HW216133   1.693   4.029   3.542
 1368SOL     OW16134   0.859   4.680   2.723
 1368SOL    HW116135   0.913   4.611   2.771
 1368SOL    HW216136   0.827   4.749   2.789
 1369SOL     OW16137   1.083   4.708   1.949
 1369SOL    HW116138   1.060   4.761   1.867
 1369SOL    HW216139   1.164   4.652   1.930
 1370SOL     OW16140   0.079   4.964   2.515
 1370SOL    HW116141   0.078   4.917   2.603
 1370SOL    HW216142   0.161   4.936   2.464
 1371SOL     OW16143   0.812   5.310   2.549
 1371SOL    HW116144   0.844   5.320   2.455
 1371SOL    HW216145   0.733   5.248   2.551
 1372SOL     OW16146   1.352   3.776   2.030
 1372SOL    HW116147   1.387   3.735   1.946
 1372SOL    HW216148   1.262   3.738   2.050
 1373SOL     OW16149   1.300   4.177   2.553
 1373SOL    HW116150   1.241   4.257   2.557
 1373SOL    HW216151   1.315   4.142   2.646
 1374SOL     OW16152   0.875   5.370   2.199
 1374SOL    HW116153   0.798   5.335   2.145
 1374SOL    HW216154   0.843   5.441   2.261
 1375SOL     OW16155   0.768   4.868   4.747
 1375SOL    HW116156   0.690   4.885   4.807
 1375SOL    HW216157   0.802   4.955   4.711
 1376SOL     OW16158   0.686   4.885   5.527
 1376SOL    HW116159   0.746   4.964   5.541
 1376SOL    HW216160   0.600   4.916   5.486
 1377SOL     OW16161   1.127   5.065   5.414
 1377SOL    HW116162   1.174   5.065   5.502
 1377SOL    HW216163   1.079   4.978   5.403
 1378SOL     OW16164   0.613   5.089   4.450
 1378SOL    HW116165   0.564   5.002   4.459
 1378SOL    HW216166   0.590   5.132   4.363
 1379SOL     OW16167   1.293   4.952   5.147
 1379SOL    HW116168   1.330   4.879   5.089
 1379SOL    HW216169   1.345   4.957   5.232
 1380SOL     OW16170   0.130   5.545   5.295
 1380SOL    HW116171   0.120   5.530   5.394
 1380SOL    HW216172   0.044   5.581   5.259
 1381SOL     OW16173   1.719   4.309   5.555
 1381SOL    HW116174   1.693   4.398   5.519
 1381SOL    HW216175   1.717   4.241   5.482
 1382SOL     OW16176   1.008   5.180   4.201
 1382SOL    HW116177   0.962   5.252   4.149
 1382SOL    HW216178   1.004   5.200   4.299
 1383SOL     OW16179   0.461   4.990   5.451
 1383SOL    HW116180   0.411   4.991   5.365
 1383SOL    HW216181   0.398   4.972   5.527
 1384SOL     OW16182   0.464   5.467   4.047
 1384SOL    HW116183   0.497   5.506   4.133
 1384SOL    HW216184   0.540   5.460   3.982
 1385SOL     OW16185   1.400   3.831   4.150
 1385SOL    HW116186   1.376   3.794   4.060
 1385SOL    HW216187   1.499   3.847   4.154
 1386SOL     OW16188   0.781   3.988   5.473
 1386SOL    HW116189   0.848   3.927   5.516
 1386SOL    HW216190   0.708   4.007   5.538
 1387SOL     OW16191   0.888   5.238   4.919
 1387SOL    HW116192   0.865   5.213   4.825
 1387SOL    HW216193   0.949   5.169   4.958
 1388SOL     OW16194   0.922   4.227   4.623
 1388SOL    HW116195   0.897   4.218   4.527
 1388SOL    HW216196   0.970   4.145   4.654
 1389SOL     OW16197   1.434   4.912   3.765
 1389SOL    HW116198   1.466   4.836   3.822
 1389SOL    HW216199   1.342   4.939   3.795
 1390SOL     OW16200   0.459   4.876   4.465
 1390SOL    HW116201   0.388   4.849   4.530
 1390SOL    HW216202   0.433   4.848   4.372
 1391SOL     OW16203   0.078   4.280   5.110
 1391SOL    HW116204   0.170   4.279   5.069
 1391SOL    HW216205   0.072   4.354   5.177
 1392SOL     OW16206   0.866   4.178   4.366
 1392SOL    HW116207   0.834   4.250   4.304
 1392SOL    HW216208   0.890   4.097   4.313
 1393SOL     OW16209   1.390   4.299   3.802
 1393SOL    HW116210   1.336   4.278   3.883
 1393SOL    HW216211   1.481   4.258   3.811
 1394SOL     OW16212   1.592   5.353   5.349
 1394SOL    HW116213   1.619   5.387   5.259
 1394SOL    HW216214   1.671   5.315   5.395
 1395SOL     OW16215   0.915   3.813   5.126
 1395SOL    HW116216   0.940   3.793   5.031
 1395SOL    HW216217   0.987   3.869   5.168
 1396SOL     OW16218   0.980   4.840   5.443
 1396SOL    HW116219   0.881   4.846   5.453
 1396SOL    HW216220   1.003   4.760   5.387
 1397SOL     OW16221   0.705   4.774   4.092
 1397SOL    HW116222   0.691   4.781   4.191
 1397SOL    HW216223   0.789   4.723   4.074
 1398SOL     OW16224   0.410   4.537   4.975
 1398SOL    HW116225   0.496   4.549   5.025
 1398SOL    HW216226   0.368   4.450   5.002
 1399SOL     OW16227   0.367   4.824   4.225
 1399SOL    HW116228   0.360   4.907   4.169
 1399SOL    HW216229   0.371   4.744   4.165
 1400SOL     OW16230   1.252   5.072   4.112
 1400SOL    HW116231   1.302   5.149   4.152
 1400SOL    HW216232   1.157   5.074   4.144
 1401SOL     OW16233   1.272   5.169   4.866
 1401SOL    HW116234   1.319   5.182   4.953
 1401SOL    HW216235   1.206   5.095   4.875
 1402SOL     OW16236   0.402   4.475   5.322
 1402SOL    HW116237   0.470   4.530   5.275
 1402SOL    HW216238   0.442   4.387   5.349
 1403SOL     OW16239   1.209   4.249   3.999
 1403SOL    HW116240   1.222   4.165   4.053
 1403SOL    HW216241   1.180   4.323   4.059
 1404SOL     OW16242   1.728   4.659   5.578
 1404SOL    HW116243   1.682   4.652   5.489
 1404SOL    HW216244   1.666   4.703   5.644
 1405SOL     OW16245   0.980   5.297   5.424
 1405SOL    HW116246   0.960   5.341   5.336
 1405SOL    HW216247   1.019   5.206   5.408
 1406SOL     OW16248   1.859   5.242   5.329
 1406SOL    HW116249   1.873   5.269   5.234
 1406SOL    HW216250   1.942   5.264   5.382
 1407SOL     OW16251   0.350   4.622   5.528
 1407SOL    HW116252   0.426   4.666   5.576
 1407SOL    HW216253   0.385   4.575   5.446
 1408SOL     OW16254   0.040   4.268   4.838
 1408SOL    HW116255   0.125   4.235   4.797
 1408SOL    HW216256   0.053   4.283   4.936
 1409SOL     OW16257   0.815   4.296   4.049
 1409SOL    HW116258   0.822   4.207   4.003
 1409SOL    HW216259   0.721   4.330   4.041
 1410SOL     OW16260   0.252   5.288   5.468
 1410SOL    HW116261   0.222   5.345   5.544
 1410SOL    HW216262   0.245   5.191   5.494
 1411SOL     OW16263   0.688   5.386   5.440
 1411SOL    HW116264   0.632   5.467   5.449
 1411SOL    HW216265   0.740   5.390   5.354
 1412SOL     OW16266   1.726   3.859   4.247
 1412SOL    HW116267   1.799   3.842   4.180
 1412SOL    HW216268   1.695   3.772   4.285
 1413SOL     OW16269   0.130   5.518   5.575
 1413SOL    HW116270   0.089   5.444   5.628
 1413SOL    HW216271   0.194   5.569   5.633
 1414SOL     OW16272   0.830   4.997   5.146
 1414SOL    HW116273   0.825   5.030   5.241
 1414SOL    HW216274   0.744   5.016   5.100
 1415SOL     OW16275   1.650   5.444   5.118
 1415SOL    HW116276   1.703   5.454   5.034
 1415SOL    HW216277   1.623   5.534   5.152
 1416SOL     OW16278   0.372   5.012   5.214
 1416SOL    HW116279   0.359   5.105   5.180
 1416SOL    HW216280   0.288   4.960   5.201
 1417SOL     OW16281   1.014   3.960   4.695
 1417SOL    HW116282   1.006   3.924   4.602
 1417SOL    HW216283   1.012   3.884   4.760
 1418SOL     OW16284   0.590   5.211   4.215
 1418SOL    HW116285   0.632   5.153   4.145
 1418SOL    HW216286   0.546   5.290   4.171
 1419SOL     OW16287   1.709   4.109   5.105
 1419SOL    HW116288   1.782   4.178   5.109
 1419SOL    HW216289   1.737   4.034   5.046
 1420SOL     OW16290   0.105   4.737   5.450
 1420SOL    HW116291   0.028   4.704   5.504
 1420SOL    HW216292   0.190   4.707   5.492
 1421SOL     OW16293   0.075   4.069   3.757
 1421SOL    HW116294  -0.017   4.041   3.728
 1421SOL    HW216295   0.106   4.146   3.701
 1422SOL     OW16296   0.390   5.465   5.284
 1422SOL    HW116297   0.299   5.506   5.282
 1422SOL    HW216298   0.383   5.371   5.316
 1423SOL     OW16299   1.225   4.049   4.173
 1423SOL    HW116300   1.290   3.975   4.162
 1423SOL    HW216301   1.245   4.099   4.257
 1424SOL     OW16302   1.777   4.066   5.366
 1424SOL    HW116303   1.760   4.097   5.272
 1424SOL    HW216304   1.693   4.029   5.404
 1425SOL     OW16305   1.730   4.658   5.241
 1425SOL    HW116306   1.768   4.749   5.256
 1425SOL    HW216307   1.722   4.641   5.142
 1426SOL     OW16308   0.859   5.098   3.740
 1426SOL    HW116309   0.813   5.113   3.828
 1426SOL    HW216310   0.903   5.183   3.710
 1427SOL     OW16311   0.859   4.680   4.585
 1427SOL    HW116312   0.913   4.611   4.633
 1427SOL    HW216313   0.827   4.749   4.651
 1428SOL     OW16314   0.221   5.038   5.568
 1428SOL    HW116315   0.156   4.965   5.547
 1428SOL    HW216316   0.225   5.052   5.666
 1429SOL     OW16317   0.079   4.964   4.377
 1429SOL    HW116318   0.078   4.917   4.465
 1429SOL    HW216319   0.161   4.936   4.326
 1430SOL     OW16320   0.672   5.115   5.348
 1430SOL    HW116321   0.594   5.065   5.386
 1430SOL    HW216322   0.669   5.210   5.379
 1431SOL     OW16323   0.770   5.054   4.025
 1431SOL    HW116324   0.724   4.967   4.042
 1431SOL    HW216325   0.861   5.051   4.066
 1432SOL     OW16326   1.593   3.945   4.606
 1432SOL    HW116327   1.509   3.944   4.660
 1432SOL    HW216328   1.595   4.028   4.550
 1433SOL     OW16329   0.225   3.999   6.582
 1433SOL    HW116330   0.260   3.982   6.674
 1433SOL    HW216331   0.137   3.954   6.570
 1434SOL     OW16332   0.019   4.092   6.233
 1434SOL    HW116333  -0.063   4.135   6.272
 1434SOL    HW216334  -0.009   4.019   6.170
 1435SOL     OW16335   0.569   4.999   6.751
 1435SOL    HW116336   0.476   4.992   6.714
 1435SOL    HW216337   0.580   5.088   6.795
 1436SOL     OW16338   1.555   5.235   6.289
 1436SOL    HW116339   1.498   5.219   6.370
 1436SOL    HW216340   1.496   5.245   6.209
 1437SOL     OW16341   1.135   4.427   6.303
 1437SOL    HW116342   1.192   4.505   6.278
 1437SOL    HW216343   1.075   4.453   6.379
 1438SOL     OW16344   1.755   4.331   5.817
 1438SOL    HW116345   1.743   4.318   5.718
 1438SOL    HW216346   1.725   4.250   5.866
 1439SOL     OW16347   0.768   4.868   6.609
 1439SOL    HW116348   0.690   4.885   6.669
 1439SOL    HW216349   0.802   4.955   6.573
 1440SOL     OW16350   0.685   4.736   6.251
 1440SOL    HW116351   0.754   4.720   6.321
 1440SOL    HW216352   0.612   4.793   6.289
 1441SOL     OW16353   0.335   5.159   6.647
 1441SOL    HW116354   0.257   5.128   6.594
 1441SOL    HW216355   0.393   5.217   6.590
 1442SOL     OW16356   1.603   4.171   6.323
 1442SOL    HW116357   1.529   4.217   6.273
 1442SOL    HW216358   1.654   4.239   6.376
 1443SOL     OW16359   0.231   5.437   6.069
 1443SOL    HW116360   0.265   5.514   6.123
 1443SOL    HW216361   0.275   5.437   5.979
 1444SOL     OW16362   0.230   5.158   6.124
 1444SOL    HW116363   0.204   5.254   6.124
 1444SOL    HW216364   0.159   5.104   6.169
 1445SOL     OW16365   0.240   4.815   6.472
 1445SOL    HW116366   0.254   4.731   6.524
 1445SOL    HW216367   0.185   4.879   6.527
 1446SOL     OW16368   0.620   5.510   7.025
 1446SOL    HW116369   0.528   5.493   7.060
 1446SOL    HW216370   0.648   5.602   7.051
 1447SOL     OW16371   0.606   4.688   5.709
 1447SOL    HW116372   0.613   4.772   5.655
 1447SOL    HW216373   0.652   4.701   5.797
 1448SOL     OW16374   0.122   4.367   6.149
 1448SOL    HW116375   0.077   4.279   6.166
 1448SOL    HW216376   0.121   4.421   6.233
 1449SOL     OW16377   1.842   5.491   5.945
 1449SOL    HW116378   1.896   5.462   6.025
 1449SOL    HW216379   1.872   5.581   5.916
 1450SOL     OW16380   0.027   5.320   5.703
 1450SOL    HW116381   0.008   5.224   5.724
 1450SOL    HW216382  -0.006   5.378   5.778
 1451SOL     OW16383   1.689   4.646   6.198
 1451SOL    HW116384   1.784   4.617   6.206
 1451SOL    HW216385   1.681   4.711   6.123
 1452SOL     OW16386   1.641   4.832   6.018
 1452SOL    HW116387   1.727   4.834   5.966
 1452SOL    HW216388   1.655   4.879   6.106
 1453SOL     OW16389   0.613   5.089   6.312
 1453SOL    HW116390   0.564   5.002   6.321
 1453SOL    HW216391   0.590   5.132   6.225
 1454SOL     OW16392   0.809   3.728   6.088
 1454SOL    HW116393   0.849   3.819   6.079
 1454SOL    HW216394   0.709   3.736   6.094
 1455SOL     OW16395   0.197   4.700   6.850
 1455SOL    HW116396   0.286   4.655   6.836
 1455SOL    HW216397   0.124   4.635   6.831
 1456SOL     OW16398   1.525   4.723   5.776
 1456SOL    HW116399   1.462   4.647   5.789
 1456SOL    HW216400   1.573   4.741   5.862
 1457SOL     OW16401   1.466   5.141   6.539
 1457SOL    HW116402   1.407   5.147   6.619
 1457SOL    HW216403   1.451   5.053   6.493
 1458SOL     OW16404   1.667   5.438   6.158
 1458SOL    HW116405   1.626   5.415   6.070
 1458SOL    HW216406   1.649   5.364   6.223
 1459SOL     OW16407   1.281   4.069   6.530
 1459SOL    HW116408   1.195   4.019   6.517
 1459SOL    HW216409   1.343   4.015   6.586
 1460SOL     OW16410   1.576   5.386   5.893
 1460SOL    HW116411   1.665   5.432   5.896
 1460SOL    HW216412   1.555   5.362   5.798
 1461SOL     OW16413   0.991   4.134   6.828
 1461SOL    HW116414   0.914   4.168   6.882
 1461SOL    HW216415   0.957   4.083   6.749
 1462SOL     OW16416   1.041   4.425   6.015
 1462SOL    HW116417   1.067   4.421   6.111
 1462SOL    HW216418   0.956   4.374   6.001
 1463SOL     OW16419   0.076   4.535   6.375
 1463SOL    HW116420   0.175   4.523   6.384
 1463SOL    HW216421   0.052   4.630   6.396
 1464SOL     OW16422   0.130   5.545   7.157
 1464SOL    HW116423   0.120   5.530   7.256
 1464SOL    HW216424   0.044   5.581   7.121
 1465SOL     OW16425   0.865   4.072   5.781
 1465SOL    HW116426   0.924   4.135   5.732
 1465SOL    HW216427   0.884   3.978   5.752
 1466SOL     OW16428   1.362   4.868   6.131
 1466SOL    HW116429   1.445   4.839   6.083
 1466SOL    HW216430   1.313   4.935   6.075
 1467SOL     OW16431   0.550   3.920   6.471
 1467SOL    HW116432   0.545   3.915   6.571
 1467SOL    HW216433   0.552   4.016   6.442
 1468SOL     OW16434   1.008   5.180   6.063
 1468SOL    HW116435   0.962   5.252   6.011
 1468SOL    HW216436   1.004   5.200   6.161
 1469SOL     OW16437   0.351   5.525   6.439
 1469SOL    HW116438   0.401   5.439   6.445
 1469SOL    HW216439   0.416   5.602   6.436
 1470SOL     OW16440   1.795   4.790   6.459
 1470SOL    HW116441   1.733   4.775   6.383
 1470SOL    HW216442   1.743   4.801   6.544
 1471SOL     OW16443   0.321   4.667   5.828
 1471SOL    HW116444   0.403   4.706   5.786
 1471SOL    HW216445   0.294   4.585   5.779
 1472SOL     OW16446   1.458   4.459   6.314
 1472SOL    HW116447   1.453   4.394   6.389
 1472SOL    HW216448   1.538   4.518   6.327
 1473SOL     OW16449   1.111   5.500   5.823
 1473SOL    HW116450   1.051   5.438   5.873
 1473SOL    HW216451   1.142   5.456   5.738
 1474SOL     OW16452   1.632   5.101   5.667
 1474SOL    HW116453   1.600   5.195   5.657
 1474SOL    HW216454   1.556   5.038   5.655
 1475SOL     OW16455   0.464   5.467   5.909
 1475SOL    HW116456   0.497   5.506   5.995
 1475SOL    HW216457   0.540   5.460   5.844
 1476SOL     OW16458   1.400   3.831   6.012
 1476SOL    HW116459   1.376   3.794   5.922
 1476SOL    HW216460   1.499   3.847   6.016
 1477SOL     OW16461   0.249   5.509   6.827
 1477SOL    HW116462   0.306   5.444   6.877
 1477SOL    HW216463   0.233   5.476   6.734
 1478SOL     OW16464   0.940   5.422   6.490
 1478SOL    HW116465   1.020   5.365   6.511
 1478SOL    HW216466   0.891   5.382   6.413
 1479SOL     OW16467   0.382   4.424   6.066
 1479SOL    HW116468   0.427   4.334   6.063
 1479SOL    HW216469   0.288   4.413   6.099
 1480SOL     OW16470   0.803   5.126   6.510
 1480SOL    HW116471   0.893   5.140   6.468
 1480SOL    HW216472   0.732   5.128   6.439
 1481SOL     OW16473   0.922   4.227   6.485
 1481SOL    HW116474   0.897   4.218   6.389
 1481SOL    HW216475   0.970   4.145   6.516
 1482SOL     OW16476   0.539   3.788   6.098
 1482SOL    HW116477   0.458   3.789   6.156
 1482SOL    HW216478   0.542   3.871   6.043
 1483SOL     OW16479   1.434   4.912   5.627
 1483SOL    HW116480   1.466   4.836   5.684
 1483SOL    HW216481   1.342   4.939   5.657
 1484SOL     OW16482   0.935   3.960   6.066
 1484SOL    HW116483   0.887   4.001   5.988
 1484SOL    HW216484   1.034   3.958   6.047
 1485SOL     OW16485   1.227   5.294   6.379
 1485SOL    HW116486   1.248   5.368   6.314
 1485SOL    HW216487   1.295   5.294   6.452
 1486SOL     OW16488   0.459   4.876   6.327
 1486SOL    HW116489   0.388   4.849   6.392
 1486SOL    HW216490   0.433   4.848   6.234
 1487SOL     OW16491   1.271   5.521   6.177
 1487SOL    HW116492   1.315   5.585   6.113
 1487SOL    HW216493   1.221   5.573   6.247
 1488SOL     OW16494   0.561   3.946   6.733
 1488SOL    HW116495   0.599   3.862   6.770
 1488SOL    HW216496   0.473   3.965   6.777
 1489SOL     OW16497   0.866   4.178   6.228
 1489SOL    HW116498   0.834   4.250   6.166
 1489SOL    HW216499   0.890   4.097   6.175
 1490SOL     OW16500   1.017   3.763   6.339
 1490SOL    HW116501   0.945   3.768   6.270
 1490SOL    HW216502   0.993   3.694   6.408
 1491SOL     OW16503   1.429   4.897   6.453
 1491SOL    HW116504   1.374   4.813   6.446
 1491SOL    HW216505   1.455   4.926   6.361
 1492SOL     OW16506   1.466   4.314   6.578
 1492SOL    HW116507   1.436   4.219   6.585
 1492SOL    HW216508   1.539   4.330   6.644
 1493SOL     OW16509   1.857   4.557   5.963
 1493SOL    HW116510   1.899   4.493   6.027
 1493SOL    HW216511   1.819   4.506   5.885
 1494SOL     OW16512   0.488   5.109   5.760
 1494SOL    HW116513   0.401   5.094   5.807
 1494SOL    HW216514   0.471   5.135   5.665
 1495SOL     OW16515   1.664   5.004   6.243
 1495SOL    HW116516   1.763   5.012   6.257
 1495SOL    HW216517   1.619   5.088   6.274
 1496SOL     OW16518   1.390   4.299   5.664
 1496SOL    HW116519   1.336   4.278   5.745
 1496SOL    HW216520   1.481   4.258   5.673
 1497SOL     OW16521   1.111   4.919   6.686
 1497SOL    HW116522   1.071   4.963   6.767
 1497SOL    HW216523   1.070   4.956   6.603
 1498SOL     OW16524   1.638   4.823   6.665
 1498SOL    HW116525   1.643   4.904   6.724
 1498SOL    HW216526   1.552   4.825   6.614
 1499SOL     OW16527   0.705   4.774   5.954
 1499SOL    HW116528   0.691   4.781   6.053
 1499SOL    HW216529   0.789   4.723   5.936
 1500SOL     OW16530   0.410   4.537   6.837
 1500SOL    HW116531   0.496   4.549   6.887
 1500SOL    HW216532   0.368   4.450   6.864
 1501SOL     OW16533   1.274   4.110   6.848
 1501SOL    HW116534   1.295   4.184   6.912
 1501SOL    HW216535   1.185   4.127   6.805
 1502SOL     OW16536   0.367   4.824   6.087
 1502SOL    HW116537   0.360   4.907   6.031
 1502SOL    HW216538   0.371   4.744   6.027
 1503SOL     OW16539   0.566   4.261   6.451
 1503SOL    HW116540   0.578   4.327   6.377
 1503SOL    HW216541   0.612   4.295   6.534
 1504SOL     OW16542   1.252   5.072   5.974
 1504SOL    HW116543   1.302   5.149   6.014
 1504SOL    HW216544   1.157   5.074   6.006
 1505SOL     OW16545   1.272   5.169   6.728
 1505SOL    HW116546   1.319   5.182   6.815
 1505SOL    HW216547   1.206   5.095   6.737
 1506SOL     OW16548   1.582   4.363   6.058
 1506SOL    HW116549   1.551   4.424   6.131
 1506SOL    HW216550   1.632   4.415   5.989
 1507SOL     OW16551   0.354   5.234   6.915
 1507SOL    HW116552   0.333   5.190   6.828
 1507SOL    HW216553   0.451   5.260   6.918
 1508SOL     OW16554   0.573   4.594   6.615
 1508SOL    HW116555   0.617   4.683   6.606
 1508SOL    HW216556   0.510   4.594   6.692
 1509SOL     OW16557   1.360   4.586   6.631
 1509SOL    HW116558   1.285   4.586   6.565
 1509SOL    HW216559   1.397   4.494   6.640
 1510SOL     OW16560   1.209   4.249   5.861
 1510SOL    HW116561   1.222   4.165   5.915
 1510SOL    HW216562   1.180   4.323   5.921
 1511SOL     OW16563   0.307   3.937   6.817
 1511SOL    HW116564   0.284   3.974   6.907
 1511SOL    HW216565   0.277   3.842   6.811
 1512SOL     OW16566   0.037   5.034   6.868
 1512SOL    HW116567   0.090   4.985   6.936
 1512SOL    HW216568   0.059   5.132   6.873
 1513SOL     OW16569   0.732   4.358   6.650
 1513SOL    HW116570   0.791   4.332   6.574
 1513SOL    HW216571   0.704   4.454   6.639
 1514SOL     OW16572   0.307   3.787   6.204
 1514SOL    HW116573   0.296   3.881   6.237
 1514SOL    HW216574   0.302   3.724   6.281
 1515SOL     OW16575   1.622   4.091   5.960
 1515SOL    HW116576   1.624   4.015   6.024
 1515SOL    HW216577   1.574   4.168   6.000
 1516SOL     OW16578   1.023   4.490   6.552
 1516SOL    HW116579   1.038   4.511   6.648
 1516SOL    HW216580   0.993   4.395   6.543
 1517SOL     OW16581   1.540   3.998   5.711
 1517SOL    HW116582   1.479   3.923   5.734
 1517SOL    HW216583   1.562   4.050   5.794
 1518SOL     OW16584   1.303   4.562   5.628
 1518SOL    HW116585   1.337   4.469   5.643
 1518SOL    HW216586   1.321   4.589   5.533
 1519SOL     OW16587   1.068   5.057   6.435
 1519SOL    HW116588   1.075   4.973   6.380
 1519SOL    HW216589   1.130   5.126   6.399
 1520SOL     OW16590   0.319   4.534   6.535
 1520SOL    HW116591   0.412   4.570   6.540
 1520SOL    HW216592   0.313   4.449   6.587
 1521SOL     OW16593   0.339   4.233   6.592
 1521SOL    HW116594   0.287   4.150   6.575
 1521SOL    HW216595   0.416   4.238   6.528
 1522SOL     OW16596   1.160   3.931   7.063
 1522SOL    HW116597   1.160   3.995   7.140
 1522SOL    HW216598   1.188   3.979   6.980
 1523SOL     OW16599   0.008   5.050   5.786
 1523SOL    HW116600  -0.085   5.071   5.755
 1523SOL    HW216601   0.018   4.951   5.799
 1524SOL     OW16602   0.088   5.525   6.513
 1524SOL    HW116603   0.046   5.439   6.486
 1524SOL    HW216604   0.182   5.528   6.479
 1525SOL     OW16605   0.504   5.292   6.496
 1525SOL    HW116606   0.570   5.366   6.505
 1525SOL    HW216607   0.548   5.213   6.454
 1526SOL     OW16608   1.002   4.520   6.824
 1526SOL    HW116609   1.043   4.488   6.910
 1526SOL    HW216610   0.906   4.493   6.821
 1527SOL     OW16611   0.040   4.268   6.700
 1527SOL    HW116612   0.125   4.235   6.659
 1527SOL    HW216613   0.053   4.283   6.798
 1528SOL     OW16614   0.815   4.296   5.911
 1528SOL    HW116615   0.822   4.207   5.865
 1528SOL    HW216616   0.721   4.330   5.903
 1529SOL     OW16617   1.657   4.328   6.792
 1529SOL    HW116618   1.619   4.259   6.854
 1529SOL    HW216619   1.739   4.292   6.748
 1530SOL     OW16620   0.671   4.188   6.855
 1530SOL    HW116621   0.637   4.099   6.825
 1530SOL    HW216622   0.697   4.242   6.775
 1531SOL     OW16623   0.930   5.402   7.051
 1531SOL    HW116624   0.906   5.384   6.956
 1531SOL    HW216625   0.960   5.496   7.061
 1532SOL     OW16626   1.347   4.783   6.820
 1532SOL    HW116627   1.371   4.720   6.746
 1532SOL    HW216628   1.257   4.823   6.802
 1533SOL     OW16629   1.302   4.579   5.895
 1533SOL    HW116630   1.216   4.548   5.937
 1533SOL    HW216631   1.298   4.565   5.796
 1534SOL     OW16632   1.759   5.471   6.740
 1534SOL    HW116633   1.820   5.501   6.667
 1534SOL    HW216634   1.721   5.382   6.718
 1535SOL     OW16635   1.252   5.455   6.714
 1535SOL    HW116636   1.336   5.460   6.660
 1535SOL    HW216637   1.229   5.359   6.732
 1536SOL     OW16638   0.083   4.982   6.608
 1536SOL    HW116639   0.078   4.981   6.708
 1536SOL    HW216640   0.000   4.941   6.570
 1537SOL     OW16641   1.726   3.859   6.109
 1537SOL    HW116642   1.799   3.842   6.042
 1537SOL    HW216643   1.695   3.772   6.147
 1538SOL     OW16644   1.388   5.297   6.063
 1538SOL    HW116645   1.455   5.309   5.989
 1538SOL    HW216646   1.348   5.386   6.086
 1539SOL     OW16647   1.280   4.651   6.258
 1539SOL    HW116648   1.340   4.570   6.260
 1539SOL    HW216649   1.320   4.720   6.198
 1540SOL     OW16650   0.672   5.340   5.740
 1540SOL    HW116651   0.681   5.350   5.641
 1540SOL    HW216652   0.632   5.251   5.761
 1541SOL     OW16653   1.650   5.444   6.980
 1541SOL    HW116654   1.703   5.454   6.896
 1541SOL    HW216655   1.623   5.534   7.014
 1542SOL     OW16656   1.841   3.899   6.549
 1542SOL    HW116657   1.880   3.814   6.513
 1542SOL    HW216658   1.743   3.901   6.530
 1543SOL     OW16659   0.263   4.050   6.306
 1543SOL    HW116660   0.184   4.101   6.272
 1543SOL    HW216661   0.254   4.035   6.404
 1544SOL     OW16662   1.194   5.336   5.617
 1544SOL    HW116663   1.200   5.243   5.654
 1544SOL    HW216664   1.135   5.336   5.537
 1545SOL     OW16665   0.822   4.726   6.958
 1545SOL    HW116666   0.862   4.725   6.866
 1545SOL    HW216667   0.832   4.818   6.998
 1546SOL     OW16668   0.916   4.634   5.877
 1546SOL    HW116669   0.979   4.672   5.809
 1546SOL    HW216670   0.956   4.551   5.916
 1547SOL     OW16671   1.504   5.331   5.630
 1547SOL    HW116672   1.412   5.368   5.637
 1547SOL    HW216673   1.542   5.351   5.540
 1548SOL     OW16674   1.039   4.822   6.282
 1548SOL    HW116675   0.969   4.775   6.336
 1548SOL    HW216676   1.098   4.754   6.239
 1549SOL     OW16677   1.014   3.960   6.557
 1549SOL    HW116678   1.006   3.924   6.464
 1549SOL    HW216679   1.012   3.884   6.622
 1550SOL     OW16680   0.590   5.211   6.077
 1550SOL    HW116681   0.632   5.153   6.007
 1550SOL    HW216682   0.546   5.290   6.033
 1551SOL     OW16683   1.709   4.109   6.967
 1551SOL    HW116684   1.782   4.178   6.971
 1551SOL    HW216685   1.737   4.034   6.908
 1552SOL     OW16686   0.255   5.072   5.876
 1552SOL    HW116687   0.159   5.073   5.849
 1552SOL    HW216688   0.267   5.125   5.960
 1553SOL     OW16689   1.183   5.059   5.705
 1553SOL    HW116690   1.084   5.048   5.707
 1553SOL    HW216691   1.217   5.074   5.798
 1554SOL     OW16692   1.493   5.491   6.545
 1554SOL    HW116693   1.526   5.555   6.476
 1554SOL    HW216694   1.559   5.485   6.620
 1555SOL     OW16695   1.450   4.944   7.219
 1555SOL    HW116696   1.441   4.934   7.318
 1555SOL    HW216697   1.546   4.937   7.193
 1556SOL     OW16698   1.674   4.607   6.840
 1556SOL    HW116699   1.647   4.518   6.803
 1556SOL    HW216700   1.675   4.675   6.767
 1557SOL     OW16701   1.225   4.049   6.035
 1557SOL    HW116702   1.290   3.975   6.024
 1557SOL    HW216703   1.245   4.099   6.119
 1558SOL     OW16704   0.594   4.469   6.238
 1558SOL    HW116705   0.644   4.554   6.219
 1558SOL    HW216706   0.506   4.471   6.190
 1559SOL     OW16707   1.730   4.658   7.103
 1559SOL    HW116708   1.768   4.749   7.118
 1559SOL    HW216709   1.722   4.641   7.004
 1560SOL     OW16710   0.859   5.098   5.602
 1560SOL    HW116711   0.813   5.113   5.690
 1560SOL    HW216712   0.903   5.183   5.572
 1561SOL     OW16713   0.661   5.514   6.539
 1561SOL    HW116714   0.615   5.602   6.526
 1561SOL    HW216715   0.760   5.526   6.532
 1562SOL     OW16716   0.859   4.680   6.447
 1562SOL    HW116717   0.913   4.611   6.495
 1562SOL    HW216718   0.827   4.749   6.513
 1563SOL     OW16719   1.083   4.708   5.673
 1563SOL    HW116720   1.060   4.761   5.591
 1563SOL    HW216721   1.164   4.652   5.654
 1564SOL     OW16722   1.861   5.293   6.437
 1564SOL    HW116723   1.790   5.281   6.367
 1564SOL    HW216724   1.862   5.214   6.497
 1565SOL     OW16725   0.079   4.964   6.239
 1565SOL    HW116726   0.078   4.917   6.327
 1565SOL    HW216727   0.161   4.936   6.188
 1566SOL     OW16728   1.824   3.916   6.813
 1566SOL    HW116729   1.820   3.826   6.857
 1566SOL    HW216730   1.827   3.905   6.714
 1567SOL     OW16731   0.428   4.148   6.106
 1567SOL    HW116732   0.458   4.076   6.044
 1567SOL    HW216733   0.389   4.108   6.189
 1568SOL     OW16734   1.705   5.211   6.690
 1568SOL    HW116735   1.612   5.186   6.663
 1568SOL    HW216736   1.731   5.161   6.772
 1569SOL     OW16737   0.812   5.310   6.273
 1569SOL    HW116738   0.844   5.320   6.179
 1569SOL    HW216739   0.733   5.248   6.275
 1570SOL     OW16740   1.424   3.938   6.698
 1570SOL    HW116741   1.476   3.873   6.753
 1570SOL    HW216742   1.375   4.001   6.759
 1571SOL     OW16743   1.001   3.758   6.740
 1571SOL    HW116744   0.938   3.686   6.709
 1571SOL    HW216745   1.094   3.722   6.740
 1572SOL     OW16746   0.770   5.054   5.887
 1572SOL    HW116747   0.724   4.967   5.904
 1572SOL    HW216748   0.861   5.051   5.928
 1573SOL     OW16749   1.352   3.776   5.754
 1573SOL    HW116750   1.387   3.735   5.670
 1573SOL    HW216751   1.262   3.738   5.774
 1574SOL     OW16752   1.300   4.177   6.277
 1574SOL    HW116753   1.241   4.257   6.281
 1574SOL    HW216754   1.315   4.142   6.370
 1575SOL     OW16755   1.593   3.945   6.468
 1575SOL    HW116756   1.509   3.944   6.522
 1575SOL    HW216757   1.595   4.028   6.412
 1576SOL     OW16758   0.039   4.801   5.886
 1576SOL    HW116759   0.138   4.790   5.877
 1576SOL    HW216760  -0.001   4.715   5.918
 1577SOL     OW16761   0.875   5.370   5.923
 1577SOL    HW116762   0.798   5.335   5.869
 1577SOL    HW216763   0.843   5.441   5.985
 1578SOL     OW16764   0.230   6.214   0.113
 1578SOL    HW116765   0.137   6.212   0.150
 1578SOL    HW216766   0.231   6.175   0.021
 1579SOL     OW16767   0.225   5.861   0.996
 1579SOL    HW116768   0.260   5.844   1.088
 1579SOL    HW216769   0.137   5.816   0.984
 1580SOL     OW16770   0.569   6.861   1.165
 1580SOL    HW116771   0.476   6.854   1.128
 1580SOL    HW216772   0.580   6.950   1.209
 1581SOL     OW16773   1.555   7.097   0.703
 1581SOL    HW116774   1.498   7.081   0.784
 1581SOL    HW216775   1.496   7.107   0.623
 1582SOL     OW16776   1.135   6.289   0.717
 1582SOL    HW116777   1.192   6.367   0.692
 1582SOL    HW216778   1.075   6.315   0.793
 1583SOL     OW16779   1.755   6.193   0.231
 1583SOL    HW116780   1.743   6.180   0.132
 1583SOL    HW216781   1.725   6.112   0.280
 1584SOL     OW16782   0.768   6.730   1.023
 1584SOL    HW116783   0.690   6.747   1.083
 1584SOL    HW216784   0.802   6.817   0.987
 1585SOL     OW16785   0.850   6.384   1.823
 1585SOL    HW116786   0.846   6.460   1.888
 1585SOL    HW216787   0.872   6.420   1.732
 1586SOL     OW16788   0.685   6.598   0.665
 1586SOL    HW116789   0.754   6.582   0.735
 1586SOL    HW216790   0.612   6.655   0.703
 1587SOL     OW16791   0.686   6.747   1.803
 1587SOL    HW116792   0.746   6.826   1.817
 1587SOL    HW216793   0.600   6.778   1.762
 1588SOL     OW16794   0.335   7.021   1.061
 1588SOL    HW116795   0.257   6.990   1.008
 1588SOL    HW216796   0.393   7.079   1.004
 1589SOL     OW16797   1.603   6.033   0.737
 1589SOL    HW116798   1.529   6.079   0.687
 1589SOL    HW216799   1.654   6.101   0.790
 1590SOL     OW16800   0.231   7.299   0.483
 1590SOL    HW116801   0.265   7.376   0.537
 1590SOL    HW216802   0.275   7.299   0.393
 1591SOL     OW16803   0.230   7.020   0.538
 1591SOL    HW116804   0.204   7.116   0.538
 1591SOL    HW216805   0.159   6.966   0.583
 1592SOL     OW16806   0.240   6.677   0.886
 1592SOL    HW116807   0.254   6.593   0.938
 1592SOL    HW216808   0.185   6.741   0.941
 1593SOL     OW16809   0.606   6.550   0.123
 1593SOL    HW116810   0.613   6.634   0.069
 1593SOL    HW216811   0.652   6.563   0.211
 1594SOL     OW16812   1.842   7.353   0.359
 1594SOL    HW116813   1.896   7.324   0.439
 1594SOL    HW216814   1.872   7.443   0.330
 1595SOL     OW16815   0.027   7.182   0.117
 1595SOL    HW116816   0.008   7.086   0.138
 1595SOL    HW216817  -0.006   7.240   0.192
 1596SOL     OW16818   1.689   6.508   0.612
 1596SOL    HW116819   1.784   6.479   0.620
 1596SOL    HW216820   1.681   6.573   0.537
 1597SOL     OW16821   1.641   6.694   0.432
 1597SOL    HW116822   1.727   6.696   0.380
 1597SOL    HW216823   1.655   6.741   0.520
 1598SOL     OW16824   0.113   6.323   1.597
 1598SOL    HW116825   0.201   6.310   1.642
 1598SOL    HW216826   0.100   6.420   1.575
 1599SOL     OW16827   0.613   6.951   0.726
 1599SOL    HW116828   0.564   6.864   0.735
 1599SOL    HW216829   0.590   6.994   0.639
 1600SOL     OW16830   0.809   5.590   0.502
 1600SOL    HW116831   0.849   5.681   0.493
 1600SOL    HW216832   0.709   5.598   0.508
 1601SOL     OW16833   1.525   6.585   0.190
 1601SOL    HW116834   1.462   6.509   0.203
 1601SOL    HW216835   1.573   6.603   0.276
 1602SOL     OW16836   1.187   7.378   1.616
 1602SOL    HW116837   1.211   7.438   1.540
 1602SOL    HW216838   1.194   7.283   1.586
 1603SOL     OW16839   1.466   7.003   0.953
 1603SOL    HW116840   1.407   7.009   1.033
 1603SOL    HW216841   1.451   6.915   0.907
 1604SOL     OW16842   1.667   7.300   0.572
 1604SOL    HW116843   1.626   7.277   0.484
 1604SOL    HW216844   1.649   7.226   0.637
 1605SOL     OW16845   0.598   6.315   0.270
 1605SOL    HW116846   0.622   6.384   0.202
 1605SOL    HW216847   0.520   6.348   0.324
 1606SOL     OW16848   1.281   5.931   0.944
 1606SOL    HW116849   1.195   5.881   0.931
 1606SOL    HW216850   1.343   5.877   1.000
 1607SOL     OW16851   1.576   7.248   0.307
 1607SOL    HW116852   1.665   7.294   0.310
 1607SOL    HW216853   1.555   7.224   0.212
 1608SOL     OW16854   1.394   6.055   1.674
 1608SOL    HW116855   1.374   6.098   1.762
 1608SOL    HW216856   1.472   5.993   1.683
 1609SOL     OW16857   1.041   6.287   0.429
 1609SOL    HW116858   1.067   6.283   0.525
 1609SOL    HW216859   0.956   6.236   0.415
 1610SOL     OW16860   0.865   5.934   0.195
 1610SOL    HW116861   0.924   5.997   0.146
 1610SOL    HW216862   0.884   5.840   0.166
 1611SOL     OW16863   1.362   6.730   0.545
 1611SOL    HW116864   1.445   6.701   0.497
 1611SOL    HW216865   1.313   6.797   0.489
 1612SOL     OW16866   0.550   5.782   0.885
 1612SOL    HW116867   0.545   5.777   0.985
 1612SOL    HW216868   0.552   5.878   0.856
 1613SOL     OW16869   1.008   7.042   0.477
 1613SOL    HW116870   0.962   7.114   0.425
 1613SOL    HW216871   1.004   7.062   0.575
 1614SOL     OW16872   0.351   7.387   0.853
 1614SOL    HW116873   0.401   7.301   0.859
 1614SOL    HW216874   0.416   7.464   0.850
 1615SOL     OW16875   1.795   6.652   0.873
 1615SOL    HW116876   1.733   6.637   0.797
 1615SOL    HW216877   1.743   6.663   0.958
 1616SOL     OW16878   0.321   6.529   0.242
 1616SOL    HW116879   0.403   6.568   0.200
 1616SOL    HW216880   0.294   6.447   0.193
 1617SOL     OW16881   1.458   6.321   0.728
 1617SOL    HW116882   1.453   6.256   0.803
 1617SOL    HW216883   1.538   6.380   0.741
 1618SOL     OW16884   1.111   7.362   0.237
 1618SOL    HW116885   1.051   7.300   0.287
 1618SOL    HW216886   1.142   7.318   0.152
 1619SOL     OW16887   1.632   6.963   0.081
 1619SOL    HW116888   1.600   7.057   0.071
 1619SOL    HW216889   1.556   6.900   0.069
 1620SOL     OW16890   0.464   7.329   0.323
 1620SOL    HW116891   0.497   7.368   0.409
 1620SOL    HW216892   0.540   7.322   0.258
 1621SOL     OW16893   1.400   5.693   0.426
 1621SOL    HW116894   1.376   5.656   0.336
 1621SOL    HW216895   1.499   5.709   0.430
 1622SOL     OW16896   0.249   7.371   1.241
 1622SOL    HW116897   0.306   7.306   1.291
 1622SOL    HW216898   0.233   7.338   1.148
 1623SOL     OW16899   0.940   7.284   0.904
 1623SOL    HW116900   1.020   7.227   0.925
 1623SOL    HW216901   0.891   7.244   0.827
 1624SOL     OW16902   0.888   7.100   1.195
 1624SOL    HW116903   0.865   7.075   1.101
 1624SOL    HW216904   0.949   7.031   1.234
 1625SOL     OW16905   1.351   6.176   1.433
 1625SOL    HW116906   1.379   6.133   1.518
 1625SOL    HW216907   1.376   6.272   1.434
 1626SOL     OW16908   0.803   6.988   0.924
 1626SOL    HW116909   0.893   7.002   0.882
 1626SOL    HW216910   0.732   6.990   0.853
 1627SOL     OW16911   0.922   6.089   0.899
 1627SOL    HW116912   0.897   6.080   0.803
 1627SOL    HW216913   0.970   6.007   0.930
 1628SOL     OW16914   0.539   5.650   0.512
 1628SOL    HW116915   0.458   5.651   0.570
 1628SOL    HW216916   0.542   5.733   0.457
 1629SOL     OW16917   1.434   6.774   0.041
 1629SOL    HW116918   1.466   6.698   0.098
 1629SOL    HW216919   1.342   6.801   0.071
 1630SOL     OW16920   0.297   5.621   0.171
 1630SOL    HW116921   0.346   5.705   0.150
 1630SOL    HW216922   0.359   5.556   0.216
 1631SOL     OW16923   0.935   5.822   0.480
 1631SOL    HW116924   0.887   5.863   0.402
 1631SOL    HW216925   1.034   5.820   0.461
 1632SOL     OW16926   1.227   7.156   0.793
 1632SOL    HW116927   1.248   7.230   0.728
 1632SOL    HW216928   1.295   7.156   0.866
 1633SOL     OW16929   0.459   6.738   0.741
 1633SOL    HW116930   0.388   6.711   0.806
 1633SOL    HW216931   0.433   6.710   0.648
 1634SOL     OW16932   1.271   7.383   0.591
 1634SOL    HW116933   1.315   7.447   0.527
 1634SOL    HW216934   1.221   7.435   0.661
 1635SOL     OW16935   1.032   6.135   0.016
 1635SOL    HW116936   0.991   6.217  -0.023
 1635SOL    HW216937   1.096   6.161   0.089
 1636SOL     OW16938   0.561   5.808   1.147
 1636SOL    HW116939   0.599   5.724   1.184
 1636SOL    HW216940   0.473   5.827   1.191
 1637SOL     OW16941   0.866   6.040   0.642
 1637SOL    HW116942   0.834   6.112   0.580
 1637SOL    HW216943   0.890   5.959   0.589
 1638SOL     OW16944   1.017   5.625   0.753
 1638SOL    HW116945   0.945   5.630   0.684
 1638SOL    HW216946   0.993   5.556   0.822
 1639SOL     OW16947   1.429   6.759   0.867
 1639SOL    HW116948   1.374   6.675   0.860
 1639SOL    HW216949   1.455   6.788   0.775
 1640SOL     OW16950   1.466   6.176   0.992
 1640SOL    HW116951   1.436   6.081   0.999
 1640SOL    HW216952   1.539   6.192   1.058
 1641SOL     OW16953   1.857   6.419   0.377
 1641SOL    HW116954   1.899   6.355   0.441
 1641SOL    HW216955   1.819   6.368   0.299
 1642SOL     OW16956   0.488   6.971   0.174
 1642SOL    HW116957   0.401   6.956   0.221
 1642SOL    HW216958   0.471   6.997   0.079
 1643SOL     OW16959   1.664   6.866   0.657
 1643SOL    HW116960   1.763   6.874   0.671
 1643SOL    HW216961   1.619   6.950   0.688
 1644SOL     OW16962   1.390   6.161   0.078
 1644SOL    HW116963   1.336   6.140   0.159
 1644SOL    HW216964   1.481   6.120   0.087
 1645SOL     OW16965   0.527   5.842   0.328
 1645SOL    HW116966   0.554   5.783   0.253
 1645SOL    HW216967   0.527   5.937   0.297
 1646SOL     OW16968   1.064   6.933   1.340
 1646SOL    HW116969   0.984   6.910   1.395
 1646SOL    HW216970   1.147   6.907   1.389
 1647SOL     OW16971   1.111   6.781   1.100
 1647SOL    HW116972   1.071   6.825   1.181
 1647SOL    HW216973   1.070   6.818   1.017
 1648SOL     OW16974   1.638   6.685   1.079
 1648SOL    HW116975   1.643   6.766   1.138
 1648SOL    HW216976   1.552   6.687   1.028
 1649SOL     OW16977   0.915   5.675   1.402
 1649SOL    HW116978   0.940   5.655   1.307
 1649SOL    HW216979   0.987   5.731   1.444
 1650SOL     OW16980   0.705   6.636   0.368
 1650SOL    HW116981   0.691   6.643   0.467
 1650SOL    HW216982   0.789   6.585   0.350
 1651SOL     OW16983   0.410   6.399   1.251
 1651SOL    HW116984   0.496   6.411   1.301
 1651SOL    HW216985   0.368   6.312   1.278
 1652SOL     OW16986   1.274   5.972   1.262
 1652SOL    HW116987   1.295   6.046   1.326
 1652SOL    HW216988   1.185   5.989   1.219
 1653SOL     OW16989   0.064   7.150   1.331
 1653SOL    HW116990   0.018   7.232   1.297
 1653SOL    HW216991   0.162   7.169   1.340
 1654SOL     OW16992   0.367   6.686   0.501
 1654SOL    HW116993   0.360   6.769   0.445
 1654SOL    HW216994   0.371   6.606   0.441
 1655SOL     OW16995   1.252   6.934   0.388
 1655SOL    HW116996   1.302   7.011   0.428
 1655SOL    HW216997   1.157   6.936   0.420
 1656SOL     OW16998   1.582   6.225   0.472
 1656SOL    HW116999   1.551   6.286   0.545
 1656SOL    HW217000   1.632   6.277   0.403
 1657SOL     OW17001   0.354   7.096   1.329
 1657SOL    HW117002   0.333   7.052   1.242
 1657SOL    HW217003   0.451   7.122   1.332
 1658SOL     OW17004   1.013   5.691   1.770
 1658SOL    HW117005   1.019   5.776   1.718
 1658SOL    HW217006   1.045   5.615   1.713
 1659SOL     OW17007   0.573   6.456   1.029
 1659SOL    HW117008   0.617   6.545   1.020
 1659SOL    HW217009   0.510   6.456   1.106
 1660SOL     OW17010   1.360   6.448   1.045
 1660SOL    HW117011   1.285   6.448   0.979
 1660SOL    HW217012   1.397   6.356   1.054
 1661SOL     OW17013   1.209   6.111   0.275
 1661SOL    HW117014   1.222   6.027   0.329
 1661SOL    HW217015   1.180   6.185   0.335
 1662SOL     OW17016   0.307   5.799   1.231
 1662SOL    HW117017   0.284   5.836   1.321
 1662SOL    HW217018   0.277   5.704   1.225
 1663SOL     OW17019   0.037   6.896   1.282
 1663SOL    HW117020   0.090   6.847   1.350
 1663SOL    HW217021   0.059   6.994   1.287
 1664SOL     OW17022   0.732   6.220   1.064
 1664SOL    HW117023   0.791   6.194   0.988
 1664SOL    HW217024   0.704   6.316   1.053
 1665SOL     OW17025   1.728   6.521   1.854
 1665SOL    HW117026   1.682   6.514   1.765
 1665SOL    HW217027   1.666   6.565   1.920
 1666SOL     OW17028   0.307   5.649   0.618
 1666SOL    HW117029   0.296   5.743   0.651
 1666SOL    HW217030   0.302   5.586   0.695
 1667SOL     OW17031   1.622   5.953   0.374
 1667SOL    HW117032   1.624   5.877   0.438
 1667SOL    HW217033   1.574   6.030   0.414
 1668SOL     OW17034   1.023   6.352   0.966
 1668SOL    HW117035   1.038   6.373   1.062
 1668SOL    HW217036   0.993   6.257   0.957
 1669SOL     OW17037   0.350   6.484   1.804
 1669SOL    HW117038   0.426   6.528   1.852
 1669SOL    HW217039   0.385   6.437   1.722
 1670SOL     OW17040   1.540   5.860   0.125
 1670SOL    HW117041   1.479   5.785   0.148
 1670SOL    HW217042   1.562   5.912   0.208
 1671SOL     OW17043   1.303   6.424   0.042
 1671SOL    HW117044   1.337   6.331   0.057
 1671SOL    HW217045   1.321   6.451  -0.053
 1672SOL     OW17046   1.068   6.919   0.849
 1672SOL    HW117047   1.075   6.835   0.794
 1672SOL    HW217048   1.130   6.988   0.813
 1673SOL     OW17049   0.319   6.396   0.949
 1673SOL    HW117050   0.412   6.432   0.954
 1673SOL    HW217051   0.313   6.311   1.001
 1674SOL     OW17052   0.339   6.095   1.006
 1674SOL    HW117053   0.287   6.012   0.989
 1674SOL    HW217054   0.416   6.100   0.942
 1675SOL     OW17055   1.160   5.793   1.477
 1675SOL    HW117056   1.160   5.857   1.554
 1675SOL    HW217057   1.188   5.841   1.394
 1676SOL     OW17058   0.008   6.912   0.200
 1676SOL    HW117059  -0.085   6.933   0.169
 1676SOL    HW217060   0.018   6.813   0.213
 1677SOL     OW17061   0.088   7.387   0.927
 1677SOL    HW117062   0.046   7.301   0.900
 1677SOL    HW217063   0.182   7.390   0.893
 1678SOL     OW17064   0.504   7.154   0.910
 1678SOL    HW117065   0.570   7.228   0.919
 1678SOL    HW217066   0.548   7.075   0.868
 1679SOL     OW17067   1.002   6.382   1.238
 1679SOL    HW117068   1.043   6.350   1.324
 1679SOL    HW217069   0.906   6.355   1.235
 1680SOL     OW17070   0.815   6.158   0.325
 1680SOL    HW117071   0.822   6.069   0.279
 1680SOL    HW217072   0.721   6.192   0.317
 1681SOL     OW17073   0.930   7.264   1.465
 1681SOL    HW117074   0.906   7.246   1.370
 1681SOL    HW217075   0.960   7.358   1.475
 1682SOL     OW17076   0.473   6.086   0.191
 1682SOL    HW117077   0.534   6.166   0.195
 1682SOL    HW217078   0.378   6.117   0.198
 1683SOL     OW17079   1.347   6.645   1.234
 1683SOL    HW117080   1.371   6.582   1.160
 1683SOL    HW217081   1.257   6.685   1.216
 1684SOL     OW17082   1.302   6.441   0.309
 1684SOL    HW117083   1.216   6.410   0.351
 1684SOL    HW217084   1.298   6.427   0.210
 1685SOL     OW17085   1.759   7.333   1.154
 1685SOL    HW117086   1.820   7.363   1.081
 1685SOL    HW217087   1.721   7.244   1.132
 1686SOL     OW17088   1.252   7.317   1.128
 1686SOL    HW117089   1.336   7.322   1.074
 1686SOL    HW217090   1.229   7.221   1.146
 1687SOL     OW17091   0.083   6.844   1.022
 1687SOL    HW117092   0.078   6.843   1.122
 1687SOL    HW217093   0.000   6.803   0.984
 1688SOL     OW17094   0.688   7.248   1.716
 1688SOL    HW117095   0.632   7.329   1.725
 1688SOL    HW217096   0.740   7.252   1.630
 1689SOL     OW17097   0.903   5.672   0.133
 1689SOL    HW117098   0.954   5.673   0.047
 1689SOL    HW217099   0.959   5.630   0.204
 1690SOL     OW17100   1.726   5.721   0.523
 1690SOL    HW117101   1.799   5.704   0.456
 1690SOL    HW217102   1.695   5.634   0.561
 1691SOL     OW17103   1.388   7.159   0.477
 1691SOL    HW117104   1.455   7.171   0.403
 1691SOL    HW217105   1.348   7.248   0.500
 1692SOL     OW17106   0.130   7.380   1.851
 1692SOL    HW117107   0.089   7.306   1.904
 1692SOL    HW217108   0.194   7.431   1.909
 1693SOL     OW17109   1.280   6.513   0.672
 1693SOL    HW117110   1.340   6.432   0.674
 1693SOL    HW217111   1.320   6.582   0.612
 1694SOL     OW17112   0.830   6.859   1.422
 1694SOL    HW117113   0.825   6.892   1.517
 1694SOL    HW217114   0.744   6.878   1.376
 1695SOL     OW17115   0.672   7.202   0.154
 1695SOL    HW117116   0.681   7.212   0.055
 1695SOL    HW217117   0.632   7.113   0.175
 1696SOL     OW17118   1.650   7.306   1.394
 1696SOL    HW117119   1.703   7.316   1.310
 1696SOL    HW217120   1.623   7.396   1.428
 1697SOL     OW17121   1.841   5.761   0.963
 1697SOL    HW117122   1.880   5.676   0.927
 1697SOL    HW217123   1.743   5.763   0.944
 1698SOL     OW17124   0.263   5.912   0.720
 1698SOL    HW117125   0.184   5.963   0.686
 1698SOL    HW217126   0.254   5.897   0.818
 1699SOL     OW17127   1.194   7.198   0.031
 1699SOL    HW117128   1.200   7.105   0.068
 1699SOL    HW217129   1.135   7.198  -0.049
 1700SOL     OW17130   0.822   6.588   1.372
 1700SOL    HW117131   0.862   6.587   1.280
 1700SOL    HW217132   0.832   6.680   1.412
 1701SOL     OW17133   0.916   6.496   0.291
 1701SOL    HW117134   0.979   6.534   0.223
 1701SOL    HW217135   0.956   6.413   0.330
 1702SOL     OW17136   1.504   7.193   0.044
 1702SOL    HW117137   1.412   7.230   0.051
 1702SOL    HW217138   1.542   7.213  -0.046
 1703SOL     OW17139   0.372   6.874   1.490
 1703SOL    HW117140   0.359   6.967   1.456
 1703SOL    HW217141   0.288   6.822   1.477
 1704SOL     OW17142   1.039   6.684   0.696
 1704SOL    HW117143   0.969   6.637   0.750
 1704SOL    HW217144   1.098   6.616   0.653
 1705SOL     OW17145   1.014   5.822   0.971
 1705SOL    HW117146   1.006   5.786   0.878
 1705SOL    HW217147   1.012   5.746   1.036
 1706SOL     OW17148   0.590   7.073   0.491
 1706SOL    HW117149   0.632   7.015   0.421
 1706SOL    HW217150   0.546   7.152   0.447
 1707SOL     OW17151   0.255   6.934   0.290
 1707SOL    HW117152   0.159   6.935   0.263
 1707SOL    HW217153   0.267   6.987   0.374
 1708SOL     OW17154   0.075   5.931   0.033
 1708SOL    HW117155  -0.017   5.903   0.004
 1708SOL    HW217156   0.106   6.008  -0.023
 1709SOL     OW17157   1.440   6.442   1.398
 1709SOL    HW117158   1.383   6.494   1.335
 1709SOL    HW217159   1.536   6.454   1.374
 1710SOL     OW17160   0.072   5.752   0.318
 1710SOL    HW117161   0.055   5.835   0.264
 1710SOL    HW217162   0.162   5.715   0.296
 1711SOL     OW17163   1.183   6.921   0.119
 1711SOL    HW117164   1.084   6.910   0.121
 1711SOL    HW217165   1.217   6.936   0.212
 1712SOL     OW17166   0.613   6.428   1.431
 1712SOL    HW117167   0.669   6.509   1.414
 1712SOL    HW217168   0.672   6.348   1.434
 1713SOL     OW17169   1.493   7.353   0.959
 1713SOL    HW117170   1.526   7.417   0.890
 1713SOL    HW217171   1.559   7.347   1.034
 1714SOL     OW17172   0.716   6.151   1.708
 1714SOL    HW117173   0.735   6.216   1.782
 1714SOL    HW217174   0.776   6.071   1.717
 1715SOL     OW17175   1.674   6.469   1.254
 1715SOL    HW117176   1.647   6.380   1.217
 1715SOL    HW217177   1.675   6.537   1.181
 1716SOL     OW17178   1.225   5.911   0.449
 1716SOL    HW117179   1.290   5.837   0.438
 1716SOL    HW217180   1.245   5.961   0.533
 1717SOL     OW17181   0.859   6.960   0.016
 1717SOL    HW117182   0.813   6.975   0.104
 1717SOL    HW217183   0.903   7.045  -0.014
 1718SOL     OW17184   0.661   7.376   0.953
 1718SOL    HW117185   0.615   7.464   0.940
 1718SOL    HW217186   0.760   7.388   0.946
 1719SOL     OW17187   0.859   6.542   0.861
 1719SOL    HW117188   0.913   6.473   0.909
 1719SOL    HW217189   0.827   6.611   0.927
 1720SOL     OW17190   1.083   6.570   0.087
 1720SOL    HW117191   1.060   6.623   0.005
 1720SOL    HW217192   1.164   6.514   0.068
 1721SOL     OW17193   1.861   7.155   0.851
 1721SOL    HW117194   1.790   7.143   0.781
 1721SOL    HW217195   1.862   7.076   0.911
 1722SOL     OW17196   0.079   6.826   0.653
 1722SOL    HW117197   0.078   6.779   0.741
 1722SOL    HW217198   0.161   6.798   0.602
 1723SOL     OW17199   0.672   6.977   1.624
 1723SOL    HW117200   0.594   6.927   1.662
 1723SOL    HW217201   0.669   7.072   1.655
 1724SOL     OW17202   0.428   6.010   0.520
 1724SOL    HW117203   0.458   5.938   0.458
 1724SOL    HW217204   0.389   5.970   0.603
 1725SOL     OW17205   1.705   7.073   1.104
 1725SOL    HW117206   1.612   7.048   1.077
 1725SOL    HW217207   1.731   7.023   1.186
 1726SOL     OW17208   0.317   6.133   1.280
 1726SOL    HW117209   0.355   6.074   1.352
 1726SOL    HW217210   0.357   6.107   1.192
 1727SOL     OW17211   0.812   7.172   0.687
 1727SOL    HW117212   0.844   7.182   0.593
 1727SOL    HW217213   0.733   7.110   0.689
 1728SOL     OW17214   1.424   5.800   1.112
 1728SOL    HW117215   1.476   5.735   1.167
 1728SOL    HW217216   1.375   5.863   1.173
 1729SOL     OW17217   1.001   5.620   1.154
 1729SOL    HW117218   0.938   5.548   1.123
 1729SOL    HW217219   1.094   5.584   1.154
 1730SOL     OW17220   0.770   6.916   0.301
 1730SOL    HW117221   0.724   6.829   0.318
 1730SOL    HW217222   0.861   6.913   0.342
 1731SOL     OW17223   0.618   7.153   1.284
 1731SOL    HW117224   0.613   7.235   1.341
 1731SOL    HW217225   0.707   7.150   1.239
 1732SOL     OW17226   1.352   5.638   0.168
 1732SOL    HW117227   1.387   5.597   0.084
 1732SOL    HW217228   1.262   5.600   0.188
 1733SOL     OW17229   1.300   6.039   0.691
 1733SOL    HW117230   1.241   6.119   0.695
 1733SOL    HW217231   1.315   6.004   0.784
 1734SOL     OW17232   1.593   5.807   0.882
 1734SOL    HW117233   1.509   5.806   0.936
 1734SOL    HW217234   1.595   5.890   0.826
 1735SOL     OW17235   0.039   6.663   0.300
 1735SOL    HW117236   0.138   6.652   0.291
 1735SOL    HW217237  -0.001   6.577   0.332
 1736SOL     OW17238   0.875   7.232   0.337
 1736SOL    HW117239   0.798   7.197   0.283
 1736SOL    HW217240   0.843   7.303   0.399
 1737SOL     OW17241   0.019   5.954   2.509
 1737SOL    HW117242  -0.063   5.997   2.548
 1737SOL    HW217243  -0.009   5.881   2.446
 1738SOL     OW17244   1.135   6.289   2.579
 1738SOL    HW117245   1.192   6.367   2.554
 1738SOL    HW217246   1.075   6.315   2.655
 1739SOL     OW17247   0.768   6.730   2.885
 1739SOL    HW117248   0.690   6.747   2.945
 1739SOL    HW217249   0.802   6.817   2.849
 1740SOL     OW17250   0.335   7.021   2.923
 1740SOL    HW117251   0.257   6.990   2.870
 1740SOL    HW217252   0.393   7.079   2.866
 1741SOL     OW17253   1.603   6.033   2.599
 1741SOL    HW117254   1.529   6.079   2.549
 1741SOL    HW217255   1.654   6.101   2.652
 1742SOL     OW17256   1.127   6.927   3.552
 1742SOL    HW117257   1.174   6.927   3.640
 1742SOL    HW217258   1.079   6.840   3.541
 1743SOL     OW17259   0.620   7.372   3.301
 1743SOL    HW117260   0.528   7.355   3.336
 1743SOL    HW217261   0.648   7.464   3.327
 1744SOL     OW17262   1.594   5.700   3.342
 1744SOL    HW117263   1.576   5.767   3.270
 1744SOL    HW217264   1.591   5.746   3.431
 1745SOL     OW17265   0.807   6.191   3.327
 1745SOL    HW117266   0.760   6.188   3.416
 1745SOL    HW217267   0.756   6.136   3.261
 1746SOL     OW17268   0.076   6.397   2.651
 1746SOL    HW117269   0.175   6.385   2.660
 1746SOL    HW217270   0.052   6.492   2.672
 1747SOL     OW17271   0.550   5.782   2.747
 1747SOL    HW117272   0.545   5.777   2.847
 1747SOL    HW217273   0.552   5.878   2.718
 1748SOL     OW17274   1.111   7.362   2.099
 1748SOL    HW117275   1.051   7.300   2.149
 1748SOL    HW217276   1.142   7.318   2.014
 1749SOL     OW17277   0.464   7.329   2.185
 1749SOL    HW117278   0.497   7.368   2.271
 1749SOL    HW217279   0.540   7.322   2.120
 1750SOL     OW17280   0.940   7.284   2.766
 1750SOL    HW117281   1.020   7.227   2.787
 1750SOL    HW217282   0.891   7.244   2.689
 1751SOL     OW17283   0.935   5.822   2.342
 1751SOL    HW117284   0.887   5.863   2.264
 1751SOL    HW217285   1.034   5.820   2.323
 1752SOL     OW17286   1.227   7.156   2.655
 1752SOL    HW117287   1.248   7.230   2.590
 1752SOL    HW217288   1.295   7.156   2.728
 1753SOL     OW17289   1.271   7.383   2.453
 1753SOL    HW117290   1.315   7.447   2.389
 1753SOL    HW217291   1.221   7.435   2.523
 1754SOL     OW17292   1.429   6.759   2.729
 1754SOL    HW117293   1.374   6.675   2.722
 1754SOL    HW217294   1.455   6.788   2.637
 1755SOL     OW17295   1.857   6.419   2.239
 1755SOL    HW117296   1.899   6.355   2.303
 1755SOL    HW217297   1.819   6.368   2.161
 1756SOL     OW17298   1.664   6.866   2.519
 1756SOL    HW117299   1.763   6.874   2.533
 1756SOL    HW217300   1.619   6.950   2.550
 1757SOL     OW17301   0.527   5.842   2.190
 1757SOL    HW117302   0.554   5.783   2.115
 1757SOL    HW217303   0.527   5.937   2.159
 1758SOL     OW17304   0.915   5.675   3.264
 1758SOL    HW117305   0.940   5.655   3.169
 1758SOL    HW217306   0.987   5.731   3.306
 1759SOL     OW17307   1.274   5.972   3.124
 1759SOL    HW117308   1.295   6.046   3.188
 1759SOL    HW217309   1.185   5.989   3.081
 1760SOL     OW17310   0.367   6.686   2.363
 1760SOL    HW117311   0.360   6.769   2.307
 1760SOL    HW217312   0.371   6.606   2.303
 1761SOL     OW17313   0.566   6.123   2.727
 1761SOL    HW117314   0.578   6.189   2.653
 1761SOL    HW217315   0.612   6.157   2.810
 1762SOL     OW17316   0.402   6.337   3.460
 1762SOL    HW117317   0.470   6.392   3.413
 1762SOL    HW217318   0.442   6.249   3.487
 1763SOL     OW17319   1.587   6.365   3.532
 1763SOL    HW117320   1.495   6.403   3.527
 1763SOL    HW217321   1.647   6.412   3.467
 1764SOL     OW17322   0.573   6.456   2.891
 1764SOL    HW117323   0.617   6.545   2.882
 1764SOL    HW217324   0.510   6.456   2.968
 1765SOL     OW17325   0.307   5.799   3.093
 1765SOL    HW117326   0.284   5.836   3.183
 1765SOL    HW217327   0.277   5.704   3.087
 1766SOL     OW17328   0.037   6.896   3.144
 1766SOL    HW117329   0.090   6.847   3.212
 1766SOL    HW217330   0.059   6.994   3.149
 1767SOL     OW17331   0.732   6.220   2.926
 1767SOL    HW117332   0.791   6.194   2.850
 1767SOL    HW217333   0.704   6.316   2.915
 1768SOL     OW17334   1.728   6.521   3.716
 1768SOL    HW117335   1.682   6.514   3.627
 1768SOL    HW217336   1.666   6.565   3.782
 1769SOL     OW17337   1.622   5.953   2.236
 1769SOL    HW117338   1.624   5.877   2.300
 1769SOL    HW217339   1.574   6.030   2.276
 1770SOL     OW17340   1.859   7.104   3.467
 1770SOL    HW117341   1.873   7.131   3.372
 1770SOL    HW217342   1.942   7.126   3.520
 1771SOL     OW17343   0.350   6.484   3.666
 1771SOL    HW117344   0.426   6.528   3.714
 1771SOL    HW217345   0.385   6.437   3.584
 1772SOL     OW17346   0.319   6.396   2.811
 1772SOL    HW117347   0.412   6.432   2.816
 1772SOL    HW217348   0.313   6.311   2.863
 1773SOL     OW17349   1.138   5.966   3.540
 1773SOL    HW117350   1.093   6.029   3.604
 1773SOL    HW217351   1.231   5.997   3.523
 1774SOL     OW17352   0.008   6.912   2.062
 1774SOL    HW117353  -0.085   6.933   2.031
 1774SOL    HW217354   0.018   6.813   2.075
 1775SOL     OW17355   0.040   6.130   2.976
 1775SOL    HW117356   0.125   6.097   2.935
 1775SOL    HW217357   0.053   6.145   3.074
 1776SOL     OW17358   0.815   6.158   2.187
 1776SOL    HW117359   0.822   6.069   2.141
 1776SOL    HW217360   0.721   6.192   2.179
 1777SOL     OW17361   1.657   6.190   3.068
 1777SOL    HW117362   1.619   6.121   3.130
 1777SOL    HW217363   1.739   6.154   3.024
 1778SOL     OW17364   0.671   6.050   3.131
 1778SOL    HW117365   0.637   5.961   3.101
 1778SOL    HW217366   0.697   6.104   3.051
 1779SOL     OW17367   0.473   6.086   2.053
 1779SOL    HW117368   0.534   6.166   2.057
 1779SOL    HW217369   0.378   6.117   2.060
 1780SOL     OW17370   1.347   6.645   3.096
 1780SOL    HW117371   1.371   6.582   3.022
 1780SOL    HW217372   1.257   6.685   3.078
 1781SOL     OW17373   1.280   6.513   2.534
 1781SOL    HW117374   1.340   6.432   2.536
 1781SOL    HW217375   1.320   6.582   2.474
 1782SOL     OW17376   0.672   7.202   2.016
 1782SOL    HW117377   0.681   7.212   1.917
 1782SOL    HW217378   0.632   7.113   2.037
 1783SOL     OW17379   1.841   5.761   2.825
 1783SOL    HW117380   1.880   5.676   2.789
 1783SOL    HW217381   1.743   5.763   2.806
 1784SOL     OW17382   0.590   7.073   2.353
 1784SOL    HW117383   0.632   7.015   2.283
 1784SOL    HW217384   0.546   7.152   2.309
 1785SOL     OW17385   0.075   5.931   1.895
 1785SOL    HW117386  -0.017   5.903   1.866
 1785SOL    HW217387   0.106   6.008   1.839
 1786SOL     OW17388   1.440   6.442   3.260
 1786SOL    HW117389   1.383   6.494   3.197
 1786SOL    HW217390   1.536   6.454   3.236
 1787SOL     OW17391   1.493   7.353   2.821
 1787SOL    HW117392   1.526   7.417   2.752
 1787SOL    HW217393   1.559   7.347   2.896
 1788SOL     OW17394   1.777   5.928   3.504
 1788SOL    HW117395   1.760   5.959   3.410
 1788SOL    HW217396   1.693   5.891   3.542
 1789SOL     OW17397   0.672   6.977   3.486
 1789SOL    HW117398   0.594   6.927   3.524
 1789SOL    HW217399   0.669   7.072   3.517
 1790SOL     OW17400   1.824   5.778   3.089
 1790SOL    HW117401   1.820   5.688   3.133
 1790SOL    HW217402   1.827   5.767   2.990
 1791SOL     OW17403   1.705   7.073   2.966
 1791SOL    HW117404   1.612   7.048   2.939
 1791SOL    HW217405   1.731   7.023   3.048
 1792SOL     OW17406   0.317   6.133   3.142
 1792SOL    HW117407   0.355   6.074   3.214
 1792SOL    HW217408   0.357   6.107   3.054
 1793SOL     OW17409   1.424   5.800   2.974
 1793SOL    HW117410   1.476   5.735   3.029
 1793SOL    HW217411   1.375   5.863   3.035
 1794SOL     OW17412   1.001   5.620   3.016
 1794SOL    HW117413   0.938   5.548   2.985
 1794SOL    HW217414   1.094   5.584   3.016
 1795SOL     OW17415   0.770   6.916   2.163
 1795SOL    HW117416   0.724   6.829   2.180
 1795SOL    HW217417   0.861   6.913   2.204
 1796SOL     OW17418   0.618   7.153   3.146
 1796SOL    HW117419   0.613   7.235   3.203
 1796SOL    HW217420   0.707   7.150   3.101
 1797SOL     OW17421   0.875   7.232   2.199
 1797SOL    HW117422   0.798   7.197   2.145
 1797SOL    HW217423   0.843   7.303   2.261
 1798SOL     OW17424   0.230   6.214   3.837
 1798SOL    HW117425   0.137   6.212   3.874
 1798SOL    HW217426   0.231   6.175   3.745
 1799SOL     OW17427   0.225   5.861   4.720
 1799SOL    HW117428   0.260   5.844   4.812
 1799SOL    HW217429   0.137   5.816   4.708
 1800SOL     OW17430   0.019   5.954   4.371
 1800SOL    HW117431  -0.063   5.997   4.410
 1800SOL    HW217432  -0.009   5.881   4.308
 1801SOL     OW17433   0.569   6.861   4.889
 1801SOL    HW117434   0.476   6.854   4.852
 1801SOL    HW217435   0.580   6.950   4.933
 1802SOL     OW17436   0.768   6.730   4.747
 1802SOL    HW117437   0.690   6.747   4.807
 1802SOL    HW217438   0.802   6.817   4.711
 1803SOL     OW17439   0.850   6.384   5.547
 1803SOL    HW117440   0.846   6.460   5.612
 1803SOL    HW217441   0.872   6.420   5.456
 1804SOL     OW17442   0.685   6.598   4.389
 1804SOL    HW117443   0.754   6.582   4.459
 1804SOL    HW217444   0.612   6.655   4.427
 1805SOL     OW17445   0.686   6.747   5.527
 1805SOL    HW117446   0.746   6.826   5.541
 1805SOL    HW217447   0.600   6.778   5.486
 1806SOL     OW17448   0.438   5.978   5.223
 1806SOL    HW117449   0.520   5.922   5.232
 1806SOL    HW217450   0.357   5.920   5.227
 1807SOL     OW17451   1.127   6.927   5.414
 1807SOL    HW117452   1.174   6.927   5.502
 1807SOL    HW217453   1.079   6.840   5.403
 1808SOL     OW17454   0.240   6.677   4.610
 1808SOL    HW117455   0.254   6.593   4.662
 1808SOL    HW217456   0.185   6.741   4.665
 1809SOL     OW17457   0.620   7.372   5.163
 1809SOL    HW117458   0.528   7.355   5.198
 1809SOL    HW217459   0.648   7.464   5.189
 1810SOL     OW17460   1.594   5.700   5.204
 1810SOL    HW117461   1.576   5.767   5.132
 1810SOL    HW217462   1.591   5.746   5.293
 1811SOL     OW17463   0.122   6.229   4.287
 1811SOL    HW117464   0.077   6.141   4.304
 1811SOL    HW217465   0.121   6.283   4.371
 1812SOL     OW17466   0.027   7.182   3.841
 1812SOL    HW117467   0.008   7.086   3.862
 1812SOL    HW217468  -0.006   7.240   3.916
 1813SOL     OW17469   1.641   6.694   4.156
 1813SOL    HW117470   1.727   6.696   4.104
 1813SOL    HW217471   1.655   6.741   4.244
 1814SOL     OW17472   0.113   6.323   5.321
 1814SOL    HW117473   0.201   6.310   5.366
 1814SOL    HW217474   0.100   6.420   5.299
 1815SOL     OW17475   1.293   6.814   5.147
 1815SOL    HW117476   1.330   6.741   5.089
 1815SOL    HW217477   1.345   6.819   5.232
 1816SOL     OW17478   0.197   6.562   4.988
 1816SOL    HW117479   0.286   6.517   4.974
 1816SOL    HW217480   0.124   6.497   4.969
 1817SOL     OW17481   1.187   7.378   5.340
 1817SOL    HW117482   1.211   7.438   5.264
 1817SOL    HW217483   1.194   7.283   5.310
 1818SOL     OW17484   0.317   5.837   5.525
 1818SOL    HW117485   0.388   5.908   5.531
 1818SOL    HW217486   0.229   5.876   5.553
 1819SOL     OW17487   1.466   7.003   4.677
 1819SOL    HW117488   1.407   7.009   4.757
 1819SOL    HW217489   1.451   6.915   4.631
 1820SOL     OW17490   1.281   5.931   4.668
 1820SOL    HW117491   1.195   5.881   4.655
 1820SOL    HW217492   1.343   5.877   4.724
 1821SOL     OW17493   0.807   6.191   5.189
 1821SOL    HW117494   0.760   6.188   5.278
 1821SOL    HW217495   0.756   6.136   5.123
 1822SOL     OW17496   1.394   6.055   5.398
 1822SOL    HW117497   1.374   6.098   5.486
 1822SOL    HW217498   1.472   5.993   5.407
 1823SOL     OW17499   0.973   6.476   5.296
 1823SOL    HW117500   1.019   6.392   5.267
 1823SOL    HW217501   0.917   6.510   5.221
 1824SOL     OW17502   0.991   5.996   4.966
 1824SOL    HW117503   0.914   6.030   5.020
 1824SOL    HW217504   0.957   5.945   4.887
 1825SOL     OW17505   1.041   6.287   4.153
 1825SOL    HW117506   1.067   6.283   4.249
 1825SOL    HW217507   0.956   6.236   4.139
 1826SOL     OW17508   0.076   6.397   4.513
 1826SOL    HW117509   0.175   6.385   4.522
 1826SOL    HW217510   0.052   6.492   4.534
 1827SOL     OW17511   0.130   7.407   5.295
 1827SOL    HW117512   0.120   7.392   5.394
 1827SOL    HW217513   0.044   7.443   5.259
 1828SOL     OW17514   0.865   5.934   3.919
 1828SOL    HW117515   0.924   5.997   3.870
 1828SOL    HW217516   0.884   5.840   3.890
 1829SOL     OW17517   1.362   6.730   4.269
 1829SOL    HW117518   1.445   6.701   4.221
 1829SOL    HW217519   1.313   6.797   4.213
 1830SOL     OW17520   0.550   5.782   4.609
 1830SOL    HW117521   0.545   5.777   4.709
 1830SOL    HW217522   0.552   5.878   4.580
 1831SOL     OW17523   0.351   7.387   4.577
 1831SOL    HW117524   0.401   7.301   4.583
 1831SOL    HW217525   0.416   7.464   4.574
 1832SOL     OW17526   1.795   6.652   4.597
 1832SOL    HW117527   1.733   6.637   4.521
 1832SOL    HW217528   1.743   6.663   4.682
 1833SOL     OW17529   1.227   7.136   5.230
 1833SOL    HW117530   1.233   7.059   5.294
 1833SOL    HW217531   1.175   7.110   5.150
 1834SOL     OW17532   0.321   6.529   3.966
 1834SOL    HW117533   0.403   6.568   3.924
 1834SOL    HW217534   0.294   6.447   3.917
 1835SOL     OW17535   1.458   6.321   4.452
 1835SOL    HW117536   1.453   6.256   4.527
 1835SOL    HW217537   1.538   6.380   4.465
 1836SOL     OW17538   0.461   6.852   5.451
 1836SOL    HW117539   0.411   6.853   5.365
 1836SOL    HW217540   0.398   6.834   5.527
 1837SOL     OW17541   0.202   5.871   5.222
 1837SOL    HW117542   0.122   5.931   5.209
 1837SOL    HW217543   0.192   5.822   5.308
 1838SOL     OW17544   0.464   7.329   4.047
 1838SOL    HW117545   0.497   7.368   4.133
 1838SOL    HW217546   0.540   7.322   3.982
 1839SOL     OW17547   1.400   5.693   4.150
 1839SOL    HW117548   1.376   5.656   4.060
 1839SOL    HW217549   1.499   5.709   4.154
 1840SOL     OW17550   0.249   7.371   4.965
 1840SOL    HW117551   0.306   7.306   5.015
 1840SOL    HW217552   0.233   7.338   4.872
 1841SOL     OW17553   1.547   5.808   5.453
 1841SOL    HW117554   1.542   5.845   5.545
 1841SOL    HW217555   1.475   5.739   5.441
 1842SOL     OW17556   0.614   5.708   3.841
 1842SOL    HW117557   0.712   5.686   3.848
 1842SOL    HW217558   0.583   5.691   3.748
 1843SOL     OW17559   0.781   5.850   5.473
 1843SOL    HW117560   0.848   5.789   5.516
 1843SOL    HW217561   0.708   5.869   5.538
 1844SOL     OW17562   0.888   7.100   4.919
 1844SOL    HW117563   0.865   7.075   4.825
 1844SOL    HW217564   0.949   7.031   4.958
 1845SOL     OW17565   1.351   6.176   5.157
 1845SOL    HW117566   1.379   6.133   5.242
 1845SOL    HW217567   1.376   6.272   5.158
 1846SOL     OW17568   0.803   6.988   4.648
 1846SOL    HW117569   0.893   7.002   4.606
 1846SOL    HW217570   0.732   6.990   4.577
 1847SOL     OW17571   0.539   5.650   4.236
 1847SOL    HW117572   0.458   5.651   4.294
 1847SOL    HW217573   0.542   5.733   4.181
 1848SOL     OW17574   1.076   6.269   5.188
 1848SOL    HW117575   0.996   6.208   5.191
 1848SOL    HW217576   1.157   6.216   5.164
 1849SOL     OW17577   0.459   6.738   4.465
 1849SOL    HW117578   0.388   6.711   4.530
 1849SOL    HW217579   0.433   6.710   4.372
 1850SOL     OW17580   1.032   6.135   3.740
 1850SOL    HW117581   0.991   6.217   3.701
 1850SOL    HW217582   1.096   6.161   3.813
 1851SOL     OW17583   0.078   6.142   5.110
 1851SOL    HW117584   0.170   6.141   5.069
 1851SOL    HW217585   0.072   6.216   5.177
 1852SOL     OW17586   0.561   5.808   4.871
 1852SOL    HW117587   0.599   5.724   4.908
 1852SOL    HW217588   0.473   5.827   4.915
 1853SOL     OW17589   1.017   5.625   4.477
 1853SOL    HW117590   0.945   5.630   4.408
 1853SOL    HW217591   0.993   5.556   4.546
 1854SOL     OW17592   1.664   6.866   4.381
 1854SOL    HW117593   1.763   6.874   4.395
 1854SOL    HW217594   1.619   6.950   4.412
 1855SOL     OW17595   1.064   6.933   5.064
 1855SOL    HW117596   0.984   6.910   5.119
 1855SOL    HW217597   1.147   6.907   5.113
 1856SOL     OW17598   1.592   7.215   5.349
 1856SOL    HW117599   1.619   7.249   5.259
 1856SOL    HW217600   1.671   7.177   5.395
 1857SOL     OW17601   1.111   6.781   4.824
 1857SOL    HW117602   1.071   6.825   4.905
 1857SOL    HW217603   1.070   6.818   4.741
 1858SOL     OW17604   1.638   6.685   4.803
 1858SOL    HW117605   1.643   6.766   4.862
 1858SOL    HW217606   1.552   6.687   4.752
 1859SOL     OW17607   0.915   5.675   5.126
 1859SOL    HW117608   0.940   5.655   5.031
 1859SOL    HW217609   0.987   5.731   5.168
 1860SOL     OW17610   0.980   6.702   5.443
 1860SOL    HW117611   0.881   6.708   5.453
 1860SOL    HW217612   1.003   6.622   5.387
 1861SOL     OW17613   0.705   6.636   4.092
 1861SOL    HW117614   0.691   6.643   4.191
 1861SOL    HW217615   0.789   6.585   4.074
 1862SOL     OW17616   0.410   6.399   4.975
 1862SOL    HW117617   0.496   6.411   5.025
 1862SOL    HW217618   0.368   6.312   5.002
 1863SOL     OW17619   1.274   5.972   4.986
 1863SOL    HW117620   1.295   6.046   5.050
 1863SOL    HW217621   1.185   5.989   4.943
 1864SOL     OW17622   0.064   7.150   5.055
 1864SOL    HW117623   0.018   7.232   5.021
 1864SOL    HW217624   0.162   7.169   5.064
 1865SOL     OW17625   0.367   6.686   4.225
 1865SOL    HW117626   0.360   6.769   4.169
 1865SOL    HW217627   0.371   6.606   4.165
 1866SOL     OW17628   0.354   7.096   5.053
 1866SOL    HW117629   0.333   7.052   4.966
 1866SOL    HW217630   0.451   7.122   5.056
 1867SOL     OW17631   0.402   6.337   5.322
 1867SOL    HW117632   0.470   6.392   5.275
 1867SOL    HW217633   0.442   6.249   5.349
 1868SOL     OW17634   1.587   6.365   5.394
 1868SOL    HW117635   1.495   6.403   5.389
 1868SOL    HW217636   1.647   6.412   5.329
 1869SOL     OW17637   1.013   5.691   5.494
 1869SOL    HW117638   1.019   5.776   5.442
 1869SOL    HW217639   1.045   5.615   5.437
 1870SOL     OW17640   0.504   5.636   5.464
 1870SOL    HW117641   0.462   5.579   5.394
 1870SOL    HW217642   0.438   5.705   5.496
 1871SOL     OW17643   0.573   6.456   4.753
 1871SOL    HW117644   0.617   6.545   4.744
 1871SOL    HW217645   0.510   6.456   4.830
 1872SOL     OW17646   0.307   5.799   4.955
 1872SOL    HW117647   0.284   5.836   5.045
 1872SOL    HW217648   0.277   5.704   4.949
 1873SOL     OW17649   0.037   6.896   5.006
 1873SOL    HW117650   0.090   6.847   5.074
 1873SOL    HW217651   0.059   6.994   5.011
 1874SOL     OW17652   1.728   6.521   5.578
 1874SOL    HW117653   1.682   6.514   5.489
 1874SOL    HW217654   1.666   6.565   5.644
 1875SOL     OW17655   0.307   5.649   4.342
 1875SOL    HW117656   0.296   5.743   4.375
 1875SOL    HW217657   0.302   5.586   4.419
 1876SOL     OW17658   1.622   5.953   4.098
 1876SOL    HW117659   1.624   5.877   4.162
 1876SOL    HW217660   1.574   6.030   4.138
 1877SOL     OW17661   0.980   7.159   5.424
 1877SOL    HW117662   0.960   7.203   5.336
 1877SOL    HW217663   1.019   7.068   5.408
 1878SOL     OW17664   0.350   6.484   5.528
 1878SOL    HW117665   0.426   6.528   5.576
 1878SOL    HW217666   0.385   6.437   5.446
 1879SOL     OW17667   1.068   6.919   4.573
 1879SOL    HW117668   1.075   6.835   4.518
 1879SOL    HW217669   1.130   6.988   4.537
 1880SOL     OW17670   0.319   6.396   4.673
 1880SOL    HW117671   0.412   6.432   4.678
 1880SOL    HW217672   0.313   6.311   4.725
 1881SOL     OW17673   0.339   6.095   4.730
 1881SOL    HW117674   0.287   6.012   4.713
 1881SOL    HW217675   0.416   6.100   4.666
 1882SOL     OW17676   1.138   5.966   5.402
 1882SOL    HW117677   1.093   6.029   5.466
 1882SOL    HW217678   1.231   5.997   5.385
 1883SOL     OW17679   1.160   5.793   5.201
 1883SOL    HW117680   1.160   5.857   5.278
 1883SOL    HW217681   1.188   5.841   5.118
 1884SOL     OW17682   0.088   7.387   4.651
 1884SOL    HW117683   0.046   7.301   4.624
 1884SOL    HW217684   0.182   7.390   4.617
 1885SOL     OW17685   1.002   6.382   4.962
 1885SOL    HW117686   1.043   6.350   5.048
 1885SOL    HW217687   0.906   6.355   4.959
 1886SOL     OW17688   0.040   6.130   4.838
 1886SOL    HW117689   0.125   6.097   4.797
 1886SOL    HW217690   0.053   6.145   4.936
 1887SOL     OW17691   0.189   6.106   5.446
 1887SOL    HW117692   0.248   6.066   5.376
 1887SOL    HW217693   0.131   6.177   5.405
 1888SOL     OW17694   1.369   6.536   5.384
 1888SOL    HW117695   1.408   6.625   5.404
 1888SOL    HW217696   1.379   6.516   5.287
 1889SOL     OW17697   0.815   6.158   4.049
 1889SOL    HW117698   0.822   6.069   4.003
 1889SOL    HW217699   0.721   6.192   4.041
 1890SOL     OW17700   0.252   7.150   5.468
 1890SOL    HW117701   0.222   7.207   5.544
 1890SOL    HW217702   0.245   7.053   5.494
 1891SOL     OW17703   0.671   6.050   4.993
 1891SOL    HW117704   0.637   5.961   4.963
 1891SOL    HW217705   0.697   6.104   4.913
 1892SOL     OW17706   0.930   7.264   5.189
 1892SOL    HW117707   0.906   7.246   5.094
 1892SOL    HW217708   0.960   7.358   5.199
 1893SOL     OW17709   0.159   6.723   5.190
 1893SOL    HW117710   0.181   6.662   5.266
 1893SOL    HW217711   0.169   6.674   5.104
 1894SOL     OW17712   1.347   6.645   4.958
 1894SOL    HW117713   1.371   6.582   4.884
 1894SOL    HW217714   1.257   6.685   4.940
 1895SOL     OW17715   0.083   6.844   4.746
 1895SOL    HW117716   0.078   6.843   4.846
 1895SOL    HW217717   0.000   6.803   4.708
 1896SOL     OW17718   0.688   7.248   5.440
 1896SOL    HW117719   0.632   7.329   5.449
 1896SOL    HW217720   0.740   7.252   5.354
 1897SOL     OW17721   0.130   7.380   5.575
 1897SOL    HW117722   0.089   7.306   5.628
 1897SOL    HW217723   0.194   7.431   5.633
 1898SOL     OW17724   0.830   6.859   5.146
 1898SOL    HW117725   0.825   6.892   5.241
 1898SOL    HW217726   0.744   6.878   5.100
 1899SOL     OW17727   1.650   7.306   5.118
 1899SOL    HW117728   1.703   7.316   5.034
 1899SOL    HW217729   1.623   7.396   5.152
 1900SOL     OW17730   0.822   6.588   5.096
 1900SOL    HW117731   0.862   6.587   5.004
 1900SOL    HW217732   0.832   6.680   5.136
 1901SOL     OW17733   0.372   6.874   5.214
 1901SOL    HW117734   0.359   6.967   5.180
 1901SOL    HW217735   0.288   6.822   5.201
 1902SOL     OW17736   1.614   6.878   5.013
 1902SOL    HW117737   1.674   6.881   5.093
 1902SOL    HW217738   1.539   6.942   5.026
 1903SOL     OW17739   1.014   5.822   4.695
 1903SOL    HW117740   1.006   5.786   4.602
 1903SOL    HW217741   1.012   5.746   4.760
 1904SOL     OW17742   0.590   7.073   4.215
 1904SOL    HW117743   0.632   7.015   4.145
 1904SOL    HW217744   0.546   7.152   4.171
 1905SOL     OW17745   1.709   5.971   5.105
 1905SOL    HW117746   1.782   6.040   5.109
 1905SOL    HW217747   1.737   5.896   5.046
 1906SOL     OW17748   0.255   6.934   4.014
 1906SOL    HW117749   0.159   6.935   3.987
 1906SOL    HW217750   0.267   6.987   4.098
 1907SOL     OW17751   0.105   6.599   5.450
 1907SOL    HW117752   0.028   6.566   5.504
 1907SOL    HW217753   0.190   6.569   5.492
 1908SOL     OW17754   0.672   5.789   5.213
 1908SOL    HW117755   0.762   5.773   5.173
 1908SOL    HW217756   0.680   5.794   5.312
 1909SOL     OW17757   0.075   5.931   3.757
 1909SOL    HW117758  -0.017   5.903   3.728
 1909SOL    HW217759   0.106   6.008   3.701
 1910SOL     OW17760   1.440   6.442   5.122
 1910SOL    HW117761   1.383   6.494   5.059
 1910SOL    HW217762   1.536   6.454   5.098
 1911SOL     OW17763   1.183   6.921   3.843
 1911SOL    HW117764   1.084   6.910   3.845
 1911SOL    HW217765   1.217   6.936   3.936
 1912SOL     OW17766   0.613   6.428   5.155
 1912SOL    HW117767   0.669   6.509   5.138
 1912SOL    HW217768   0.672   6.348   5.158
 1913SOL     OW17769   0.716   6.151   5.432
 1913SOL    HW117770   0.735   6.216   5.506
 1913SOL    HW217771   0.776   6.071   5.441
 1914SOL     OW17772   1.450   6.806   5.357
 1914SOL    HW117773   1.441   6.796   5.456
 1914SOL    HW217774   1.546   6.799   5.331
 1915SOL     OW17775   0.390   7.327   5.284
 1915SOL    HW117776   0.299   7.368   5.282
 1915SOL    HW217777   0.383   7.233   5.316
 1916SOL     OW17778   1.225   5.911   4.173
 1916SOL    HW117779   1.290   5.837   4.162
 1916SOL    HW217780   1.245   5.961   4.257
 1917SOL     OW17781   1.730   6.520   5.241
 1917SOL    HW117782   1.768   6.611   5.256
 1917SOL    HW217783   1.722   6.503   5.142
 1918SOL     OW17784   0.661   7.376   4.677
 1918SOL    HW117785   0.615   7.464   4.664
 1918SOL    HW217786   0.760   7.388   4.670
 1919SOL     OW17787   0.859   6.542   4.585
 1919SOL    HW117788   0.913   6.473   4.633
 1919SOL    HW217789   0.827   6.611   4.651
 1920SOL     OW17790   0.221   6.900   5.568
 1920SOL    HW117791   0.156   6.827   5.547
 1920SOL    HW217792   0.225   6.914   5.666
 1921SOL     OW17793   0.672   6.977   5.348
 1921SOL    HW117794   0.594   6.927   5.386
 1921SOL    HW217795   0.669   7.072   5.379
 1922SOL     OW17796   1.824   5.778   4.951
 1922SOL    HW117797   1.820   5.688   4.995
 1922SOL    HW217798   1.827   5.767   4.852
 1923SOL     OW17799   1.705   7.073   4.828
 1923SOL    HW117800   1.612   7.048   4.801
 1923SOL    HW217801   1.731   7.023   4.910
 1924SOL     OW17802   0.317   6.133   5.004
 1924SOL    HW117803   0.355   6.074   5.076
 1924SOL    HW217804   0.357   6.107   4.916
 1925SOL     OW17805   1.424   5.800   4.836
 1925SOL    HW117806   1.476   5.735   4.891
 1925SOL    HW217807   1.375   5.863   4.897
 1926SOL     OW17808   1.001   5.620   4.878
 1926SOL    HW117809   0.938   5.548   4.847
 1926SOL    HW217810   1.094   5.584   4.878
 1927SOL     OW17811   0.618   7.153   5.008
 1927SOL    HW117812   0.613   7.235   5.065
 1927SOL    HW217813   0.707   7.150   4.963
 1928SOL     OW17814   1.352   5.638   3.892
 1928SOL    HW117815   1.387   5.597   3.808
 1928SOL    HW217816   1.262   5.600   3.912
 1929SOL     OW17817   1.593   5.807   4.606
 1929SOL    HW117818   1.509   5.806   4.660
 1929SOL    HW217819   1.595   5.890   4.550
 1930SOL     OW17820   0.039   6.663   4.024
 1930SOL    HW117821   0.138   6.652   4.015
 1930SOL    HW217822  -0.001   6.577   4.056
 1931SOL     OW17823   0.875   7.232   4.061
 1931SOL    HW117824   0.798   7.197   4.007
 1931SOL    HW217825   0.843   7.303   4.123
 1932SOL     OW17826   0.230   6.214   5.699
 1932SOL    HW117827   0.137   6.212   5.736
 1932SOL    HW217828   0.231   6.175   5.607
 1933SOL     OW17829   0.225   5.861   6.582
 1933SOL    HW117830   0.260   5.844   6.674
 1933SOL    HW217831   0.137   5.816   6.570
 1934SOL     OW17832   0.019   5.954   6.233
 1934SOL    HW117833  -0.063   5.997   6.272
 1934SOL    HW217834  -0.009   5.881   6.170
 1935SOL     OW17835   0.569   6.861   6.751
 1935SOL    HW117836   0.476   6.854   6.714
 1935SOL    HW217837   0.580   6.950   6.795
 1936SOL     OW17838   1.555   7.097   6.289
 1936SOL    HW117839   1.498   7.081   6.370
 1936SOL    HW217840   1.496   7.107   6.209
 1937SOL     OW17841   1.135   6.289   6.303
 1937SOL    HW117842   1.192   6.367   6.278
 1937SOL    HW217843   1.075   6.315   6.379
 1938SOL     OW17844   1.755   6.193   5.817
 1938SOL    HW117845   1.743   6.180   5.718
 1938SOL    HW217846   1.725   6.112   5.866
 1939SOL     OW17847   0.768   6.730   6.609
 1939SOL    HW117848   0.690   6.747   6.669
 1939SOL    HW217849   0.802   6.817   6.573
 1940SOL     OW17850   0.685   6.598   6.251
 1940SOL    HW117851   0.754   6.582   6.321
 1940SOL    HW217852   0.612   6.655   6.289
 1941SOL     OW17853   0.335   7.021   6.647
 1941SOL    HW117854   0.257   6.990   6.594
 1941SOL    HW217855   0.393   7.079   6.590
 1942SOL     OW17856   1.603   6.033   6.323
 1942SOL    HW117857   1.529   6.079   6.273
 1942SOL    HW217858   1.654   6.101   6.376
 1943SOL     OW17859   0.231   7.299   6.069
 1943SOL    HW117860   0.265   7.376   6.123
 1943SOL    HW217861   0.275   7.299   5.979
 1944SOL     OW17862   0.230   7.020   6.124
 1944SOL    HW117863   0.204   7.116   6.124
 1944SOL    HW217864   0.159   6.966   6.169
 1945SOL     OW17865   0.240   6.677   6.472
 1945SOL    HW117866   0.254   6.593   6.524
 1945SOL    HW217867   0.185   6.741   6.527
 1946SOL     OW17868   0.606   6.550   5.709
 1946SOL    HW117869   0.613   6.634   5.655
 1946SOL    HW217870   0.652   6.563   5.797
 1947SOL     OW17871   0.122   6.229   6.149
 1947SOL    HW117872   0.077   6.141   6.166
 1947SOL    HW217873   0.121   6.283   6.233
 1948SOL     OW17874   1.842   7.353   5.945
 1948SOL    HW117875   1.896   7.324   6.025
 1948SOL    HW217876   1.872   7.443   5.916
 1949SOL     OW17877   0.027   7.182   5.703
 1949SOL    HW117878   0.008   7.086   5.724
 1949SOL    HW217879  -0.006   7.240   5.778
 1950SOL     OW17880   1.689   6.508   6.198
 1950SOL    HW117881   1.784   6.479   6.206
 1950SOL    HW217882   1.681   6.573   6.123
 1951SOL     OW17883   1.641   6.694   6.018
 1951SOL    HW117884   1.727   6.696   5.966
 1951SOL    HW217885   1.655   6.741   6.106
 1952SOL     OW17886   0.613   6.951   6.312
 1952SOL    HW117887   0.564   6.864   6.321
 1952SOL    HW217888   0.590   6.994   6.225
 1953SOL     OW17889   0.809   5.590   6.088
 1953SOL    HW117890   0.849   5.681   6.079
 1953SOL    HW217891   0.709   5.598   6.094
 1954SOL     OW17892   0.197   6.562   6.850
 1954SOL    HW117893   0.286   6.517   6.836
 1954SOL    HW217894   0.124   6.497   6.831
 1955SOL     OW17895   1.525   6.585   5.776
 1955SOL    HW117896   1.462   6.509   5.789
 1955SOL    HW217897   1.573   6.603   5.862
 1956SOL     OW17898   1.466   7.003   6.539
 1956SOL    HW117899   1.407   7.009   6.619
 1956SOL    HW217900   1.451   6.915   6.493
 1957SOL     OW17901   1.667   7.300   6.158
 1957SOL    HW117902   1.626   7.277   6.070
 1957SOL    HW217903   1.649   7.226   6.223
 1958SOL     OW17904   0.598   6.315   5.856
 1958SOL    HW117905   0.622   6.384   5.788
 1958SOL    HW217906   0.520   6.348   5.910
 1959SOL     OW17907   1.281   5.931   6.530
 1959SOL    HW117908   1.195   5.881   6.517
 1959SOL    HW217909   1.343   5.877   6.586
 1960SOL     OW17910   1.576   7.248   5.893
 1960SOL    HW117911   1.665   7.294   5.896
 1960SOL    HW217912   1.555   7.224   5.798
 1961SOL     OW17913   0.991   5.996   6.828
 1961SOL    HW117914   0.914   6.030   6.882
 1961SOL    HW217915   0.957   5.945   6.749
 1962SOL     OW17916   1.041   6.287   6.015
 1962SOL    HW117917   1.067   6.283   6.111
 1962SOL    HW217918   0.956   6.236   6.001
 1963SOL     OW17919   0.076   6.397   6.375
 1963SOL    HW117920   0.175   6.385   6.384
 1963SOL    HW217921   0.052   6.492   6.396
 1964SOL     OW17922   0.130   7.407   7.157
 1964SOL    HW117923   0.120   7.392   7.256
 1964SOL    HW217924   0.044   7.443   7.121
 1965SOL     OW17925   0.865   5.934   5.781
 1965SOL    HW117926   0.924   5.997   5.732
 1965SOL    HW217927   0.884   5.840   5.752
 1966SOL     OW17928   1.362   6.730   6.131
 1966SOL    HW117929   1.445   6.701   6.083
 1966SOL    HW217930   1.313   6.797   6.075
 1967SOL     OW17931   0.550   5.782   6.471
 1967SOL    HW117932   0.545   5.777   6.571
 1967SOL    HW217933   0.552   5.878   6.442
 1968SOL     OW17934   1.008   7.042   6.063
 1968SOL    HW117935   0.962   7.114   6.011
 1968SOL    HW217936   1.004   7.062   6.161
 1969SOL     OW17937   0.351   7.387   6.439
 1969SOL    HW117938   0.401   7.301   6.445
 1969SOL    HW217939   0.416   7.464   6.436
 1970SOL     OW17940   1.795   6.652   6.459
 1970SOL    HW117941   1.733   6.637   6.383
 1970SOL    HW217942   1.743   6.663   6.544
 1971SOL     OW17943   0.321   6.529   5.828
 1971SOL    HW117944   0.403   6.568   5.786
 1971SOL    HW217945   0.294   6.447   5.779
 1972SOL     OW17946   1.458   6.321   6.314
 1972SOL    HW117947   1.453   6.256   6.389
 1972SOL    HW217948   1.538   6.380   6.327
 1973SOL     OW17949   1.111   7.362   5.823
 1973SOL    HW117950   1.051   7.300   5.873
 1973SOL    HW217951   1.142   7.318   5.738
 1974SOL     OW17952   1.632   6.963   5.667
 1974SOL    HW117953   1.600   7.057   5.657
 1974SOL    HW217954   1.556   6.900   5.655
 1975SOL     OW17955   0.464   7.329   5.909
 1975SOL    HW117956   0.497   7.368   5.995
 1975SOL    HW217957   0.540   7.322   5.844
 1976SOL     OW17958   1.400   5.693   6.012
 1976SOL    HW117959   1.376   5.656   5.922
 1976SOL    HW217960   1.499   5.709   6.016
 1977SOL     OW17961   0.249   7.371   6.827
 1977SOL    HW117962   0.306   7.306   6.877
 1977SOL    HW217963   0.233   7.338   6.734
 1978SOL     OW17964   0.940   7.284   6.490
 1978SOL    HW117965   1.020   7.227   6.511
 1978SOL    HW217966   0.891   7.244   6.413
 1979SOL     OW17967   0.382   6.286   6.066
 1979SOL    HW117968   0.427   6.196   6.063
 1979SOL    HW217969   0.288   6.275   6.099
 1980SOL     OW17970   0.614   5.708   5.703
 1980SOL    HW117971   0.712   5.686   5.710
 1980SOL    HW217972   0.583   5.691   5.610
 1981SOL     OW17973   0.803   6.988   6.510
 1981SOL    HW117974   0.893   7.002   6.468
 1981SOL    HW217975   0.732   6.990   6.439
 1982SOL     OW17976   0.922   6.089   6.485
 1982SOL    HW117977   0.897   6.080   6.389
 1982SOL    HW217978   0.970   6.007   6.516
 1983SOL     OW17979   0.539   5.650   6.098
 1983SOL    HW117980   0.458   5.651   6.156
 1983SOL    HW217981   0.542   5.733   6.043
 1984SOL     OW17982   1.434   6.774   5.627
 1984SOL    HW117983   1.466   6.698   5.684
 1984SOL    HW217984   1.342   6.801   5.657
 1985SOL     OW17985   0.297   5.621   5.757
 1985SOL    HW117986   0.346   5.705   5.736
 1985SOL    HW217987   0.359   5.556   5.802
 1986SOL     OW17988   0.935   5.822   6.066
 1986SOL    HW117989   0.887   5.863   5.988
 1986SOL    HW217990   1.034   5.820   6.047
 1987SOL     OW17991   1.227   7.156   6.379
 1987SOL    HW117992   1.248   7.230   6.314
 1987SOL    HW217993   1.295   7.156   6.452
 1988SOL     OW17994   0.459   6.738   6.327
 1988SOL    HW117995   0.388   6.711   6.392
 1988SOL    HW217996   0.433   6.710   6.234
 1989SOL     OW17997   1.271   7.383   6.177
 1989SOL    HW117998   1.315   7.447   6.113
 1989SOL    HW217999   1.221   7.435   6.247
 1990SOL     OW18000   1.032   6.135   5.602
 1990SOL    HW118001   0.991   6.217   5.563
 1990SOL    HW218002   1.096   6.161   5.675
 1991SOL     OW18003   0.561   5.808   6.733
 1991SOL    HW118004   0.599   5.724   6.770
 1991SOL    HW218005   0.473   5.827   6.777
 1992SOL     OW18006   0.866   6.040   6.228
 1992SOL    HW118007   0.834   6.112   6.166
 1992SOL    HW218008   0.890   5.959   6.175
 1993SOL     OW18009   1.017   5.625   6.339
 1993SOL    HW118010   0.945   5.630   6.270
 1993SOL    HW218011   0.993   5.556   6.408
 1994SOL     OW18012   1.429   6.759   6.453
 1994SOL    HW118013   1.374   6.675   6.446
 1994SOL    HW218014   1.455   6.788   6.361
 1995SOL     OW18015   1.466   6.176   6.578
 1995SOL    HW118016   1.436   6.081   6.585
 1995SOL    HW218017   1.539   6.192   6.644
 1996SOL     OW18018   1.857   6.419   5.963
 1996SOL    HW118019   1.899   6.355   6.027
 1996SOL    HW218020   1.819   6.368   5.885
 1997SOL     OW18021   0.488   6.971   5.760
 1997SOL    HW118022   0.401   6.956   5.807
 1997SOL    HW218023   0.471   6.997   5.665
 1998SOL     OW18024   1.664   6.866   6.243
 1998SOL    HW118025   1.763   6.874   6.257
 1998SOL    HW218026   1.619   6.950   6.274
 1999SOL     OW18027   1.390   6.161   5.664
 1999SOL    HW118028   1.336   6.140   5.745
 1999SOL    HW218029   1.481   6.120   5.673
 2000SOL     OW18030   0.527   5.842   5.914
 2000SOL    HW118031   0.554   5.783   5.839
 2000SOL    HW218032   0.527   5.937   5.883
 2001SOL     OW18033   1.111   6.781   6.686
 2001SOL    HW118034   1.071   6.825   6.767
 2001SOL    HW218035   1.070   6.818   6.603
 2002SOL     OW18036   1.638   6.685   6.665
 2002SOL    HW118037   1.643   6.766   6.724
 2002SOL    HW218038   1.552   6.687   6.614
 2003SOL     OW18039   0.705   6.636   5.954
 2003SOL    HW118040   0.691   6.643   6.053
 2003SOL    HW218041   0.789   6.585   5.936
 2004SOL     OW18042   0.410   6.399   6.837
 2004SOL    HW118043   0.496   6.411   6.887
 2004SOL    HW218044   0.368   6.312   6.864
 2005SOL     OW18045   1.274   5.972   6.848
 2005SOL    HW118046   1.295   6.046   6.912
 2005SOL    HW218047   1.185   5.989   6.805
 2006SOL     OW18048   0.367   6.686   6.087
 2006SOL    HW118049   0.360   6.769   6.031
 2006SOL    HW218050   0.371   6.606   6.027
 2007SOL     OW18051   0.566   6.123   6.451
 2007SOL    HW118052   0.578   6.189   6.377
 2007SOL    HW218053   0.612   6.157   6.534
 2008SOL     OW18054   1.252   6.934   5.974
 2008SOL    HW118055   1.302   7.011   6.014
 2008SOL    HW218056   1.157   6.936   6.006
 2009SOL     OW18057   1.272   7.031   6.728
 2009SOL    HW118058   1.319   7.044   6.815
 2009SOL    HW218059   1.206   6.957   6.737
 2010SOL     OW18060   1.582   6.225   6.058
 2010SOL    HW118061   1.551   6.286   6.131
 2010SOL    HW218062   1.632   6.277   5.989
 2011SOL     OW18063   0.354   7.096   6.915
 2011SOL    HW118064   0.333   7.052   6.828
 2011SOL    HW218065   0.451   7.122   6.918
 2012SOL     OW18066   0.573   6.456   6.615
 2012SOL    HW118067   0.617   6.545   6.606
 2012SOL    HW218068   0.510   6.456   6.692
 2013SOL     OW18069   1.360   6.448   6.631
 2013SOL    HW118070   1.285   6.448   6.565
 2013SOL    HW218071   1.397   6.356   6.640
 2014SOL     OW18072   1.209   6.111   5.861
 2014SOL    HW118073   1.222   6.027   5.915
 2014SOL    HW218074   1.180   6.185   5.921
 2015SOL     OW18075   0.307   5.799   6.817
 2015SOL    HW118076   0.284   5.836   6.907
 2015SOL    HW218077   0.277   5.704   6.811
 2016SOL     OW18078   0.037   6.896   6.868
 2016SOL    HW118079   0.090   6.847   6.936
 2016SOL    HW218080   0.059   6.994   6.873
 2017SOL     OW18081   0.732   6.220   6.650
 2017SOL    HW118082   0.791   6.194   6.574
 2017SOL    HW218083   0.704   6.316   6.639
 2018SOL     OW18084   0.307   5.649   6.204
 2018SOL    HW118085   0.296   5.743   6.237
 2018SOL    HW218086   0.302   5.586   6.281
 2019SOL     OW18087   1.622   5.953   5.960
 2019SOL    HW118088   1.624   5.877   6.024
 2019SOL    HW218089   1.574   6.030   6.000
 2020SOL     OW18090   1.023   6.352   6.552
 2020SOL    HW118091   1.038   6.373   6.648
 2020SOL    HW218092   0.993   6.257   6.543
 2021SOL     OW18093   1.540   5.860   5.711
 2021SOL    HW118094   1.479   5.785   5.734
 2021SOL    HW218095   1.562   5.912   5.794
 2022SOL     OW18096   1.303   6.424   5.628
 2022SOL    HW118097   1.337   6.331   5.643
 2022SOL    HW218098   1.321   6.451   5.533
 2023SOL     OW18099   1.068   6.919   6.435
 2023SOL    HW118100   1.075   6.835   6.380
 2023SOL    HW218101   1.130   6.988   6.399
 2024SOL     OW18102   0.319   6.396   6.535
 2024SOL    HW118103   0.412   6.432   6.540
 2024SOL    HW218104   0.313   6.311   6.587
 2025SOL     OW18105   0.339   6.095   6.592
 2025SOL    HW118106   0.287   6.012   6.575
 2025SOL    HW218107   0.416   6.100   6.528
 2026SOL     OW18108   1.160   5.793   7.063
 2026SOL    HW118109   1.160   5.857   7.140
 2026SOL    HW218110   1.188   5.841   6.980
 2027SOL     OW18111   0.008   6.912   5.786
 2027SOL    HW118112  -0.085   6.933   5.755
 2027SOL    HW218113   0.018   6.813   5.799
 2028SOL     OW18114   0.088   7.387   6.513
 2028SOL    HW118115   0.046   7.301   6.486
 2028SOL    HW218116   0.182   7.390   6.479
 2029SOL     OW18117   0.504   7.154   6.496
 2029SOL    HW118118   0.570   7.228   6.505
 2029SOL    HW218119   0.548   7.075   6.454
 2030SOL     OW18120   1.002   6.382   6.824
 2030SOL    HW118121   1.043   6.350   6.910
 2030SOL    HW218122   0.906   6.355   6.821
 2031SOL     OW18123   0.040   6.130   6.700
 2031SOL    HW118124   0.125   6.097   6.659
 2031SOL    HW218125   0.053   6.145   6.798
 2032SOL     OW18126   0.815   6.158   5.911
 2032SOL    HW118127   0.822   6.069   5.865
 2032SOL    HW218128   0.721   6.192   5.903
 2033SOL     OW18129   1.657   6.190   6.792
 2033SOL    HW118130   1.619   6.121   6.854
 2033SOL    HW218131   1.739   6.154   6.748
 2034SOL     OW18132   0.671   6.050   6.855
 2034SOL    HW118133   0.637   5.961   6.825
 2034SOL    HW218134   0.697   6.104   6.775
 2035SOL     OW18135   0.930   7.264   7.051
 2035SOL    HW118136   0.906   7.246   6.956
 2035SOL    HW218137   0.960   7.358   7.061
 2036SOL     OW18138   0.473   6.086   5.777
 2036SOL    HW118139   0.534   6.166   5.781
 2036SOL    HW218140   0.378   6.117   5.784
 2037SOL     OW18141   1.347   6.645   6.820
 2037SOL    HW118142   1.371   6.582   6.746
 2037SOL    HW218143   1.257   6.685   6.802
 2038SOL     OW18144   1.302   6.441   5.895
 2038SOL    HW118145   1.216   6.410   5.937
 2038SOL    HW218146   1.298   6.427   5.796
 2039SOL     OW18147   1.759   7.333   6.740
 2039SOL    HW118148   1.820   7.363   6.667
 2039SOL    HW218149   1.721   7.244   6.718
 2040SOL     OW18150   1.252   7.317   6.714
 2040SOL    HW118151   1.336   7.322   6.660
 2040SOL    HW218152   1.229   7.221   6.732
 2041SOL     OW18153   0.083   6.844   6.608
 2041SOL    HW118154   0.078   6.843   6.708
 2041SOL    HW218155   0.000   6.803   6.570
 2042SOL     OW18156   1.726   5.721   6.109
 2042SOL    HW118157   1.799   5.704   6.042
 2042SOL    HW218158   1.695   5.634   6.147
 2043SOL     OW18159   1.388   7.159   6.063
 2043SOL    HW118160   1.455   7.171   5.989
 2043SOL    HW218161   1.348   7.248   6.086
 2044SOL     OW18162   1.280   6.513   6.258
 2044SOL    HW118163   1.340   6.432   6.260
 2044SOL    HW218164   1.320   6.582   6.198
 2045SOL     OW18165   0.672   7.202   5.740
 2045SOL    HW118166   0.681   7.212   5.641
 2045SOL    HW218167   0.632   7.113   5.761
 2046SOL     OW18168   1.650   7.306   6.980
 2046SOL    HW118169   1.703   7.316   6.896
 2046SOL    HW218170   1.623   7.396   7.014
 2047SOL     OW18171   1.841   5.761   6.549
 2047SOL    HW118172   1.880   5.676   6.513
 2047SOL    HW218173   1.743   5.763   6.530
 2048SOL     OW18174   0.263   5.912   6.306
 2048SOL    HW118175   0.184   5.963   6.272
 2048SOL    HW218176   0.254   5.897   6.404
 2049SOL     OW18177   1.194   7.198   5.617
 2049SOL    HW118178   1.200   7.105   5.654
 2049SOL    HW218179   1.135   7.198   5.537
 2050SOL     OW18180   0.822   6.588   6.958
 2050SOL    HW118181   0.862   6.587   6.866
 2050SOL    HW218182   0.832   6.680   6.998
 2051SOL     OW18183   0.916   6.496   5.877
 2051SOL    HW118184   0.979   6.534   5.809
 2051SOL    HW218185   0.956   6.413   5.916
 2052SOL     OW18186   1.504   7.193   5.630
 2052SOL    HW118187   1.412   7.230   5.637
 2052SOL    HW218188   1.542   7.213   5.540
 2053SOL     OW18189   1.039   6.684   6.282
 2053SOL    HW118190   0.969   6.637   6.336
 2053SOL    HW218191   1.098   6.616   6.239
 2054SOL     OW18192   1.014   5.822   6.557
 2054SOL    HW118193   1.006   5.786   6.464
 2054SOL    HW218194   1.012   5.746   6.622
 2055SOL     OW18195   0.590   7.073   6.077
 2055SOL    HW118196   0.632   7.015   6.007
 2055SOL    HW218197   0.546   7.152   6.033
 2056SOL     OW18198   1.709   5.971   6.967
 2056SOL    HW118199   1.782   6.040   6.971
 2056SOL    HW218200   1.737   5.896   6.908
 2057SOL     OW18201   0.255   6.934   5.876
 2057SOL    HW118202   0.159   6.935   5.849
 2057SOL    HW218203   0.267   6.987   5.960
 2058SOL     OW18204   0.075   5.931   5.619
 2058SOL    HW118205  -0.017   5.903   5.590
 2058SOL    HW218206   0.106   6.008   5.563
 2059SOL     OW18207   0.072   5.752   5.904
 2059SOL    HW118208   0.055   5.835   5.850
 2059SOL    HW218209   0.162   5.715   5.882
 2060SOL     OW18210   1.183   6.921   5.705
 2060SOL    HW118211   1.084   6.910   5.707
 2060SOL    HW218212   1.217   6.936   5.798
 2061SOL     OW18213   1.493   7.353   6.545
 2061SOL    HW118214   1.526   7.417   6.476
 2061SOL    HW218215   1.559   7.347   6.620
 2062SOL     OW18216   1.450   6.806   7.219
 2062SOL    HW118217   1.441   6.796   7.318
 2062SOL    HW218218   1.546   6.799   7.193
 2063SOL     OW18219   1.674   6.469   6.840
 2063SOL    HW118220   1.647   6.380   6.803
 2063SOL    HW218221   1.675   6.537   6.767
 2064SOL     OW18222   1.225   5.911   6.035
 2064SOL    HW118223   1.290   5.837   6.024
 2064SOL    HW218224   1.245   5.961   6.119
 2065SOL     OW18225   0.594   6.331   6.238
 2065SOL    HW118226   0.644   6.416   6.219
 2065SOL    HW218227   0.506   6.333   6.190
 2066SOL     OW18228   1.730   6.520   7.103
 2066SOL    HW118229   1.768   6.611   7.118
 2066SOL    HW218230   1.722   6.503   7.004
 2067SOL     OW18231   0.859   6.960   5.602
 2067SOL    HW118232   0.813   6.975   5.690
 2067SOL    HW218233   0.903   7.045   5.572
 2068SOL     OW18234   0.661   7.376   6.539
 2068SOL    HW118235   0.615   7.464   6.526
 2068SOL    HW218236   0.760   7.388   6.532
 2069SOL     OW18237   0.859   6.542   6.447
 2069SOL    HW118238   0.913   6.473   6.495
 2069SOL    HW218239   0.827   6.611   6.513
 2070SOL     OW18240   1.083   6.570   5.673
 2070SOL    HW118241   1.060   6.623   5.591
 2070SOL    HW218242   1.164   6.514   5.654
 2071SOL     OW18243   1.861   7.155   6.437
 2071SOL    HW118244   1.790   7.143   6.367
 2071SOL    HW218245   1.862   7.076   6.497
 2072SOL     OW18246   0.079   6.826   6.239
 2072SOL    HW118247   0.078   6.779   6.327
 2072SOL    HW218248   0.161   6.798   6.188
 2073SOL     OW18249   1.824   5.778   6.813
 2073SOL    HW118250   1.820   5.688   6.857
 2073SOL    HW218251   1.827   5.767   6.714
 2074SOL     OW18252   0.428   6.010   6.106
 2074SOL    HW118253   0.458   5.938   6.044
 2074SOL    HW218254   0.389   5.970   6.189
 2075SOL     OW18255   1.705   7.073   6.690
 2075SOL    HW118256   1.612   7.048   6.663
 2075SOL    HW218257   1.731   7.023   6.772
 2076SOL     OW18258   0.812   7.172   6.273
 2076SOL    HW118259   0.844   7.182   6.179
 2076SOL    HW218260   0.733   7.110   6.275
 2077SOL     OW18261   1.424   5.800   6.698
 2077SOL    HW118262   1.476   5.735   6.753
 2077SOL    HW218263   1.375   5.863   6.759
 2078SOL     OW18264   1.001   5.620   6.740
 2078SOL    HW118265   0.938   5.548   6.709
 2078SOL    HW218266   1.094   5.584   6.740
 2079SOL     OW18267   0.770   6.916   5.887
 2079SOL    HW118268   0.724   6.829   5.904
 2079SOL    HW218269   0.861   6.913   5.928
 2080SOL     OW18270   1.352   5.638   5.754
 2080SOL    HW118271   1.387   5.597   5.670
 2080SOL    HW218272   1.262   5.600   5.774
 2081SOL     OW18273   1.300   6.039   6.277
 2081SOL    HW118274   1.241   6.119   6.281
 2081SOL    HW218275   1.315   6.004   6.370
 2082SOL     OW18276   1.593   5.807   6.468
 2082SOL    HW118277   1.509   5.806   6.522
 2082SOL    HW218278   1.595   5.890   6.412
 2083SOL     OW18279   0.039   6.663   5.886
 2083SOL    HW118280   0.138   6.652   5.877
 2083SOL    HW218281  -0.001   6.577   5.918
 2084SOL     OW18282   0.875   7.232   5.923
 2084SOL    HW118283   0.798   7.197   5.869
 2084SOL    HW218284   0.843   7.303   5.985
 2085SOL     OW18285   0.230   8.076   0.113
 2085SOL    HW118286   0.137   8.074   0.150
 2085SOL    HW218287   0.231   8.037   0.021
 2086SOL     OW18288   0.225   7.723   0.996
 2086SOL    HW118289   0.260   7.706   1.088
 2086SOL    HW218290   0.137   7.678   0.984
 2087SOL     OW18291   0.019   7.816   0.647
 2087SOL    HW118292  -0.063   7.859   0.686
 2087SOL    HW218293  -0.009   7.743   0.584
 2088SOL     OW18294   1.135   8.151   0.717
 2088SOL    HW118295   1.192   8.229   0.692
 2088SOL    HW218296   1.075   8.177   0.793
 2089SOL     OW18297   1.755   8.055   0.231
 2089SOL    HW118298   1.743   8.042   0.132
 2089SOL    HW218299   1.725   7.974   0.280
 2090SOL     OW18300   0.768   8.592   1.023
 2090SOL    HW118301   0.690   8.609   1.083
 2090SOL    HW218302   0.802   8.679   0.987
 2091SOL     OW18303   0.850   8.246   1.823
 2091SOL    HW118304   0.846   8.322   1.888
 2091SOL    HW218305   0.872   8.282   1.732
 2092SOL     OW18306   0.685   8.460   0.665
 2092SOL    HW118307   0.754   8.444   0.735
 2092SOL    HW218308   0.612   8.517   0.703
 2093SOL     OW18309   0.438   7.840   1.499
 2093SOL    HW118310   0.520   7.784   1.508
 2093SOL    HW218311   0.357   7.782   1.503
 2094SOL     OW18312   1.603   7.895   0.737
 2094SOL    HW118313   1.529   7.941   0.687
 2094SOL    HW218314   1.654   7.963   0.790
 2095SOL     OW18315   0.240   8.539   0.886
 2095SOL    HW118316   0.254   8.455   0.938
 2095SOL    HW218317   0.185   8.603   0.941
 2096SOL     OW18318   0.122   8.091   0.563
 2096SOL    HW118319   0.077   8.003   0.580
 2096SOL    HW218320   0.121   8.145   0.647
 2097SOL     OW18321   0.113   8.185   1.597
 2097SOL    HW118322   0.201   8.172   1.642
 2097SOL    HW218323   0.100   8.282   1.575
 2098SOL     OW18324   0.809   7.452   0.502
 2098SOL    HW118325   0.849   7.543   0.493
 2098SOL    HW218326   0.709   7.460   0.508
 2099SOL     OW18327   0.197   8.424   1.264
 2099SOL    HW118328   0.286   8.379   1.250
 2099SOL    HW218329   0.124   8.359   1.245
 2100SOL     OW18330   1.525   8.447   0.190
 2100SOL    HW118331   1.462   8.371   0.203
 2100SOL    HW218332   1.573   8.465   0.276
 2101SOL     OW18333   0.598   8.177   0.270
 2101SOL    HW118334   0.622   8.246   0.202
 2101SOL    HW218335   0.520   8.210   0.324
 2102SOL     OW18336   1.281   7.793   0.944
 2102SOL    HW118337   1.195   7.743   0.931
 2102SOL    HW218338   1.343   7.739   1.000
 2103SOL     OW18339   0.807   8.053   1.465
 2103SOL    HW118340   0.760   8.050   1.554
 2103SOL    HW218341   0.756   7.998   1.399
 2104SOL     OW18342   0.973   8.338   1.572
 2104SOL    HW118343   1.019   8.254   1.543
 2104SOL    HW218344   0.917   8.372   1.497
 2105SOL     OW18345   1.041   8.149   0.429
 2105SOL    HW118346   1.067   8.145   0.525
 2105SOL    HW218347   0.956   8.098   0.415
 2106SOL     OW18348   0.076   8.259   0.789
 2106SOL    HW118349   0.175   8.247   0.798
 2106SOL    HW218350   0.052   8.354   0.810
 2107SOL     OW18351   0.865   7.796   0.195
 2107SOL    HW118352   0.924   7.859   0.146
 2107SOL    HW218353   0.884   7.702   0.166
 2108SOL     OW18354   0.550   7.644   0.885
 2108SOL    HW118355   0.545   7.639   0.985
 2108SOL    HW218356   0.552   7.740   0.856
 2109SOL     OW18357   1.458   8.183   0.728
 2109SOL    HW118358   1.453   8.118   0.803
 2109SOL    HW218359   1.538   8.242   0.741
 2110SOL     OW18360   1.400   7.555   0.426
 2110SOL    HW118361   1.376   7.518   0.336
 2110SOL    HW218362   1.499   7.571   0.430
 2111SOL     OW18363   0.382   8.148   0.480
 2111SOL    HW118364   0.427   8.058   0.477
 2111SOL    HW218365   0.288   8.137   0.513
 2112SOL     OW18366   0.614   7.570   0.117
 2112SOL    HW118367   0.712   7.548   0.124
 2112SOL    HW218368   0.583   7.553   0.024
 2113SOL     OW18369   0.922   7.951   0.899
 2113SOL    HW118370   0.897   7.942   0.803
 2113SOL    HW218371   0.970   7.869   0.930
 2114SOL     OW18372   0.539   7.512   0.512
 2114SOL    HW118373   0.458   7.513   0.570
 2114SOL    HW218374   0.542   7.595   0.457
 2115SOL     OW18375   0.297   7.483   0.171
 2115SOL    HW118376   0.346   7.567   0.150
 2115SOL    HW218377   0.359   7.418   0.216
 2116SOL     OW18378   0.935   7.684   0.480
 2116SOL    HW118379   0.887   7.725   0.402
 2116SOL    HW218380   1.034   7.682   0.461
 2117SOL     OW18381   1.076   8.131   1.464
 2117SOL    HW118382   0.996   8.070   1.467
 2117SOL    HW218383   1.157   8.078   1.440
 2118SOL     OW18384   1.032   7.997   0.016
 2118SOL    HW118385   0.991   8.079  -0.023
 2118SOL    HW218386   1.096   8.023   0.089
 2119SOL     OW18387   0.866   7.902   0.642
 2119SOL    HW118388   0.834   7.974   0.580
 2119SOL    HW218389   0.890   7.821   0.589
 2120SOL     OW18390   1.017   7.487   0.753
 2120SOL    HW118391   0.945   7.492   0.684
 2120SOL    HW218392   0.993   7.418   0.822
 2121SOL     OW18393   1.466   8.038   0.992
 2121SOL    HW118394   1.436   7.943   0.999
 2121SOL    HW218395   1.539   8.054   1.058
 2122SOL     OW18396   1.857   8.281   0.377
 2122SOL    HW118397   1.899   8.217   0.441
 2122SOL    HW218398   1.819   8.230   0.299
 2123SOL     OW18399   1.390   8.023   0.078
 2123SOL    HW118400   1.336   8.002   0.159
 2123SOL    HW218401   1.481   7.982   0.087
 2124SOL     OW18402   0.527   7.704   0.328
 2124SOL    HW118403   0.554   7.645   0.253
 2124SOL    HW218404   0.527   7.799   0.297
 2125SOL     OW18405   1.638   8.547   1.079
 2125SOL    HW118406   1.643   8.628   1.138
 2125SOL    HW218407   1.552   8.549   1.028
 2126SOL     OW18408   0.915   7.537   1.402
 2126SOL    HW118409   0.940   7.517   1.307
 2126SOL    HW218410   0.987   7.593   1.444
 2127SOL     OW18411   0.410   8.261   1.251
 2127SOL    HW118412   0.496   8.273   1.301
 2127SOL    HW218413   0.368   8.174   1.278
 2128SOL     OW18414   1.274   7.834   1.262
 2128SOL    HW118415   1.295   7.908   1.326
 2128SOL    HW218416   1.185   7.851   1.219
 2129SOL     OW18417   0.566   7.985   0.865
 2129SOL    HW118418   0.578   8.051   0.791
 2129SOL    HW218419   0.612   8.019   0.948
 2130SOL     OW18420   1.582   8.087   0.472
 2130SOL    HW118421   1.551   8.148   0.545
 2130SOL    HW218422   1.632   8.139   0.403
 2131SOL     OW18423   0.402   8.199   1.598
 2131SOL    HW118424   0.470   8.254   1.551
 2131SOL    HW218425   0.442   8.111   1.625
 2132SOL     OW18426   1.013   7.553   1.770
 2132SOL    HW118427   1.019   7.638   1.718
 2132SOL    HW218428   1.045   7.477   1.713
 2133SOL     OW18429   0.573   8.318   1.029
 2133SOL    HW118430   0.617   8.407   1.020
 2133SOL    HW218431   0.510   8.318   1.106
 2134SOL     OW18432   1.360   8.310   1.045
 2134SOL    HW118433   1.285   8.310   0.979
 2134SOL    HW218434   1.397   8.218   1.054
 2135SOL     OW18435   1.209   7.973   0.275
 2135SOL    HW118436   1.222   7.889   0.329
 2135SOL    HW218437   1.180   8.047   0.335
 2136SOL     OW18438   0.307   7.661   1.231
 2136SOL    HW118439   0.284   7.698   1.321
 2136SOL    HW218440   0.277   7.566   1.225
 2137SOL     OW18441   0.037   8.758   1.282
 2137SOL    HW118442   0.090   8.709   1.350
 2137SOL    HW218443   0.059   8.856   1.287
 2138SOL     OW18444   0.732   8.082   1.064
 2138SOL    HW118445   0.791   8.056   0.988
 2138SOL    HW218446   0.704   8.178   1.053
 2139SOL     OW18447   1.728   8.383   1.854
 2139SOL    HW118448   1.682   8.376   1.765
 2139SOL    HW218449   1.666   8.427   1.920
 2140SOL     OW18450   0.307   7.511   0.618
 2140SOL    HW118451   0.296   7.605   0.651
 2140SOL    HW218452   0.302   7.448   0.695
 2141SOL     OW18453   1.622   7.815   0.374
 2141SOL    HW118454   1.624   7.739   0.438
 2141SOL    HW218455   1.574   7.892   0.414
 2142SOL     OW18456   1.023   8.214   0.966
 2142SOL    HW118457   1.038   8.235   1.062
 2142SOL    HW218458   0.993   8.119   0.957
 2143SOL     OW18459   0.350   8.346   1.804
 2143SOL    HW118460   0.426   8.390   1.852
 2143SOL    HW218461   0.385   8.299   1.722
 2144SOL     OW18462   1.540   7.722   0.125
 2144SOL    HW118463   1.479   7.647   0.148
 2144SOL    HW218464   1.562   7.774   0.208
 2145SOL     OW18465   1.303   8.286   0.042
 2145SOL    HW118466   1.337   8.193   0.057
 2145SOL    HW218467   1.321   8.313  -0.053
 2146SOL     OW18468   0.319   8.258   0.949
 2146SOL    HW118469   0.412   8.294   0.954
 2146SOL    HW218470   0.313   8.173   1.001
 2147SOL     OW18471   0.339   7.957   1.006
 2147SOL    HW118472   0.287   7.874   0.989
 2147SOL    HW218473   0.416   7.962   0.942
 2148SOL     OW18474   1.160   7.655   1.477
 2148SOL    HW118475   1.160   7.719   1.554
 2148SOL    HW218476   1.188   7.703   1.394
 2149SOL     OW18477   1.002   8.244   1.238
 2149SOL    HW118478   1.043   8.212   1.324
 2149SOL    HW218479   0.906   8.217   1.235
 2150SOL     OW18480   0.040   7.992   1.114
 2150SOL    HW118481   0.125   7.959   1.073
 2150SOL    HW218482   0.053   8.007   1.212
 2151SOL     OW18483   0.815   8.020   0.325
 2151SOL    HW118484   0.822   7.931   0.279
 2151SOL    HW218485   0.721   8.054   0.317
 2152SOL     OW18486   1.657   8.052   1.206
 2152SOL    HW118487   1.619   7.983   1.268
 2152SOL    HW218488   1.739   8.016   1.162
 2153SOL     OW18489   0.473   7.948   0.191
 2153SOL    HW118490   0.534   8.028   0.195
 2153SOL    HW218491   0.378   7.979   0.198
 2154SOL     OW18492   0.159   8.585   1.466
 2154SOL    HW118493   0.181   8.524   1.542
 2154SOL    HW218494   0.169   8.536   1.380
 2155SOL     OW18495   1.347   8.507   1.234
 2155SOL    HW118496   1.371   8.444   1.160
 2155SOL    HW218497   1.257   8.547   1.216
 2156SOL     OW18498   1.302   8.303   0.309
 2156SOL    HW118499   1.216   8.272   0.351
 2156SOL    HW218500   1.298   8.289   0.210
 2157SOL     OW18501   0.903   7.534   0.133
 2157SOL    HW118502   0.954   7.535   0.047
 2157SOL    HW218503   0.959   7.492   0.204
 2158SOL     OW18504   1.726   7.583   0.523
 2158SOL    HW118505   1.799   7.566   0.456
 2158SOL    HW218506   1.695   7.496   0.561
 2159SOL     OW18507   1.280   8.375   0.672
 2159SOL    HW118508   1.340   8.294   0.674
 2159SOL    HW218509   1.320   8.444   0.612
 2160SOL     OW18510   1.841   7.623   0.963
 2160SOL    HW118511   1.880   7.538   0.927
 2160SOL    HW218512   1.743   7.625   0.944
 2161SOL     OW18513   0.263   7.774   0.720
 2161SOL    HW118514   0.184   7.825   0.686
 2161SOL    HW218515   0.254   7.759   0.818
 2162SOL     OW18516   0.916   8.358   0.291
 2162SOL    HW118517   0.979   8.396   0.223
 2162SOL    HW218518   0.956   8.275   0.330
 2163SOL     OW18519   1.014   7.684   0.971
 2163SOL    HW118520   1.006   7.648   0.878
 2163SOL    HW218521   1.012   7.608   1.036
 2164SOL     OW18522   0.075   7.793   0.033
 2164SOL    HW118523  -0.017   7.765   0.004
 2164SOL    HW218524   0.106   7.870  -0.023
 2165SOL     OW18525   0.072   7.614   0.318
 2165SOL    HW118526   0.055   7.697   0.264
 2165SOL    HW218527   0.162   7.577   0.296
 2166SOL     OW18528   0.613   8.290   1.431
 2166SOL    HW118529   0.669   8.371   1.414
 2166SOL    HW218530   0.672   8.210   1.434
 2167SOL     OW18531   0.716   8.013   1.708
 2167SOL    HW118532   0.735   8.078   1.782
 2167SOL    HW218533   0.776   7.933   1.717
 2168SOL     OW18534   1.674   8.331   1.254
 2168SOL    HW118535   1.647   8.242   1.217
 2168SOL    HW218536   1.675   8.399   1.181
 2169SOL     OW18537   1.225   7.773   0.449
 2169SOL    HW118538   1.290   7.699   0.438
 2169SOL    HW218539   1.245   7.823   0.533
 2170SOL     OW18540   0.594   8.193   0.652
 2170SOL    HW118541   0.644   8.278   0.633
 2170SOL    HW218542   0.506   8.195   0.604
 2171SOL     OW18543   1.777   7.790   1.642
 2171SOL    HW118544   1.760   7.821   1.548
 2171SOL    HW218545   1.693   7.753   1.680
 2172SOL     OW18546   1.730   8.382   1.517
 2172SOL    HW118547   1.768   8.473   1.532
 2172SOL    HW218548   1.722   8.365   1.418
 2173SOL     OW18549   1.083   8.432   0.087
 2173SOL    HW118550   1.060   8.485   0.005
 2173SOL    HW218551   1.164   8.376   0.068
 2174SOL     OW18552   1.824   7.640   1.227
 2174SOL    HW118553   1.820   7.550   1.271
 2174SOL    HW218554   1.827   7.629   1.128
 2175SOL     OW18555   0.428   7.872   0.520
 2175SOL    HW118556   0.458   7.800   0.458
 2175SOL    HW218557   0.389   7.832   0.603
 2176SOL     OW18558   0.317   7.995   1.280
 2176SOL    HW118559   0.355   7.936   1.352
 2176SOL    HW218560   0.357   7.969   1.192
 2177SOL     OW18561   1.424   7.662   1.112
 2177SOL    HW118562   1.476   7.597   1.167
 2177SOL    HW218563   1.375   7.725   1.173
 2178SOL     OW18564   1.001   7.482   1.154
 2178SOL    HW118565   0.938   7.410   1.123
 2178SOL    HW218566   1.094   7.446   1.154
 2179SOL     OW18567   1.352   7.500   0.168
 2179SOL    HW118568   1.387   7.459   0.084
 2179SOL    HW218569   1.262   7.462   0.188
 2180SOL     OW18570   1.300   7.901   0.691
 2180SOL    HW118571   1.241   7.981   0.695
 2180SOL    HW218572   1.315   7.866   0.784
 2181SOL     OW18573   1.593   7.669   0.882
 2181SOL    HW118574   1.509   7.668   0.936
 2181SOL    HW218575   1.595   7.752   0.826
 2182SOL     OW18576   0.225   7.723   2.858
 2182SOL    HW118577   0.260   7.706   2.950
 2182SOL    HW218578   0.137   7.678   2.846
 2183SOL     OW18579   0.850   8.246   3.685
 2183SOL    HW118580   0.846   8.322   3.750
 2183SOL    HW218581   0.872   8.282   3.594
 2184SOL     OW18582   1.603   7.895   2.599
 2184SOL    HW118583   1.529   7.941   2.549
 2184SOL    HW218584   1.654   7.963   2.652
 2185SOL     OW18585   0.317   7.699   3.663
 2185SOL    HW118586   0.388   7.770   3.669
 2185SOL    HW218587   0.229   7.738   3.691
 2186SOL     OW18588   0.598   8.177   2.132
 2186SOL    HW118589   0.622   8.246   2.064
 2186SOL    HW218590   0.520   8.210   2.186
 2187SOL     OW18591   1.281   7.793   2.806
 2187SOL    HW118592   1.195   7.743   2.793
 2187SOL    HW218593   1.343   7.739   2.862
 2188SOL     OW18594   1.394   7.917   3.536
 2188SOL    HW118595   1.374   7.960   3.624
 2188SOL    HW218596   1.472   7.855   3.545
 2189SOL     OW18597   0.865   7.796   2.057
 2189SOL    HW118598   0.924   7.859   2.008
 2189SOL    HW218599   0.884   7.702   2.028
 2190SOL     OW18600   0.614   7.570   1.979
 2190SOL    HW118601   0.712   7.548   1.986
 2190SOL    HW218602   0.583   7.553   1.886
 2191SOL     OW18603   1.351   8.038   3.295
 2191SOL    HW118604   1.379   7.995   3.380
 2191SOL    HW218605   1.376   8.134   3.296
 2192SOL     OW18606   0.922   7.951   2.761
 2192SOL    HW118607   0.897   7.942   2.665
 2192SOL    HW218608   0.970   7.869   2.792
 2193SOL     OW18609   0.539   7.512   2.374
 2193SOL    HW118610   0.458   7.513   2.432
 2193SOL    HW218611   0.542   7.595   2.319
 2194SOL     OW18612   1.076   8.131   3.326
 2194SOL    HW118613   0.996   8.070   3.329
 2194SOL    HW218614   1.157   8.078   3.302
 2195SOL     OW18615   0.527   7.704   2.190
 2195SOL    HW118616   0.554   7.645   2.115
 2195SOL    HW218617   0.527   7.799   2.159
 2196SOL     OW18618   0.915   7.537   3.264
 2196SOL    HW118619   0.940   7.517   3.169
 2196SOL    HW218620   0.987   7.593   3.306
 2197SOL     OW18621   1.274   7.834   3.124
 2197SOL    HW118622   1.295   7.908   3.188
 2197SOL    HW218623   1.185   7.851   3.081
 2198SOL     OW18624   1.582   8.087   2.334
 2198SOL    HW118625   1.551   8.148   2.407
 2198SOL    HW218626   1.632   8.139   2.265
 2199SOL     OW18627   0.339   7.957   2.868
 2199SOL    HW118628   0.287   7.874   2.851
 2199SOL    HW218629   0.416   7.962   2.804
 2200SOL     OW18630   0.040   7.992   2.976
 2200SOL    HW118631   0.125   7.959   2.935
 2200SOL    HW218632   0.053   8.007   3.074
 2201SOL     OW18633   0.189   7.968   3.584
 2201SOL    HW118634   0.248   7.928   3.514
 2201SOL    HW218635   0.131   8.039   3.543
 2202SOL     OW18636   0.473   7.948   2.053
 2202SOL    HW118637   0.534   8.028   2.057
 2202SOL    HW218638   0.378   7.979   2.060
 2203SOL     OW18639   1.302   8.303   2.171
 2203SOL    HW118640   1.216   8.272   2.213
 2203SOL    HW218641   1.298   8.289   2.072
 2204SOL     OW18642   1.726   7.583   2.385
 2204SOL    HW118643   1.799   7.566   2.318
 2204SOL    HW218644   1.695   7.496   2.423
 2205SOL     OW18645   0.263   7.774   2.582
 2205SOL    HW118646   0.184   7.825   2.548
 2205SOL    HW218647   0.254   7.759   2.680
 2206SOL     OW18648   1.014   7.684   2.833
 2206SOL    HW118649   1.006   7.648   2.740
 2206SOL    HW218650   1.012   7.608   2.898
 2207SOL     OW18651   0.105   8.461   3.588
 2207SOL    HW118652   0.028   8.428   3.642
 2207SOL    HW218653   0.190   8.431   3.630
 2208SOL     OW18654   1.440   8.304   3.260
 2208SOL    HW118655   1.383   8.356   3.197
 2208SOL    HW218656   1.536   8.316   3.236
 2209SOL     OW18657   0.613   8.290   3.293
 2209SOL    HW118658   0.669   8.371   3.276
 2209SOL    HW218659   0.672   8.210   3.296
 2210SOL     OW18660   0.716   8.013   3.570
 2210SOL    HW118661   0.735   8.078   3.644
 2210SOL    HW218662   0.776   7.933   3.579
 2211SOL     OW18663   1.674   8.331   3.116
 2211SOL    HW118664   1.647   8.242   3.079
 2211SOL    HW218665   1.675   8.399   3.043
 2212SOL     OW18666   0.594   8.193   2.514
 2212SOL    HW118667   0.644   8.278   2.495
 2212SOL    HW218668   0.506   8.195   2.466
 2213SOL     OW18669   1.777   7.790   3.504
 2213SOL    HW118670   1.760   7.821   3.410
 2213SOL    HW218671   1.693   7.753   3.542
 2214SOL     OW18672   1.824   7.640   3.089
 2214SOL    HW118673   1.820   7.550   3.133
 2214SOL    HW218674   1.827   7.629   2.990
 2215SOL     OW18675   1.001   7.482   3.016
 2215SOL    HW118676   0.938   7.410   2.985
 2215SOL    HW218677   1.094   7.446   3.016
 2216SOL     OW18678   1.352   7.500   2.030
 2216SOL    HW118679   1.387   7.459   1.946
 2216SOL    HW218680   1.262   7.462   2.050
 2217SOL     OW18681   0.019   7.816   4.371
 2217SOL    HW118682  -0.063   7.859   4.410
 2217SOL    HW218683  -0.009   7.743   4.308
 2218SOL     OW18684   0.850   8.246   5.547
 2218SOL    HW118685   0.846   8.322   5.612
 2218SOL    HW218686   0.872   8.282   5.456
 2219SOL     OW18687   0.240   8.539   4.610
 2219SOL    HW118688   0.254   8.455   4.662
 2219SOL    HW218689   0.185   8.603   4.665
 2220SOL     OW18690   1.594   7.562   5.204
 2220SOL    HW118691   1.576   7.629   5.132
 2220SOL    HW218692   1.591   7.608   5.293
 2221SOL     OW18693   0.122   8.091   4.287
 2221SOL    HW118694   0.077   8.003   4.304
 2221SOL    HW218695   0.121   8.145   4.371
 2222SOL     OW18696   0.809   7.452   4.226
 2222SOL    HW118697   0.849   7.543   4.217
 2222SOL    HW218698   0.709   7.460   4.232
 2223SOL     OW18699   0.197   8.424   4.988
 2223SOL    HW118700   0.286   8.379   4.974
 2223SOL    HW218701   0.124   8.359   4.969
 2224SOL     OW18702   1.525   8.447   3.914
 2224SOL    HW118703   1.462   8.371   3.927
 2224SOL    HW218704   1.573   8.465   4.000
 2225SOL     OW18705   0.317   7.699   5.525
 2225SOL    HW118706   0.388   7.770   5.531
 2225SOL    HW218707   0.229   7.738   5.553
 2226SOL     OW18708   0.807   8.053   5.189
 2226SOL    HW118709   0.760   8.050   5.278
 2226SOL    HW218710   0.756   7.998   5.123
 2227SOL     OW18711   0.973   8.338   5.296
 2227SOL    HW118712   1.019   8.254   5.267
 2227SOL    HW218713   0.917   8.372   5.221
 2228SOL     OW18714   0.991   7.858   4.966
 2228SOL    HW118715   0.914   7.892   5.020
 2228SOL    HW218716   0.957   7.807   4.887
 2229SOL     OW18717   1.719   8.033   5.555
 2229SOL    HW118718   1.693   8.122   5.519
 2229SOL    HW218719   1.717   7.965   5.482
 2230SOL     OW18720   1.547   7.670   5.453
 2230SOL    HW118721   1.542   7.707   5.545
 2230SOL    HW218722   1.475   7.601   5.441
 2231SOL     OW18723   0.781   7.712   5.473
 2231SOL    HW118724   0.848   7.651   5.516
 2231SOL    HW218725   0.708   7.731   5.538
 2232SOL     OW18726   0.935   7.684   4.204
 2232SOL    HW118727   0.887   7.725   4.126
 2232SOL    HW218728   1.034   7.682   4.185
 2233SOL     OW18729   1.076   8.131   5.188
 2233SOL    HW118730   0.996   8.070   5.191
 2233SOL    HW218731   1.157   8.078   5.164
 2234SOL     OW18732   0.078   8.004   5.110
 2234SOL    HW118733   0.170   8.003   5.069
 2234SOL    HW218734   0.072   8.078   5.177
 2235SOL     OW18735   0.561   7.670   4.871
 2235SOL    HW118736   0.599   7.586   4.908
 2235SOL    HW218737   0.473   7.689   4.915
 2236SOL     OW18738   1.017   7.487   4.477
 2236SOL    HW118739   0.945   7.492   4.408
 2236SOL    HW218740   0.993   7.418   4.546
 2237SOL     OW18741   1.857   8.281   4.101
 2237SOL    HW118742   1.899   8.217   4.165
 2237SOL    HW218743   1.819   8.230   4.023
 2238SOL     OW18744   1.390   8.023   3.802
 2238SOL    HW118745   1.336   8.002   3.883
 2238SOL    HW218746   1.481   7.982   3.811
 2239SOL     OW18747   1.638   8.547   4.803
 2239SOL    HW118748   1.643   8.628   4.862
 2239SOL    HW218749   1.552   8.549   4.752
 2240SOL     OW18750   0.915   7.537   5.126
 2240SOL    HW118751   0.940   7.517   5.031
 2240SOL    HW218752   0.987   7.593   5.168
 2241SOL     OW18753   1.274   7.834   4.986
 2241SOL    HW118754   1.295   7.908   5.050
 2241SOL    HW218755   1.185   7.851   4.943
 2242SOL     OW18756   1.582   8.087   4.196
 2242SOL    HW118757   1.551   8.148   4.269
 2242SOL    HW218758   1.632   8.139   4.127
 2243SOL     OW18759   1.587   8.227   5.394
 2243SOL    HW118760   1.495   8.265   5.389
 2243SOL    HW218761   1.647   8.274   5.329
 2244SOL     OW18762   1.013   7.553   5.494
 2244SOL    HW118763   1.019   7.638   5.442
 2244SOL    HW218764   1.045   7.477   5.437
 2245SOL     OW18765   0.504   7.498   5.464
 2245SOL    HW118766   0.462   7.441   5.394
 2245SOL    HW218767   0.438   7.567   5.496
 2246SOL     OW18768   0.307   7.661   4.955
 2246SOL    HW118769   0.284   7.698   5.045
 2246SOL    HW218770   0.277   7.566   4.949
 2247SOL     OW18771   0.732   8.082   4.788
 2247SOL    HW118772   0.791   8.056   4.712
 2247SOL    HW218773   0.704   8.178   4.777
 2248SOL     OW18774   1.728   8.383   5.578
 2248SOL    HW118775   1.682   8.376   5.489
 2248SOL    HW218776   1.666   8.427   5.644
 2249SOL     OW18777   0.307   7.511   4.342
 2249SOL    HW118778   0.296   7.605   4.375
 2249SOL    HW218779   0.302   7.448   4.419
 2250SOL     OW18780   1.622   7.815   4.098
 2250SOL    HW118781   1.624   7.739   4.162
 2250SOL    HW218782   1.574   7.892   4.138
 2251SOL     OW18783   0.350   8.346   5.528
 2251SOL    HW118784   0.426   8.390   5.576
 2251SOL    HW218785   0.385   8.299   5.446
 2252SOL     OW18786   1.303   8.286   3.766
 2252SOL    HW118787   1.337   8.193   3.781
 2252SOL    HW218788   1.321   8.313   3.671
 2253SOL     OW18789   1.138   7.828   5.402
 2253SOL    HW118790   1.093   7.891   5.466
 2253SOL    HW218791   1.231   7.859   5.385
 2254SOL     OW18792   1.160   7.655   5.201
 2254SOL    HW118793   1.160   7.719   5.278
 2254SOL    HW218794   1.188   7.703   5.118
 2255SOL     OW18795   0.040   7.992   4.838
 2255SOL    HW118796   0.125   7.959   4.797
 2255SOL    HW218797   0.053   8.007   4.936
 2256SOL     OW18798   1.369   8.398   5.384
 2256SOL    HW118799   1.408   8.487   5.404
 2256SOL    HW218800   1.379   8.378   5.287
 2257SOL     OW18801   0.671   7.912   4.993
 2257SOL    HW118802   0.637   7.823   4.963
 2257SOL    HW218803   0.697   7.966   4.913
 2258SOL     OW18804   1.347   8.507   4.958
 2258SOL    HW118805   1.371   8.444   4.884
 2258SOL    HW218806   1.257   8.547   4.940
 2259SOL     OW18807   0.916   8.358   4.015
 2259SOL    HW118808   0.979   8.396   3.947
 2259SOL    HW218809   0.956   8.275   4.054
 2260SOL     OW18810   0.105   8.461   5.450
 2260SOL    HW118811   0.028   8.428   5.504
 2260SOL    HW218812   0.190   8.431   5.492
 2261SOL     OW18813   0.672   7.651   5.213
 2261SOL    HW118814   0.762   7.635   5.173
 2261SOL    HW218815   0.680   7.656   5.312
 2262SOL     OW18816   0.072   7.614   4.042
 2262SOL    HW118817   0.055   7.697   3.988
 2262SOL    HW218818   0.162   7.577   4.020
 2263SOL     OW18819   0.613   8.290   5.155
 2263SOL    HW118820   0.669   8.371   5.138
 2263SOL    HW218821   0.672   8.210   5.158
 2264SOL     OW18822   0.716   8.013   5.432
 2264SOL    HW118823   0.735   8.078   5.506
 2264SOL    HW218824   0.776   7.933   5.441
 2265SOL     OW18825   1.674   8.331   4.978
 2265SOL    HW118826   1.647   8.242   4.941
 2265SOL    HW218827   1.675   8.399   4.905
 2266SOL     OW18828   1.777   7.790   5.366
 2266SOL    HW118829   1.760   7.821   5.272
 2266SOL    HW218830   1.693   7.753   5.404
 2267SOL     OW18831   1.083   8.432   3.811
 2267SOL    HW118832   1.060   8.485   3.729
 2267SOL    HW218833   1.164   8.376   3.792
 2268SOL     OW18834   1.824   7.640   4.951
 2268SOL    HW118835   1.820   7.550   4.995
 2268SOL    HW218836   1.827   7.629   4.852
 2269SOL     OW18837   1.001   7.482   4.878
 2269SOL    HW118838   0.938   7.410   4.847
 2269SOL    HW218839   1.094   7.446   4.878
 2270SOL     OW18840   1.593   7.669   4.606
 2270SOL    HW118841   1.509   7.668   4.660
 2270SOL    HW218842   1.595   7.752   4.550
 2271SOL     OW18843   0.230   8.076   5.699
 2271SOL    HW118844   0.137   8.074   5.736
 2271SOL    HW218845   0.231   8.037   5.607
 2272SOL     OW18846   0.225   7.723   6.582
 2272SOL    HW118847   0.260   7.706   6.674
 2272SOL    HW218848   0.137   7.678   6.570
 2273SOL     OW18849   0.019   7.816   6.233
 2273SOL    HW118850  -0.063   7.859   6.272
 2273SOL    HW218851  -0.009   7.743   6.170
 2274SOL     OW18852   1.135   8.151   6.303
 2274SOL    HW118853   1.192   8.229   6.278
 2274SOL    HW218854   1.075   8.177   6.379
 2275SOL     OW18855   1.755   8.055   5.817
 2275SOL    HW118856   1.743   8.042   5.718
 2275SOL    HW218857   1.725   7.974   5.866
 2276SOL     OW18858   0.768   8.592   6.609
 2276SOL    HW118859   0.690   8.609   6.669
 2276SOL    HW218860   0.802   8.679   6.573
 2277SOL     OW18861   0.685   8.460   6.251
 2277SOL    HW118862   0.754   8.444   6.321
 2277SOL    HW218863   0.612   8.517   6.289
 2278SOL     OW18864   1.603   7.895   6.323
 2278SOL    HW118865   1.529   7.941   6.273
 2278SOL    HW218866   1.654   7.963   6.376
 2279SOL     OW18867   0.240   8.539   6.472
 2279SOL    HW118868   0.254   8.455   6.524
 2279SOL    HW218869   0.185   8.603   6.527
 2280SOL     OW18870   0.122   8.091   6.149
 2280SOL    HW118871   0.077   8.003   6.166
 2280SOL    HW218872   0.121   8.145   6.233
 2281SOL     OW18873   0.809   7.452   6.088
 2281SOL    HW118874   0.849   7.543   6.079
 2281SOL    HW218875   0.709   7.460   6.094
 2282SOL     OW18876   0.197   8.424   6.850
 2282SOL    HW118877   0.286   8.379   6.836
 2282SOL    HW218878   0.124   8.359   6.831
 2283SOL     OW18879   1.525   8.447   5.776
 2283SOL    HW118880   1.462   8.371   5.789
 2283SOL    HW218881   1.573   8.465   5.862
 2284SOL     OW18882   0.598   8.177   5.856
 2284SOL    HW118883   0.622   8.246   5.788
 2284SOL    HW218884   0.520   8.210   5.910
 2285SOL     OW18885   1.281   7.793   6.530
 2285SOL    HW118886   1.195   7.743   6.517
 2285SOL    HW218887   1.343   7.739   6.586
 2286SOL     OW18888   0.991   7.858   6.828
 2286SOL    HW118889   0.914   7.892   6.882
 2286SOL    HW218890   0.957   7.807   6.749
 2287SOL     OW18891   1.041   8.149   6.015
 2287SOL    HW118892   1.067   8.145   6.111
 2287SOL    HW218893   0.956   8.098   6.001
 2288SOL     OW18894   0.076   8.259   6.375
 2288SOL    HW118895   0.175   8.247   6.384
 2288SOL    HW218896   0.052   8.354   6.396
 2289SOL     OW18897   0.865   7.796   5.781
 2289SOL    HW118898   0.924   7.859   5.732
 2289SOL    HW218899   0.884   7.702   5.752
 2290SOL     OW18900   0.550   7.644   6.471
 2290SOL    HW118901   0.545   7.639   6.571
 2290SOL    HW218902   0.552   7.740   6.442
 2291SOL     OW18903   1.458   8.183   6.314
 2291SOL    HW118904   1.453   8.118   6.389
 2291SOL    HW218905   1.538   8.242   6.327
 2292SOL     OW18906   1.400   7.555   6.012
 2292SOL    HW118907   1.376   7.518   5.922
 2292SOL    HW218908   1.499   7.571   6.016
 2293SOL     OW18909   0.382   8.148   6.066
 2293SOL    HW118910   0.427   8.058   6.063
 2293SOL    HW218911   0.288   8.137   6.099
 2294SOL     OW18912   0.614   7.570   5.703
 2294SOL    HW118913   0.712   7.548   5.710
 2294SOL    HW218914   0.583   7.553   5.610
 2295SOL     OW18915   0.922   7.951   6.485
 2295SOL    HW118916   0.897   7.942   6.389
 2295SOL    HW218917   0.970   7.869   6.516
 2296SOL     OW18918   0.539   7.512   6.098
 2296SOL    HW118919   0.458   7.513   6.156
 2296SOL    HW218920   0.542   7.595   6.043
 2297SOL     OW18921   0.297   7.483   5.757
 2297SOL    HW118922   0.346   7.567   5.736
 2297SOL    HW218923   0.359   7.418   5.802
 2298SOL     OW18924   0.935   7.684   6.066
 2298SOL    HW118925   0.887   7.725   5.988
 2298SOL    HW218926   1.034   7.682   6.047
 2299SOL     OW18927   1.032   7.997   5.602
 2299SOL    HW118928   0.991   8.079   5.563
 2299SOL    HW218929   1.096   8.023   5.675
 2300SOL     OW18930   0.561   7.670   6.733
 2300SOL    HW118931   0.599   7.586   6.770
 2300SOL    HW218932   0.473   7.689   6.777
 2301SOL     OW18933   0.866   7.902   6.228
 2301SOL    HW118934   0.834   7.974   6.166
 2301SOL    HW218935   0.890   7.821   6.175
 2302SOL     OW18936   1.017   7.487   6.339
 2302SOL    HW118937   0.945   7.492   6.270
 2302SOL    HW218938   0.993   7.418   6.408
 2303SOL     OW18939   1.466   8.038   6.578
 2303SOL    HW118940   1.436   7.943   6.585
 2303SOL    HW218941   1.539   8.054   6.644
 2304SOL     OW18942   1.857   8.281   5.963
 2304SOL    HW118943   1.899   8.217   6.027
 2304SOL    HW218944   1.819   8.230   5.885
 2305SOL     OW18945   1.390   8.023   5.664
 2305SOL    HW118946   1.336   8.002   5.745
 2305SOL    HW218947   1.481   7.982   5.673
 2306SOL     OW18948   0.527   7.704   5.914
 2306SOL    HW118949   0.554   7.645   5.839
 2306SOL    HW218950   0.527   7.799   5.883
 2307SOL     OW18951   1.638   8.547   6.665
 2307SOL    HW118952   1.643   8.628   6.724
 2307SOL    HW218953   1.552   8.549   6.614
 2308SOL     OW18954   0.410   8.261   6.837
 2308SOL    HW118955   0.496   8.273   6.887
 2308SOL    HW218956   0.368   8.174   6.864
 2309SOL     OW18957   1.274   7.834   6.848
 2309SOL    HW118958   1.295   7.908   6.912
 2309SOL    HW218959   1.185   7.851   6.805
 2310SOL     OW18960   0.566   7.985   6.451
 2310SOL    HW118961   0.578   8.051   6.377
 2310SOL    HW218962   0.612   8.019   6.534
 2311SOL     OW18963   1.582   8.087   6.058
 2311SOL    HW118964   1.551   8.148   6.131
 2311SOL    HW218965   1.632   8.139   5.989
 2312SOL     OW18966   0.573   8.318   6.615
 2312SOL    HW118967   0.617   8.407   6.606
 2312SOL    HW218968   0.510   8.318   6.692
 2313SOL     OW18969   1.360   8.310   6.631
 2313SOL    HW118970   1.285   8.310   6.565
 2313SOL    HW218971   1.397   8.218   6.640
 2314SOL     OW18972   1.209   7.973   5.861
 2314SOL    HW118973   1.222   7.889   5.915
 2314SOL    HW218974   1.180   8.047   5.921
 2315SOL     OW18975   0.307   7.661   6.817
 2315SOL    HW118976   0.284   7.698   6.907
 2315SOL    HW218977   0.277   7.566   6.811
 2316SOL     OW18978   0.732   8.082   6.650
 2316SOL    HW118979   0.791   8.056   6.574
 2316SOL    HW218980   0.704   8.178   6.639
 2317SOL     OW18981   0.307   7.511   6.204
 2317SOL    HW118982   0.296   7.605   6.237
 2317SOL    HW218983   0.302   7.448   6.281
 2318SOL     OW18984   1.622   7.815   5.960
 2318SOL    HW118985   1.624   7.739   6.024
 2318SOL    HW218986   1.574   7.892   6.000
 2319SOL     OW18987   1.023   8.214   6.552
 2319SOL    HW118988   1.038   8.235   6.648
 2319SOL    HW218989   0.993   8.119   6.543
 2320SOL     OW18990   1.540   7.722   5.711
 2320SOL    HW118991   1.479   7.647   5.734
 2320SOL    HW218992   1.562   7.774   5.794
 2321SOL     OW18993   1.303   8.286   5.628
 2321SOL    HW118994   1.337   8.193   5.643
 2321SOL    HW218995   1.321   8.313   5.533
 2322SOL     OW18996   0.319   8.258   6.535
 2322SOL    HW118997   0.412   8.294   6.540
 2322SOL    HW218998   0.313   8.173   6.587
 2323SOL     OW18999   0.339   7.957   6.592
 2323SOL    HW119000   0.287   7.874   6.575
 2323SOL    HW219001   0.416   7.962   6.528
 2324SOL     OW19002   1.160   7.655   7.063
 2324SOL    HW119003   1.160   7.719   7.140
 2324SOL    HW219004   1.188   7.703   6.980
 2325SOL     OW19005   1.002   8.244   6.824
 2325SOL    HW119006   1.043   8.212   6.910
 2325SOL    HW219007   0.906   8.217   6.821
 2326SOL     OW19008   0.040   7.992   6.700
 2326SOL    HW119009   0.125   7.959   6.659
 2326SOL    HW219010   0.053   8.007   6.798
 2327SOL     OW19011   0.815   8.020   5.911
 2327SOL    HW119012   0.822   7.931   5.865
 2327SOL    HW219013   0.721   8.054   5.903
 2328SOL     OW19014   1.657   8.052   6.792
 2328SOL    HW119015   1.619   7.983   6.854
 2328SOL    HW219016   1.739   8.016   6.748
 2329SOL     OW19017   0.671   7.912   6.855
 2329SOL    HW119018   0.637   7.823   6.825
 2329SOL    HW219019   0.697   7.966   6.775
 2330SOL     OW19020   0.473   7.948   5.777
 2330SOL    HW119021   0.534   8.028   5.781
 2330SOL    HW219022   0.378   7.979   5.784
 2331SOL     OW19023   1.347   8.507   6.820
 2331SOL    HW119024   1.371   8.444   6.746
 2331SOL    HW219025   1.257   8.547   6.802
 2332SOL     OW19026   1.302   8.303   5.895
 2332SOL    HW119027   1.216   8.272   5.937
 2332SOL    HW219028   1.298   8.289   5.796
 2333SOL     OW19029   1.726   7.583   6.109
 2333SOL    HW119030   1.799   7.566   6.042
 2333SOL    HW219031   1.695   7.496   6.147
 2334SOL     OW19032   1.280   8.375   6.258
 2334SOL    HW119033   1.340   8.294   6.260
 2334SOL    HW219034   1.320   8.444   6.198
 2335SOL     OW19035   1.841   7.623   6.549
 2335SOL    HW119036   1.880   7.538   6.513
 2335SOL    HW219037   1.743   7.625   6.530
 2336SOL     OW19038   0.263   7.774   6.306
 2336SOL    HW119039   0.184   7.825   6.272
 2336SOL    HW219040   0.254   7.759   6.404
 2337SOL     OW19041   0.916   8.358   5.877
 2337SOL    HW119042   0.979   8.396   5.809
 2337SOL    HW219043   0.956   8.275   5.916
 2338SOL     OW19044   1.014   7.684   6.557
 2338SOL    HW119045   1.006   7.648   6.464
 2338SOL    HW219046   1.012   7.608   6.622
 2339SOL     OW19047   1.709   7.833   6.967
 2339SOL    HW119048   1.782   7.902   6.971
 2339SOL    HW219049   1.737   7.758   6.908
 2340SOL     OW19050   0.072   7.614   5.904
 2340SOL    HW119051   0.055   7.697   5.850
 2340SOL    HW219052   0.162   7.577   5.882
 2341SOL     OW19053   1.674   8.331   6.840
 2341SOL    HW119054   1.647   8.242   6.803
 2341SOL    HW219055   1.675   8.399   6.767
 2342SOL     OW19056   1.225   7.773   6.035
 2342SOL    HW119057   1.290   7.699   6.024
 2342SOL    HW219058   1.245   7.823   6.119
 2343SOL     OW19059   0.594   8.193   6.238
 2343SOL    HW119060   0.644   8.278   6.219
 2343SOL    HW219061   0.506   8.195   6.190
 2344SOL     OW19062   1.730   8.382   7.103
 2344SOL    HW119063   1.768   8.473   7.118
 2344SOL    HW219064   1.722   8.365   7.004
 2345SOL     OW19065   1.083   8.432   5.673
 2345SOL    HW119066   1.060   8.485   5.591
 2345SOL    HW219067   1.164   8.376   5.654
 2346SOL     OW19068   1.824   7.640   6.813
 2346SOL    HW119069   1.820   7.550   6.857
 2346SOL    HW219070   1.827   7.629   6.714
 2347SOL     OW19071   0.428   7.872   6.106
 2347SOL    HW119072   0.458   7.800   6.044
 2347SOL    HW219073   0.389   7.832   6.189
 2348SOL     OW19074   1.424   7.662   6.698
 2348SOL    HW119075   1.476   7.597   6.753
 2348SOL    HW219076   1.375   7.725   6.759
 2349SOL     OW19077   1.001   7.482   6.740
 2349SOL    HW119078   0.938   7.410   6.709
 2349SOL    HW219079   1.094   7.446   6.740
 2350SOL     OW19080   1.352   7.500   5.754
 2350SOL    HW119081   1.387   7.459   5.670
 2350SOL    HW219082   1.262   7.462   5.774
 2351SOL     OW19083   1.300   7.901   6.277
 2351SOL    HW119084   1.241   7.981   6.281
 2351SOL    HW219085   1.315   7.866   6.370
 2352SOL     OW19086   1.593   7.669   6.468
 2352SOL    HW119087   1.509   7.668   6.522
 2352SOL    HW219088   1.595   7.752   6.412
 2353SOL     OW19089   2.092   0.628   0.113
 2353SOL    HW119090   1.999   0.626   0.150
 2353SOL    HW219091   2.093   0.589   0.021
 2354SOL     OW19092   2.087   0.275   0.996
 2354SOL    HW119093   2.122   0.258   1.088
 2354SOL    HW219094   1.999   0.230   0.984
 2355SOL     OW19095   1.881   0.368   0.647
 2355SOL    HW119096   1.799   0.411   0.686
 2355SOL    HW219097   1.853   0.295   0.584
 2356SOL     OW19098   2.431   1.275   1.165
 2356SOL    HW119099   2.338   1.268   1.128
 2356SOL    HW219100   2.442   1.364   1.209
 2357SOL     OW19101   3.417   1.511   0.703
 2357SOL    HW119102   3.360   1.495   0.784
 2357SOL    HW219103   3.358   1.521   0.623
 2358SOL     OW19104   2.997   0.703   0.717
 2358SOL    HW119105   3.054   0.781   0.692
 2358SOL    HW219106   2.937   0.729   0.793
 2359SOL     OW19107   3.617   0.607   0.231
 2359SOL    HW119108   3.605   0.594   0.132
 2359SOL    HW219109   3.587   0.526   0.280
 2360SOL     OW19110   2.630   1.144   1.023
 2360SOL    HW119111   2.552   1.161   1.083
 2360SOL    HW219112   2.664   1.231   0.987
 2361SOL     OW19113   2.712   0.798   1.823
 2361SOL    HW119114   2.708   0.874   1.888
 2361SOL    HW219115   2.734   0.834   1.732
 2362SOL     OW19116   2.547   1.012   0.665
 2362SOL    HW119117   2.616   0.996   0.735
 2362SOL    HW219118   2.474   1.069   0.703
 2363SOL     OW19119   2.197   1.435   1.061
 2363SOL    HW119120   2.119   1.404   1.008
 2363SOL    HW219121   2.255   1.493   1.004
 2364SOL     OW19122   3.322   1.505   1.339
 2364SOL    HW119123   3.346   1.599   1.365
 2364SOL    HW219124   3.306   1.451   1.421
 2365SOL     OW19125   3.465   0.447   0.737
 2365SOL    HW119126   3.391   0.493   0.687
 2365SOL    HW219127   3.516   0.515   0.790
 2366SOL     OW19128   2.093   1.713   0.483
 2366SOL    HW119129   2.127   1.790   0.537
 2366SOL    HW219130   2.137   1.713   0.393
 2367SOL     OW19131   2.989   1.341   1.690
 2367SOL    HW119132   3.036   1.341   1.778
 2367SOL    HW219133   2.941   1.254   1.679
 2368SOL     OW19134   2.092   1.434   0.538
 2368SOL    HW119135   2.066   1.530   0.538
 2368SOL    HW219136   2.021   1.380   0.583
 2369SOL     OW19137   2.102   1.091   0.886
 2369SOL    HW119138   2.116   1.007   0.938
 2369SOL    HW219139   2.047   1.155   0.941
 2370SOL     OW19140   2.482   1.786   1.439
 2370SOL    HW119141   2.390   1.769   1.474
 2370SOL    HW219142   2.510   1.878   1.465
 2371SOL     OW19143   2.468   0.964   0.123
 2371SOL    HW119144   2.475   1.048   0.069
 2371SOL    HW219145   2.514   0.977   0.211
 2372SOL     OW19146   1.984   0.643   0.563
 2372SOL    HW119147   1.939   0.555   0.580
 2372SOL    HW219148   1.983   0.697   0.647
 2373SOL     OW19149   3.704   1.767   0.359
 2373SOL    HW119150   3.758   1.738   0.439
 2373SOL    HW219151   3.734   1.857   0.330
 2374SOL     OW19152   1.889   1.596   0.117
 2374SOL    HW119153   1.870   1.500   0.138
 2374SOL    HW219154   1.856   1.654   0.192
 2375SOL     OW19155   3.551   0.922   0.612
 2375SOL    HW119156   3.646   0.893   0.620
 2375SOL    HW219157   3.543   0.987   0.537
 2376SOL     OW19158   3.503   1.108   0.432
 2376SOL    HW119159   3.589   1.110   0.380
 2376SOL    HW219160   3.517   1.155   0.520
 2377SOL     OW19161   2.475   1.365   0.726
 2377SOL    HW119162   2.426   1.278   0.735
 2377SOL    HW219163   2.452   1.408   0.639
 2378SOL     OW19164   3.155   1.228   1.423
 2378SOL    HW119165   3.192   1.155   1.365
 2378SOL    HW219166   3.207   1.233   1.508
 2379SOL     OW19167   2.671   0.004   0.502
 2379SOL    HW119168   2.711   0.095   0.493
 2379SOL    HW219169   2.571   0.012   0.508
 2380SOL     OW19170   2.059   0.976   1.264
 2380SOL    HW119171   2.148   0.931   1.250
 2380SOL    HW219172   1.986   0.911   1.245
 2381SOL     OW19173   3.387   0.999   0.190
 2381SOL    HW119174   3.324   0.923   0.203
 2381SOL    HW219175   3.435   1.017   0.276
 2382SOL     OW19176   3.049   1.792   1.616
 2382SOL    HW119177   3.073   1.852   1.540
 2382SOL    HW219178   3.056   1.697   1.586
 2383SOL     OW19179   2.179   0.251   1.801
 2383SOL    HW119180   2.250   0.322   1.807
 2383SOL    HW219181   2.091   0.290   1.829
 2384SOL     OW19182   3.328   1.417   0.953
 2384SOL    HW119183   3.269   1.423   1.033
 2384SOL    HW219184   3.313   1.329   0.907
 2385SOL     OW19185   3.529   1.714   0.572
 2385SOL    HW119186   3.488   1.691   0.484
 2385SOL    HW219187   3.511   1.640   0.637
 2386SOL     OW19188   2.460   0.729   0.270
 2386SOL    HW119189   2.484   0.798   0.202
 2386SOL    HW219190   2.382   0.762   0.324
 2387SOL     OW19191   3.143   0.345   0.944
 2387SOL    HW119192   3.057   0.295   0.931
 2387SOL    HW219193   3.205   0.291   1.000
 2388SOL     OW19194   3.438   1.662   0.307
 2388SOL    HW119195   3.527   1.708   0.310
 2388SOL    HW219196   3.417   1.638   0.212
 2389SOL     OW19197   2.669   0.605   1.465
 2389SOL    HW119198   2.622   0.602   1.554
 2389SOL    HW219199   2.618   0.550   1.399
 2390SOL     OW19200   2.835   0.890   1.572
 2390SOL    HW119201   2.881   0.806   1.543
 2390SOL    HW219202   2.779   0.924   1.497
 2391SOL     OW19203   2.853   0.410   1.242
 2391SOL    HW119204   2.776   0.444   1.296
 2391SOL    HW219205   2.819   0.359   1.163
 2392SOL     OW19206   2.903   0.701   0.429
 2392SOL    HW119207   2.929   0.697   0.525
 2392SOL    HW219208   2.818   0.650   0.415
 2393SOL     OW19209   1.938   0.811   0.789
 2393SOL    HW119210   2.037   0.799   0.798
 2393SOL    HW219211   1.914   0.906   0.810
 2394SOL     OW19212   2.727   0.348   0.195
 2394SOL    HW119213   2.786   0.411   0.146
 2394SOL    HW219214   2.746   0.254   0.166
 2395SOL     OW19215   3.224   1.144   0.545
 2395SOL    HW119216   3.307   1.115   0.497
 2395SOL    HW219217   3.175   1.211   0.489
 2396SOL     OW19218   2.412   0.196   0.885
 2396SOL    HW119219   2.407   0.191   0.985
 2396SOL    HW219220   2.414   0.292   0.856
 2397SOL     OW19221   2.870   1.456   0.477
 2397SOL    HW119222   2.824   1.528   0.425
 2397SOL    HW219223   2.866   1.476   0.575
 2398SOL     OW19224   2.213   1.801   0.853
 2398SOL    HW119225   2.263   1.715   0.859
 2398SOL    HW219226   2.278   1.878   0.850
 2399SOL     OW19227   3.657   1.066   0.873
 2399SOL    HW119228   3.595   1.051   0.797
 2399SOL    HW219229   3.605   1.077   0.958
 2400SOL     OW19230   3.089   1.550   1.506
 2400SOL    HW119231   3.095   1.473   1.570
 2400SOL    HW219232   3.037   1.524   1.426
 2401SOL     OW19233   2.183   0.943   0.242
 2401SOL    HW119234   2.265   0.982   0.200
 2401SOL    HW219235   2.156   0.861   0.193
 2402SOL     OW19236   3.320   0.735   0.728
 2402SOL    HW119237   3.315   0.670   0.803
 2402SOL    HW219238   3.400   0.794   0.741
 2403SOL     OW19239   2.973   1.776   0.237
 2403SOL    HW119240   2.913   1.714   0.287
 2403SOL    HW219241   3.004   1.732   0.152
 2404SOL     OW19242   2.064   0.285   1.498
 2404SOL    HW119243   1.984   0.345   1.485
 2404SOL    HW219244   2.054   0.236   1.584
 2405SOL     OW19245   3.494   1.377   0.081
 2405SOL    HW119246   3.462   1.471   0.071
 2405SOL    HW219247   3.418   1.314   0.069
 2406SOL     OW19248   2.326   1.743   0.323
 2406SOL    HW119249   2.359   1.782   0.409
 2406SOL    HW219250   2.402   1.736   0.258
 2407SOL     OW19251   3.262   0.107   0.426
 2407SOL    HW119252   3.238   0.070   0.336
 2407SOL    HW219253   3.361   0.123   0.430
 2408SOL     OW19254   2.111   1.785   1.241
 2408SOL    HW119255   2.168   1.720   1.291
 2408SOL    HW219256   2.095   1.752   1.148
 2409SOL     OW19257   2.802   1.698   0.904
 2409SOL    HW119258   2.882   1.641   0.925
 2409SOL    HW219259   2.753   1.658   0.827
 2410SOL     OW19260   2.244   0.700   0.480
 2410SOL    HW119261   2.289   0.610   0.477
 2410SOL    HW219262   2.150   0.689   0.513
 2411SOL     OW19263   2.476   0.122   0.117
 2411SOL    HW119264   2.574   0.100   0.124
 2411SOL    HW219265   2.445   0.105   0.024
 2412SOL     OW19266   2.643   0.264   1.749
 2412SOL    HW119267   2.710   0.203   1.792
 2412SOL    HW219268   2.570   0.283   1.814
 2413SOL     OW19269   2.750   1.514   1.195
 2413SOL    HW119270   2.727   1.489   1.101
 2413SOL    HW219271   2.811   1.445   1.234
 2414SOL     OW19272   3.213   0.590   1.433
 2414SOL    HW119273   3.241   0.547   1.518
 2414SOL    HW219274   3.238   0.686   1.434
 2415SOL     OW19275   2.665   1.402   0.924
 2415SOL    HW119276   2.755   1.416   0.882
 2415SOL    HW219277   2.594   1.404   0.853
 2416SOL     OW19278   2.784   0.503   0.899
 2416SOL    HW119279   2.759   0.494   0.803
 2416SOL    HW219280   2.832   0.421   0.930
 2417SOL     OW19281   2.401   0.064   0.512
 2417SOL    HW119282   2.320   0.065   0.570
 2417SOL    HW219283   2.404   0.147   0.457
 2418SOL     OW19284   3.296   1.188   0.041
 2418SOL    HW119285   3.328   1.112   0.098
 2418SOL    HW219286   3.204   1.215   0.071
 2419SOL     OW19287   2.159   0.035   0.171
 2419SOL    HW119288   2.208   0.119   0.150
 2419SOL    HW219289   2.221  -0.030   0.216
 2420SOL     OW19290   2.797   0.236   0.480
 2420SOL    HW119291   2.749   0.277   0.402
 2420SOL    HW219292   2.896   0.234   0.461
 2421SOL     OW19293   2.938   0.683   1.464
 2421SOL    HW119294   2.858   0.622   1.467
 2421SOL    HW219295   3.019   0.630   1.440
 2422SOL     OW19296   3.089   1.570   0.793
 2422SOL    HW119297   3.110   1.644   0.728
 2422SOL    HW219298   3.157   1.570   0.866
 2423SOL     OW19299   2.321   1.152   0.741
 2423SOL    HW119300   2.250   1.125   0.806
 2423SOL    HW219301   2.295   1.124   0.648
 2424SOL     OW19302   3.133   1.797   0.591
 2424SOL    HW119303   3.177   1.861   0.527
 2424SOL    HW219304   3.083   1.849   0.661
 2425SOL     OW19305   2.894   0.549   0.016
 2425SOL    HW119306   2.853   0.631  -0.023
 2425SOL    HW219307   2.958   0.575   0.089
 2426SOL     OW19308   1.940   0.556   1.386
 2426SOL    HW119309   2.032   0.555   1.345
 2426SOL    HW219310   1.934   0.630   1.453
 2427SOL     OW19311   2.423   0.222   1.147
 2427SOL    HW119312   2.461   0.138   1.184
 2427SOL    HW219313   2.335   0.241   1.191
 2428SOL     OW19314   2.728   0.454   0.642
 2428SOL    HW119315   2.696   0.526   0.580
 2428SOL    HW219316   2.752   0.373   0.589
 2429SOL     OW19317   2.879   0.039   0.753
 2429SOL    HW119318   2.807   0.044   0.684
 2429SOL    HW219319   2.855  -0.030   0.822
 2430SOL     OW19320   3.291   1.173   0.867
 2430SOL    HW119321   3.236   1.089   0.860
 2430SOL    HW219322   3.317   1.202   0.775
 2431SOL     OW19323   3.328   0.590   0.992
 2431SOL    HW119324   3.298   0.495   0.999
 2431SOL    HW219325   3.401   0.606   1.058
 2432SOL     OW19326   3.719   0.833   0.377
 2432SOL    HW119327   3.761   0.769   0.441
 2432SOL    HW219328   3.681   0.782   0.299
 2433SOL     OW19329   2.350   1.385   0.174
 2433SOL    HW119330   2.263   1.370   0.221
 2433SOL    HW219331   2.333   1.411   0.079
 2434SOL     OW19332   3.526   1.280   0.657
 2434SOL    HW119333   3.625   1.288   0.671
 2434SOL    HW219334   3.481   1.364   0.688
 2435SOL     OW19335   3.252   0.575   0.078
 2435SOL    HW119336   3.198   0.554   0.159
 2435SOL    HW219337   3.343   0.534   0.087
 2436SOL     OW19338   2.389   0.256   0.328
 2436SOL    HW119339   2.416   0.197   0.253
 2436SOL    HW219340   2.389   0.351   0.297
 2437SOL     OW19341   3.616   1.223   1.588
 2437SOL    HW119342   3.707   1.184   1.575
 2437SOL    HW219343   3.624   1.319   1.612
 2438SOL     OW19344   2.926   1.347   1.340
 2438SOL    HW119345   2.846   1.324   1.395
 2438SOL    HW219346   3.009   1.321   1.389
 2439SOL     OW19347   3.454   1.629   1.625
 2439SOL    HW119348   3.481   1.663   1.535
 2439SOL    HW219349   3.533   1.591   1.671
 2440SOL     OW19350   2.973   1.195   1.100
 2440SOL    HW119351   2.933   1.239   1.181
 2440SOL    HW219352   2.932   1.232   1.017
 2441SOL     OW19353   3.500   1.099   1.079
 2441SOL    HW119354   3.505   1.180   1.138
 2441SOL    HW219355   3.414   1.101   1.028
 2442SOL     OW19356   2.777   0.089   1.402
 2442SOL    HW119357   2.802   0.069   1.307
 2442SOL    HW219358   2.849   0.145   1.444
 2443SOL     OW19359   2.842   1.116   1.719
 2443SOL    HW119360   2.743   1.122   1.729
 2443SOL    HW219361   2.865   1.036   1.663
 2444SOL     OW19362   2.567   1.050   0.368
 2444SOL    HW119363   2.553   1.057   0.467
 2444SOL    HW219364   2.651   0.999   0.350
 2445SOL     OW19365   2.272   0.813   1.251
 2445SOL    HW119366   2.358   0.825   1.301
 2445SOL    HW219367   2.230   0.726   1.278
 2446SOL     OW19368   3.136   0.386   1.262
 2446SOL    HW119369   3.157   0.460   1.326
 2446SOL    HW219370   3.047   0.403   1.219
 2447SOL     OW19371   1.926   1.564   1.331
 2447SOL    HW119372   1.880   1.646   1.297
 2447SOL    HW219373   2.024   1.583   1.340
 2448SOL     OW19374   2.229   1.100   0.501
 2448SOL    HW119375   2.222   1.183   0.445
 2448SOL    HW219376   2.233   1.020   0.441
 2449SOL     OW19377   2.428   0.537   0.865
 2449SOL    HW119378   2.440   0.603   0.791
 2449SOL    HW219379   2.474   0.571   0.948
 2450SOL     OW19380   3.114   1.348   0.388
 2450SOL    HW119381   3.164   1.425   0.428
 2450SOL    HW219382   3.019   1.350   0.420
 2451SOL     OW19383   3.134   1.445   1.142
 2451SOL    HW119384   3.181   1.458   1.229
 2451SOL    HW219385   3.068   1.371   1.151
 2452SOL     OW19386   3.444   0.639   0.472
 2452SOL    HW119387   3.413   0.700   0.545
 2452SOL    HW219388   3.494   0.691   0.403
 2453SOL     OW19389   2.216   1.510   1.329
 2453SOL    HW119390   2.195   1.466   1.242
 2453SOL    HW219391   2.313   1.536   1.332
 2454SOL     OW19392   2.875   0.105   1.770
 2454SOL    HW119393   2.881   0.190   1.718
 2454SOL    HW219394   2.907   0.029   1.713
 2455SOL     OW19395   2.435   0.870   1.029
 2455SOL    HW119396   2.479   0.959   1.020
 2455SOL    HW219397   2.372   0.870   1.106
 2456SOL     OW19398   3.222   0.862   1.045
 2456SOL    HW119399   3.147   0.862   0.979
 2456SOL    HW219400   3.259   0.770   1.054
 2457SOL     OW19401   3.071   0.525   0.275
 2457SOL    HW119402   3.084   0.441   0.329
 2457SOL    HW219403   3.042   0.599   0.335
 2458SOL     OW19404   1.899   1.310   1.282
 2458SOL    HW119405   1.952   1.261   1.350
 2458SOL    HW219406   1.921   1.408   1.287
 2459SOL     OW19407   2.594   0.634   1.064
 2459SOL    HW119408   2.653   0.608   0.988
 2459SOL    HW219409   2.566   0.730   1.053
 2460SOL     OW19410   2.169   0.063   0.618
 2460SOL    HW119411   2.158   0.157   0.651
 2460SOL    HW219412   2.164   0.000   0.695
 2461SOL     OW19413   3.484   0.367   0.374
 2461SOL    HW119414   3.486   0.291   0.438
 2461SOL    HW219415   3.436   0.444   0.414
 2462SOL     OW19416   2.885   0.766   0.966
 2462SOL    HW119417   2.900   0.787   1.062
 2462SOL    HW219418   2.855   0.671   0.957
 2463SOL     OW19419   2.842   1.573   1.700
 2463SOL    HW119420   2.822   1.617   1.612
 2463SOL    HW219421   2.881   1.482   1.684
 2464SOL     OW19422   3.721   1.518   1.605
 2464SOL    HW119423   3.735   1.545   1.510
 2464SOL    HW219424   3.804   1.540   1.658
 2465SOL     OW19425   3.402   0.274   0.125
 2465SOL    HW119426   3.341   0.199   0.148
 2465SOL    HW219427   3.424   0.326   0.208
 2466SOL     OW19428   3.165   0.838   0.042
 2466SOL    HW119429   3.199   0.745   0.057
 2466SOL    HW219430   3.183   0.865  -0.053
 2467SOL     OW19431   2.930   1.333   0.849
 2467SOL    HW119432   2.937   1.249   0.794
 2467SOL    HW219433   2.992   1.402   0.813
 2468SOL     OW19434   2.181   0.810   0.949
 2468SOL    HW119435   2.274   0.846   0.954
 2468SOL    HW219436   2.175   0.725   1.001
 2469SOL     OW19437   2.201   0.509   1.006
 2469SOL    HW119438   2.149   0.426   0.989
 2469SOL    HW219439   2.278   0.514   0.942
 2470SOL     OW19440   3.000   0.380   1.678
 2470SOL    HW119441   2.955   0.443   1.742
 2470SOL    HW219442   3.093   0.411   1.661
 2471SOL     OW19443   3.022   0.207   1.477
 2471SOL    HW119444   3.022   0.271   1.554
 2471SOL    HW219445   3.050   0.255   1.394
 2472SOL     OW19446   1.950   1.801   0.927
 2472SOL    HW119447   1.908   1.715   0.900
 2472SOL    HW219448   2.044   1.804   0.893
 2473SOL     OW19449   2.366   1.568   0.910
 2473SOL    HW119450   2.432   1.642   0.919
 2473SOL    HW219451   2.410   1.489   0.868
 2474SOL     OW19452   2.864   0.796   1.238
 2474SOL    HW119453   2.905   0.764   1.324
 2474SOL    HW219454   2.768   0.769   1.235
 2475SOL     OW19455   1.902   0.544   1.114
 2475SOL    HW119456   1.987   0.511   1.073
 2475SOL    HW219457   1.915   0.559   1.212
 2476SOL     OW19458   2.051   0.520   1.722
 2476SOL    HW119459   2.110   0.480   1.652
 2476SOL    HW219460   1.993   0.591   1.681
 2477SOL     OW19461   2.677   0.572   0.325
 2477SOL    HW119462   2.684   0.483   0.279
 2477SOL    HW219463   2.583   0.606   0.317
 2478SOL     OW19464   3.519   0.604   1.206
 2478SOL    HW119465   3.481   0.535   1.268
 2478SOL    HW219466   3.601   0.568   1.162
 2479SOL     OW19467   2.114   1.564   1.744
 2479SOL    HW119468   2.084   1.621   1.820
 2479SOL    HW219469   2.107   1.467   1.770
 2480SOL     OW19470   2.533   0.464   1.269
 2480SOL    HW119471   2.499   0.375   1.239
 2480SOL    HW219472   2.559   0.518   1.189
 2481SOL     OW19473   2.792   1.678   1.465
 2481SOL    HW119474   2.768   1.660   1.370
 2481SOL    HW219475   2.822   1.772   1.475
 2482SOL     OW19476   2.335   0.500   0.191
 2482SOL    HW119477   2.396   0.580   0.195
 2482SOL    HW219478   2.240   0.531   0.198
 2483SOL     OW19479   3.209   1.059   1.234
 2483SOL    HW119480   3.233   0.996   1.160
 2483SOL    HW219481   3.119   1.099   1.216
 2484SOL     OW19482   3.164   0.855   0.309
 2484SOL    HW119483   3.078   0.824   0.351
 2484SOL    HW219484   3.160   0.841   0.210
 2485SOL     OW19485   3.621   1.747   1.154
 2485SOL    HW119486   3.682   1.777   1.081
 2485SOL    HW219487   3.583   1.658   1.132
 2486SOL     OW19488   3.114   1.731   1.128
 2486SOL    HW119489   3.198   1.736   1.074
 2486SOL    HW219490   3.091   1.635   1.146
 2487SOL     OW19491   1.945   1.258   1.022
 2487SOL    HW119492   1.940   1.257   1.122
 2487SOL    HW219493   1.862   1.217   0.984
 2488SOL     OW19494   2.550   1.662   1.716
 2488SOL    HW119495   2.494   1.743   1.725
 2488SOL    HW219496   2.602   1.666   1.630
 2489SOL     OW19497   2.765   0.086   0.133
 2489SOL    HW119498   2.816   0.087   0.047
 2489SOL    HW219499   2.821   0.044   0.204
 2490SOL     OW19500   3.588   0.135   0.523
 2490SOL    HW119501   3.661   0.118   0.456
 2490SOL    HW219502   3.557   0.048   0.561
 2491SOL     OW19503   3.250   1.573   0.477
 2491SOL    HW119504   3.317   1.585   0.403
 2491SOL    HW219505   3.210   1.662   0.500
 2492SOL     OW19506   3.142   0.927   0.672
 2492SOL    HW119507   3.202   0.846   0.674
 2492SOL    HW219508   3.182   0.996   0.612
 2493SOL     OW19509   2.692   1.273   1.422
 2493SOL    HW119510   2.687   1.306   1.517
 2493SOL    HW219511   2.606   1.292   1.376
 2494SOL     OW19512   2.534   1.616   0.154
 2494SOL    HW119513   2.543   1.626   0.055
 2494SOL    HW219514   2.494   1.527   0.175
 2495SOL     OW19515   3.512   1.720   1.394
 2495SOL    HW119516   3.565   1.730   1.310
 2495SOL    HW219517   3.485   1.810   1.428
 2496SOL     OW19518   3.703   0.175   0.963
 2496SOL    HW119519   3.742   0.090   0.927
 2496SOL    HW219520   3.605   0.177   0.944
 2497SOL     OW19521   2.125   0.326   0.720
 2497SOL    HW119522   2.046   0.377   0.686
 2497SOL    HW219523   2.116   0.311   0.818
 2498SOL     OW19524   3.056   1.612   0.031
 2498SOL    HW119525   3.062   1.519   0.068
 2498SOL    HW219526   2.997   1.612  -0.049
 2499SOL     OW19527   2.684   1.002   1.372
 2499SOL    HW119528   2.724   1.001   1.280
 2499SOL    HW219529   2.694   1.094   1.412
 2500SOL     OW19530   2.778   0.910   0.291
 2500SOL    HW119531   2.841   0.948   0.223
 2500SOL    HW219532   2.818   0.827   0.330
 2501SOL     OW19533   3.366   1.607   0.044
 2501SOL    HW119534   3.274   1.644   0.051
 2501SOL    HW219535   3.404   1.627  -0.046
 2502SOL     OW19536   2.234   1.288   1.490
 2502SOL    HW119537   2.221   1.381   1.456
 2502SOL    HW219538   2.150   1.236   1.477
 2503SOL     OW19539   3.476   1.292   1.289
 2503SOL    HW119540   3.536   1.295   1.369
 2503SOL    HW219541   3.401   1.356   1.302
 2504SOL     OW19542   2.901   1.098   0.696
 2504SOL    HW119543   2.831   1.051   0.750
 2504SOL    HW219544   2.960   1.030   0.653
 2505SOL     OW19545   2.876   0.236   0.971
 2505SOL    HW119546   2.868   0.200   0.878
 2505SOL    HW219547   2.874   0.160   1.036
 2506SOL     OW19548   2.452   1.487   0.491
 2506SOL    HW119549   2.494   1.429   0.421
 2506SOL    HW219550   2.408   1.566   0.447
 2507SOL     OW19551   3.571   0.385   1.381
 2507SOL    HW119552   3.644   0.454   1.385
 2507SOL    HW219553   3.599   0.310   1.322
 2508SOL     OW19554   2.117   1.348   0.290
 2508SOL    HW119555   2.021   1.349   0.263
 2508SOL    HW219556   2.129   1.401   0.374
 2509SOL     OW19557   2.534   0.203   1.489
 2509SOL    HW119558   2.624   0.187   1.449
 2509SOL    HW219559   2.542   0.208   1.588
 2510SOL     OW19560   3.302   0.856   1.398
 2510SOL    HW119561   3.245   0.908   1.335
 2510SOL    HW219562   3.398   0.868   1.374
 2511SOL     OW19563   3.045   1.335   0.119
 2511SOL    HW119564   2.946   1.324   0.121
 2511SOL    HW219565   3.079   1.350   0.212
 2512SOL     OW19566   3.355   1.767   0.959
 2512SOL    HW119567   3.388   1.831   0.890
 2512SOL    HW219568   3.421   1.761   1.034
 2513SOL     OW19569   2.578   0.565   1.708
 2513SOL    HW119570   2.597   0.630   1.782
 2513SOL    HW219571   2.638   0.485   1.717
 2514SOL     OW19572   3.536   0.883   1.254
 2514SOL    HW119573   3.509   0.794   1.217
 2514SOL    HW219574   3.537   0.951   1.181
 2515SOL     OW19575   3.087   0.325   0.449
 2515SOL    HW119576   3.152   0.251   0.438
 2515SOL    HW219577   3.107   0.375   0.533
 2516SOL     OW19578   2.456   0.745   0.652
 2516SOL    HW119579   2.506   0.830   0.633
 2516SOL    HW219580   2.368   0.747   0.604
 2517SOL     OW19581   2.721   1.374   0.016
 2517SOL    HW119582   2.675   1.389   0.104
 2517SOL    HW219583   2.765   1.459  -0.014
 2518SOL     OW19584   2.523   1.790   0.953
 2518SOL    HW119585   2.477   1.878   0.940
 2518SOL    HW219586   2.622   1.802   0.946
 2519SOL     OW19587   2.721   0.956   0.861
 2519SOL    HW119588   2.775   0.887   0.909
 2519SOL    HW219589   2.689   1.025   0.927
 2520SOL     OW19590   2.945   0.984   0.087
 2520SOL    HW119591   2.922   1.037   0.005
 2520SOL    HW219592   3.026   0.928   0.068
 2521SOL     OW19593   3.723   1.569   0.851
 2521SOL    HW119594   3.652   1.557   0.781
 2521SOL    HW219595   3.724   1.490   0.911
 2522SOL     OW19596   2.083   1.314   1.844
 2522SOL    HW119597   2.018   1.241   1.823
 2522SOL    HW219598   2.087   1.328   1.942
 2523SOL     OW19599   1.941   1.240   0.653
 2523SOL    HW119600   1.940   1.193   0.741
 2523SOL    HW219601   2.023   1.212   0.602
 2524SOL     OW19602   3.686   0.192   1.227
 2524SOL    HW119603   3.682   0.102   1.271
 2524SOL    HW219604   3.689   0.181   1.128
 2525SOL     OW19605   2.290   0.424   0.520
 2525SOL    HW119606   2.320   0.352   0.458
 2525SOL    HW219607   2.251   0.384   0.603
 2526SOL     OW19608   3.567   1.487   1.104
 2526SOL    HW119609   3.474   1.462   1.077
 2526SOL    HW219610   3.593   1.437   1.186
 2527SOL     OW19611   2.179   0.547   1.280
 2527SOL    HW119612   2.217   0.488   1.352
 2527SOL    HW219613   2.219   0.521   1.192
 2528SOL     OW19614   2.674   1.586   0.687
 2528SOL    HW119615   2.706   1.596   0.593
 2528SOL    HW219616   2.595   1.524   0.689
 2529SOL     OW19617   3.286   0.214   1.112
 2529SOL    HW119618   3.338   0.149   1.167
 2529SOL    HW219619   3.237   0.277   1.173
 2530SOL     OW19620   2.863   0.034   1.154
 2530SOL    HW119621   2.800  -0.038   1.123
 2530SOL    HW219622   2.956  -0.002   1.154
 2531SOL     OW19623   2.632   1.330   0.301
 2531SOL    HW119624   2.586   1.243   0.318
 2531SOL    HW219625   2.723   1.327   0.342
 2532SOL     OW19626   2.480   1.567   1.284
 2532SOL    HW119627   2.475   1.649   1.341
 2532SOL    HW219628   2.569   1.564   1.239
 2533SOL     OW19629   3.214   0.052   0.168
 2533SOL    HW119630   3.249   0.011   0.084
 2533SOL    HW219631   3.124   0.014   0.188
 2534SOL     OW19632   3.162   0.453   0.691
 2534SOL    HW119633   3.103   0.533   0.695
 2534SOL    HW219634   3.177   0.418   0.784
 2535SOL     OW19635   3.455   0.221   0.882
 2535SOL    HW119636   3.371   0.220   0.936
 2535SOL    HW219637   3.457   0.304   0.826
 2536SOL     OW19638   1.901   1.077   0.300
 2536SOL    HW119639   2.000   1.066   0.291
 2536SOL    HW219640   1.861   0.991   0.332
 2537SOL     OW19641   2.737   1.646   0.337
 2537SOL    HW119642   2.660   1.611   0.283
 2537SOL    HW219643   2.705   1.717   0.399
 2538SOL     OW19644   2.087   0.275   2.858
 2538SOL    HW119645   2.122   0.258   2.950
 2538SOL    HW219646   1.999   0.230   2.846
 2539SOL     OW19647   2.630   1.144   2.885
 2539SOL    HW119648   2.552   1.161   2.945
 2539SOL    HW219649   2.664   1.231   2.849
 2540SOL     OW19650   2.300   0.392   3.361
 2540SOL    HW119651   2.382   0.336   3.370
 2540SOL    HW219652   2.219   0.334   3.365
 2541SOL     OW19653   2.989   1.341   3.552
 2541SOL    HW119654   3.036   1.341   3.640
 2541SOL    HW219655   2.941   1.254   3.541
 2542SOL     OW19656   2.092   1.434   2.400
 2542SOL    HW119657   2.066   1.530   2.400
 2542SOL    HW219658   2.021   1.380   2.445
 2543SOL     OW19659   3.551   0.922   2.474
 2543SOL    HW119660   3.646   0.893   2.482
 2543SOL    HW219661   3.543   0.987   2.399
 2544SOL     OW19662   3.503   1.108   2.294
 2544SOL    HW119663   3.589   1.110   2.242
 2544SOL    HW219664   3.517   1.155   2.382
 2545SOL     OW19665   3.387   0.999   2.052
 2545SOL    HW119666   3.324   0.923   2.065
 2545SOL    HW219667   3.435   1.017   2.138
 2546SOL     OW19668   3.049   1.792   3.478
 2546SOL    HW119669   3.073   1.852   3.402
 2546SOL    HW219670   3.056   1.697   3.448
 2547SOL     OW19671   2.669   0.605   3.327
 2547SOL    HW119672   2.622   0.602   3.416
 2547SOL    HW219673   2.618   0.550   3.261
 2548SOL     OW19674   2.853   0.410   3.104
 2548SOL    HW119675   2.776   0.444   3.158
 2548SOL    HW219676   2.819   0.359   3.025
 2549SOL     OW19677   3.224   1.144   2.407
 2549SOL    HW119678   3.307   1.115   2.359
 2549SOL    HW219679   3.175   1.211   2.351
 2550SOL     OW19680   2.412   0.196   2.747
 2550SOL    HW119681   2.407   0.191   2.847
 2550SOL    HW219682   2.414   0.292   2.718
 2551SOL     OW19683   3.089   1.550   3.368
 2551SOL    HW119684   3.095   1.473   3.432
 2551SOL    HW219685   3.037   1.524   3.288
 2552SOL     OW19686   3.320   0.735   2.590
 2552SOL    HW119687   3.315   0.670   2.665
 2552SOL    HW219688   3.400   0.794   2.603
 2553SOL     OW19689   2.323   1.266   3.589
 2553SOL    HW119690   2.273   1.267   3.503
 2553SOL    HW219691   2.260   1.248   3.665
 2554SOL     OW19692   2.973   1.776   2.099
 2554SOL    HW119693   2.913   1.714   2.149
 2554SOL    HW219694   3.004   1.732   2.014
 2555SOL     OW19695   3.494   1.377   1.943
 2555SOL    HW119696   3.462   1.471   1.933
 2555SOL    HW219697   3.418   1.314   1.931
 2556SOL     OW19698   2.111   1.785   3.103
 2556SOL    HW119699   2.168   1.720   3.153
 2556SOL    HW219700   2.095   1.752   3.010
 2557SOL     OW19701   2.643   0.264   3.611
 2557SOL    HW119702   2.710   0.203   3.654
 2557SOL    HW219703   2.570   0.283   3.676
 2558SOL     OW19704   2.750   1.514   3.057
 2558SOL    HW119705   2.727   1.489   2.963
 2558SOL    HW219706   2.811   1.445   3.096
 2559SOL     OW19707   2.784   0.503   2.761
 2559SOL    HW119708   2.759   0.494   2.665
 2559SOL    HW219709   2.832   0.421   2.792
 2560SOL     OW19710   3.296   1.188   1.903
 2560SOL    HW119711   3.328   1.112   1.960
 2560SOL    HW219712   3.204   1.215   1.933
 2561SOL     OW19713   2.938   0.683   3.326
 2561SOL    HW119714   2.858   0.622   3.329
 2561SOL    HW219715   3.019   0.630   3.302
 2562SOL     OW19716   2.894   0.549   1.878
 2562SOL    HW119717   2.853   0.631   1.839
 2562SOL    HW219718   2.958   0.575   1.951
 2563SOL     OW19719   1.940   0.556   3.248
 2563SOL    HW119720   2.032   0.555   3.207
 2563SOL    HW219721   1.934   0.630   3.315
 2564SOL     OW19722   2.350   1.385   2.036
 2564SOL    HW119723   2.263   1.370   2.083
 2564SOL    HW219724   2.333   1.411   1.941
 2565SOL     OW19725   2.389   0.256   2.190
 2565SOL    HW119726   2.416   0.197   2.115
 2565SOL    HW219727   2.389   0.351   2.159
 2566SOL     OW19728   3.454   1.629   3.487
 2566SOL    HW119729   3.481   1.663   3.397
 2566SOL    HW219730   3.533   1.591   3.533
 2567SOL     OW19731   2.777   0.089   3.264
 2567SOL    HW119732   2.802   0.069   3.169
 2567SOL    HW219733   2.849   0.145   3.306
 2568SOL     OW19734   2.567   1.050   2.230
 2568SOL    HW119735   2.553   1.057   2.329
 2568SOL    HW219736   2.651   0.999   2.212
 2569SOL     OW19737   2.216   1.510   3.191
 2569SOL    HW119738   2.195   1.466   3.104
 2569SOL    HW219739   2.313   1.536   3.194
 2570SOL     OW19740   2.875   0.105   3.632
 2570SOL    HW119741   2.881   0.190   3.580
 2570SOL    HW219742   2.907   0.029   3.575
 2571SOL     OW19743   3.071   0.525   2.137
 2571SOL    HW119744   3.084   0.441   2.191
 2571SOL    HW219745   3.042   0.599   2.197
 2572SOL     OW19746   2.169   0.063   2.480
 2572SOL    HW119747   2.158   0.157   2.513
 2572SOL    HW219748   2.164   0.000   2.557
 2573SOL     OW19749   3.165   0.838   1.904
 2573SOL    HW119750   3.199   0.745   1.919
 2573SOL    HW219751   3.183   0.865   1.809
 2574SOL     OW19752   2.930   1.333   2.711
 2574SOL    HW119753   2.937   1.249   2.656
 2574SOL    HW219754   2.992   1.402   2.675
 2575SOL     OW19755   3.231   0.950   3.522
 2575SOL    HW119756   3.270   1.039   3.542
 2575SOL    HW219757   3.241   0.930   3.425
 2576SOL     OW19758   3.519   0.604   3.068
 2576SOL    HW119759   3.481   0.535   3.130
 2576SOL    HW219760   3.601   0.568   3.024
 2577SOL     OW19761   2.533   0.464   3.131
 2577SOL    HW119762   2.499   0.375   3.101
 2577SOL    HW219763   2.559   0.518   3.051
 2578SOL     OW19764   3.209   1.059   3.096
 2578SOL    HW119765   3.233   0.996   3.022
 2578SOL    HW219766   3.119   1.099   3.078
 2579SOL     OW19767   3.164   0.855   2.171
 2579SOL    HW119768   3.078   0.824   2.213
 2579SOL    HW219769   3.160   0.841   2.072
 2580SOL     OW19770   3.114   1.731   2.990
 2580SOL    HW119771   3.198   1.736   2.936
 2580SOL    HW219772   3.091   1.635   3.008
 2581SOL     OW19773   3.142   0.927   2.534
 2581SOL    HW119774   3.202   0.846   2.536
 2581SOL    HW219775   3.182   0.996   2.474
 2582SOL     OW19776   2.125   0.326   2.582
 2582SOL    HW119777   2.046   0.377   2.548
 2582SOL    HW219778   2.116   0.311   2.680
 2583SOL     OW19779   3.056   1.612   1.893
 2583SOL    HW119780   3.062   1.519   1.930
 2583SOL    HW219781   2.997   1.612   1.813
 2584SOL     OW19782   2.778   0.910   2.153
 2584SOL    HW119783   2.841   0.948   2.085
 2584SOL    HW219784   2.818   0.827   2.192
 2585SOL     OW19785   3.366   1.607   1.906
 2585SOL    HW119786   3.274   1.644   1.913
 2585SOL    HW219787   3.404   1.627   1.816
 2586SOL     OW19788   2.901   1.098   2.558
 2586SOL    HW119789   2.831   1.051   2.612
 2586SOL    HW219790   2.960   1.030   2.515
 2587SOL     OW19791   2.876   0.236   2.833
 2587SOL    HW119792   2.868   0.200   2.740
 2587SOL    HW219793   2.874   0.160   2.898
 2588SOL     OW19794   2.117   1.348   2.152
 2588SOL    HW119795   2.021   1.349   2.125
 2588SOL    HW219796   2.129   1.401   2.236
 2589SOL     OW19797   1.967   1.013   3.588
 2589SOL    HW119798   1.890   0.980   3.642
 2589SOL    HW219799   2.052   0.983   3.630
 2590SOL     OW19800   1.937   0.345   1.895
 2590SOL    HW119801   1.845   0.317   1.866
 2590SOL    HW219802   1.968   0.422   1.839
 2591SOL     OW19803   3.045   1.335   1.981
 2591SOL    HW119804   2.946   1.324   1.983
 2591SOL    HW219805   3.079   1.350   2.074
 2592SOL     OW19806   2.475   0.842   3.293
 2592SOL    HW119807   2.531   0.923   3.276
 2592SOL    HW219808   2.534   0.762   3.296
 2593SOL     OW19809   2.578   0.565   3.570
 2593SOL    HW119810   2.597   0.630   3.644
 2593SOL    HW219811   2.638   0.485   3.579
 2594SOL     OW19812   2.456   0.745   2.514
 2594SOL    HW119813   2.506   0.830   2.495
 2594SOL    HW219814   2.368   0.747   2.466
 2595SOL     OW19815   2.721   1.374   1.878
 2595SOL    HW119816   2.675   1.389   1.966
 2595SOL    HW219817   2.765   1.459   1.848
 2596SOL     OW19818   2.721   0.956   2.723
 2596SOL    HW119819   2.775   0.887   2.771
 2596SOL    HW219820   2.689   1.025   2.789
 2597SOL     OW19821   2.945   0.984   1.949
 2597SOL    HW119822   2.922   1.037   1.867
 2597SOL    HW219823   3.026   0.928   1.930
 2598SOL     OW19824   2.534   1.391   3.486
 2598SOL    HW119825   2.456   1.341   3.524
 2598SOL    HW219826   2.531   1.486   3.517
 2599SOL     OW19827   2.290   0.424   2.382
 2599SOL    HW119828   2.320   0.352   2.320
 2599SOL    HW219829   2.251   0.384   2.465
 2600SOL     OW19830   2.674   1.586   2.549
 2600SOL    HW119831   2.706   1.596   2.455
 2600SOL    HW219832   2.595   1.524   2.551
 2601SOL     OW19833   2.632   1.330   2.163
 2601SOL    HW119834   2.586   1.243   2.180
 2601SOL    HW219835   2.723   1.327   2.204
 2602SOL     OW19836   3.214   0.052   2.030
 2602SOL    HW119837   3.249   0.011   1.946
 2602SOL    HW219838   3.124   0.014   2.050
 2603SOL     OW19839   2.087   0.275   4.720
 2603SOL    HW119840   2.122   0.258   4.812
 2603SOL    HW219841   1.999   0.230   4.708
 2604SOL     OW19842   3.417   1.511   4.427
 2604SOL    HW119843   3.360   1.495   4.508
 2604SOL    HW219844   3.358   1.521   4.347
 2605SOL     OW19845   3.617   0.607   3.955
 2605SOL    HW119846   3.605   0.594   3.856
 2605SOL    HW219847   3.587   0.526   4.004
 2606SOL     OW19848   2.197   1.435   4.785
 2606SOL    HW119849   2.119   1.404   4.732
 2606SOL    HW219850   2.255   1.493   4.728
 2607SOL     OW19851   2.300   0.392   5.223
 2607SOL    HW119852   2.382   0.336   5.232
 2607SOL    HW219853   2.219   0.334   5.227
 2608SOL     OW19854   1.889   1.596   3.841
 2608SOL    HW119855   1.870   1.500   3.862
 2608SOL    HW219856   1.856   1.654   3.916
 2609SOL     OW19857   3.503   1.108   4.156
 2609SOL    HW119858   3.589   1.110   4.104
 2609SOL    HW219859   3.517   1.155   4.244
 2610SOL     OW19860   1.975   0.737   5.321
 2610SOL    HW119861   2.063   0.724   5.366
 2610SOL    HW219862   1.962   0.834   5.299
 2611SOL     OW19863   2.671   0.004   4.226
 2611SOL    HW119864   2.711   0.095   4.217
 2611SOL    HW219865   2.571   0.012   4.232
 2612SOL     OW19866   3.049   1.792   5.340
 2612SOL    HW119867   3.073   1.852   5.264
 2612SOL    HW219868   3.056   1.697   5.310
 2613SOL     OW19869   2.179   0.251   5.525
 2613SOL    HW119870   2.250   0.322   5.531
 2613SOL    HW219871   2.091   0.290   5.553
 2614SOL     OW19872   3.529   1.714   4.296
 2614SOL    HW119873   3.488   1.691   4.208
 2614SOL    HW219874   3.511   1.640   4.361
 2615SOL     OW19875   3.256   0.469   5.398
 2615SOL    HW119876   3.236   0.512   5.486
 2615SOL    HW219877   3.334   0.407   5.407
 2616SOL     OW19878   2.853   0.410   4.966
 2616SOL    HW119879   2.776   0.444   5.020
 2616SOL    HW219880   2.819   0.359   4.887
 2617SOL     OW19881   3.581   0.585   5.555
 2617SOL    HW119882   3.555   0.674   5.519
 2617SOL    HW219883   3.579   0.517   5.482
 2618SOL     OW19884   2.213   1.801   4.577
 2618SOL    HW119885   2.263   1.715   4.583
 2618SOL    HW219886   2.278   1.878   4.574
 2619SOL     OW19887   3.657   1.066   4.597
 2619SOL    HW119888   3.595   1.051   4.521
 2619SOL    HW219889   3.605   1.077   4.682
 2620SOL     OW19890   3.089   1.550   5.230
 2620SOL    HW119891   3.095   1.473   5.294
 2620SOL    HW219892   3.037   1.524   5.150
 2621SOL     OW19893   2.183   0.943   3.966
 2621SOL    HW119894   2.265   0.982   3.924
 2621SOL    HW219895   2.156   0.861   3.917
 2622SOL     OW19896   2.326   1.743   4.047
 2622SOL    HW119897   2.359   1.782   4.133
 2622SOL    HW219898   2.402   1.736   3.982
 2623SOL     OW19899   3.409   0.222   5.453
 2623SOL    HW119900   3.404   0.259   5.545
 2623SOL    HW219901   3.337   0.153   5.441
 2624SOL     OW19902   2.643   0.264   5.473
 2624SOL    HW119903   2.710   0.203   5.516
 2624SOL    HW219904   2.570   0.283   5.538
 2625SOL     OW19905   3.213   0.590   5.157
 2625SOL    HW119906   3.241   0.547   5.242
 2625SOL    HW219907   3.238   0.686   5.158
 2626SOL     OW19908   1.940   0.556   5.110
 2626SOL    HW119909   2.032   0.555   5.069
 2626SOL    HW219910   1.934   0.630   5.177
 2627SOL     OW19911   2.423   0.222   4.871
 2627SOL    HW119912   2.461   0.138   4.908
 2627SOL    HW219913   2.335   0.241   4.915
 2628SOL     OW19914   3.526   1.280   4.381
 2628SOL    HW119915   3.625   1.288   4.395
 2628SOL    HW219916   3.481   1.364   4.412
 2629SOL     OW19917   3.252   0.575   3.802
 2629SOL    HW119918   3.198   0.554   3.883
 2629SOL    HW219919   3.343   0.534   3.811
 2630SOL     OW19920   3.616   1.223   5.312
 2630SOL    HW119921   3.707   1.184   5.299
 2630SOL    HW219922   3.624   1.319   5.336
 2631SOL     OW19923   3.500   1.099   4.803
 2631SOL    HW119924   3.505   1.180   4.862
 2631SOL    HW219925   3.414   1.101   4.752
 2632SOL     OW19926   3.136   0.386   4.986
 2632SOL    HW119927   3.157   0.460   5.050
 2632SOL    HW219928   3.047   0.403   4.943
 2633SOL     OW19929   2.428   0.537   4.589
 2633SOL    HW119930   2.440   0.603   4.515
 2633SOL    HW219931   2.474   0.571   4.672
 2634SOL     OW19932   3.114   1.348   4.112
 2634SOL    HW119933   3.164   1.425   4.152
 2634SOL    HW219934   3.019   1.350   4.144
 2635SOL     OW19935   3.449   0.779   5.394
 2635SOL    HW119936   3.357   0.817   5.389
 2635SOL    HW219937   3.509   0.826   5.329
 2636SOL     OW19938   2.875   0.105   5.494
 2636SOL    HW119939   2.881   0.190   5.442
 2636SOL    HW219940   2.907   0.029   5.437
 2637SOL     OW19941   2.366   0.050   5.464
 2637SOL    HW119942   2.324  -0.007   5.394
 2637SOL    HW219943   2.300   0.119   5.496
 2638SOL     OW19944   2.435   0.870   4.753
 2638SOL    HW119945   2.479   0.959   4.744
 2638SOL    HW219946   2.372   0.870   4.830
 2639SOL     OW19947   1.899   1.310   5.006
 2639SOL    HW119948   1.952   1.261   5.074
 2639SOL    HW219949   1.921   1.408   5.011
 2640SOL     OW19950   3.590   0.935   5.578
 2640SOL    HW119951   3.544   0.928   5.489
 2640SOL    HW219952   3.528   0.979   5.644
 2641SOL     OW19953   2.930   1.333   4.573
 2641SOL    HW119954   2.937   1.249   4.518
 2641SOL    HW219955   2.992   1.402   4.537
 2642SOL     OW19956   3.000   0.380   5.402
 2642SOL    HW119957   2.955   0.443   5.466
 2642SOL    HW219958   3.093   0.411   5.385
 2643SOL     OW19959   2.366   1.568   4.634
 2643SOL    HW119960   2.432   1.642   4.643
 2643SOL    HW219961   2.410   1.489   4.592
 2644SOL     OW19962   2.051   0.520   5.446
 2644SOL    HW119963   2.110   0.480   5.376
 2644SOL    HW219964   1.993   0.591   5.405
 2645SOL     OW19965   2.533   0.464   4.993
 2645SOL    HW119966   2.499   0.375   4.963
 2645SOL    HW219967   2.559   0.518   4.913
 2646SOL     OW19968   3.621   1.747   4.878
 2646SOL    HW119969   3.682   1.777   4.805
 2646SOL    HW219970   3.583   1.658   4.856
 2647SOL     OW19971   1.945   1.258   4.746
 2647SOL    HW119972   1.940   1.257   4.846
 2647SOL    HW219973   1.862   1.217   4.708
 2648SOL     OW19974   2.550   1.662   5.440
 2648SOL    HW119975   2.494   1.743   5.449
 2648SOL    HW219976   2.602   1.666   5.354
 2649SOL     OW19977   1.992   1.794   5.575
 2649SOL    HW119978   1.951   1.720   5.628
 2649SOL    HW219979   2.056   1.845   5.633
 2650SOL     OW19980   3.142   0.927   4.396
 2650SOL    HW119981   3.202   0.846   4.398
 2650SOL    HW219982   3.182   0.996   4.336
 2651SOL     OW19983   2.534   1.616   3.878
 2651SOL    HW119984   2.543   1.626   3.779
 2651SOL    HW219985   2.494   1.527   3.899
 2652SOL     OW19986   2.901   1.098   4.420
 2652SOL    HW119987   2.831   1.051   4.474
 2652SOL    HW219988   2.960   1.030   4.377
 2653SOL     OW19989   2.876   0.236   4.695
 2653SOL    HW119990   2.868   0.200   4.602
 2653SOL    HW219991   2.874   0.160   4.760
 2654SOL     OW19992   2.578   0.565   5.432
 2654SOL    HW119993   2.597   0.630   5.506
 2654SOL    HW219994   2.638   0.485   5.441
 2655SOL     OW19995   3.087   0.325   4.173
 2655SOL    HW119996   3.152   0.251   4.162
 2655SOL    HW219997   3.107   0.375   4.257
 2656SOL     OW19998   3.592   0.934   5.241
 2656SOL    HW119999   3.630   1.025   5.256
 2656SOL    HW220000   3.584   0.917   5.142
 2657SOL     OW20001   2.721   0.956   4.585
 2657SOL    HW120002   2.775   0.887   4.633
 2657SOL    HW220003   2.689   1.025   4.651
 2658SOL     OW20004   2.945   0.984   3.811
 2658SOL    HW120005   2.922   1.037   3.729
 2658SOL    HW220006   3.026   0.928   3.792
 2659SOL     OW20007   3.723   1.569   4.575
 2659SOL    HW120008   3.652   1.557   4.505
 2659SOL    HW220009   3.724   1.490   4.635
 2660SOL     OW20010   1.941   1.240   4.377
 2660SOL    HW120011   1.940   1.193   4.465
 2660SOL    HW220012   2.023   1.212   4.326
 2661SOL     OW20013   2.534   1.391   5.348
 2661SOL    HW120014   2.456   1.341   5.386
 2661SOL    HW220015   2.531   1.486   5.379
 2662SOL     OW20016   3.567   1.487   4.828
 2662SOL    HW120017   3.474   1.462   4.801
 2662SOL    HW220018   3.593   1.437   4.910
 2663SOL     OW20019   2.092   0.628   5.699
 2663SOL    HW120020   1.999   0.626   5.736
 2663SOL    HW220021   2.093   0.589   5.607
 2664SOL     OW20022   2.087   0.275   6.582
 2664SOL    HW120023   2.122   0.258   6.674
 2664SOL    HW220024   1.999   0.230   6.570
 2665SOL     OW20025   1.881   0.368   6.233
 2665SOL    HW120026   1.799   0.411   6.272
 2665SOL    HW220027   1.853   0.295   6.170
 2666SOL     OW20028   2.431   1.275   6.751
 2666SOL    HW120029   2.338   1.268   6.714
 2666SOL    HW220030   2.442   1.364   6.795
 2667SOL     OW20031   3.417   1.511   6.289
 2667SOL    HW120032   3.360   1.495   6.370
 2667SOL    HW220033   3.358   1.521   6.209
 2668SOL     OW20034   2.997   0.703   6.303
 2668SOL    HW120035   3.054   0.781   6.278
 2668SOL    HW220036   2.937   0.729   6.379
 2669SOL     OW20037   3.617   0.607   5.817
 2669SOL    HW120038   3.605   0.594   5.718
 2669SOL    HW220039   3.587   0.526   5.866
 2670SOL     OW20040   2.630   1.144   6.609
 2670SOL    HW120041   2.552   1.161   6.669
 2670SOL    HW220042   2.664   1.231   6.573
 2671SOL     OW20043   2.547   1.012   6.251
 2671SOL    HW120044   2.616   0.996   6.321
 2671SOL    HW220045   2.474   1.069   6.289
 2672SOL     OW20046   2.197   1.435   6.647
 2672SOL    HW120047   2.119   1.404   6.594
 2672SOL    HW220048   2.255   1.493   6.590
 2673SOL     OW20049   3.465   0.447   6.323
 2673SOL    HW120050   3.391   0.493   6.273
 2673SOL    HW220051   3.516   0.515   6.376
 2674SOL     OW20052   2.093   1.713   6.069
 2674SOL    HW120053   2.127   1.790   6.123
 2674SOL    HW220054   2.137   1.713   5.979
 2675SOL     OW20055   2.092   1.434   6.124
 2675SOL    HW120056   2.066   1.530   6.124
 2675SOL    HW220057   2.021   1.380   6.169
 2676SOL     OW20058   2.102   1.091   6.472
 2676SOL    HW120059   2.116   1.007   6.524
 2676SOL    HW220060   2.047   1.155   6.527
 2677SOL     OW20061   2.482   1.786   7.025
 2677SOL    HW120062   2.390   1.769   7.060
 2677SOL    HW220063   2.510   1.878   7.051
 2678SOL     OW20064   2.468   0.964   5.709
 2678SOL    HW120065   2.475   1.048   5.655
 2678SOL    HW220066   2.514   0.977   5.797
 2679SOL     OW20067   1.984   0.643   6.149
 2679SOL    HW120068   1.939   0.555   6.166
 2679SOL    HW220069   1.983   0.697   6.233
 2680SOL     OW20070   3.704   1.767   5.945
 2680SOL    HW120071   3.758   1.738   6.025
 2680SOL    HW220072   3.734   1.857   5.916
 2681SOL     OW20073   1.889   1.596   5.703
 2681SOL    HW120074   1.870   1.500   5.724
 2681SOL    HW220075   1.856   1.654   5.778
 2682SOL     OW20076   3.551   0.922   6.198
 2682SOL    HW120077   3.646   0.893   6.206
 2682SOL    HW220078   3.543   0.987   6.123
 2683SOL     OW20079   3.503   1.108   6.018
 2683SOL    HW120080   3.589   1.110   5.966
 2683SOL    HW220081   3.517   1.155   6.106
 2684SOL     OW20082   2.475   1.365   6.312
 2684SOL    HW120083   2.426   1.278   6.321
 2684SOL    HW220084   2.452   1.408   6.225
 2685SOL     OW20085   2.671   0.004   6.088
 2685SOL    HW120086   2.711   0.095   6.079
 2685SOL    HW220087   2.571   0.012   6.094
 2686SOL     OW20088   2.059   0.976   6.850
 2686SOL    HW120089   2.148   0.931   6.836
 2686SOL    HW220090   1.986   0.911   6.831
 2687SOL     OW20091   3.387   0.999   5.776
 2687SOL    HW120092   3.324   0.923   5.789
 2687SOL    HW220093   3.435   1.017   5.862
 2688SOL     OW20094   3.328   1.417   6.539
 2688SOL    HW120095   3.269   1.423   6.619
 2688SOL    HW220096   3.313   1.329   6.493
 2689SOL     OW20097   3.529   1.714   6.158
 2689SOL    HW120098   3.488   1.691   6.070
 2689SOL    HW220099   3.511   1.640   6.223
 2690SOL     OW20100   2.460   0.729   5.856
 2690SOL    HW120101   2.484   0.798   5.788
 2690SOL    HW220102   2.382   0.762   5.910
 2691SOL     OW20103   3.143   0.345   6.530
 2691SOL    HW120104   3.057   0.295   6.517
 2691SOL    HW220105   3.205   0.291   6.586
 2692SOL     OW20106   3.438   1.662   5.893
 2692SOL    HW120107   3.527   1.708   5.896
 2692SOL    HW220108   3.417   1.638   5.798
 2693SOL     OW20109   2.853   0.410   6.828
 2693SOL    HW120110   2.776   0.444   6.882
 2693SOL    HW220111   2.819   0.359   6.749
 2694SOL     OW20112   2.903   0.701   6.015
 2694SOL    HW120113   2.929   0.697   6.111
 2694SOL    HW220114   2.818   0.650   6.001
 2695SOL     OW20115   1.938   0.811   6.375
 2695SOL    HW120116   2.037   0.799   6.384
 2695SOL    HW220117   1.914   0.906   6.396
 2696SOL     OW20118   2.727   0.348   5.781
 2696SOL    HW120119   2.786   0.411   5.732
 2696SOL    HW220120   2.746   0.254   5.752
 2697SOL     OW20121   3.224   1.144   6.131
 2697SOL    HW120122   3.307   1.115   6.083
 2697SOL    HW220123   3.175   1.211   6.075
 2698SOL     OW20124   2.412   0.196   6.471
 2698SOL    HW120125   2.407   0.191   6.571
 2698SOL    HW220126   2.414   0.292   6.442
 2699SOL     OW20127   2.870   1.456   6.063
 2699SOL    HW120128   2.824   1.528   6.011
 2699SOL    HW220129   2.866   1.476   6.161
 2700SOL     OW20130   2.213   1.801   6.439
 2700SOL    HW120131   2.263   1.715   6.445
 2700SOL    HW220132   2.278   1.878   6.436
 2701SOL     OW20133   3.657   1.066   6.459
 2701SOL    HW120134   3.595   1.051   6.383
 2701SOL    HW220135   3.605   1.077   6.544
 2702SOL     OW20136   2.183   0.943   5.828
 2702SOL    HW120137   2.265   0.982   5.786
 2702SOL    HW220138   2.156   0.861   5.779
 2703SOL     OW20139   3.320   0.735   6.314
 2703SOL    HW120140   3.315   0.670   6.389
 2703SOL    HW220141   3.400   0.794   6.327
 2704SOL     OW20142   2.064   0.285   7.084
 2704SOL    HW120143   1.984   0.345   7.071
 2704SOL    HW220144   2.054   0.236   7.170
 2705SOL     OW20145   2.326   1.743   5.909
 2705SOL    HW120146   2.359   1.782   5.995
 2705SOL    HW220147   2.402   1.736   5.844
 2706SOL     OW20148   3.262   0.107   6.012
 2706SOL    HW120149   3.238   0.070   5.922
 2706SOL    HW220150   3.361   0.123   6.016
 2707SOL     OW20151   2.111   1.785   6.827
 2707SOL    HW120152   2.168   1.720   6.877
 2707SOL    HW220153   2.095   1.752   6.734
 2708SOL     OW20154   2.802   1.698   6.490
 2708SOL    HW120155   2.882   1.641   6.511
 2708SOL    HW220156   2.753   1.658   6.413
 2709SOL     OW20157   2.244   0.700   6.066
 2709SOL    HW120158   2.289   0.610   6.063
 2709SOL    HW220159   2.150   0.689   6.099
 2710SOL     OW20160   2.476   0.122   5.703
 2710SOL    HW120161   2.574   0.100   5.710
 2710SOL    HW220162   2.445   0.105   5.610
 2711SOL     OW20163   2.665   1.402   6.510
 2711SOL    HW120164   2.755   1.416   6.468
 2711SOL    HW220165   2.594   1.404   6.439
 2712SOL     OW20166   2.784   0.503   6.485
 2712SOL    HW120167   2.759   0.494   6.389
 2712SOL    HW220168   2.832   0.421   6.516
 2713SOL     OW20169   2.401   0.064   6.098
 2713SOL    HW120170   2.320   0.065   6.156
 2713SOL    HW220171   2.404   0.147   6.043
 2714SOL     OW20172   2.159   0.035   5.757
 2714SOL    HW120173   2.208   0.119   5.736
 2714SOL    HW220174   2.221  -0.030   5.802
 2715SOL     OW20175   2.797   0.236   6.066
 2715SOL    HW120176   2.749   0.277   5.988
 2715SOL    HW220177   2.896   0.234   6.047
 2716SOL     OW20178   3.089   1.570   6.379
 2716SOL    HW120179   3.110   1.644   6.314
 2716SOL    HW220180   3.157   1.570   6.452
 2717SOL     OW20181   2.321   1.152   6.327
 2717SOL    HW120182   2.250   1.125   6.392
 2717SOL    HW220183   2.295   1.124   6.234
 2718SOL     OW20184   2.423   0.222   6.733
 2718SOL    HW120185   2.461   0.138   6.770
 2718SOL    HW220186   2.335   0.241   6.777
 2719SOL     OW20187   2.728   0.454   6.228
 2719SOL    HW120188   2.696   0.526   6.166
 2719SOL    HW220189   2.752   0.373   6.175
 2720SOL     OW20190   2.879   0.039   6.339
 2720SOL    HW120191   2.807   0.044   6.270
 2720SOL    HW220192   2.855  -0.030   6.408
 2721SOL     OW20193   3.291   1.173   6.453
 2721SOL    HW120194   3.236   1.089   6.446
 2721SOL    HW220195   3.317   1.202   6.361
 2722SOL     OW20196   3.328   0.590   6.578
 2722SOL    HW120197   3.298   0.495   6.585
 2722SOL    HW220198   3.401   0.606   6.644
 2723SOL     OW20199   3.719   0.833   5.963
 2723SOL    HW120200   3.761   0.769   6.027
 2723SOL    HW220201   3.681   0.782   5.885
 2724SOL     OW20202   2.350   1.385   5.760
 2724SOL    HW120203   2.263   1.370   5.807
 2724SOL    HW220204   2.333   1.411   5.665
 2725SOL     OW20205   3.526   1.280   6.243
 2725SOL    HW120206   3.625   1.288   6.257
 2725SOL    HW220207   3.481   1.364   6.274
 2726SOL     OW20208   3.252   0.575   5.664
 2726SOL    HW120209   3.198   0.554   5.745
 2726SOL    HW220210   3.343   0.534   5.673
 2727SOL     OW20211   2.389   0.256   5.914
 2727SOL    HW120212   2.416   0.197   5.839
 2727SOL    HW220213   2.389   0.351   5.883
 2728SOL     OW20214   2.973   1.195   6.686
 2728SOL    HW120215   2.933   1.239   6.767
 2728SOL    HW220216   2.932   1.232   6.603
 2729SOL     OW20217   3.500   1.099   6.665
 2729SOL    HW120218   3.505   1.180   6.724
 2729SOL    HW220219   3.414   1.101   6.614
 2730SOL     OW20220   2.567   1.050   5.954
 2730SOL    HW120221   2.553   1.057   6.053
 2730SOL    HW220222   2.651   0.999   5.936
 2731SOL     OW20223   2.272   0.813   6.837
 2731SOL    HW120224   2.358   0.825   6.887
 2731SOL    HW220225   2.230   0.726   6.864
 2732SOL     OW20226   3.136   0.386   6.848
 2732SOL    HW120227   3.157   0.460   6.912
 2732SOL    HW220228   3.047   0.403   6.805
 2733SOL     OW20229   2.229   1.100   6.087
 2733SOL    HW120230   2.222   1.183   6.031
 2733SOL    HW220231   2.233   1.020   6.027
 2734SOL     OW20232   2.428   0.537   6.451
 2734SOL    HW120233   2.440   0.603   6.377
 2734SOL    HW220234   2.474   0.571   6.534
 2735SOL     OW20235   3.114   1.348   5.974
 2735SOL    HW120236   3.164   1.425   6.014
 2735SOL    HW220237   3.019   1.350   6.006
 2736SOL     OW20238   3.134   1.445   6.728
 2736SOL    HW120239   3.181   1.458   6.815
 2736SOL    HW220240   3.068   1.371   6.737
 2737SOL     OW20241   3.444   0.639   6.058
 2737SOL    HW120242   3.413   0.700   6.131
 2737SOL    HW220243   3.494   0.691   5.989
 2738SOL     OW20244   2.216   1.510   6.915
 2738SOL    HW120245   2.195   1.466   6.828
 2738SOL    HW220246   2.313   1.536   6.918
 2739SOL     OW20247   2.435   0.870   6.615
 2739SOL    HW120248   2.479   0.959   6.606
 2739SOL    HW220249   2.372   0.870   6.692
 2740SOL     OW20250   3.222   0.862   6.631
 2740SOL    HW120251   3.147   0.862   6.565
 2740SOL    HW220252   3.259   0.770   6.640
 2741SOL     OW20253   3.071   0.525   5.861
 2741SOL    HW120254   3.084   0.441   5.915
 2741SOL    HW220255   3.042   0.599   5.921
 2742SOL     OW20256   2.169   0.213   6.817
 2742SOL    HW120257   2.146   0.250   6.907
 2742SOL    HW220258   2.139   0.118   6.811
 2743SOL     OW20259   1.899   1.310   6.868
 2743SOL    HW120260   1.952   1.261   6.936
 2743SOL    HW220261   1.921   1.408   6.873
 2744SOL     OW20262   2.594   0.634   6.650
 2744SOL    HW120263   2.653   0.608   6.574
 2744SOL    HW220264   2.566   0.730   6.639
 2745SOL     OW20265   2.169   0.063   6.204
 2745SOL    HW120266   2.158   0.157   6.237
 2745SOL    HW220267   2.164   0.000   6.281
 2746SOL     OW20268   3.484   0.367   5.960
 2746SOL    HW120269   3.486   0.291   6.024
 2746SOL    HW220270   3.436   0.444   6.000
 2747SOL     OW20271   2.885   0.766   6.552
 2747SOL    HW120272   2.900   0.787   6.648
 2747SOL    HW220273   2.855   0.671   6.543
 2748SOL     OW20274   3.402   0.274   5.711
 2748SOL    HW120275   3.341   0.199   5.734
 2748SOL    HW220276   3.424   0.326   5.794
 2749SOL     OW20277   2.930   1.333   6.435
 2749SOL    HW120278   2.937   1.249   6.380
 2749SOL    HW220279   2.992   1.402   6.399
 2750SOL     OW20280   2.181   0.810   6.535
 2750SOL    HW120281   2.274   0.846   6.540
 2750SOL    HW220282   2.175   0.725   6.587
 2751SOL     OW20283   2.201   0.509   6.592
 2751SOL    HW120284   2.149   0.426   6.575
 2751SOL    HW220285   2.278   0.514   6.528
 2752SOL     OW20286   3.022   0.207   7.063
 2752SOL    HW120287   3.022   0.271   7.140
 2752SOL    HW220288   3.050   0.255   6.980
 2753SOL     OW20289   1.870   1.326   5.786
 2753SOL    HW120290   1.777   1.347   5.755
 2753SOL    HW220291   1.880   1.227   5.799
 2754SOL     OW20292   1.950   1.801   6.513
 2754SOL    HW120293   1.908   1.715   6.486
 2754SOL    HW220294   2.044   1.804   6.479
 2755SOL     OW20295   2.366   1.568   6.496
 2755SOL    HW120296   2.432   1.642   6.505
 2755SOL    HW220297   2.410   1.489   6.454
 2756SOL     OW20298   2.864   0.796   6.824
 2756SOL    HW120299   2.905   0.764   6.910
 2756SOL    HW220300   2.768   0.769   6.821
 2757SOL     OW20301   1.902   0.544   6.700
 2757SOL    HW120302   1.987   0.511   6.659
 2757SOL    HW220303   1.915   0.559   6.798
 2758SOL     OW20304   2.677   0.572   5.911
 2758SOL    HW120305   2.684   0.483   5.865
 2758SOL    HW220306   2.583   0.606   5.903
 2759SOL     OW20307   3.519   0.604   6.792
 2759SOL    HW120308   3.481   0.535   6.854
 2759SOL    HW220309   3.601   0.568   6.748
 2760SOL     OW20310   2.533   0.464   6.855
 2760SOL    HW120311   2.499   0.375   6.825
 2760SOL    HW220312   2.559   0.518   6.775
 2761SOL     OW20313   2.792   1.678   7.051
 2761SOL    HW120314   2.768   1.660   6.956
 2761SOL    HW220315   2.822   1.772   7.061
 2762SOL     OW20316   2.335   0.500   5.777
 2762SOL    HW120317   2.396   0.580   5.781
 2762SOL    HW220318   2.240   0.531   5.784
 2763SOL     OW20319   3.209   1.059   6.820
 2763SOL    HW120320   3.233   0.996   6.746
 2763SOL    HW220321   3.119   1.099   6.802
 2764SOL     OW20322   3.164   0.855   5.895
 2764SOL    HW120323   3.078   0.824   5.937
 2764SOL    HW220324   3.160   0.841   5.796
 2765SOL     OW20325   3.621   1.747   6.740
 2765SOL    HW120326   3.682   1.777   6.667
 2765SOL    HW220327   3.583   1.658   6.718
 2766SOL     OW20328   3.114   1.731   6.714
 2766SOL    HW120329   3.198   1.736   6.660
 2766SOL    HW220330   3.091   1.635   6.732
 2767SOL     OW20331   1.945   1.258   6.608
 2767SOL    HW120332   1.940   1.257   6.708
 2767SOL    HW220333   1.862   1.217   6.570
 2768SOL     OW20334   3.588   0.135   6.109
 2768SOL    HW120335   3.661   0.118   6.042
 2768SOL    HW220336   3.557   0.048   6.147
 2769SOL     OW20337   3.250   1.573   6.063
 2769SOL    HW120338   3.317   1.585   5.989
 2769SOL    HW220339   3.210   1.662   6.086
 2770SOL     OW20340   3.142   0.927   6.258
 2770SOL    HW120341   3.202   0.846   6.260
 2770SOL    HW220342   3.182   0.996   6.198
 2771SOL     OW20343   2.534   1.616   5.740
 2771SOL    HW120344   2.543   1.626   5.641
 2771SOL    HW220345   2.494   1.527   5.761
 2772SOL     OW20346   3.512   1.720   6.980
 2772SOL    HW120347   3.565   1.730   6.896
 2772SOL    HW220348   3.485   1.810   7.014
 2773SOL     OW20349   3.703   0.175   6.549
 2773SOL    HW120350   3.742   0.090   6.513
 2773SOL    HW220351   3.605   0.177   6.530
 2774SOL     OW20352   2.125   0.326   6.306
 2774SOL    HW120353   2.046   0.377   6.272
 2774SOL    HW220354   2.116   0.311   6.404
 2775SOL     OW20355   2.684   1.002   6.958
 2775SOL    HW120356   2.724   1.001   6.866
 2775SOL    HW220357   2.694   1.094   6.998
 2776SOL     OW20358   2.778   0.910   5.877
 2776SOL    HW120359   2.841   0.948   5.809
 2776SOL    HW220360   2.818   0.827   5.916
 2777SOL     OW20361   2.901   1.098   6.282
 2777SOL    HW120362   2.831   1.051   6.336
 2777SOL    HW220363   2.960   1.030   6.239
 2778SOL     OW20364   2.876   0.236   6.557
 2778SOL    HW120365   2.868   0.200   6.464
 2778SOL    HW220366   2.874   0.160   6.622
 2779SOL     OW20367   2.452   1.487   6.077
 2779SOL    HW120368   2.494   1.429   6.007
 2779SOL    HW220369   2.408   1.566   6.033
 2780SOL     OW20370   3.571   0.385   6.967
 2780SOL    HW120371   3.644   0.454   6.971
 2780SOL    HW220372   3.599   0.310   6.908
 2781SOL     OW20373   2.117   1.348   5.876
 2781SOL    HW120374   2.021   1.349   5.849
 2781SOL    HW220375   2.129   1.401   5.960
 2782SOL     OW20376   1.937   0.345   5.619
 2782SOL    HW120377   1.845   0.317   5.590
 2782SOL    HW220378   1.968   0.422   5.563
 2783SOL     OW20379   1.934   0.166   5.904
 2783SOL    HW120380   1.917   0.249   5.850
 2783SOL    HW220381   2.024   0.129   5.882
 2784SOL     OW20382   3.045   1.335   5.705
 2784SOL    HW120383   2.946   1.324   5.707
 2784SOL    HW220384   3.079   1.350   5.798
 2785SOL     OW20385   3.355   1.767   6.545
 2785SOL    HW120386   3.388   1.831   6.476
 2785SOL    HW220387   3.421   1.761   6.620
 2786SOL     OW20388   3.312   1.220   7.219
 2786SOL    HW120389   3.303   1.210   7.318
 2786SOL    HW220390   3.408   1.213   7.193
 2787SOL     OW20391   3.536   0.883   6.840
 2787SOL    HW120392   3.509   0.794   6.803
 2787SOL    HW220393   3.537   0.951   6.767
 2788SOL     OW20394   3.087   0.325   6.035
 2788SOL    HW120395   3.152   0.251   6.024
 2788SOL    HW220396   3.107   0.375   6.119
 2789SOL     OW20397   2.456   0.745   6.238
 2789SOL    HW120398   2.506   0.830   6.219
 2789SOL    HW220399   2.368   0.747   6.190
 2790SOL     OW20400   3.592   0.934   7.103
 2790SOL    HW120401   3.630   1.025   7.118
 2790SOL    HW220402   3.584   0.917   7.004
 2791SOL     OW20403   2.523   1.790   6.539
 2791SOL    HW120404   2.477   1.878   6.526
 2791SOL    HW220405   2.622   1.802   6.532
 2792SOL     OW20406   2.721   0.956   6.447
 2792SOL    HW120407   2.775   0.887   6.495
 2792SOL    HW220408   2.689   1.025   6.513
 2793SOL     OW20409   2.945   0.984   5.673
 2793SOL    HW120410   2.922   1.037   5.591
 2793SOL    HW220411   3.026   0.928   5.654
 2794SOL     OW20412   3.723   1.569   6.437
 2794SOL    HW120413   3.652   1.557   6.367
 2794SOL    HW220414   3.724   1.490   6.497
 2795SOL     OW20415   1.941   1.240   6.239
 2795SOL    HW120416   1.940   1.193   6.327
 2795SOL    HW220417   2.023   1.212   6.188
 2796SOL     OW20418   3.686   0.192   6.813
 2796SOL    HW120419   3.682   0.102   6.857
 2796SOL    HW220420   3.689   0.181   6.714
 2797SOL     OW20421   2.290   0.424   6.106
 2797SOL    HW120422   2.320   0.352   6.044
 2797SOL    HW220423   2.251   0.384   6.189
 2798SOL     OW20424   3.567   1.487   6.690
 2798SOL    HW120425   3.474   1.462   6.663
 2798SOL    HW220426   3.593   1.437   6.772
 2799SOL     OW20427   2.674   1.586   6.273
 2799SOL    HW120428   2.706   1.596   6.179
 2799SOL    HW220429   2.595   1.524   6.275
 2800SOL     OW20430   3.286   0.214   6.698
 2800SOL    HW120431   3.338   0.149   6.753
 2800SOL    HW220432   3.237   0.277   6.759
 2801SOL     OW20433   2.863   0.034   6.740
 2801SOL    HW120434   2.800  -0.038   6.709
 2801SOL    HW220435   2.956  -0.002   6.740
 2802SOL     OW20436   2.632   1.330   5.887
 2802SOL    HW120437   2.586   1.243   5.904
 2802SOL    HW220438   2.723   1.327   5.928
 2803SOL     OW20439   3.214   0.052   5.754
 2803SOL    HW120440   3.249   0.011   5.670
 2803SOL    HW220441   3.124   0.014   5.774
 2804SOL     OW20442   3.162   0.453   6.277
 2804SOL    HW120443   3.103   0.533   6.281
 2804SOL    HW220444   3.177   0.418   6.370
 2805SOL     OW20445   3.455   0.221   6.468
 2805SOL    HW120446   3.371   0.220   6.522
 2805SOL    HW220447   3.457   0.304   6.412
 2806SOL     OW20448   1.901   1.077   5.886
 2806SOL    HW120449   2.000   1.066   5.877
 2806SOL    HW220450   1.861   0.991   5.918
 2807SOL     OW20451   2.737   1.646   5.923
 2807SOL    HW120452   2.660   1.611   5.869
 2807SOL    HW220453   2.705   1.717   5.985
 2808SOL     OW20454   2.092   2.490   0.113
 2808SOL    HW120455   1.999   2.488   0.150
 2808SOL    HW220456   2.093   2.451   0.021
 2809SOL     OW20457   2.087   2.137   0.996
 2809SOL    HW120458   2.122   2.120   1.088
 2809SOL    HW220459   1.999   2.092   0.984
 2810SOL     OW20460   1.881   2.230   0.647
 2810SOL    HW120461   1.799   2.273   0.686
 2810SOL    HW220462   1.853   2.157   0.584
 2811SOL     OW20463   3.417   3.373   0.703
 2811SOL    HW120464   3.360   3.357   0.784
 2811SOL    HW220465   3.358   3.383   0.623
 2812SOL     OW20466   2.997   2.565   0.717
 2812SOL    HW120467   3.054   2.643   0.692
 2812SOL    HW220468   2.937   2.591   0.793
 2813SOL     OW20469   3.617   2.469   0.231
 2813SOL    HW120470   3.605   2.456   0.132
 2813SOL    HW220471   3.587   2.388   0.280
 2814SOL     OW20472   2.630   3.006   1.023
 2814SOL    HW120473   2.552   3.023   1.083
 2814SOL    HW220474   2.664   3.093   0.987
 2815SOL     OW20475   2.547   2.874   0.665
 2815SOL    HW120476   2.616   2.858   0.735
 2815SOL    HW220477   2.474   2.931   0.703
 2816SOL     OW20478   2.197   3.297   1.061
 2816SOL    HW120479   2.119   3.266   1.008
 2816SOL    HW220480   2.255   3.355   1.004
 2817SOL     OW20481   3.322   3.367   1.339
 2817SOL    HW120482   3.346   3.461   1.365
 2817SOL    HW220483   3.306   3.313   1.421
 2818SOL     OW20484   3.465   2.309   0.737
 2818SOL    HW120485   3.391   2.355   0.687
 2818SOL    HW220486   3.516   2.377   0.790
 2819SOL     OW20487   2.093   3.575   0.483
 2819SOL    HW120488   2.127   3.652   0.537
 2819SOL    HW220489   2.137   3.575   0.393
 2820SOL     OW20490   2.092   3.296   0.538
 2820SOL    HW120491   2.066   3.392   0.538
 2820SOL    HW220492   2.021   3.242   0.583
 2821SOL     OW20493   2.102   2.953   0.886
 2821SOL    HW120494   2.116   2.869   0.938
 2821SOL    HW220495   2.047   3.017   0.941
 2822SOL     OW20496   2.468   2.826   0.123
 2822SOL    HW120497   2.475   2.910   0.069
 2822SOL    HW220498   2.514   2.839   0.211
 2823SOL     OW20499   3.456   1.976   1.480
 2823SOL    HW120500   3.438   2.043   1.408
 2823SOL    HW220501   3.453   2.022   1.569
 2824SOL     OW20502   1.984   2.505   0.563
 2824SOL    HW120503   1.939   2.417   0.580
 2824SOL    HW220504   1.983   2.559   0.647
 2825SOL     OW20505   3.704   3.629   0.359
 2825SOL    HW120506   3.758   3.600   0.439
 2825SOL    HW220507   3.734   3.719   0.330
 2826SOL     OW20508   1.889   3.458   0.117
 2826SOL    HW120509   1.870   3.362   0.138
 2826SOL    HW220510   1.856   3.516   0.192
 2827SOL     OW20511   3.551   2.784   0.612
 2827SOL    HW120512   3.646   2.755   0.620
 2827SOL    HW220513   3.543   2.849   0.537
 2828SOL     OW20514   3.503   2.970   0.432
 2828SOL    HW120515   3.589   2.972   0.380
 2828SOL    HW220516   3.517   3.017   0.520
 2829SOL     OW20517   2.475   3.227   0.726
 2829SOL    HW120518   2.426   3.140   0.735
 2829SOL    HW220519   2.452   3.270   0.639
 2830SOL     OW20520   3.155   3.090   1.423
 2830SOL    HW120521   3.192   3.017   1.365
 2830SOL    HW220522   3.207   3.095   1.508
 2831SOL     OW20523   2.671   1.866   0.502
 2831SOL    HW120524   2.711   1.957   0.493
 2831SOL    HW220525   2.571   1.874   0.508
 2832SOL     OW20526   3.387   2.861   0.190
 2832SOL    HW120527   3.324   2.785   0.203
 2832SOL    HW220528   3.435   2.879   0.276
 2833SOL     OW20529   2.179   2.113   1.801
 2833SOL    HW120530   2.250   2.184   1.807
 2833SOL    HW220531   2.091   2.152   1.829
 2834SOL     OW20532   3.328   3.279   0.953
 2834SOL    HW120533   3.269   3.285   1.033
 2834SOL    HW220534   3.313   3.191   0.907
 2835SOL     OW20535   3.529   3.576   0.572
 2835SOL    HW120536   3.488   3.553   0.484
 2835SOL    HW220537   3.511   3.502   0.637
 2836SOL     OW20538   2.460   2.591   0.270
 2836SOL    HW120539   2.484   2.660   0.202
 2836SOL    HW220540   2.382   2.624   0.324
 2837SOL     OW20541   3.143   2.207   0.944
 2837SOL    HW120542   3.057   2.157   0.931
 2837SOL    HW220543   3.205   2.153   1.000
 2838SOL     OW20544   3.438   3.524   0.307
 2838SOL    HW120545   3.527   3.570   0.310
 2838SOL    HW220546   3.417   3.500   0.212
 2839SOL     OW20547   2.669   2.467   1.465
 2839SOL    HW120548   2.622   2.464   1.554
 2839SOL    HW220549   2.618   2.412   1.399
 2840SOL     OW20550   3.256   2.331   1.674
 2840SOL    HW120551   3.236   2.374   1.762
 2840SOL    HW220552   3.334   2.269   1.683
 2841SOL     OW20553   2.853   2.272   1.242
 2841SOL    HW120554   2.776   2.306   1.296
 2841SOL    HW220555   2.819   2.221   1.163
 2842SOL     OW20556   2.903   2.563   0.429
 2842SOL    HW120557   2.929   2.559   0.525
 2842SOL    HW220558   2.818   2.512   0.415
 2843SOL     OW20559   1.938   2.673   0.789
 2843SOL    HW120560   2.037   2.661   0.798
 2843SOL    HW220561   1.914   2.768   0.810
 2844SOL     OW20562   2.727   2.210   0.195
 2844SOL    HW120563   2.786   2.273   0.146
 2844SOL    HW220564   2.746   2.116   0.166
 2845SOL     OW20565   3.581   2.447   1.831
 2845SOL    HW120566   3.555   2.536   1.795
 2845SOL    HW220567   3.579   2.379   1.758
 2846SOL     OW20568   3.224   3.006   0.545
 2846SOL    HW120569   3.307   2.977   0.497
 2846SOL    HW220570   3.175   3.073   0.489
 2847SOL     OW20571   2.412   2.058   0.885
 2847SOL    HW120572   2.407   2.053   0.985
 2847SOL    HW220573   2.414   2.154   0.856
 2848SOL     OW20574   2.870   3.318   0.477
 2848SOL    HW120575   2.824   3.390   0.425
 2848SOL    HW220576   2.866   3.338   0.575
 2849SOL     OW20577   2.213   3.663   0.853
 2849SOL    HW120578   2.263   3.577   0.859
 2849SOL    HW220579   2.278   3.740   0.850
 2850SOL     OW20580   3.657   2.928   0.873
 2850SOL    HW120581   3.595   2.913   0.797
 2850SOL    HW220582   3.605   2.939   0.958
 2851SOL     OW20583   2.183   2.805   0.242
 2851SOL    HW120584   2.265   2.844   0.200
 2851SOL    HW220585   2.156   2.723   0.193
 2852SOL     OW20586   3.320   2.597   0.728
 2852SOL    HW120587   3.315   2.532   0.803
 2852SOL    HW220588   3.400   2.656   0.741
 2853SOL     OW20589   2.323   3.128   1.727
 2853SOL    HW120590   2.273   3.129   1.641
 2853SOL    HW220591   2.260   3.110   1.803
 2854SOL     OW20592   2.973   3.638   0.237
 2854SOL    HW120593   2.913   3.576   0.287
 2854SOL    HW220594   3.004   3.594   0.152
 2855SOL     OW20595   3.494   3.239   0.081
 2855SOL    HW120596   3.462   3.333   0.071
 2855SOL    HW220597   3.418   3.176   0.069
 2856SOL     OW20598   2.326   3.605   0.323
 2856SOL    HW120599   2.359   3.644   0.409
 2856SOL    HW220600   2.402   3.598   0.258
 2857SOL     OW20601   3.262   1.969   0.426
 2857SOL    HW120602   3.238   1.932   0.336
 2857SOL    HW220603   3.361   1.985   0.430
 2858SOL     OW20604   2.111   3.647   1.241
 2858SOL    HW120605   2.168   3.582   1.291
 2858SOL    HW220606   2.095   3.614   1.148
 2859SOL     OW20607   2.802   3.560   0.904
 2859SOL    HW120608   2.882   3.503   0.925
 2859SOL    HW220609   2.753   3.520   0.827
 2860SOL     OW20610   2.244   2.562   0.480
 2860SOL    HW120611   2.289   2.472   0.477
 2860SOL    HW220612   2.150   2.551   0.513
 2861SOL     OW20613   3.409   2.084   1.729
 2861SOL    HW120614   3.404   2.121   1.821
 2861SOL    HW220615   3.337   2.015   1.717
 2862SOL     OW20616   2.643   2.126   1.749
 2862SOL    HW120617   2.710   2.065   1.792
 2862SOL    HW220618   2.570   2.145   1.814
 2863SOL     OW20619   2.750   3.376   1.195
 2863SOL    HW120620   2.727   3.351   1.101
 2863SOL    HW220621   2.811   3.307   1.234
 2864SOL     OW20622   3.213   2.452   1.433
 2864SOL    HW120623   3.241   2.409   1.518
 2864SOL    HW220624   3.238   2.548   1.434
 2865SOL     OW20625   2.665   3.264   0.924
 2865SOL    HW120626   2.755   3.278   0.882
 2865SOL    HW220627   2.594   3.266   0.853
 2866SOL     OW20628   2.784   2.365   0.899
 2866SOL    HW120629   2.759   2.356   0.803
 2866SOL    HW220630   2.832   2.283   0.930
 2867SOL     OW20631   2.401   1.926   0.512
 2867SOL    HW120632   2.320   1.927   0.570
 2867SOL    HW220633   2.404   2.009   0.457
 2868SOL     OW20634   3.296   3.050   0.041
 2868SOL    HW120635   3.328   2.974   0.098
 2868SOL    HW220636   3.204   3.077   0.071
 2869SOL     OW20637   2.159   1.897   0.171
 2869SOL    HW120638   2.208   1.981   0.150
 2869SOL    HW220639   2.221   1.832   0.216
 2870SOL     OW20640   2.797   2.098   0.480
 2870SOL    HW120641   2.749   2.139   0.402
 2870SOL    HW220642   2.896   2.096   0.461
 2871SOL     OW20643   2.938   2.545   1.464
 2871SOL    HW120644   2.858   2.484   1.467
 2871SOL    HW220645   3.019   2.492   1.440
 2872SOL     OW20646   3.089   3.432   0.793
 2872SOL    HW120647   3.110   3.506   0.728
 2872SOL    HW220648   3.157   3.432   0.866
 2873SOL     OW20649   2.321   3.014   0.741
 2873SOL    HW120650   2.250   2.987   0.806
 2873SOL    HW220651   2.295   2.986   0.648
 2874SOL     OW20652   3.133   3.659   0.591
 2874SOL    HW120653   3.177   3.723   0.527
 2874SOL    HW220654   3.083   3.711   0.661
 2875SOL     OW20655   2.894   2.411   0.016
 2875SOL    HW120656   2.853   2.493  -0.023
 2875SOL    HW220657   2.958   2.437   0.089
 2876SOL     OW20658   1.940   2.418   1.386
 2876SOL    HW120659   2.032   2.417   1.345
 2876SOL    HW220660   1.934   2.492   1.453
 2877SOL     OW20661   2.423   2.084   1.147
 2877SOL    HW120662   2.461   2.000   1.184
 2877SOL    HW220663   2.335   2.103   1.191
 2878SOL     OW20664   2.728   2.316   0.642
 2878SOL    HW120665   2.696   2.388   0.580
 2878SOL    HW220666   2.752   2.235   0.589
 2879SOL     OW20667   2.879   1.901   0.753
 2879SOL    HW120668   2.807   1.906   0.684
 2879SOL    HW220669   2.855   1.832   0.822
 2880SOL     OW20670   3.291   3.035   0.867
 2880SOL    HW120671   3.236   2.951   0.860
 2880SOL    HW220672   3.317   3.064   0.775
 2881SOL     OW20673   3.328   2.452   0.992
 2881SOL    HW120674   3.298   2.357   0.999
 2881SOL    HW220675   3.401   2.468   1.058
 2882SOL     OW20676   3.719   2.695   0.377
 2882SOL    HW120677   3.761   2.631   0.441
 2882SOL    HW220678   3.681   2.644   0.299
 2883SOL     OW20679   2.350   3.247   0.174
 2883SOL    HW120680   2.263   3.232   0.221
 2883SOL    HW220681   2.333   3.273   0.079
 2884SOL     OW20682   3.526   3.142   0.657
 2884SOL    HW120683   3.625   3.150   0.671
 2884SOL    HW220684   3.481   3.226   0.688
 2885SOL     OW20685   3.252   2.437   0.078
 2885SOL    HW120686   3.198   2.416   0.159
 2885SOL    HW220687   3.343   2.396   0.087
 2886SOL     OW20688   2.389   2.118   0.328
 2886SOL    HW120689   2.416   2.059   0.253
 2886SOL    HW220690   2.389   2.213   0.297
 2887SOL     OW20691   3.616   3.085   1.588
 2887SOL    HW120692   3.707   3.046   1.575
 2887SOL    HW220693   3.624   3.181   1.612
 2888SOL     OW20694   2.926   3.209   1.340
 2888SOL    HW120695   2.846   3.186   1.395
 2888SOL    HW220696   3.009   3.183   1.389
 2889SOL     OW20697   3.454   3.491   1.625
 2889SOL    HW120698   3.481   3.525   1.535
 2889SOL    HW220699   3.533   3.453   1.671
 2890SOL     OW20700   2.973   3.057   1.100
 2890SOL    HW120701   2.933   3.101   1.181
 2890SOL    HW220702   2.932   3.094   1.017
 2891SOL     OW20703   3.500   2.961   1.079
 2891SOL    HW120704   3.505   3.042   1.138
 2891SOL    HW220705   3.414   2.963   1.028
 2892SOL     OW20706   2.777   1.951   1.402
 2892SOL    HW120707   2.802   1.931   1.307
 2892SOL    HW220708   2.849   2.007   1.444
 2893SOL     OW20709   2.567   2.912   0.368
 2893SOL    HW120710   2.553   2.919   0.467
 2893SOL    HW220711   2.651   2.861   0.350
 2894SOL     OW20712   2.272   2.675   1.251
 2894SOL    HW120713   2.358   2.687   1.301
 2894SOL    HW220714   2.230   2.588   1.278
 2895SOL     OW20715   3.136   2.248   1.262
 2895SOL    HW120716   3.157   2.322   1.326
 2895SOL    HW220717   3.047   2.265   1.219
 2896SOL     OW20718   2.229   2.962   0.501
 2896SOL    HW120719   2.222   3.045   0.445
 2896SOL    HW220720   2.233   2.882   0.441
 2897SOL     OW20721   2.428   2.399   0.865
 2897SOL    HW120722   2.440   2.465   0.791
 2897SOL    HW220723   2.474   2.433   0.948
 2898SOL     OW20724   3.114   3.210   0.388
 2898SOL    HW120725   3.164   3.287   0.428
 2898SOL    HW220726   3.019   3.212   0.420
 2899SOL     OW20727   3.134   3.307   1.142
 2899SOL    HW120728   3.181   3.320   1.229
 2899SOL    HW220729   3.068   3.233   1.151
 2900SOL     OW20730   3.444   2.501   0.472
 2900SOL    HW120731   3.413   2.562   0.545
 2900SOL    HW220732   3.494   2.553   0.403
 2901SOL     OW20733   2.264   2.613   1.598
 2901SOL    HW120734   2.332   2.668   1.551
 2901SOL    HW220735   2.304   2.525   1.625
 2902SOL     OW20736   2.875   1.967   1.770
 2902SOL    HW120737   2.881   2.052   1.718
 2902SOL    HW220738   2.907   1.891   1.713
 2903SOL     OW20739   2.366   1.912   1.740
 2903SOL    HW120740   2.324   1.855   1.670
 2903SOL    HW220741   2.300   1.981   1.772
 2904SOL     OW20742   2.435   2.732   1.029
 2904SOL    HW120743   2.479   2.821   1.020
 2904SOL    HW220744   2.372   2.732   1.106
 2905SOL     OW20745   3.222   2.724   1.045
 2905SOL    HW120746   3.147   2.724   0.979
 2905SOL    HW220747   3.259   2.632   1.054
 2906SOL     OW20748   3.071   2.387   0.275
 2906SOL    HW120749   3.084   2.303   0.329
 2906SOL    HW220750   3.042   2.461   0.335
 2907SOL     OW20751   2.169   2.075   1.231
 2907SOL    HW120752   2.146   2.112   1.321
 2907SOL    HW220753   2.139   1.980   1.225
 2908SOL     OW20754   2.594   2.496   1.064
 2908SOL    HW120755   2.653   2.470   0.988
 2908SOL    HW220756   2.566   2.592   1.053
 2909SOL     OW20757   2.169   1.925   0.618
 2909SOL    HW120758   2.158   2.019   0.651
 2909SOL    HW220759   2.164   1.862   0.695
 2910SOL     OW20760   3.484   2.229   0.374
 2910SOL    HW120761   3.486   2.153   0.438
 2910SOL    HW220762   3.436   2.306   0.414
 2911SOL     OW20763   2.885   2.628   0.966
 2911SOL    HW120764   2.900   2.649   1.062
 2911SOL    HW220765   2.855   2.533   0.957
 2912SOL     OW20766   3.721   3.380   1.605
 2912SOL    HW120767   3.735   3.407   1.510
 2912SOL    HW220768   3.804   3.402   1.658
 2913SOL     OW20769   3.402   2.136   0.125
 2913SOL    HW120770   3.341   2.061   0.148
 2913SOL    HW220771   3.424   2.188   0.208
 2914SOL     OW20772   3.165   2.700   0.042
 2914SOL    HW120773   3.199   2.607   0.057
 2914SOL    HW220774   3.183   2.727  -0.053
 2915SOL     OW20775   2.930   3.195   0.849
 2915SOL    HW120776   2.937   3.111   0.794
 2915SOL    HW220777   2.992   3.264   0.813
 2916SOL     OW20778   2.181   2.672   0.949
 2916SOL    HW120779   2.274   2.708   0.954
 2916SOL    HW220780   2.175   2.587   1.001
 2917SOL     OW20781   2.201   2.371   1.006
 2917SOL    HW120782   2.149   2.288   0.989
 2917SOL    HW220783   2.278   2.376   0.942
 2918SOL     OW20784   3.000   2.242   1.678
 2918SOL    HW120785   2.955   2.305   1.742
 2918SOL    HW220786   3.093   2.273   1.661
 2919SOL     OW20787   3.022   2.069   1.477
 2919SOL    HW120788   3.022   2.133   1.554
 2919SOL    HW220789   3.050   2.117   1.394
 2920SOL     OW20790   1.950   3.663   0.927
 2920SOL    HW120791   1.908   3.577   0.900
 2920SOL    HW220792   2.044   3.666   0.893
 2921SOL     OW20793   2.366   3.430   0.910
 2921SOL    HW120794   2.432   3.504   0.919
 2921SOL    HW220795   2.410   3.351   0.868
 2922SOL     OW20796   2.864   2.658   1.238
 2922SOL    HW120797   2.905   2.626   1.324
 2922SOL    HW220798   2.768   2.631   1.235
 2923SOL     OW20799   1.902   2.406   1.114
 2923SOL    HW120800   1.987   2.373   1.073
 2923SOL    HW220801   1.915   2.421   1.212
 2924SOL     OW20802   3.231   2.812   1.660
 2924SOL    HW120803   3.270   2.901   1.680
 2924SOL    HW220804   3.241   2.792   1.563
 2925SOL     OW20805   2.677   2.434   0.325
 2925SOL    HW120806   2.684   2.345   0.279
 2925SOL    HW220807   2.583   2.468   0.317
 2926SOL     OW20808   3.519   2.466   1.206
 2926SOL    HW120809   3.481   2.397   1.268
 2926SOL    HW220810   3.601   2.430   1.162
 2927SOL     OW20811   2.533   2.326   1.269
 2927SOL    HW120812   2.499   2.237   1.239
 2927SOL    HW220813   2.559   2.380   1.189
 2928SOL     OW20814   2.792   3.540   1.465
 2928SOL    HW120815   2.768   3.522   1.370
 2928SOL    HW220816   2.822   3.634   1.475
 2929SOL     OW20817   2.335   2.362   0.191
 2929SOL    HW120818   2.396   2.442   0.195
 2929SOL    HW220819   2.240   2.393   0.198
 2930SOL     OW20820   3.209   2.921   1.234
 2930SOL    HW120821   3.233   2.858   1.160
 2930SOL    HW220822   3.119   2.961   1.216
 2931SOL     OW20823   3.164   2.717   0.309
 2931SOL    HW120824   3.078   2.686   0.351
 2931SOL    HW220825   3.160   2.703   0.210
 2932SOL     OW20826   3.621   3.609   1.154
 2932SOL    HW120827   3.682   3.639   1.081
 2932SOL    HW220828   3.583   3.520   1.132
 2933SOL     OW20829   3.114   3.593   1.128
 2933SOL    HW120830   3.198   3.598   1.074
 2933SOL    HW220831   3.091   3.497   1.146
 2934SOL     OW20832   1.945   3.120   1.022
 2934SOL    HW120833   1.940   3.119   1.122
 2934SOL    HW220834   1.862   3.079   0.984
 2935SOL     OW20835   2.765   1.948   0.133
 2935SOL    HW120836   2.816   1.949   0.047
 2935SOL    HW220837   2.821   1.906   0.204
 2936SOL     OW20838   3.588   1.997   0.523
 2936SOL    HW120839   3.661   1.980   0.456
 2936SOL    HW220840   3.557   1.910   0.561
 2937SOL     OW20841   3.250   3.435   0.477
 2937SOL    HW120842   3.317   3.447   0.403
 2937SOL    HW220843   3.210   3.524   0.500
 2938SOL     OW20844   3.142   2.789   0.672
 2938SOL    HW120845   3.202   2.708   0.674
 2938SOL    HW220846   3.182   2.858   0.612
 2939SOL     OW20847   2.692   3.135   1.422
 2939SOL    HW120848   2.687   3.168   1.517
 2939SOL    HW220849   2.606   3.154   1.376
 2940SOL     OW20850   2.534   3.478   0.154
 2940SOL    HW120851   2.543   3.488   0.055
 2940SOL    HW220852   2.494   3.389   0.175
 2941SOL     OW20853   3.512   3.582   1.394
 2941SOL    HW120854   3.565   3.592   1.310
 2941SOL    HW220855   3.485   3.672   1.428
 2942SOL     OW20856   3.703   2.037   0.963
 2942SOL    HW120857   3.742   1.952   0.927
 2942SOL    HW220858   3.605   2.039   0.944
 2943SOL     OW20859   2.125   2.188   0.720
 2943SOL    HW120860   2.046   2.239   0.686
 2943SOL    HW220861   2.116   2.173   0.818
 2944SOL     OW20862   3.056   3.474   0.031
 2944SOL    HW120863   3.062   3.381   0.068
 2944SOL    HW220864   2.997   3.474  -0.049
 2945SOL     OW20865   2.684   2.864   1.372
 2945SOL    HW120866   2.724   2.863   1.280
 2945SOL    HW220867   2.694   2.956   1.412
 2946SOL     OW20868   2.778   2.772   0.291
 2946SOL    HW120869   2.841   2.810   0.223
 2946SOL    HW220870   2.818   2.689   0.330
 2947SOL     OW20871   3.366   3.469   0.044
 2947SOL    HW120872   3.274   3.506   0.051
 2947SOL    HW220873   3.404   3.489  -0.046
 2948SOL     OW20874   3.476   3.154   1.289
 2948SOL    HW120875   3.536   3.157   1.369
 2948SOL    HW220876   3.401   3.218   1.302
 2949SOL     OW20877   2.901   2.960   0.696
 2949SOL    HW120878   2.831   2.913   0.750
 2949SOL    HW220879   2.960   2.892   0.653
 2950SOL     OW20880   2.876   2.098   0.971
 2950SOL    HW120881   2.868   2.062   0.878
 2950SOL    HW220882   2.874   2.022   1.036
 2951SOL     OW20883   2.452   3.349   0.491
 2951SOL    HW120884   2.494   3.291   0.421
 2951SOL    HW220885   2.408   3.428   0.447
 2952SOL     OW20886   3.571   2.247   1.381
 2952SOL    HW120887   3.644   2.316   1.385
 2952SOL    HW220888   3.599   2.172   1.322
 2953SOL     OW20889   2.117   3.210   0.290
 2953SOL    HW120890   2.021   3.211   0.263
 2953SOL    HW220891   2.129   3.263   0.374
 2954SOL     OW20892   3.302   2.718   1.398
 2954SOL    HW120893   3.245   2.770   1.335
 2954SOL    HW220894   3.398   2.730   1.374
 2955SOL     OW20895   1.934   2.028   0.318
 2955SOL    HW120896   1.917   2.111   0.264
 2955SOL    HW220897   2.024   1.991   0.296
 2956SOL     OW20898   3.045   3.197   0.119
 2956SOL    HW120899   2.946   3.186   0.121
 2956SOL    HW220900   3.079   3.212   0.212
 2957SOL     OW20901   2.475   2.704   1.431
 2957SOL    HW120902   2.531   2.785   1.414
 2957SOL    HW220903   2.534   2.624   1.434
 2958SOL     OW20904   3.355   3.629   0.959
 2958SOL    HW120905   3.388   3.693   0.890
 2958SOL    HW220906   3.421   3.623   1.034
 2959SOL     OW20907   2.578   2.427   1.708
 2959SOL    HW120908   2.597   2.492   1.782
 2959SOL    HW220909   2.638   2.347   1.717
 2960SOL     OW20910   3.312   3.082   1.633
 2960SOL    HW120911   3.303   3.072   1.732
 2960SOL    HW220912   3.408   3.075   1.607
 2961SOL     OW20913   2.252   3.603   1.560
 2961SOL    HW120914   2.161   3.644   1.558
 2961SOL    HW220915   2.245   3.509   1.592
 2962SOL     OW20916   3.536   2.745   1.254
 2962SOL    HW120917   3.509   2.656   1.217
 2962SOL    HW220918   3.537   2.813   1.181
 2963SOL     OW20919   3.087   2.187   0.449
 2963SOL    HW120920   3.152   2.113   0.438
 2963SOL    HW220921   3.107   2.237   0.533
 2964SOL     OW20922   2.456   2.607   0.652
 2964SOL    HW120923   2.506   2.692   0.633
 2964SOL    HW220924   2.368   2.609   0.604
 2965SOL     OW20925   3.639   2.204   1.642
 2965SOL    HW120926   3.622   2.235   1.548
 2965SOL    HW220927   3.555   2.167   1.680
 2966SOL     OW20928   3.592   2.796   1.517
 2966SOL    HW120929   3.630   2.887   1.532
 2966SOL    HW220930   3.584   2.779   1.418
 2967SOL     OW20931   2.721   3.236   0.016
 2967SOL    HW120932   2.675   3.251   0.104
 2967SOL    HW220933   2.765   3.321  -0.014
 2968SOL     OW20934   2.523   3.652   0.953
 2968SOL    HW120935   2.477   3.740   0.940
 2968SOL    HW220936   2.622   3.664   0.946
 2969SOL     OW20937   2.721   2.818   0.861
 2969SOL    HW120938   2.775   2.749   0.909
 2969SOL    HW220939   2.689   2.887   0.927
 2970SOL     OW20940   2.945   2.846   0.087
 2970SOL    HW120941   2.922   2.899   0.005
 2970SOL    HW220942   3.026   2.790   0.068
 2971SOL     OW20943   3.723   3.431   0.851
 2971SOL    HW120944   3.652   3.419   0.781
 2971SOL    HW220945   3.724   3.352   0.911
 2972SOL     OW20946   1.941   3.102   0.653
 2972SOL    HW120947   1.940   3.055   0.741
 2972SOL    HW220948   2.023   3.074   0.602
 2973SOL     OW20949   2.534   3.253   1.624
 2973SOL    HW120950   2.456   3.203   1.662
 2973SOL    HW220951   2.531   3.348   1.655
 2974SOL     OW20952   3.686   2.054   1.227
 2974SOL    HW120953   3.682   1.964   1.271
 2974SOL    HW220954   3.689   2.043   1.128
 2975SOL     OW20955   2.290   2.286   0.520
 2975SOL    HW120956   2.320   2.214   0.458
 2975SOL    HW220957   2.251   2.246   0.603
 2976SOL     OW20958   3.567   3.349   1.104
 2976SOL    HW120959   3.474   3.324   1.077
 2976SOL    HW220960   3.593   3.299   1.186
 2977SOL     OW20961   2.674   3.448   0.687
 2977SOL    HW120962   2.706   3.458   0.593
 2977SOL    HW220963   2.595   3.386   0.689
 2978SOL     OW20964   3.286   2.076   1.112
 2978SOL    HW120965   3.338   2.011   1.167
 2978SOL    HW220966   3.237   2.139   1.173
 2979SOL     OW20967   2.863   1.896   1.154
 2979SOL    HW120968   2.800   1.824   1.123
 2979SOL    HW220969   2.956   1.860   1.154
 2980SOL     OW20970   2.632   3.192   0.301
 2980SOL    HW120971   2.586   3.105   0.318
 2980SOL    HW220972   2.723   3.189   0.342
 2981SOL     OW20973   3.214   1.914   0.168
 2981SOL    HW120974   3.249   1.873   0.084
 2981SOL    HW220975   3.124   1.876   0.188
 2982SOL     OW20976   3.162   2.315   0.691
 2982SOL    HW120977   3.103   2.395   0.695
 2982SOL    HW220978   3.177   2.280   0.784
 2983SOL     OW20979   3.455   2.083   0.882
 2983SOL    HW120980   3.371   2.082   0.936
 2983SOL    HW220981   3.457   2.166   0.826
 2984SOL     OW20982   1.901   2.939   0.300
 2984SOL    HW120983   2.000   2.928   0.291
 2984SOL    HW220984   1.861   2.853   0.332
 2985SOL     OW20985   2.737   3.508   0.337
 2985SOL    HW120986   2.660   3.473   0.283
 2985SOL    HW220987   2.705   3.579   0.399
 2986SOL     OW20988   2.092   2.490   1.975
 2986SOL    HW120989   1.999   2.488   2.012
 2986SOL    HW220990   2.093   2.451   1.883
 2987SOL     OW20991   2.087   2.137   2.858
 2987SOL    HW120992   2.122   2.120   2.950
 2987SOL    HW220993   1.999   2.092   2.846
 2988SOL     OW20994   3.617   2.469   2.093
 2988SOL    HW120995   3.605   2.456   1.994
 2988SOL    HW220996   3.587   2.388   2.142
 2989SOL     OW20997   2.548   3.023   3.665
 2989SOL    HW120998   2.608   3.102   3.679
 2989SOL    HW220999   2.462   3.054   3.624
 2990SOL     OW21000   2.092   3.296   2.400
 2990SOL    HW121001   2.066   3.392   2.400
 2990SOL    HW221002   2.021   3.242   2.445
 2991SOL     OW21003   2.102   2.953   2.748
 2991SOL    HW121004   2.116   2.869   2.800
 2991SOL    HW221005   2.047   3.017   2.803
 2992SOL     OW21006   3.456   1.976   3.342
 2992SOL    HW121007   3.438   2.043   3.270
 2992SOL    HW221008   3.453   2.022   3.431
 2993SOL     OW21009   3.503   2.970   2.294
 2993SOL    HW121010   3.589   2.972   2.242
 2993SOL    HW221011   3.517   3.017   2.382
 2994SOL     OW21012   2.460   2.591   2.132
 2994SOL    HW121013   2.484   2.660   2.064
 2994SOL    HW221014   2.382   2.624   2.186
 2995SOL     OW21015   3.143   2.207   2.806
 2995SOL    HW121016   3.057   2.157   2.793
 2995SOL    HW221017   3.205   2.153   2.862
 2996SOL     OW21018   2.669   2.467   3.327
 2996SOL    HW121019   2.622   2.464   3.416
 2996SOL    HW221020   2.618   2.412   3.261
 2997SOL     OW21021   3.256   2.331   3.536
 2997SOL    HW121022   3.236   2.374   3.624
 2997SOL    HW221023   3.334   2.269   3.545
 2998SOL     OW21024   2.853   2.272   3.104
 2998SOL    HW121025   2.776   2.306   3.158
 2998SOL    HW221026   2.819   2.221   3.025
 2999SOL     OW21027   1.992   3.683   3.433
 2999SOL    HW121028   1.982   3.668   3.532
 2999SOL    HW221029   1.906   3.719   3.397
 3000SOL     OW21030   2.323   3.128   3.589
 3000SOL    HW121031   2.273   3.129   3.503
 3000SOL    HW221032   2.260   3.110   3.665
 3001SOL     OW21033   2.111   3.647   3.103
 3001SOL    HW121034   2.168   3.582   3.153
 3001SOL    HW221035   2.095   3.614   3.010
 3002SOL     OW21036   2.802   3.560   2.766
 3002SOL    HW121037   2.882   3.503   2.787
 3002SOL    HW221038   2.753   3.520   2.689
 3003SOL     OW21039   3.409   2.084   3.591
 3003SOL    HW121040   3.404   2.121   3.683
 3003SOL    HW221041   3.337   2.015   3.579
 3004SOL     OW21042   2.476   1.984   1.979
 3004SOL    HW121043   2.574   1.962   1.986
 3004SOL    HW221044   2.445   1.967   1.886
 3005SOL     OW21045   3.213   2.452   3.295
 3005SOL    HW121046   3.241   2.409   3.380
 3005SOL    HW221047   3.238   2.548   3.296
 3006SOL     OW21048   3.296   3.050   1.903
 3006SOL    HW121049   3.328   2.974   1.960
 3006SOL    HW221050   3.204   3.077   1.933
 3007SOL     OW21051   2.879   1.901   2.615
 3007SOL    HW121052   2.807   1.906   2.546
 3007SOL    HW221053   2.855   1.832   2.684
 3008SOL     OW21054   3.328   2.452   2.854
 3008SOL    HW121055   3.298   2.357   2.861
 3008SOL    HW221056   3.401   2.468   2.920
 3009SOL     OW21057   3.719   2.695   2.239
 3009SOL    HW121058   3.761   2.631   2.303
 3009SOL    HW221059   3.681   2.644   2.161
 3010SOL     OW21060   3.526   3.142   2.519
 3010SOL    HW121061   3.625   3.150   2.533
 3010SOL    HW221062   3.481   3.226   2.550
 3011SOL     OW21063   3.252   2.437   1.940
 3011SOL    HW121064   3.198   2.416   2.021
 3011SOL    HW221065   3.343   2.396   1.949
 3012SOL     OW21066   3.616   3.085   3.450
 3012SOL    HW121067   3.707   3.046   3.437
 3012SOL    HW221068   3.624   3.181   3.474
 3013SOL     OW21069   3.454   3.491   3.487
 3013SOL    HW121070   3.481   3.525   3.397
 3013SOL    HW221071   3.533   3.453   3.533
 3014SOL     OW21072   2.973   3.057   2.962
 3014SOL    HW121073   2.933   3.101   3.043
 3014SOL    HW221074   2.932   3.094   2.879
 3015SOL     OW21075   3.500   2.961   2.941
 3015SOL    HW121076   3.505   3.042   3.000
 3015SOL    HW221077   3.414   2.963   2.890
 3016SOL     OW21078   2.777   1.951   3.264
 3016SOL    HW121079   2.802   1.931   3.169
 3016SOL    HW221080   2.849   2.007   3.306
 3017SOL     OW21081   3.136   2.248   3.124
 3017SOL    HW121082   3.157   2.322   3.188
 3017SOL    HW221083   3.047   2.265   3.081
 3018SOL     OW21084   2.428   2.399   2.727
 3018SOL    HW121085   2.440   2.465   2.653
 3018SOL    HW221086   2.474   2.433   2.810
 3019SOL     OW21087   2.216   3.372   3.191
 3019SOL    HW121088   2.195   3.328   3.104
 3019SOL    HW221089   2.313   3.398   3.194
 3020SOL     OW21090   2.875   1.967   3.632
 3020SOL    HW121091   2.881   2.052   3.580
 3020SOL    HW221092   2.907   1.891   3.575
 3021SOL     OW21093   2.435   2.732   2.891
 3021SOL    HW121094   2.479   2.821   2.882
 3021SOL    HW221095   2.372   2.732   2.968
 3022SOL     OW21096   3.484   2.229   2.236
 3022SOL    HW121097   3.486   2.153   2.300
 3022SOL    HW221098   3.436   2.306   2.276
 3023SOL     OW21099   2.930   3.195   2.711
 3023SOL    HW121100   2.937   3.111   2.656
 3023SOL    HW221101   2.992   3.264   2.675
 3024SOL     OW21102   1.902   2.406   2.976
 3024SOL    HW121103   1.987   2.373   2.935
 3024SOL    HW221104   1.915   2.421   3.074
 3025SOL     OW21105   2.051   2.382   3.584
 3025SOL    HW121106   2.110   2.342   3.514
 3025SOL    HW221107   1.993   2.453   3.543
 3026SOL     OW21108   2.792   3.540   3.327
 3026SOL    HW121109   2.768   3.522   3.232
 3026SOL    HW221110   2.822   3.634   3.337
 3027SOL     OW21111   2.335   2.362   2.053
 3027SOL    HW121112   2.396   2.442   2.057
 3027SOL    HW221113   2.240   2.393   2.060
 3028SOL     OW21114   2.550   3.524   3.578
 3028SOL    HW121115   2.494   3.605   3.587
 3028SOL    HW221116   2.602   3.528   3.492
 3029SOL     OW21117   3.588   1.997   2.385
 3029SOL    HW121118   3.661   1.980   2.318
 3029SOL    HW221119   3.557   1.910   2.423
 3030SOL     OW21120   1.992   3.656   3.713
 3030SOL    HW121121   1.951   3.582   3.766
 3030SOL    HW221122   2.056   3.707   3.771
 3031SOL     OW21123   3.142   2.789   2.534
 3031SOL    HW121124   3.202   2.708   2.536
 3031SOL    HW221125   3.182   2.858   2.474
 3032SOL     OW21126   2.684   2.864   3.234
 3032SOL    HW121127   2.724   2.863   3.142
 3032SOL    HW221128   2.694   2.956   3.274
 3033SOL     OW21129   3.476   3.154   3.151
 3033SOL    HW121130   3.536   3.157   3.231
 3033SOL    HW221131   3.401   3.218   3.164
 3034SOL     OW21132   2.901   2.960   2.558
 3034SOL    HW121133   2.831   2.913   2.612
 3034SOL    HW221134   2.960   2.892   2.515
 3035SOL     OW21135   2.117   3.210   2.152
 3035SOL    HW121136   2.021   3.211   2.125
 3035SOL    HW221137   2.129   3.263   2.236
 3036SOL     OW21138   3.302   2.718   3.260
 3036SOL    HW121139   3.245   2.770   3.197
 3036SOL    HW221140   3.398   2.730   3.236
 3037SOL     OW21141   3.045   3.197   1.981
 3037SOL    HW121142   2.946   3.186   1.983
 3037SOL    HW221143   3.079   3.212   2.074
 3038SOL     OW21144   2.578   2.427   3.570
 3038SOL    HW121145   2.597   2.492   3.644
 3038SOL    HW221146   2.638   2.347   3.579
 3039SOL     OW21147   3.312   3.082   3.495
 3039SOL    HW121148   3.303   3.072   3.594
 3039SOL    HW221149   3.408   3.075   3.469
 3040SOL     OW21150   2.252   3.603   3.422
 3040SOL    HW121151   2.161   3.644   3.420
 3040SOL    HW221152   2.245   3.509   3.454
 3041SOL     OW21153   3.536   2.745   3.116
 3041SOL    HW121154   3.509   2.656   3.079
 3041SOL    HW221155   3.537   2.813   3.043
 3042SOL     OW21156   2.456   2.607   2.514
 3042SOL    HW121157   2.506   2.692   2.495
 3042SOL    HW221158   2.368   2.609   2.466
 3043SOL     OW21159   2.721   3.236   1.878
 3043SOL    HW121160   2.675   3.251   1.966
 3043SOL    HW221161   2.765   3.321   1.848
 3044SOL     OW21162   2.721   2.818   2.723
 3044SOL    HW121163   2.775   2.749   2.771
 3044SOL    HW221164   2.689   2.887   2.789
 3045SOL     OW21165   2.534   3.253   3.486
 3045SOL    HW121166   2.456   3.203   3.524
 3045SOL    HW221167   2.531   3.348   3.517
 3046SOL     OW21168   2.290   2.286   2.382
 3046SOL    HW121169   2.320   2.214   2.320
 3046SOL    HW221170   2.251   2.246   2.465
 3047SOL     OW21171   3.286   2.076   2.974
 3047SOL    HW121172   3.338   2.011   3.029
 3047SOL    HW221173   3.237   2.139   3.035
 3048SOL     OW21174   2.480   3.429   3.146
 3048SOL    HW121175   2.475   3.511   3.203
 3048SOL    HW221176   2.569   3.426   3.101
 3049SOL     OW21177   3.214   1.914   2.030
 3049SOL    HW121178   3.249   1.873   1.946
 3049SOL    HW221179   3.124   1.876   2.050
 3050SOL     OW21180   3.162   2.315   2.553
 3050SOL    HW121181   3.103   2.395   2.557
 3050SOL    HW221182   3.177   2.280   2.646
 3051SOL     OW21183   2.737   3.508   2.199
 3051SOL    HW121184   2.660   3.473   2.145
 3051SOL    HW221185   2.705   3.579   2.261
 3052SOL     OW21186   2.092   2.490   3.837
 3052SOL    HW121187   1.999   2.488   3.874
 3052SOL    HW221188   2.093   2.451   3.745
 3053SOL     OW21189   1.881   2.230   4.371
 3053SOL    HW121190   1.799   2.273   4.410
 3053SOL    HW221191   1.853   2.157   4.308
 3054SOL     OW21192   2.712   2.660   5.547
 3054SOL    HW121193   2.708   2.736   5.612
 3054SOL    HW221194   2.734   2.696   5.456
 3055SOL     OW21195   2.547   2.874   4.389
 3055SOL    HW121196   2.616   2.858   4.459
 3055SOL    HW221197   2.474   2.931   4.427
 3056SOL     OW21198   3.465   2.309   4.461
 3056SOL    HW121199   3.391   2.355   4.411
 3056SOL    HW221200   3.516   2.377   4.514
 3057SOL     OW21201   2.093   3.575   4.207
 3057SOL    HW121202   2.127   3.652   4.261
 3057SOL    HW221203   2.137   3.575   4.117
 3058SOL     OW21204   1.889   3.458   3.841
 3058SOL    HW121205   1.870   3.362   3.862
 3058SOL    HW221206   1.856   3.516   3.916
 3059SOL     OW21207   1.975   2.599   5.321
 3059SOL    HW121208   2.063   2.586   5.366
 3059SOL    HW221209   1.962   2.696   5.299
 3060SOL     OW21210   3.049   3.654   5.340
 3060SOL    HW121211   3.073   3.714   5.264
 3060SOL    HW221212   3.056   3.559   5.310
 3061SOL     OW21213   2.460   2.591   3.994
 3061SOL    HW121214   2.484   2.660   3.926
 3061SOL    HW221215   2.382   2.624   4.048
 3062SOL     OW21216   3.438   3.524   4.031
 3062SOL    HW121217   3.527   3.570   4.034
 3062SOL    HW221218   3.417   3.500   3.936
 3063SOL     OW21219   1.992   3.683   5.295
 3063SOL    HW121220   1.982   3.668   5.394
 3063SOL    HW221221   1.906   3.719   5.259
 3064SOL     OW21222   2.727   2.210   3.919
 3064SOL    HW121223   2.786   2.273   3.870
 3064SOL    HW221224   2.746   2.116   3.890
 3065SOL     OW21225   2.183   2.805   3.966
 3065SOL    HW121226   2.265   2.844   3.924
 3065SOL    HW221227   2.156   2.723   3.917
 3066SOL     OW21228   2.323   3.128   5.451
 3066SOL    HW121229   2.273   3.129   5.365
 3066SOL    HW221230   2.260   3.110   5.527
 3067SOL     OW21231   2.973   3.638   3.961
 3067SOL    HW121232   2.913   3.576   4.011
 3067SOL    HW221233   3.004   3.594   3.876
 3068SOL     OW21234   3.262   1.969   4.150
 3068SOL    HW121235   3.238   1.932   4.060
 3068SOL    HW221236   3.361   1.985   4.154
 3069SOL     OW21237   2.750   3.376   4.919
 3069SOL    HW121238   2.727   3.351   4.825
 3069SOL    HW221239   2.811   3.307   4.958
 3070SOL     OW21240   2.401   1.926   4.236
 3070SOL    HW121241   2.320   1.927   4.294
 3070SOL    HW221242   2.404   2.009   4.181
 3071SOL     OW21243   2.321   3.014   4.465
 3071SOL    HW121244   2.250   2.987   4.530
 3071SOL    HW221245   2.295   2.986   4.372
 3072SOL     OW21246   2.728   2.316   4.366
 3072SOL    HW121247   2.696   2.388   4.304
 3072SOL    HW221248   2.752   2.235   4.313
 3073SOL     OW21249   2.879   1.901   4.477
 3073SOL    HW121250   2.807   1.906   4.408
 3073SOL    HW221251   2.855   1.832   4.546
 3074SOL     OW21252   3.328   2.452   4.716
 3074SOL    HW121253   3.298   2.357   4.723
 3074SOL    HW221254   3.401   2.468   4.782
 3075SOL     OW21255   3.252   2.437   3.802
 3075SOL    HW121256   3.198   2.416   3.883
 3075SOL    HW221257   3.343   2.396   3.811
 3076SOL     OW21258   3.454   3.491   5.349
 3076SOL    HW121259   3.481   3.525   5.259
 3076SOL    HW221260   3.533   3.453   5.395
 3077SOL     OW21261   2.973   3.057   4.824
 3077SOL    HW121262   2.933   3.101   4.905
 3077SOL    HW221263   2.932   3.094   4.741
 3078SOL     OW21264   3.500   2.961   4.803
 3078SOL    HW121265   3.505   3.042   4.862
 3078SOL    HW221266   3.414   2.963   4.752
 3079SOL     OW21267   1.926   3.426   5.055
 3079SOL    HW121268   1.880   3.508   5.021
 3079SOL    HW221269   2.024   3.445   5.064
 3080SOL     OW21270   2.428   2.399   4.589
 3080SOL    HW121271   2.440   2.465   4.515
 3080SOL    HW221272   2.474   2.433   4.672
 3081SOL     OW21273   3.114   3.210   4.112
 3081SOL    HW121274   3.164   3.287   4.152
 3081SOL    HW221275   3.019   3.212   4.144
 3082SOL     OW21276   3.134   3.307   4.866
 3082SOL    HW121277   3.181   3.320   4.953
 3082SOL    HW221278   3.068   3.233   4.875
 3083SOL     OW21279   3.444   2.501   4.196
 3083SOL    HW121280   3.413   2.562   4.269
 3083SOL    HW221281   3.494   2.553   4.127
 3084SOL     OW21282   3.222   2.724   4.769
 3084SOL    HW121283   3.147   2.724   4.703
 3084SOL    HW221284   3.259   2.632   4.778
 3085SOL     OW21285   2.885   2.628   4.690
 3085SOL    HW121286   2.900   2.649   4.786
 3085SOL    HW221287   2.855   2.533   4.681
 3086SOL     OW21288   2.930   3.195   4.573
 3086SOL    HW121289   2.937   3.111   4.518
 3086SOL    HW221290   2.992   3.264   4.537
 3087SOL     OW21291   1.870   3.188   3.924
 3087SOL    HW121292   1.777   3.209   3.893
 3087SOL    HW221293   1.880   3.089   3.937
 3088SOL     OW21294   2.051   2.382   5.446
 3088SOL    HW121295   2.110   2.342   5.376
 3088SOL    HW221296   1.993   2.453   5.405
 3089SOL     OW21297   2.114   3.426   5.468
 3089SOL    HW121298   2.084   3.483   5.544
 3089SOL    HW221299   2.107   3.329   5.494
 3090SOL     OW21300   2.335   2.362   3.915
 3090SOL    HW121301   2.396   2.442   3.919
 3090SOL    HW221302   2.240   2.393   3.922
 3091SOL     OW21303   3.209   2.921   4.958
 3091SOL    HW121304   3.233   2.858   4.884
 3091SOL    HW221305   3.119   2.961   4.940
 3092SOL     OW21306   3.114   3.593   4.852
 3092SOL    HW121307   3.198   3.598   4.798
 3092SOL    HW221308   3.091   3.497   4.870
 3093SOL     OW21309   3.250   3.435   4.201
 3093SOL    HW121310   3.317   3.447   4.127
 3093SOL    HW221311   3.210   3.524   4.224
 3094SOL     OW21312   1.992   3.656   5.575
 3094SOL    HW121313   1.951   3.582   5.628
 3094SOL    HW221314   2.056   3.707   5.633
 3095SOL     OW21315   3.703   2.037   4.687
 3095SOL    HW121316   3.742   1.952   4.651
 3095SOL    HW221317   3.605   2.039   4.668
 3096SOL     OW21318   3.366   3.469   3.768
 3096SOL    HW121319   3.274   3.506   3.775
 3096SOL    HW221320   3.404   3.489   3.678
 3097SOL     OW21321   1.937   2.207   3.757
 3097SOL    HW121322   1.845   2.179   3.728
 3097SOL    HW221323   1.968   2.284   3.701
 3098SOL     OW21324   1.934   2.028   4.042
 3098SOL    HW121325   1.917   2.111   3.988
 3098SOL    HW221326   2.024   1.991   4.020
 3099SOL     OW21327   2.475   2.704   5.155
 3099SOL    HW121328   2.531   2.785   5.138
 3099SOL    HW221329   2.534   2.624   5.158
 3100SOL     OW21330   2.578   2.427   5.432
 3100SOL    HW121331   2.597   2.492   5.506
 3100SOL    HW221332   2.638   2.347   5.441
 3101SOL     OW21333   3.312   3.082   5.357
 3101SOL    HW121334   3.303   3.072   5.456
 3101SOL    HW221335   3.408   3.075   5.331
 3102SOL     OW21336   3.723   3.431   4.575
 3102SOL    HW121337   3.652   3.419   4.505
 3102SOL    HW221338   3.724   3.352   4.635
 3103SOL     OW21339   3.686   2.054   4.951
 3103SOL    HW121340   3.682   1.964   4.995
 3103SOL    HW221341   3.689   2.043   4.852
 3104SOL     OW21342   2.290   2.286   4.244
 3104SOL    HW121343   2.320   2.214   4.182
 3104SOL    HW221344   2.251   2.246   4.327
 3105SOL     OW21345   3.567   3.349   4.828
 3105SOL    HW121346   3.474   3.324   4.801
 3105SOL    HW221347   3.593   3.299   4.910
 3106SOL     OW21348   3.286   2.076   4.836
 3106SOL    HW121349   3.338   2.011   4.891
 3106SOL    HW221350   3.237   2.139   4.897
 3107SOL     OW21351   2.480   3.429   5.008
 3107SOL    HW121352   2.475   3.511   5.065
 3107SOL    HW221353   2.569   3.426   4.963
 3108SOL     OW21354   3.214   1.914   3.892
 3108SOL    HW121355   3.249   1.873   3.808
 3108SOL    HW221356   3.124   1.876   3.912
 3109SOL     OW21357   3.162   2.315   4.415
 3109SOL    HW121358   3.103   2.395   4.419
 3109SOL    HW221359   3.177   2.280   4.508
 3110SOL     OW21360   1.901   2.939   4.024
 3110SOL    HW121361   2.000   2.928   4.015
 3110SOL    HW221362   1.861   2.853   4.056
 3111SOL     OW21363   2.092   2.490   5.699
 3111SOL    HW121364   1.999   2.488   5.736
 3111SOL    HW221365   2.093   2.451   5.607
 3112SOL     OW21366   2.087   2.137   6.582
 3112SOL    HW121367   2.122   2.120   6.674
 3112SOL    HW221368   1.999   2.092   6.570
 3113SOL     OW21369   1.881   2.230   6.233
 3113SOL    HW121370   1.799   2.273   6.272
 3113SOL    HW221371   1.853   2.157   6.170
 3114SOL     OW21372   2.431   3.137   6.751
 3114SOL    HW121373   2.338   3.130   6.714
 3114SOL    HW221374   2.442   3.226   6.795
 3115SOL     OW21375   3.417   3.373   6.289
 3115SOL    HW121376   3.360   3.357   6.370
 3115SOL    HW221377   3.358   3.383   6.209
 3116SOL     OW21378   2.997   2.565   6.303
 3116SOL    HW121379   3.054   2.643   6.278
 3116SOL    HW221380   2.937   2.591   6.379
 3117SOL     OW21381   2.630   3.006   6.609
 3117SOL    HW121382   2.552   3.023   6.669
 3117SOL    HW221383   2.664   3.093   6.573
 3118SOL     OW21384   2.547   2.874   6.251
 3118SOL    HW121385   2.616   2.858   6.321
 3118SOL    HW221386   2.474   2.931   6.289
 3119SOL     OW21387   2.197   3.297   6.647
 3119SOL    HW121388   2.119   3.266   6.594
 3119SOL    HW221389   2.255   3.355   6.590
 3120SOL     OW21390   3.465   2.309   6.323
 3120SOL    HW121391   3.391   2.355   6.273
 3120SOL    HW221392   3.516   2.377   6.376
 3121SOL     OW21393   2.093   3.575   6.069
 3121SOL    HW121394   2.127   3.652   6.123
 3121SOL    HW221395   2.137   3.575   5.979
 3122SOL     OW21396   2.092   3.296   6.124
 3122SOL    HW121397   2.066   3.392   6.124
 3122SOL    HW221398   2.021   3.242   6.169
 3123SOL     OW21399   2.102   2.953   6.472
 3123SOL    HW121400   2.116   2.869   6.524
 3123SOL    HW221401   2.047   3.017   6.527
 3124SOL     OW21402   2.482   3.648   7.025
 3124SOL    HW121403   2.390   3.631   7.060
 3124SOL    HW221404   2.510   3.740   7.051
 3125SOL     OW21405   2.468   2.826   5.709
 3125SOL    HW121406   2.475   2.910   5.655
 3125SOL    HW221407   2.514   2.839   5.797
 3126SOL     OW21408   1.984   2.505   6.149
 3126SOL    HW121409   1.939   2.417   6.166
 3126SOL    HW221410   1.983   2.559   6.233
 3127SOL     OW21411   3.704   3.629   5.945
 3127SOL    HW121412   3.758   3.600   6.025
 3127SOL    HW221413   3.734   3.719   5.916
 3128SOL     OW21414   1.889   3.458   5.703
 3128SOL    HW121415   1.870   3.362   5.724
 3128SOL    HW221416   1.856   3.516   5.778
 3129SOL     OW21417   3.551   2.784   6.198
 3129SOL    HW121418   3.646   2.755   6.206
 3129SOL    HW221419   3.543   2.849   6.123
 3130SOL     OW21420   3.503   2.970   6.018
 3130SOL    HW121421   3.589   2.972   5.966
 3130SOL    HW221422   3.517   3.017   6.106
 3131SOL     OW21423   2.475   3.227   6.312
 3131SOL    HW121424   2.426   3.140   6.321
 3131SOL    HW221425   2.452   3.270   6.225
 3132SOL     OW21426   2.671   1.866   6.088
 3132SOL    HW121427   2.711   1.957   6.079
 3132SOL    HW221428   2.571   1.874   6.094
 3133SOL     OW21429   2.059   2.838   6.850
 3133SOL    HW121430   2.148   2.793   6.836
 3133SOL    HW221431   1.986   2.773   6.831
 3134SOL     OW21432   3.387   2.861   5.776
 3134SOL    HW121433   3.324   2.785   5.789
 3134SOL    HW221434   3.435   2.879   5.862
 3135SOL     OW21435   3.328   3.279   6.539
 3135SOL    HW121436   3.269   3.285   6.619
 3135SOL    HW221437   3.313   3.191   6.493
 3136SOL     OW21438   2.460   2.591   5.856
 3136SOL    HW121439   2.484   2.660   5.788
 3136SOL    HW221440   2.382   2.624   5.910
 3137SOL     OW21441   3.143   2.207   6.530
 3137SOL    HW121442   3.057   2.157   6.517
 3137SOL    HW221443   3.205   2.153   6.586
 3138SOL     OW21444   2.853   2.272   6.828
 3138SOL    HW121445   2.776   2.306   6.882
 3138SOL    HW221446   2.819   2.221   6.749
 3139SOL     OW21447   2.903   2.563   6.015
 3139SOL    HW121448   2.929   2.559   6.111
 3139SOL    HW221449   2.818   2.512   6.001
 3140SOL     OW21450   1.938   2.673   6.375
 3140SOL    HW121451   2.037   2.661   6.384
 3140SOL    HW221452   1.914   2.768   6.396
 3141SOL     OW21453   2.412   2.058   6.471
 3141SOL    HW121454   2.407   2.053   6.571
 3141SOL    HW221455   2.414   2.154   6.442
 3142SOL     OW21456   2.870   3.318   6.063
 3142SOL    HW121457   2.824   3.390   6.011
 3142SOL    HW221458   2.866   3.338   6.161
 3143SOL     OW21459   2.213   3.663   6.439
 3143SOL    HW121460   2.263   3.577   6.445
 3143SOL    HW221461   2.278   3.740   6.436
 3144SOL     OW21462   3.657   2.928   6.459
 3144SOL    HW121463   3.595   2.913   6.383
 3144SOL    HW221464   3.605   2.939   6.544
 3145SOL     OW21465   3.320   2.597   6.314
 3145SOL    HW121466   3.315   2.532   6.389
 3145SOL    HW221467   3.400   2.656   6.327
 3146SOL     OW21468   2.973   3.638   5.823
 3146SOL    HW121469   2.913   3.576   5.873
 3146SOL    HW221470   3.004   3.594   5.738
 3147SOL     OW21471   2.326   3.605   5.909
 3147SOL    HW121472   2.359   3.644   5.995
 3147SOL    HW221473   2.402   3.598   5.844
 3148SOL     OW21474   2.111   3.647   6.827
 3148SOL    HW121475   2.168   3.582   6.877
 3148SOL    HW221476   2.095   3.614   6.734
 3149SOL     OW21477   2.802   3.560   6.490
 3149SOL    HW121478   2.882   3.503   6.511
 3149SOL    HW221479   2.753   3.520   6.413
 3150SOL     OW21480   2.244   2.562   6.066
 3150SOL    HW121481   2.289   2.472   6.063
 3150SOL    HW221482   2.150   2.551   6.099
 3151SOL     OW21483   2.476   1.984   5.703
 3151SOL    HW121484   2.574   1.962   5.710
 3151SOL    HW221485   2.445   1.967   5.610
 3152SOL     OW21486   2.665   3.264   6.510
 3152SOL    HW121487   2.755   3.278   6.468
 3152SOL    HW221488   2.594   3.266   6.439
 3153SOL     OW21489   2.784   2.365   6.485
 3153SOL    HW121490   2.759   2.356   6.389
 3153SOL    HW221491   2.832   2.283   6.516
 3154SOL     OW21492   2.401   1.926   6.098
 3154SOL    HW121493   2.320   1.927   6.156
 3154SOL    HW221494   2.404   2.009   6.043
 3155SOL     OW21495   3.296   3.050   5.627
 3155SOL    HW121496   3.328   2.974   5.684
 3155SOL    HW221497   3.204   3.077   5.657
 3156SOL     OW21498   2.159   1.897   5.757
 3156SOL    HW121499   2.208   1.981   5.736
 3156SOL    HW221500   2.221   1.832   5.802
 3157SOL     OW21501   3.089   3.432   6.379
 3157SOL    HW121502   3.110   3.506   6.314
 3157SOL    HW221503   3.157   3.432   6.452
 3158SOL     OW21504   2.321   3.014   6.327
 3158SOL    HW121505   2.250   2.987   6.392
 3158SOL    HW221506   2.295   2.986   6.234
 3159SOL     OW21507   3.133   3.659   6.177
 3159SOL    HW121508   3.177   3.723   6.113
 3159SOL    HW221509   3.083   3.711   6.247
 3160SOL     OW21510   2.894   2.411   5.602
 3160SOL    HW121511   2.853   2.493   5.563
 3160SOL    HW221512   2.958   2.437   5.675
 3161SOL     OW21513   2.423   2.084   6.733
 3161SOL    HW121514   2.461   2.000   6.770
 3161SOL    HW221515   2.335   2.103   6.777
 3162SOL     OW21516   2.728   2.316   6.228
 3162SOL    HW121517   2.696   2.388   6.166
 3162SOL    HW221518   2.752   2.235   6.175
 3163SOL     OW21519   2.879   1.901   6.339
 3163SOL    HW121520   2.807   1.906   6.270
 3163SOL    HW221521   2.855   1.832   6.408
 3164SOL     OW21522   3.291   3.035   6.453
 3164SOL    HW121523   3.236   2.951   6.446
 3164SOL    HW221524   3.317   3.064   6.361
 3165SOL     OW21525   3.328   2.452   6.578
 3165SOL    HW121526   3.298   2.357   6.585
 3165SOL    HW221527   3.401   2.468   6.644
 3166SOL     OW21528   2.350   3.247   5.760
 3166SOL    HW121529   2.263   3.232   5.807
 3166SOL    HW221530   2.333   3.273   5.665
 3167SOL     OW21531   3.526   3.142   6.243
 3167SOL    HW121532   3.625   3.150   6.257
 3167SOL    HW221533   3.481   3.226   6.274
 3168SOL     OW21534   3.252   2.437   5.664
 3168SOL    HW121535   3.198   2.416   5.745
 3168SOL    HW221536   3.343   2.396   5.673
 3169SOL     OW21537   2.389   2.118   5.914
 3169SOL    HW121538   2.416   2.059   5.839
 3169SOL    HW221539   2.389   2.213   5.883
 3170SOL     OW21540   2.973   3.057   6.686
 3170SOL    HW121541   2.933   3.101   6.767
 3170SOL    HW221542   2.932   3.094   6.603
 3171SOL     OW21543   3.500   2.961   6.665
 3171SOL    HW121544   3.505   3.042   6.724
 3171SOL    HW221545   3.414   2.963   6.614
 3172SOL     OW21546   2.567   2.912   5.954
 3172SOL    HW121547   2.553   2.919   6.053
 3172SOL    HW221548   2.651   2.861   5.936
 3173SOL     OW21549   2.272   2.675   6.837
 3173SOL    HW121550   2.358   2.687   6.887
 3173SOL    HW221551   2.230   2.588   6.864
 3174SOL     OW21552   3.136   2.248   6.848
 3174SOL    HW121553   3.157   2.322   6.912
 3174SOL    HW221554   3.047   2.265   6.805
 3175SOL     OW21555   2.229   2.962   6.087
 3175SOL    HW121556   2.222   3.045   6.031
 3175SOL    HW221557   2.233   2.882   6.027
 3176SOL     OW21558   2.428   2.399   6.451
 3176SOL    HW121559   2.440   2.465   6.377
 3176SOL    HW221560   2.474   2.433   6.534
 3177SOL     OW21561   3.114   3.210   5.974
 3177SOL    HW121562   3.164   3.287   6.014
 3177SOL    HW221563   3.019   3.212   6.006
 3178SOL     OW21564   3.134   3.307   6.728
 3178SOL    HW121565   3.181   3.320   6.815
 3178SOL    HW221566   3.068   3.233   6.737
 3179SOL     OW21567   3.444   2.501   6.058
 3179SOL    HW121568   3.413   2.562   6.131
 3179SOL    HW221569   3.494   2.553   5.989
 3180SOL     OW21570   2.216   3.372   6.915
 3180SOL    HW121571   2.195   3.328   6.828
 3180SOL    HW221572   2.313   3.398   6.918
 3181SOL     OW21573   2.435   2.732   6.615
 3181SOL    HW121574   2.479   2.821   6.606
 3181SOL    HW221575   2.372   2.732   6.692
 3182SOL     OW21576   3.222   2.724   6.631
 3182SOL    HW121577   3.147   2.724   6.565
 3182SOL    HW221578   3.259   2.632   6.640
 3183SOL     OW21579   3.071   2.387   5.861
 3183SOL    HW121580   3.084   2.303   5.915
 3183SOL    HW221581   3.042   2.461   5.921
 3184SOL     OW21582   2.169   2.075   6.817
 3184SOL    HW121583   2.146   2.112   6.907
 3184SOL    HW221584   2.139   1.980   6.811
 3185SOL     OW21585   1.899   3.172   6.868
 3185SOL    HW121586   1.952   3.123   6.936
 3185SOL    HW221587   1.921   3.270   6.873
 3186SOL     OW21588   2.594   2.496   6.650
 3186SOL    HW121589   2.653   2.470   6.574
 3186SOL    HW221590   2.566   2.592   6.639
 3187SOL     OW21591   2.169   1.925   6.204
 3187SOL    HW121592   2.158   2.019   6.237
 3187SOL    HW221593   2.164   1.862   6.281
 3188SOL     OW21594   2.885   2.628   6.552
 3188SOL    HW121595   2.900   2.649   6.648
 3188SOL    HW221596   2.855   2.533   6.543
 3189SOL     OW21597   3.402   2.136   5.711
 3189SOL    HW121598   3.341   2.061   5.734
 3189SOL    HW221599   3.424   2.188   5.794
 3190SOL     OW21600   2.930   3.195   6.435
 3190SOL    HW121601   2.937   3.111   6.380
 3190SOL    HW221602   2.992   3.264   6.399
 3191SOL     OW21603   2.181   2.672   6.535
 3191SOL    HW121604   2.274   2.708   6.540
 3191SOL    HW221605   2.175   2.587   6.587
 3192SOL     OW21606   2.201   2.371   6.592
 3192SOL    HW121607   2.149   2.288   6.575
 3192SOL    HW221608   2.278   2.376   6.528
 3193SOL     OW21609   3.022   2.069   7.063
 3193SOL    HW121610   3.022   2.133   7.140
 3193SOL    HW221611   3.050   2.117   6.980
 3194SOL     OW21612   1.870   3.188   5.786
 3194SOL    HW121613   1.777   3.209   5.755
 3194SOL    HW221614   1.880   3.089   5.799
 3195SOL     OW21615   1.950   3.663   6.513
 3195SOL    HW121616   1.908   3.577   6.486
 3195SOL    HW221617   2.044   3.666   6.479
 3196SOL     OW21618   2.366   3.430   6.496
 3196SOL    HW121619   2.432   3.504   6.505
 3196SOL    HW221620   2.410   3.351   6.454
 3197SOL     OW21621   2.864   2.658   6.824
 3197SOL    HW121622   2.905   2.626   6.910
 3197SOL    HW221623   2.768   2.631   6.821
 3198SOL     OW21624   1.902   2.406   6.700
 3198SOL    HW121625   1.987   2.373   6.659
 3198SOL    HW221626   1.915   2.421   6.798
 3199SOL     OW21627   3.519   2.466   6.792
 3199SOL    HW121628   3.481   2.397   6.854
 3199SOL    HW221629   3.601   2.430   6.748
 3200SOL     OW21630   2.533   2.326   6.855
 3200SOL    HW121631   2.499   2.237   6.825
 3200SOL    HW221632   2.559   2.380   6.775
 3201SOL     OW21633   2.792   3.540   7.051
 3201SOL    HW121634   2.768   3.522   6.956
 3201SOL    HW221635   2.822   3.634   7.061
 3202SOL     OW21636   2.335   2.362   5.777
 3202SOL    HW121637   2.396   2.442   5.781
 3202SOL    HW221638   2.240   2.393   5.784
 3203SOL     OW21639   3.209   2.921   6.820
 3203SOL    HW121640   3.233   2.858   6.746
 3203SOL    HW221641   3.119   2.961   6.802
 3204SOL     OW21642   3.164   2.717   5.895
 3204SOL    HW121643   3.078   2.686   5.937
 3204SOL    HW221644   3.160   2.703   5.796
 3205SOL     OW21645   3.621   3.609   6.740
 3205SOL    HW121646   3.682   3.639   6.667
 3205SOL    HW221647   3.583   3.520   6.718
 3206SOL     OW21648   3.114   3.593   6.714
 3206SOL    HW121649   3.198   3.598   6.660
 3206SOL    HW221650   3.091   3.497   6.732
 3207SOL     OW21651   1.945   3.120   6.608
 3207SOL    HW121652   1.940   3.119   6.708
 3207SOL    HW221653   1.862   3.079   6.570
 3208SOL     OW21654   3.588   1.997   6.109
 3208SOL    HW121655   3.661   1.980   6.042
 3208SOL    HW221656   3.557   1.910   6.147
 3209SOL     OW21657   2.534   3.478   5.740
 3209SOL    HW121658   2.543   3.488   5.641
 3209SOL    HW221659   2.494   3.389   5.761
 3210SOL     OW21660   3.512   3.582   6.980
 3210SOL    HW121661   3.565   3.592   6.896
 3210SOL    HW221662   3.485   3.672   7.014
 3211SOL     OW21663   3.703   2.037   6.549
 3211SOL    HW121664   3.742   1.952   6.513
 3211SOL    HW221665   3.605   2.039   6.530
 3212SOL     OW21666   2.125   2.188   6.306
 3212SOL    HW121667   2.046   2.239   6.272
 3212SOL    HW221668   2.116   2.173   6.404
 3213SOL     OW21669   3.056   3.474   5.617
 3213SOL    HW121670   3.062   3.381   5.654
 3213SOL    HW221671   2.997   3.474   5.537
 3214SOL     OW21672   2.684   2.864   6.958
 3214SOL    HW121673   2.724   2.863   6.866
 3214SOL    HW221674   2.694   2.956   6.998
 3215SOL     OW21675   2.778   2.772   5.877
 3215SOL    HW121676   2.841   2.810   5.809
 3215SOL    HW221677   2.818   2.689   5.916
 3216SOL     OW21678   3.366   3.469   5.630
 3216SOL    HW121679   3.274   3.506   5.637
 3216SOL    HW221680   3.404   3.489   5.540
 3217SOL     OW21681   2.876   2.098   6.557
 3217SOL    HW121682   2.868   2.062   6.464
 3217SOL    HW221683   2.874   2.022   6.622
 3218SOL     OW21684   2.452   3.349   6.077
 3218SOL    HW121685   2.494   3.291   6.007
 3218SOL    HW221686   2.408   3.428   6.033
 3219SOL     OW21687   3.571   2.247   6.967
 3219SOL    HW121688   3.644   2.316   6.971
 3219SOL    HW221689   3.599   2.172   6.908
 3220SOL     OW21690   2.117   3.210   5.876
 3220SOL    HW121691   2.021   3.211   5.849
 3220SOL    HW221692   2.129   3.263   5.960
 3221SOL     OW21693   1.934   2.028   5.904
 3221SOL    HW121694   1.917   2.111   5.850
 3221SOL    HW221695   2.024   1.991   5.882
 3222SOL     OW21696   3.355   3.629   6.545
 3222SOL    HW121697   3.388   3.693   6.476
 3222SOL    HW221698   3.421   3.623   6.620
 3223SOL     OW21699   3.312   3.082   7.219
 3223SOL    HW121700   3.303   3.072   7.318
 3223SOL    HW221701   3.408   3.075   7.193
 3224SOL     OW21702   3.536   2.745   6.840
 3224SOL    HW121703   3.509   2.656   6.803
 3224SOL    HW221704   3.537   2.813   6.767
 3225SOL     OW21705   2.456   2.607   6.238
 3225SOL    HW121706   2.506   2.692   6.219
 3225SOL    HW221707   2.368   2.609   6.190
 3226SOL     OW21708   3.592   2.796   7.103
 3226SOL    HW121709   3.630   2.887   7.118
 3226SOL    HW221710   3.584   2.779   7.004
 3227SOL     OW21711   2.523   3.652   6.539
 3227SOL    HW121712   2.477   3.740   6.526
 3227SOL    HW221713   2.622   3.664   6.532
 3228SOL     OW21714   2.721   2.818   6.447
 3228SOL    HW121715   2.775   2.749   6.495
 3228SOL    HW221716   2.689   2.887   6.513
 3229SOL     OW21717   3.723   3.431   6.437
 3229SOL    HW121718   3.652   3.419   6.367
 3229SOL    HW221719   3.724   3.352   6.497
 3230SOL     OW21720   1.941   3.102   6.239
 3230SOL    HW121721   1.940   3.055   6.327
 3230SOL    HW221722   2.023   3.074   6.188
 3231SOL     OW21723   3.686   2.054   6.813
 3231SOL    HW121724   3.682   1.964   6.857
 3231SOL    HW221725   3.689   2.043   6.714
 3232SOL     OW21726   2.290   2.286   6.106
 3232SOL    HW121727   2.320   2.214   6.044
 3232SOL    HW221728   2.251   2.246   6.189
 3233SOL     OW21729   3.567   3.349   6.690
 3233SOL    HW121730   3.474   3.324   6.663
 3233SOL    HW221731   3.593   3.299   6.772
 3234SOL     OW21732   2.674   3.448   6.273
 3234SOL    HW121733   2.706   3.458   6.179
 3234SOL    HW221734   2.595   3.386   6.275
 3235SOL     OW21735   3.286   2.076   6.698
 3235SOL    HW121736   3.338   2.011   6.753
 3235SOL    HW221737   3.237   2.139   6.759
 3236SOL     OW21738   2.863   1.896   6.740
 3236SOL    HW121739   2.800   1.824   6.709
 3236SOL    HW221740   2.956   1.860   6.740
 3237SOL     OW21741   2.632   3.192   5.887
 3237SOL    HW121742   2.586   3.105   5.904
 3237SOL    HW221743   2.723   3.189   5.928
 3238SOL     OW21744   3.455   2.083   6.468
 3238SOL    HW121745   3.371   2.082   6.522
 3238SOL    HW221746   3.457   2.166   6.412
 3239SOL     OW21747   1.901   2.939   5.886
 3239SOL    HW121748   2.000   2.928   5.877
 3239SOL    HW221749   1.861   2.853   5.918
 3240SOL     OW21750   2.737   3.508   5.923
 3240SOL    HW121751   2.660   3.473   5.869
 3240SOL    HW221752   2.705   3.579   5.985
 3241SOL     OW21753   2.092   4.352   0.113
 3241SOL    HW121754   1.999   4.350   0.150
 3241SOL    HW221755   2.093   4.313   0.021
 3242SOL     OW21756   2.087   3.999   0.996
 3242SOL    HW121757   2.122   3.982   1.088
 3242SOL    HW221758   1.999   3.954   0.984
 3243SOL     OW21759   1.881   4.092   0.647
 3243SOL    HW121760   1.799   4.135   0.686
 3243SOL    HW221761   1.853   4.019   0.584
 3244SOL     OW21762   2.431   4.999   1.165
 3244SOL    HW121763   2.338   4.992   1.128
 3244SOL    HW221764   2.442   5.088   1.209
 3245SOL     OW21765   3.417   5.235   0.703
 3245SOL    HW121766   3.360   5.219   0.784
 3245SOL    HW221767   3.358   5.245   0.623
 3246SOL     OW21768   2.997   4.427   0.717
 3246SOL    HW121769   3.054   4.505   0.692
 3246SOL    HW221770   2.937   4.453   0.793
 3247SOL     OW21771   3.617   4.331   0.231
 3247SOL    HW121772   3.605   4.318   0.132
 3247SOL    HW221773   3.587   4.250   0.280
 3248SOL     OW21774   2.630   4.868   1.023
 3248SOL    HW121775   2.552   4.885   1.083
 3248SOL    HW221776   2.664   4.955   0.987
 3249SOL     OW21777   2.547   4.736   0.665
 3249SOL    HW121778   2.616   4.720   0.735
 3249SOL    HW221779   2.474   4.793   0.703
 3250SOL     OW21780   2.197   5.159   1.061
 3250SOL    HW121781   2.119   5.128   1.008
 3250SOL    HW221782   2.255   5.217   1.004
 3251SOL     OW21783   3.322   5.229   1.339
 3251SOL    HW121784   3.346   5.323   1.365
 3251SOL    HW221785   3.306   5.175   1.421
 3252SOL     OW21786   3.465   4.171   0.737
 3252SOL    HW121787   3.391   4.217   0.687
 3252SOL    HW221788   3.516   4.239   0.790
 3253SOL     OW21789   2.093   5.437   0.483
 3253SOL    HW121790   2.127   5.514   0.537
 3253SOL    HW221791   2.137   5.437   0.393
 3254SOL     OW21792   2.092   5.158   0.538
 3254SOL    HW121793   2.066   5.254   0.538
 3254SOL    HW221794   2.021   5.104   0.583
 3255SOL     OW21795   2.102   4.815   0.886
 3255SOL    HW121796   2.116   4.731   0.938
 3255SOL    HW221797   2.047   4.879   0.941
 3256SOL     OW21798   2.482   5.510   1.439
 3256SOL    HW121799   2.390   5.493   1.474
 3256SOL    HW221800   2.510   5.602   1.465
 3257SOL     OW21801   2.468   4.688   0.123
 3257SOL    HW121802   2.475   4.772   0.069
 3257SOL    HW221803   2.514   4.701   0.211
 3258SOL     OW21804   3.456   3.838   1.480
 3258SOL    HW121805   3.438   3.905   1.408
 3258SOL    HW221806   3.453   3.884   1.569
 3259SOL     OW21807   1.984   4.367   0.563
 3259SOL    HW121808   1.939   4.279   0.580
 3259SOL    HW221809   1.983   4.421   0.647
 3260SOL     OW21810   3.704   5.491   0.359
 3260SOL    HW121811   3.758   5.462   0.439
 3260SOL    HW221812   3.734   5.581   0.330
 3261SOL     OW21813   1.889   5.320   0.117
 3261SOL    HW121814   1.870   5.224   0.138
 3261SOL    HW221815   1.856   5.378   0.192
 3262SOL     OW21816   3.551   4.646   0.612
 3262SOL    HW121817   3.646   4.617   0.620
 3262SOL    HW221818   3.543   4.711   0.537
 3263SOL     OW21819   3.503   4.832   0.432
 3263SOL    HW121820   3.589   4.834   0.380
 3263SOL    HW221821   3.517   4.879   0.520
 3264SOL     OW21822   2.475   5.089   0.726
 3264SOL    HW121823   2.426   5.002   0.735
 3264SOL    HW221824   2.452   5.132   0.639
 3265SOL     OW21825   3.155   4.952   1.423
 3265SOL    HW121826   3.192   4.879   1.365
 3265SOL    HW221827   3.207   4.957   1.508
 3266SOL     OW21828   2.671   3.728   0.502
 3266SOL    HW121829   2.711   3.819   0.493
 3266SOL    HW221830   2.571   3.736   0.508
 3267SOL     OW21831   2.059   4.700   1.264
 3267SOL    HW121832   2.148   4.655   1.250
 3267SOL    HW221833   1.986   4.635   1.245
 3268SOL     OW21834   3.387   4.723   0.190
 3268SOL    HW121835   3.324   4.647   0.203
 3268SOL    HW221836   3.435   4.741   0.276
 3269SOL     OW21837   2.179   3.975   1.801
 3269SOL    HW121838   2.250   4.046   1.807
 3269SOL    HW221839   2.091   4.014   1.829
 3270SOL     OW21840   3.328   5.141   0.953
 3270SOL    HW121841   3.269   5.147   1.033
 3270SOL    HW221842   3.313   5.053   0.907
 3271SOL     OW21843   3.529   5.438   0.572
 3271SOL    HW121844   3.488   5.415   0.484
 3271SOL    HW221845   3.511   5.364   0.637
 3272SOL     OW21846   2.460   4.453   0.270
 3272SOL    HW121847   2.484   4.522   0.202
 3272SOL    HW221848   2.382   4.486   0.324
 3273SOL     OW21849   3.143   4.069   0.944
 3273SOL    HW121850   3.057   4.019   0.931
 3273SOL    HW221851   3.205   4.015   1.000
 3274SOL     OW21852   3.438   5.386   0.307
 3274SOL    HW121853   3.527   5.432   0.310
 3274SOL    HW221854   3.417   5.362   0.212
 3275SOL     OW21855   2.669   4.329   1.465
 3275SOL    HW121856   2.622   4.326   1.554
 3275SOL    HW221857   2.618   4.274   1.399
 3276SOL     OW21858   2.853   4.134   1.242
 3276SOL    HW121859   2.776   4.168   1.296
 3276SOL    HW221860   2.819   4.083   1.163
 3277SOL     OW21861   2.903   4.425   0.429
 3277SOL    HW121862   2.929   4.421   0.525
 3277SOL    HW221863   2.818   4.374   0.415
 3278SOL     OW21864   1.938   4.535   0.789
 3278SOL    HW121865   2.037   4.523   0.798
 3278SOL    HW221866   1.914   4.630   0.810
 3279SOL     OW21867   2.727   4.072   0.195
 3279SOL    HW121868   2.786   4.135   0.146
 3279SOL    HW221869   2.746   3.978   0.166
 3280SOL     OW21870   3.581   4.309   1.831
 3280SOL    HW121871   3.555   4.398   1.795
 3280SOL    HW221872   3.579   4.241   1.758
 3281SOL     OW21873   3.224   4.868   0.545
 3281SOL    HW121874   3.307   4.839   0.497
 3281SOL    HW221875   3.175   4.935   0.489
 3282SOL     OW21876   2.412   3.920   0.885
 3282SOL    HW121877   2.407   3.915   0.985
 3282SOL    HW221878   2.414   4.016   0.856
 3283SOL     OW21879   2.870   5.180   0.477
 3283SOL    HW121880   2.824   5.252   0.425
 3283SOL    HW221881   2.866   5.200   0.575
 3284SOL     OW21882   2.213   5.525   0.853
 3284SOL    HW121883   2.263   5.439   0.859
 3284SOL    HW221884   2.278   5.602   0.850
 3285SOL     OW21885   3.657   4.790   0.873
 3285SOL    HW121886   3.595   4.775   0.797
 3285SOL    HW221887   3.605   4.801   0.958
 3286SOL     OW21888   3.089   5.274   1.506
 3286SOL    HW121889   3.095   5.197   1.570
 3286SOL    HW221890   3.037   5.248   1.426
 3287SOL     OW21891   2.183   4.667   0.242
 3287SOL    HW121892   2.265   4.706   0.200
 3287SOL    HW221893   2.156   4.585   0.193
 3288SOL     OW21894   3.320   4.459   0.728
 3288SOL    HW121895   3.315   4.394   0.803
 3288SOL    HW221896   3.400   4.518   0.741
 3289SOL     OW21897   2.973   5.500   0.237
 3289SOL    HW121898   2.913   5.438   0.287
 3289SOL    HW221899   3.004   5.456   0.152
 3290SOL     OW21900   3.494   5.101   0.081
 3290SOL    HW121901   3.462   5.195   0.071
 3290SOL    HW221902   3.418   5.038   0.069
 3291SOL     OW21903   2.326   5.467   0.323
 3291SOL    HW121904   2.359   5.506   0.409
 3291SOL    HW221905   2.402   5.460   0.258
 3292SOL     OW21906   3.262   3.831   0.426
 3292SOL    HW121907   3.238   3.794   0.336
 3292SOL    HW221908   3.361   3.847   0.430
 3293SOL     OW21909   2.111   5.509   1.241
 3293SOL    HW121910   2.168   5.444   1.291
 3293SOL    HW221911   2.095   5.476   1.148
 3294SOL     OW21912   2.802   5.422   0.904
 3294SOL    HW121913   2.882   5.365   0.925
 3294SOL    HW221914   2.753   5.382   0.827
 3295SOL     OW21915   2.244   4.424   0.480
 3295SOL    HW121916   2.289   4.334   0.477
 3295SOL    HW221917   2.150   4.413   0.513
 3296SOL     OW21918   3.409   3.946   1.729
 3296SOL    HW121919   3.404   3.983   1.821
 3296SOL    HW221920   3.337   3.877   1.717
 3297SOL     OW21921   2.750   5.238   1.195
 3297SOL    HW121922   2.727   5.213   1.101
 3297SOL    HW221923   2.811   5.169   1.234
 3298SOL     OW21924   2.665   5.126   0.924
 3298SOL    HW121925   2.755   5.140   0.882
 3298SOL    HW221926   2.594   5.128   0.853
 3299SOL     OW21927   2.784   4.227   0.899
 3299SOL    HW121928   2.759   4.218   0.803
 3299SOL    HW221929   2.832   4.145   0.930
 3300SOL     OW21930   2.401   3.788   0.512
 3300SOL    HW121931   2.320   3.789   0.570
 3300SOL    HW221932   2.404   3.871   0.457
 3301SOL     OW21933   3.296   4.912   0.041
 3301SOL    HW121934   3.328   4.836   0.098
 3301SOL    HW221935   3.204   4.939   0.071
 3302SOL     OW21936   2.159   3.759   0.171
 3302SOL    HW121937   2.208   3.843   0.150
 3302SOL    HW221938   2.221   3.694   0.216
 3303SOL     OW21939   2.797   3.960   0.480
 3303SOL    HW121940   2.749   4.001   0.402
 3303SOL    HW221941   2.896   3.958   0.461
 3304SOL     OW21942   2.938   4.407   1.464
 3304SOL    HW121943   2.858   4.346   1.467
 3304SOL    HW221944   3.019   4.354   1.440
 3305SOL     OW21945   3.089   5.294   0.793
 3305SOL    HW121946   3.110   5.368   0.728
 3305SOL    HW221947   3.157   5.294   0.866
 3306SOL     OW21948   2.321   4.876   0.741
 3306SOL    HW121949   2.250   4.849   0.806
 3306SOL    HW221950   2.295   4.848   0.648
 3307SOL     OW21951   3.133   5.521   0.591
 3307SOL    HW121952   3.177   5.585   0.527
 3307SOL    HW221953   3.083   5.573   0.661
 3308SOL     OW21954   2.894   4.273   0.016
 3308SOL    HW121955   2.853   4.355  -0.023
 3308SOL    HW221956   2.958   4.299   0.089
 3309SOL     OW21957   2.423   3.946   1.147
 3309SOL    HW121958   2.461   3.862   1.184
 3309SOL    HW221959   2.335   3.965   1.191
 3310SOL     OW21960   2.728   4.178   0.642
 3310SOL    HW121961   2.696   4.250   0.580
 3310SOL    HW221962   2.752   4.097   0.589
 3311SOL     OW21963   2.879   3.763   0.753
 3311SOL    HW121964   2.807   3.768   0.684
 3311SOL    HW221965   2.855   3.694   0.822
 3312SOL     OW21966   3.291   4.897   0.867
 3312SOL    HW121967   3.236   4.813   0.860
 3312SOL    HW221968   3.317   4.926   0.775
 3313SOL     OW21969   3.328   4.314   0.992
 3313SOL    HW121970   3.298   4.219   0.999
 3313SOL    HW221971   3.401   4.330   1.058
 3314SOL     OW21972   3.719   4.557   0.377
 3314SOL    HW121973   3.761   4.493   0.441
 3314SOL    HW221974   3.681   4.506   0.299
 3315SOL     OW21975   2.350   5.109   0.174
 3315SOL    HW121976   2.263   5.094   0.221
 3315SOL    HW221977   2.333   5.135   0.079
 3316SOL     OW21978   3.526   5.004   0.657
 3316SOL    HW121979   3.625   5.012   0.671
 3316SOL    HW221980   3.481   5.088   0.688
 3317SOL     OW21981   3.252   4.299   0.078
 3317SOL    HW121982   3.198   4.278   0.159
 3317SOL    HW221983   3.343   4.258   0.087
 3318SOL     OW21984   2.389   3.980   0.328
 3318SOL    HW121985   2.416   3.921   0.253
 3318SOL    HW221986   2.389   4.075   0.297
 3319SOL     OW21987   3.616   4.947   1.588
 3319SOL    HW121988   3.707   4.908   1.575
 3319SOL    HW221989   3.624   5.043   1.612
 3320SOL     OW21990   2.926   5.071   1.340
 3320SOL    HW121991   2.846   5.048   1.395
 3320SOL    HW221992   3.009   5.045   1.389
 3321SOL     OW21993   3.454   5.353   1.625
 3321SOL    HW121994   3.481   5.387   1.535
 3321SOL    HW221995   3.533   5.315   1.671
 3322SOL     OW21996   2.973   4.919   1.100
 3322SOL    HW121997   2.933   4.963   1.181
 3322SOL    HW221998   2.932   4.956   1.017
 3323SOL     OW21999   3.500   4.823   1.079
 3323SOL    HW122000   3.505   4.904   1.138
 3323SOL    HW222001   3.414   4.825   1.028
 3324SOL     OW22002   2.777   3.813   1.402
 3324SOL    HW122003   2.802   3.793   1.307
 3324SOL    HW222004   2.849   3.869   1.444
 3325SOL     OW22005   2.567   4.774   0.368
 3325SOL    HW122006   2.553   4.781   0.467
 3325SOL    HW222007   2.651   4.723   0.350
 3326SOL     OW22008   2.272   4.537   1.251
 3326SOL    HW122009   2.358   4.549   1.301
 3326SOL    HW222010   2.230   4.450   1.278
 3327SOL     OW22011   3.136   4.110   1.262
 3327SOL    HW122012   3.157   4.184   1.326
 3327SOL    HW222013   3.047   4.127   1.219
 3328SOL     OW22014   1.926   5.288   1.331
 3328SOL    HW122015   1.880   5.370   1.297
 3328SOL    HW222016   2.024   5.307   1.340
 3329SOL     OW22017   2.229   4.824   0.501
 3329SOL    HW122018   2.222   4.907   0.445
 3329SOL    HW222019   2.233   4.744   0.441
 3330SOL     OW22020   2.428   4.261   0.865
 3330SOL    HW122021   2.440   4.327   0.791
 3330SOL    HW222022   2.474   4.295   0.948
 3331SOL     OW22023   3.114   5.072   0.388
 3331SOL    HW122024   3.164   5.149   0.428
 3331SOL    HW222025   3.019   5.074   0.420
 3332SOL     OW22026   3.134   5.169   1.142
 3332SOL    HW122027   3.181   5.182   1.229
 3332SOL    HW222028   3.068   5.095   1.151
 3333SOL     OW22029   3.444   4.363   0.472
 3333SOL    HW122030   3.413   4.424   0.545
 3333SOL    HW222031   3.494   4.415   0.403
 3334SOL     OW22032   2.216   5.234   1.329
 3334SOL    HW122033   2.195   5.190   1.242
 3334SOL    HW222034   2.313   5.260   1.332
 3335SOL     OW22035   2.264   4.475   1.598
 3335SOL    HW122036   2.332   4.530   1.551
 3335SOL    HW222037   2.304   4.387   1.625
 3336SOL     OW22038   3.449   4.503   1.670
 3336SOL    HW122039   3.357   4.541   1.665
 3336SOL    HW222040   3.509   4.550   1.605
 3337SOL     OW22041   2.435   4.594   1.029
 3337SOL    HW122042   2.479   4.683   1.020
 3337SOL    HW222043   2.372   4.594   1.106
 3338SOL     OW22044   3.222   4.586   1.045
 3338SOL    HW122045   3.147   4.586   0.979
 3338SOL    HW222046   3.259   4.494   1.054
 3339SOL     OW22047   3.071   4.249   0.275
 3339SOL    HW122048   3.084   4.165   0.329
 3339SOL    HW222049   3.042   4.323   0.335
 3340SOL     OW22050   1.899   5.034   1.282
 3340SOL    HW122051   1.952   4.985   1.350
 3340SOL    HW222052   1.921   5.132   1.287
 3341SOL     OW22053   2.594   4.358   1.064
 3341SOL    HW122054   2.653   4.332   0.988
 3341SOL    HW222055   2.566   4.454   1.053
 3342SOL     OW22056   3.590   4.659   1.854
 3342SOL    HW122057   3.544   4.652   1.765
 3342SOL    HW222058   3.528   4.703   1.920
 3343SOL     OW22059   2.169   3.787   0.618
 3343SOL    HW122060   2.158   3.881   0.651
 3343SOL    HW222061   2.164   3.724   0.695
 3344SOL     OW22062   3.484   4.091   0.374
 3344SOL    HW122063   3.486   4.015   0.438
 3344SOL    HW222064   3.436   4.168   0.414
 3345SOL     OW22065   2.885   4.490   0.966
 3345SOL    HW122066   2.900   4.511   1.062
 3345SOL    HW222067   2.855   4.395   0.957
 3346SOL     OW22068   3.721   5.242   1.605
 3346SOL    HW122069   3.735   5.269   1.510
 3346SOL    HW222070   3.804   5.264   1.658
 3347SOL     OW22071   3.402   3.998   0.125
 3347SOL    HW122072   3.341   3.923   0.148
 3347SOL    HW222073   3.424   4.050   0.208
 3348SOL     OW22074   3.165   4.562   0.042
 3348SOL    HW122075   3.199   4.469   0.057
 3348SOL    HW222076   3.183   4.589  -0.053
 3349SOL     OW22077   2.930   5.057   0.849
 3349SOL    HW122078   2.937   4.973   0.794
 3349SOL    HW222079   2.992   5.126   0.813
 3350SOL     OW22080   2.181   4.534   0.949
 3350SOL    HW122081   2.274   4.570   0.954
 3350SOL    HW222082   2.175   4.449   1.001
 3351SOL     OW22083   2.201   4.233   1.006
 3351SOL    HW122084   2.149   4.150   0.989
 3351SOL    HW222085   2.278   4.238   0.942
 3352SOL     OW22086   1.950   5.525   0.927
 3352SOL    HW122087   1.908   5.439   0.900
 3352SOL    HW222088   2.044   5.528   0.893
 3353SOL     OW22089   2.366   5.292   0.910
 3353SOL    HW122090   2.432   5.366   0.919
 3353SOL    HW222091   2.410   5.213   0.868
 3354SOL     OW22092   2.864   4.520   1.238
 3354SOL    HW122093   2.905   4.488   1.324
 3354SOL    HW222094   2.768   4.493   1.235
 3355SOL     OW22095   1.902   4.268   1.114
 3355SOL    HW122096   1.987   4.235   1.073
 3355SOL    HW222097   1.915   4.283   1.212
 3356SOL     OW22098   3.231   4.674   1.660
 3356SOL    HW122099   3.270   4.763   1.680
 3356SOL    HW222100   3.241   4.654   1.563
 3357SOL     OW22101   2.677   4.296   0.325
 3357SOL    HW122102   2.684   4.207   0.279
 3357SOL    HW222103   2.583   4.330   0.317
 3358SOL     OW22104   3.519   4.328   1.206
 3358SOL    HW122105   3.481   4.259   1.268
 3358SOL    HW222106   3.601   4.292   1.162
 3359SOL     OW22107   2.533   4.188   1.269
 3359SOL    HW122108   2.499   4.099   1.239
 3359SOL    HW222109   2.559   4.242   1.189
 3360SOL     OW22110   2.792   5.402   1.465
 3360SOL    HW122111   2.768   5.384   1.370
 3360SOL    HW222112   2.822   5.496   1.475
 3361SOL     OW22113   2.335   4.224   0.191
 3361SOL    HW122114   2.396   4.304   0.195
 3361SOL    HW222115   2.240   4.255   0.198
 3362SOL     OW22116   2.021   4.861   1.466
 3362SOL    HW122117   2.043   4.800   1.542
 3362SOL    HW222118   2.031   4.812   1.380
 3363SOL     OW22119   3.209   4.783   1.234
 3363SOL    HW122120   3.233   4.720   1.160
 3363SOL    HW222121   3.119   4.823   1.216
 3364SOL     OW22122   3.164   4.579   0.309
 3364SOL    HW122123   3.078   4.548   0.351
 3364SOL    HW222124   3.160   4.565   0.210
 3365SOL     OW22125   3.621   5.471   1.154
 3365SOL    HW122126   3.682   5.501   1.081
 3365SOL    HW222127   3.583   5.382   1.132
 3366SOL     OW22128   3.114   5.455   1.128
 3366SOL    HW122129   3.198   5.460   1.074
 3366SOL    HW222130   3.091   5.359   1.146
 3367SOL     OW22131   1.945   4.982   1.022
 3367SOL    HW122132   1.940   4.981   1.122
 3367SOL    HW222133   1.862   4.941   0.984
 3368SOL     OW22134   2.765   3.810   0.133
 3368SOL    HW122135   2.816   3.811   0.047
 3368SOL    HW222136   2.821   3.768   0.204
 3369SOL     OW22137   3.588   3.859   0.523
 3369SOL    HW122138   3.661   3.842   0.456
 3369SOL    HW222139   3.557   3.772   0.561
 3370SOL     OW22140   3.250   5.297   0.477
 3370SOL    HW122141   3.317   5.309   0.403
 3370SOL    HW222142   3.210   5.386   0.500
 3371SOL     OW22143   3.142   4.651   0.672
 3371SOL    HW122144   3.202   4.570   0.674
 3371SOL    HW222145   3.182   4.720   0.612
 3372SOL     OW22146   2.692   4.997   1.422
 3372SOL    HW122147   2.687   5.030   1.517
 3372SOL    HW222148   2.606   5.016   1.376
 3373SOL     OW22149   2.534   5.340   0.154
 3373SOL    HW122150   2.543   5.350   0.055
 3373SOL    HW222151   2.494   5.251   0.175
 3374SOL     OW22152   3.512   5.444   1.394
 3374SOL    HW122153   3.565   5.454   1.310
 3374SOL    HW222154   3.485   5.534   1.428
 3375SOL     OW22155   3.703   3.899   0.963
 3375SOL    HW122156   3.742   3.814   0.927
 3375SOL    HW222157   3.605   3.901   0.944
 3376SOL     OW22158   2.125   4.050   0.720
 3376SOL    HW122159   2.046   4.101   0.686
 3376SOL    HW222160   2.116   4.035   0.818
 3377SOL     OW22161   3.056   5.336   0.031
 3377SOL    HW122162   3.062   5.243   0.068
 3377SOL    HW222163   2.997   5.336  -0.049
 3378SOL     OW22164   2.684   4.726   1.372
 3378SOL    HW122165   2.724   4.725   1.280
 3378SOL    HW222166   2.694   4.818   1.412
 3379SOL     OW22167   2.778   4.634   0.291
 3379SOL    HW122168   2.841   4.672   0.223
 3379SOL    HW222169   2.818   4.551   0.330
 3380SOL     OW22170   3.366   5.331   0.044
 3380SOL    HW122171   3.274   5.368   0.051
 3380SOL    HW222172   3.404   5.351  -0.046
 3381SOL     OW22173   2.234   5.012   1.490
 3381SOL    HW122174   2.221   5.105   1.456
 3381SOL    HW222175   2.150   4.960   1.477
 3382SOL     OW22176   3.476   5.016   1.289
 3382SOL    HW122177   3.536   5.019   1.369
 3382SOL    HW222178   3.401   5.080   1.302
 3383SOL     OW22179   2.901   4.822   0.696
 3383SOL    HW122180   2.831   4.775   0.750
 3383SOL    HW222181   2.960   4.754   0.653
 3384SOL     OW22182   2.876   3.960   0.971
 3384SOL    HW122183   2.868   3.924   0.878
 3384SOL    HW222184   2.874   3.884   1.036
 3385SOL     OW22185   2.452   5.211   0.491
 3385SOL    HW122186   2.494   5.153   0.421
 3385SOL    HW222187   2.408   5.290   0.447
 3386SOL     OW22188   3.571   4.109   1.381
 3386SOL    HW122189   3.644   4.178   1.385
 3386SOL    HW222190   3.599   4.034   1.322
 3387SOL     OW22191   2.117   5.072   0.290
 3387SOL    HW122192   2.021   5.073   0.263
 3387SOL    HW222193   2.129   5.125   0.374
 3388SOL     OW22194   2.534   3.927   1.489
 3388SOL    HW122195   2.624   3.911   1.449
 3388SOL    HW222196   2.542   3.932   1.588
 3389SOL     OW22197   1.934   3.890   0.318
 3389SOL    HW122198   1.917   3.973   0.264
 3389SOL    HW222199   2.024   3.853   0.296
 3390SOL     OW22200   3.045   5.059   0.119
 3390SOL    HW122201   2.946   5.048   0.121
 3390SOL    HW222202   3.079   5.074   0.212
 3391SOL     OW22203   2.475   4.566   1.431
 3391SOL    HW122204   2.531   4.647   1.414
 3391SOL    HW222205   2.534   4.486   1.434
 3392SOL     OW22206   3.355   5.491   0.959
 3392SOL    HW122207   3.388   5.555   0.890
 3392SOL    HW222208   3.421   5.485   1.034
 3393SOL     OW22209   3.312   4.944   1.633
 3393SOL    HW122210   3.303   4.934   1.732
 3393SOL    HW222211   3.408   4.937   1.607
 3394SOL     OW22212   3.087   4.049   0.449
 3394SOL    HW122213   3.152   3.975   0.438
 3394SOL    HW222214   3.107   4.099   0.533
 3395SOL     OW22215   2.456   4.469   0.652
 3395SOL    HW122216   2.506   4.554   0.633
 3395SOL    HW222217   2.368   4.471   0.604
 3396SOL     OW22218   3.639   4.066   1.642
 3396SOL    HW122219   3.622   4.097   1.548
 3396SOL    HW222220   3.555   4.029   1.680
 3397SOL     OW22221   3.592   4.658   1.517
 3397SOL    HW122222   3.630   4.749   1.532
 3397SOL    HW222223   3.584   4.641   1.418
 3398SOL     OW22224   2.721   5.098   0.016
 3398SOL    HW122225   2.675   5.113   0.104
 3398SOL    HW222226   2.765   5.183  -0.014
 3399SOL     OW22227   2.523   5.514   0.953
 3399SOL    HW122228   2.477   5.602   0.940
 3399SOL    HW222229   2.622   5.526   0.946
 3400SOL     OW22230   2.721   4.680   0.861
 3400SOL    HW122231   2.775   4.611   0.909
 3400SOL    HW222232   2.689   4.749   0.927
 3401SOL     OW22233   2.945   4.708   0.087
 3401SOL    HW122234   2.922   4.761   0.005
 3401SOL    HW222235   3.026   4.652   0.068
 3402SOL     OW22236   3.723   5.293   0.851
 3402SOL    HW122237   3.652   5.281   0.781
 3402SOL    HW222238   3.724   5.214   0.911
 3403SOL     OW22239   1.941   4.964   0.653
 3403SOL    HW122240   1.940   4.917   0.741
 3403SOL    HW222241   2.023   4.936   0.602
 3404SOL     OW22242   3.686   3.916   1.227
 3404SOL    HW122243   3.682   3.826   1.271
 3404SOL    HW222244   3.689   3.905   1.128
 3405SOL     OW22245   2.290   4.148   0.520
 3405SOL    HW122246   2.320   4.076   0.458
 3405SOL    HW222247   2.251   4.108   0.603
 3406SOL     OW22248   3.567   5.211   1.104
 3406SOL    HW122249   3.474   5.186   1.077
 3406SOL    HW222250   3.593   5.161   1.186
 3407SOL     OW22251   2.179   4.271   1.280
 3407SOL    HW122252   2.217   4.212   1.352
 3407SOL    HW222253   2.219   4.245   1.192
 3408SOL     OW22254   2.674   5.310   0.687
 3408SOL    HW122255   2.706   5.320   0.593
 3408SOL    HW222256   2.595   5.248   0.689
 3409SOL     OW22257   3.286   3.938   1.112
 3409SOL    HW122258   3.338   3.873   1.167
 3409SOL    HW222259   3.237   4.001   1.173
 3410SOL     OW22260   2.863   3.758   1.154
 3410SOL    HW122261   2.800   3.686   1.123
 3410SOL    HW222262   2.956   3.722   1.154
 3411SOL     OW22263   2.632   5.054   0.301
 3411SOL    HW122264   2.586   4.967   0.318
 3411SOL    HW222265   2.723   5.051   0.342
 3412SOL     OW22266   2.480   5.291   1.284
 3412SOL    HW122267   2.475   5.373   1.341
 3412SOL    HW222268   2.569   5.288   1.239
 3413SOL     OW22269   3.214   3.776   0.168
 3413SOL    HW122270   3.249   3.735   0.084
 3413SOL    HW222271   3.124   3.738   0.188
 3414SOL     OW22272   3.162   4.177   0.691
 3414SOL    HW122273   3.103   4.257   0.695
 3414SOL    HW222274   3.177   4.142   0.784
 3415SOL     OW22275   3.455   3.945   0.882
 3415SOL    HW122276   3.371   3.944   0.936
 3415SOL    HW222277   3.457   4.028   0.826
 3416SOL     OW22278   1.901   4.801   0.300
 3416SOL    HW122279   2.000   4.790   0.291
 3416SOL    HW222280   1.861   4.715   0.332
 3417SOL     OW22281   2.737   5.370   0.337
 3417SOL    HW122282   2.660   5.335   0.283
 3417SOL    HW222283   2.705   5.441   0.399
 3418SOL     OW22284   1.881   4.092   2.509
 3418SOL    HW122285   1.799   4.135   2.548
 3418SOL    HW222286   1.853   4.019   2.446
 3419SOL     OW22287   2.431   4.999   3.027
 3419SOL    HW122288   2.338   4.992   2.990
 3419SOL    HW222289   2.442   5.088   3.071
 3420SOL     OW22290   2.997   4.427   2.579
 3420SOL    HW122291   3.054   4.505   2.554
 3420SOL    HW222292   2.937   4.453   2.655
 3421SOL     OW22293   3.617   4.331   2.093
 3421SOL    HW122294   3.605   4.318   1.994
 3421SOL    HW222295   3.587   4.250   2.142
 3422SOL     OW22296   2.630   4.868   2.885
 3422SOL    HW122297   2.552   4.885   2.945
 3422SOL    HW222298   2.664   4.955   2.849
 3423SOL     OW22299   2.300   4.116   3.361
 3423SOL    HW122300   2.382   4.060   3.370
 3423SOL    HW222301   2.219   4.058   3.365
 3424SOL     OW22302   3.465   4.171   2.599
 3424SOL    HW122303   3.391   4.217   2.549
 3424SOL    HW222304   3.516   4.239   2.652
 3425SOL     OW22305   2.093   5.437   2.345
 3425SOL    HW122306   2.127   5.514   2.399
 3425SOL    HW222307   2.137   5.437   2.255
 3426SOL     OW22308   1.975   4.461   3.459
 3426SOL    HW122309   2.063   4.448   3.504
 3426SOL    HW222310   1.962   4.558   3.437
 3427SOL     OW22311   3.155   4.952   3.285
 3427SOL    HW122312   3.192   4.879   3.227
 3427SOL    HW222313   3.207   4.957   3.370
 3428SOL     OW22314   2.669   4.329   3.327
 3428SOL    HW122315   2.622   4.326   3.416
 3428SOL    HW222316   2.618   4.274   3.261
 3429SOL     OW22317   3.256   4.193   3.536
 3429SOL    HW122318   3.236   4.236   3.624
 3429SOL    HW222319   3.334   4.131   3.545
 3430SOL     OW22320   2.853   4.134   3.104
 3430SOL    HW122321   2.776   4.168   3.158
 3430SOL    HW222322   2.819   4.083   3.025
 3431SOL     OW22323   2.903   4.425   2.291
 3431SOL    HW122324   2.929   4.421   2.387
 3431SOL    HW222325   2.818   4.374   2.277
 3432SOL     OW22326   3.657   4.790   2.735
 3432SOL    HW122327   3.595   4.775   2.659
 3432SOL    HW222328   3.605   4.801   2.820
 3433SOL     OW22329   2.183   4.667   2.104
 3433SOL    HW122330   2.265   4.706   2.062
 3433SOL    HW222331   2.156   4.585   2.055
 3434SOL     OW22332   3.494   5.101   1.943
 3434SOL    HW122333   3.462   5.195   1.933
 3434SOL    HW222334   3.418   5.038   1.931
 3435SOL     OW22335   2.643   3.988   3.611
 3435SOL    HW122336   2.710   3.927   3.654
 3435SOL    HW222337   2.570   4.007   3.676
 3436SOL     OW22338   3.296   4.912   1.903
 3436SOL    HW122339   3.328   4.836   1.960
 3436SOL    HW222340   3.204   4.939   1.933
 3437SOL     OW22341   2.159   3.759   2.033
 3437SOL    HW122342   2.208   3.843   2.012
 3437SOL    HW222343   2.221   3.694   2.078
 3438SOL     OW22344   2.797   3.960   2.342
 3438SOL    HW122345   2.749   4.001   2.264
 3438SOL    HW222346   2.896   3.958   2.323
 3439SOL     OW22347   3.291   4.897   2.729
 3439SOL    HW122348   3.236   4.813   2.722
 3439SOL    HW222349   3.317   4.926   2.637
 3440SOL     OW22350   2.350   5.109   2.036
 3440SOL    HW122351   2.263   5.094   2.083
 3440SOL    HW222352   2.333   5.135   1.941
 3441SOL     OW22353   3.616   4.947   3.450
 3441SOL    HW122354   3.707   4.908   3.437
 3441SOL    HW222355   3.624   5.043   3.474
 3442SOL     OW22356   3.454   5.353   3.487
 3442SOL    HW122357   3.481   5.387   3.397
 3442SOL    HW222358   3.533   5.315   3.533
 3443SOL     OW22359   3.500   4.823   2.941
 3443SOL    HW122360   3.505   4.904   3.000
 3443SOL    HW222361   3.414   4.825   2.890
 3444SOL     OW22362   2.842   4.840   3.581
 3444SOL    HW122363   2.743   4.846   3.591
 3444SOL    HW222364   2.865   4.760   3.525
 3445SOL     OW22365   2.272   4.537   3.113
 3445SOL    HW122366   2.358   4.549   3.163
 3445SOL    HW222367   2.230   4.450   3.140
 3446SOL     OW22368   3.136   4.110   3.124
 3446SOL    HW122369   3.157   4.184   3.188
 3446SOL    HW222370   3.047   4.127   3.081
 3447SOL     OW22371   2.229   4.824   2.363
 3447SOL    HW122372   2.222   4.907   2.307
 3447SOL    HW222373   2.233   4.744   2.303
 3448SOL     OW22374   3.134   5.169   3.004
 3448SOL    HW122375   3.181   5.182   3.091
 3448SOL    HW222376   3.068   5.095   3.013
 3449SOL     OW22377   2.264   4.475   3.460
 3449SOL    HW122378   2.332   4.530   3.413
 3449SOL    HW222379   2.304   4.387   3.487
 3450SOL     OW22380   3.222   4.586   2.907
 3450SOL    HW122381   3.147   4.586   2.841
 3450SOL    HW222382   3.259   4.494   2.916
 3451SOL     OW22383   2.594   4.358   2.926
 3451SOL    HW122384   2.653   4.332   2.850
 3451SOL    HW222385   2.566   4.454   2.915
 3452SOL     OW22386   3.484   4.091   2.236
 3452SOL    HW122387   3.486   4.015   2.300
 3452SOL    HW222388   3.436   4.168   2.276
 3453SOL     OW22389   3.721   5.242   3.467
 3453SOL    HW122390   3.735   5.269   3.372
 3453SOL    HW222391   3.804   5.264   3.520
 3454SOL     OW22392   2.212   4.622   3.666
 3454SOL    HW122393   2.288   4.666   3.714
 3454SOL    HW222394   2.247   4.575   3.584
 3455SOL     OW22395   2.930   5.057   2.711
 3455SOL    HW122396   2.937   4.973   2.656
 3455SOL    HW222397   2.992   5.126   2.675
 3456SOL     OW22398   2.051   4.244   3.584
 3456SOL    HW122399   2.110   4.204   3.514
 3456SOL    HW222400   1.993   4.315   3.543
 3457SOL     OW22401   3.231   4.674   3.522
 3457SOL    HW122402   3.270   4.763   3.542
 3457SOL    HW222403   3.241   4.654   3.425
 3458SOL     OW22404   2.677   4.296   2.187
 3458SOL    HW122405   2.684   4.207   2.141
 3458SOL    HW222406   2.583   4.330   2.179
 3459SOL     OW22407   2.021   4.861   3.328
 3459SOL    HW122408   2.043   4.800   3.404
 3459SOL    HW222409   2.031   4.812   3.242
 3460SOL     OW22410   3.114   5.455   2.990
 3460SOL    HW122411   3.198   5.460   2.936
 3460SOL    HW222412   3.091   5.359   3.008
 3461SOL     OW22413   2.550   5.386   3.578
 3461SOL    HW122414   2.494   5.467   3.587
 3461SOL    HW222415   2.602   5.390   3.492
 3462SOL     OW22416   3.250   5.297   2.339
 3462SOL    HW122417   3.317   5.309   2.265
 3462SOL    HW222418   3.210   5.386   2.362
 3463SOL     OW22419   1.992   5.518   3.713
 3463SOL    HW122420   1.951   5.444   3.766
 3463SOL    HW222421   2.056   5.569   3.771
 3464SOL     OW22422   2.692   4.997   3.284
 3464SOL    HW122423   2.687   5.030   3.379
 3464SOL    HW222424   2.606   5.016   3.238
 3465SOL     OW22425   2.117   5.072   2.152
 3465SOL    HW122426   2.021   5.073   2.125
 3465SOL    HW222427   2.129   5.125   2.236
 3466SOL     OW22428   1.934   3.890   2.180
 3466SOL    HW122429   1.917   3.973   2.126
 3466SOL    HW222430   2.024   3.853   2.158
 3467SOL     OW22431   3.355   5.491   2.821
 3467SOL    HW122432   3.388   5.555   2.752
 3467SOL    HW222433   3.421   5.485   2.896
 3468SOL     OW22434   3.312   4.944   3.495
 3468SOL    HW122435   3.303   4.934   3.594
 3468SOL    HW222436   3.408   4.937   3.469
 3469SOL     OW22437   2.721   4.680   2.723
 3469SOL    HW122438   2.775   4.611   2.771
 3469SOL    HW222439   2.689   4.749   2.789
 3470SOL     OW22440   2.534   5.115   3.486
 3470SOL    HW122441   2.456   5.065   3.524
 3470SOL    HW222442   2.531   5.210   3.517
 3471SOL     OW22443   2.290   4.148   2.382
 3471SOL    HW122444   2.320   4.076   2.320
 3471SOL    HW222445   2.251   4.108   2.465
 3472SOL     OW22446   2.674   5.310   2.549
 3472SOL    HW122447   2.706   5.320   2.455
 3472SOL    HW222448   2.595   5.248   2.551
 3473SOL     OW22449   2.087   3.999   4.720
 3473SOL    HW122450   2.122   3.982   4.812
 3473SOL    HW222451   1.999   3.954   4.708
 3474SOL     OW22452   2.431   4.999   4.889
 3474SOL    HW122453   2.338   4.992   4.852
 3474SOL    HW222454   2.442   5.088   4.933
 3475SOL     OW22455   3.417   5.235   4.427
 3475SOL    HW122456   3.360   5.219   4.508
 3475SOL    HW222457   3.358   5.245   4.347
 3476SOL     OW22458   2.630   4.868   4.747
 3476SOL    HW122459   2.552   4.885   4.807
 3476SOL    HW222460   2.664   4.955   4.711
 3477SOL     OW22461   2.712   4.522   5.547
 3477SOL    HW122462   2.708   4.598   5.612
 3477SOL    HW222463   2.734   4.558   5.456
 3478SOL     OW22464   2.547   4.736   4.389
 3478SOL    HW122465   2.616   4.720   4.459
 3478SOL    HW222466   2.474   4.793   4.427
 3479SOL     OW22467   2.197   5.159   4.785
 3479SOL    HW122468   2.119   5.128   4.732
 3479SOL    HW222469   2.255   5.217   4.728
 3480SOL     OW22470   2.482   5.510   5.163
 3480SOL    HW122471   2.390   5.493   5.198
 3480SOL    HW222472   2.510   5.602   5.189
 3481SOL     OW22473   3.456   3.838   5.204
 3481SOL    HW122474   3.438   3.905   5.132
 3481SOL    HW222475   3.453   3.884   5.293
 3482SOL     OW22476   1.984   4.367   4.287
 3482SOL    HW122477   1.939   4.279   4.304
 3482SOL    HW222478   1.983   4.421   4.371
 3483SOL     OW22479   1.889   5.320   3.841
 3483SOL    HW122480   1.870   5.224   3.862
 3483SOL    HW222481   1.856   5.378   3.916
 3484SOL     OW22482   1.975   4.461   5.321
 3484SOL    HW122483   2.063   4.448   5.366
 3484SOL    HW222484   1.962   4.558   5.299
 3485SOL     OW22485   2.671   3.728   4.226
 3485SOL    HW122486   2.711   3.819   4.217
 3485SOL    HW222487   2.571   3.736   4.232
 3486SOL     OW22488   2.059   4.700   4.988
 3486SOL    HW122489   2.148   4.655   4.974
 3486SOL    HW222490   1.986   4.635   4.969
 3487SOL     OW22491   3.387   4.723   3.914
 3487SOL    HW122492   3.324   4.647   3.927
 3487SOL    HW222493   3.435   4.741   4.000
 3488SOL     OW22494   2.460   4.453   3.994
 3488SOL    HW122495   2.484   4.522   3.926
 3488SOL    HW222496   2.382   4.486   4.048
 3489SOL     OW22497   2.669   4.329   5.189
 3489SOL    HW122498   2.622   4.326   5.278
 3489SOL    HW222499   2.618   4.274   5.123
 3490SOL     OW22500   2.903   4.425   4.153
 3490SOL    HW122501   2.929   4.421   4.249
 3490SOL    HW222502   2.818   4.374   4.139
 3491SOL     OW22503   1.938   4.535   4.513
 3491SOL    HW122504   2.037   4.523   4.522
 3491SOL    HW222505   1.914   4.630   4.534
 3492SOL     OW22506   1.992   5.545   5.295
 3492SOL    HW122507   1.982   5.530   5.394
 3492SOL    HW222508   1.906   5.581   5.259
 3493SOL     OW22509   3.657   4.790   4.597
 3493SOL    HW122510   3.595   4.775   4.521
 3493SOL    HW222511   3.605   4.801   4.682
 3494SOL     OW22512   3.494   5.101   3.805
 3494SOL    HW122513   3.462   5.195   3.795
 3494SOL    HW222514   3.418   5.038   3.793
 3495SOL     OW22515   2.244   4.424   4.204
 3495SOL    HW122516   2.289   4.334   4.201
 3495SOL    HW222517   2.150   4.413   4.237
 3496SOL     OW22518   2.476   3.846   3.841
 3496SOL    HW122519   2.574   3.824   3.848
 3496SOL    HW222520   2.445   3.829   3.748
 3497SOL     OW22521   2.938   4.407   5.188
 3497SOL    HW122522   2.858   4.346   5.191
 3497SOL    HW222523   3.019   4.354   5.164
 3498SOL     OW22524   3.089   5.294   4.517
 3498SOL    HW122525   3.110   5.368   4.452
 3498SOL    HW222526   3.157   5.294   4.590
 3499SOL     OW22527   1.940   4.280   5.110
 3499SOL    HW122528   2.032   4.279   5.069
 3499SOL    HW222529   1.934   4.354   5.177
 3500SOL     OW22530   2.423   3.946   4.871
 3500SOL    HW122531   2.461   3.862   4.908
 3500SOL    HW222532   2.335   3.965   4.915
 3501SOL     OW22533   2.879   3.763   4.477
 3501SOL    HW122534   2.807   3.768   4.408
 3501SOL    HW222535   2.855   3.694   4.546
 3502SOL     OW22536   3.328   4.314   4.716
 3502SOL    HW122537   3.298   4.219   4.723
 3502SOL    HW222538   3.401   4.330   4.782
 3503SOL     OW22539   2.350   5.109   3.898
 3503SOL    HW122540   2.263   5.094   3.945
 3503SOL    HW222541   2.333   5.135   3.803
 3504SOL     OW22542   2.389   3.980   4.052
 3504SOL    HW122543   2.416   3.921   3.977
 3504SOL    HW222544   2.389   4.075   4.021
 3505SOL     OW22545   2.926   5.071   5.064
 3505SOL    HW122546   2.846   5.048   5.119
 3505SOL    HW222547   3.009   5.045   5.113
 3506SOL     OW22548   3.500   4.823   4.803
 3506SOL    HW122549   3.505   4.904   4.862
 3506SOL    HW222550   3.414   4.825   4.752
 3507SOL     OW22551   2.567   4.774   4.092
 3507SOL    HW122552   2.553   4.781   4.191
 3507SOL    HW222553   2.651   4.723   4.074
 3508SOL     OW22554   3.444   4.363   4.196
 3508SOL    HW122555   3.413   4.424   4.269
 3508SOL    HW222556   3.494   4.415   4.127
 3509SOL     OW22557   2.216   5.234   5.053
 3509SOL    HW122558   2.195   5.190   4.966
 3509SOL    HW222559   2.313   5.260   5.056
 3510SOL     OW22560   2.875   3.829   5.494
 3510SOL    HW122561   2.881   3.914   5.442
 3510SOL    HW222562   2.907   3.753   5.437
 3511SOL     OW22563   2.594   4.358   4.788
 3511SOL    HW122564   2.653   4.332   4.712
 3511SOL    HW222565   2.566   4.454   4.777
 3512SOL     OW22566   3.484   4.091   4.098
 3512SOL    HW122567   3.486   4.015   4.162
 3512SOL    HW222568   3.436   4.168   4.138
 3513SOL     OW22569   2.212   4.622   5.528
 3513SOL    HW122570   2.288   4.666   5.576
 3513SOL    HW222571   2.247   4.575   5.446
 3514SOL     OW22572   2.930   5.057   4.573
 3514SOL    HW122573   2.937   4.973   4.518
 3514SOL    HW222574   2.992   5.126   4.537
 3515SOL     OW22575   3.000   4.104   5.402
 3515SOL    HW122576   2.955   4.167   5.466
 3515SOL    HW222577   3.093   4.135   5.385
 3516SOL     OW22578   1.870   5.050   3.924
 3516SOL    HW122579   1.777   5.071   3.893
 3516SOL    HW222580   1.880   4.951   3.937
 3517SOL     OW22581   1.950   5.525   4.651
 3517SOL    HW122582   1.908   5.439   4.624
 3517SOL    HW222583   2.044   5.528   4.617
 3518SOL     OW22584   2.051   4.244   5.446
 3518SOL    HW122585   2.110   4.204   5.376
 3518SOL    HW222586   1.993   4.315   5.405
 3519SOL     OW22587   3.519   4.328   4.930
 3519SOL    HW122588   3.481   4.259   4.992
 3519SOL    HW222589   3.601   4.292   4.886
 3520SOL     OW22590   2.114   5.288   5.468
 3520SOL    HW122591   2.084   5.345   5.544
 3520SOL    HW222592   2.107   5.191   5.494
 3521SOL     OW22593   2.335   4.224   3.915
 3521SOL    HW122594   2.396   4.304   3.919
 3521SOL    HW222595   2.240   4.255   3.922
 3522SOL     OW22596   2.021   4.861   5.190
 3522SOL    HW122597   2.043   4.800   5.266
 3522SOL    HW222598   2.031   4.812   5.104
 3523SOL     OW22599   3.114   5.455   4.852
 3523SOL    HW122600   3.198   5.460   4.798
 3523SOL    HW222601   3.091   5.359   4.870
 3524SOL     OW22602   1.945   4.982   4.746
 3524SOL    HW122603   1.940   4.981   4.846
 3524SOL    HW222604   1.862   4.941   4.708
 3525SOL     OW22605   3.250   5.297   4.201
 3525SOL    HW122606   3.317   5.309   4.127
 3525SOL    HW222607   3.210   5.386   4.224
 3526SOL     OW22608   1.992   5.518   5.575
 3526SOL    HW122609   1.951   5.444   5.628
 3526SOL    HW222610   2.056   5.569   5.633
 3527SOL     OW22611   3.142   4.651   4.396
 3527SOL    HW122612   3.202   4.570   4.398
 3527SOL    HW222613   3.182   4.720   4.336
 3528SOL     OW22614   2.534   5.340   3.878
 3528SOL    HW122615   2.543   5.350   3.779
 3528SOL    HW222616   2.494   5.251   3.899
 3529SOL     OW22617   2.125   4.050   4.444
 3529SOL    HW122618   2.046   4.101   4.410
 3529SOL    HW222619   2.116   4.035   4.542
 3530SOL     OW22620   2.684   4.726   5.096
 3530SOL    HW122621   2.724   4.725   5.004
 3530SOL    HW222622   2.694   4.818   5.136
 3531SOL     OW22623   2.234   5.012   5.214
 3531SOL    HW122624   2.221   5.105   5.180
 3531SOL    HW222625   2.150   4.960   5.201
 3532SOL     OW22626   1.967   4.737   5.450
 3532SOL    HW122627   1.890   4.704   5.504
 3532SOL    HW222628   2.052   4.707   5.492
 3533SOL     OW22629   1.934   3.890   4.042
 3533SOL    HW122630   1.917   3.973   3.988
 3533SOL    HW222631   2.024   3.853   4.020
 3534SOL     OW22632   3.355   5.491   4.683
 3534SOL    HW122633   3.388   5.555   4.614
 3534SOL    HW222634   3.421   5.485   4.758
 3535SOL     OW22635   2.252   5.465   5.284
 3535SOL    HW122636   2.161   5.506   5.282
 3535SOL    HW222637   2.245   5.371   5.316
 3536SOL     OW22638   3.536   4.607   4.978
 3536SOL    HW122639   3.509   4.518   4.941
 3536SOL    HW222640   3.537   4.675   4.905
 3537SOL     OW22641   3.087   4.049   4.173
 3537SOL    HW122642   3.152   3.975   4.162
 3537SOL    HW222643   3.107   4.099   4.257
 3538SOL     OW22644   2.721   5.098   3.740
 3538SOL    HW122645   2.675   5.113   3.828
 3538SOL    HW222646   2.765   5.183   3.710
 3539SOL     OW22647   2.083   5.038   5.568
 3539SOL    HW122648   2.018   4.965   5.547
 3539SOL    HW222649   2.087   5.052   5.666
 3540SOL     OW22650   1.941   4.964   4.377
 3540SOL    HW122651   1.940   4.917   4.465
 3540SOL    HW222652   2.023   4.936   4.326
 3541SOL     OW22653   2.290   4.148   4.244
 3541SOL    HW122654   2.320   4.076   4.182
 3541SOL    HW222655   2.251   4.108   4.327
 3542SOL     OW22656   3.567   5.211   4.828
 3542SOL    HW122657   3.474   5.186   4.801
 3542SOL    HW222658   3.593   5.161   4.910
 3543SOL     OW22659   1.901   4.801   4.024
 3543SOL    HW122660   2.000   4.790   4.015
 3543SOL    HW222661   1.861   4.715   4.056
 3544SOL     OW22662   2.087   3.999   6.582
 3544SOL    HW122663   2.122   3.982   6.674
 3544SOL    HW222664   1.999   3.954   6.570
 3545SOL     OW22665   1.881   4.092   6.233
 3545SOL    HW122666   1.799   4.135   6.272
 3545SOL    HW222667   1.853   4.019   6.170
 3546SOL     OW22668   2.431   4.999   6.751
 3546SOL    HW122669   2.338   4.992   6.714
 3546SOL    HW222670   2.442   5.088   6.795
 3547SOL     OW22671   3.417   5.235   6.289
 3547SOL    HW122672   3.360   5.219   6.370
 3547SOL    HW222673   3.358   5.245   6.209
 3548SOL     OW22674   2.997   4.427   6.303
 3548SOL    HW122675   3.054   4.505   6.278
 3548SOL    HW222676   2.937   4.453   6.379
 3549SOL     OW22677   3.617   4.331   5.817
 3549SOL    HW122678   3.605   4.318   5.718
 3549SOL    HW222679   3.587   4.250   5.866
 3550SOL     OW22680   2.630   4.868   6.609
 3550SOL    HW122681   2.552   4.885   6.669
 3550SOL    HW222682   2.664   4.955   6.573
 3551SOL     OW22683   2.547   4.736   6.251
 3551SOL    HW122684   2.616   4.720   6.321
 3551SOL    HW222685   2.474   4.793   6.289
 3552SOL     OW22686   2.197   5.159   6.647
 3552SOL    HW122687   2.119   5.128   6.594
 3552SOL    HW222688   2.255   5.217   6.590
 3553SOL     OW22689   2.093   5.437   6.069
 3553SOL    HW122690   2.127   5.514   6.123
 3553SOL    HW222691   2.137   5.437   5.979
 3554SOL     OW22692   2.092   5.158   6.124
 3554SOL    HW122693   2.066   5.254   6.124
 3554SOL    HW222694   2.021   5.104   6.169
 3555SOL     OW22695   2.102   4.815   6.472
 3555SOL    HW122696   2.116   4.731   6.524
 3555SOL    HW222697   2.047   4.879   6.527
 3556SOL     OW22698   2.482   5.510   7.025
 3556SOL    HW122699   2.390   5.493   7.060
 3556SOL    HW222700   2.510   5.602   7.051
 3557SOL     OW22701   2.468   4.688   5.709
 3557SOL    HW122702   2.475   4.772   5.655
 3557SOL    HW222703   2.514   4.701   5.797
 3558SOL     OW22704   1.984   4.367   6.149
 3558SOL    HW122705   1.939   4.279   6.166
 3558SOL    HW222706   1.983   4.421   6.233
 3559SOL     OW22707   3.704   5.491   5.945
 3559SOL    HW122708   3.758   5.462   6.025
 3559SOL    HW222709   3.734   5.581   5.916
 3560SOL     OW22710   1.889   5.320   5.703
 3560SOL    HW122711   1.870   5.224   5.724
 3560SOL    HW222712   1.856   5.378   5.778
 3561SOL     OW22713   3.551   4.646   6.198
 3561SOL    HW122714   3.646   4.617   6.206
 3561SOL    HW222715   3.543   4.711   6.123
 3562SOL     OW22716   3.503   4.832   6.018
 3562SOL    HW122717   3.589   4.834   5.966
 3562SOL    HW222718   3.517   4.879   6.106
 3563SOL     OW22719   2.475   5.089   6.312
 3563SOL    HW122720   2.426   5.002   6.321
 3563SOL    HW222721   2.452   5.132   6.225
 3564SOL     OW22722   2.671   3.728   6.088
 3564SOL    HW122723   2.711   3.819   6.079
 3564SOL    HW222724   2.571   3.736   6.094
 3565SOL     OW22725   2.059   4.700   6.850
 3565SOL    HW122726   2.148   4.655   6.836
 3565SOL    HW222727   1.986   4.635   6.831
 3566SOL     OW22728   3.328   5.141   6.539
 3566SOL    HW122729   3.269   5.147   6.619
 3566SOL    HW222730   3.313   5.053   6.493
 3567SOL     OW22731   3.529   5.438   6.158
 3567SOL    HW122732   3.488   5.415   6.070
 3567SOL    HW222733   3.511   5.364   6.223
 3568SOL     OW22734   2.460   4.453   5.856
 3568SOL    HW122735   2.484   4.522   5.788
 3568SOL    HW222736   2.382   4.486   5.910
 3569SOL     OW22737   3.143   4.069   6.530
 3569SOL    HW122738   3.057   4.019   6.517
 3569SOL    HW222739   3.205   4.015   6.586
 3570SOL     OW22740   3.438   5.386   5.893
 3570SOL    HW122741   3.527   5.432   5.896
 3570SOL    HW222742   3.417   5.362   5.798
 3571SOL     OW22743   2.853   4.134   6.828
 3571SOL    HW122744   2.776   4.168   6.882
 3571SOL    HW222745   2.819   4.083   6.749
 3572SOL     OW22746   2.903   4.425   6.015
 3572SOL    HW122747   2.929   4.421   6.111
 3572SOL    HW222748   2.818   4.374   6.001
 3573SOL     OW22749   1.938   4.535   6.375
 3573SOL    HW122750   2.037   4.523   6.384
 3573SOL    HW222751   1.914   4.630   6.396
 3574SOL     OW22752   2.727   4.072   5.781
 3574SOL    HW122753   2.786   4.135   5.732
 3574SOL    HW222754   2.746   3.978   5.752
 3575SOL     OW22755   3.224   4.868   6.131
 3575SOL    HW122756   3.307   4.839   6.083
 3575SOL    HW222757   3.175   4.935   6.075
 3576SOL     OW22758   2.412   3.920   6.471
 3576SOL    HW122759   2.407   3.915   6.571
 3576SOL    HW222760   2.414   4.016   6.442
 3577SOL     OW22761   2.870   5.180   6.063
 3577SOL    HW122762   2.824   5.252   6.011
 3577SOL    HW222763   2.866   5.200   6.161
 3578SOL     OW22764   2.213   5.525   6.439
 3578SOL    HW122765   2.263   5.439   6.445
 3578SOL    HW222766   2.278   5.602   6.436
 3579SOL     OW22767   3.657   4.790   6.459
 3579SOL    HW122768   3.595   4.775   6.383
 3579SOL    HW222769   3.605   4.801   6.544
 3580SOL     OW22770   2.183   4.667   5.828
 3580SOL    HW122771   2.265   4.706   5.786
 3580SOL    HW222772   2.156   4.585   5.779
 3581SOL     OW22773   3.320   4.459   6.314
 3581SOL    HW122774   3.315   4.394   6.389
 3581SOL    HW222775   3.400   4.518   6.327
 3582SOL     OW22776   2.973   5.500   5.823
 3582SOL    HW122777   2.913   5.438   5.873
 3582SOL    HW222778   3.004   5.456   5.738
 3583SOL     OW22779   3.494   5.101   5.667
 3583SOL    HW122780   3.462   5.195   5.657
 3583SOL    HW222781   3.418   5.038   5.655
 3584SOL     OW22782   2.326   5.467   5.909
 3584SOL    HW122783   2.359   5.506   5.995
 3584SOL    HW222784   2.402   5.460   5.844
 3585SOL     OW22785   3.262   3.831   6.012
 3585SOL    HW122786   3.238   3.794   5.922
 3585SOL    HW222787   3.361   3.847   6.016
 3586SOL     OW22788   2.111   5.509   6.827
 3586SOL    HW122789   2.168   5.444   6.877
 3586SOL    HW222790   2.095   5.476   6.734
 3587SOL     OW22791   2.802   5.422   6.490
 3587SOL    HW122792   2.882   5.365   6.511
 3587SOL    HW222793   2.753   5.382   6.413
 3588SOL     OW22794   2.244   4.424   6.066
 3588SOL    HW122795   2.289   4.334   6.063
 3588SOL    HW222796   2.150   4.413   6.099
 3589SOL     OW22797   2.476   3.846   5.703
 3589SOL    HW122798   2.574   3.824   5.710
 3589SOL    HW222799   2.445   3.829   5.610
 3590SOL     OW22800   2.665   5.126   6.510
 3590SOL    HW122801   2.755   5.140   6.468
 3590SOL    HW222802   2.594   5.128   6.439
 3591SOL     OW22803   2.784   4.227   6.485
 3591SOL    HW122804   2.759   4.218   6.389
 3591SOL    HW222805   2.832   4.145   6.516
 3592SOL     OW22806   2.401   3.788   6.098
 3592SOL    HW122807   2.320   3.789   6.156
 3592SOL    HW222808   2.404   3.871   6.043
 3593SOL     OW22809   2.159   3.759   5.757
 3593SOL    HW122810   2.208   3.843   5.736
 3593SOL    HW222811   2.221   3.694   5.802
 3594SOL     OW22812   2.797   3.960   6.066
 3594SOL    HW122813   2.749   4.001   5.988
 3594SOL    HW222814   2.896   3.958   6.047
 3595SOL     OW22815   3.089   5.294   6.379
 3595SOL    HW122816   3.110   5.368   6.314
 3595SOL    HW222817   3.157   5.294   6.452
 3596SOL     OW22818   2.321   4.876   6.327
 3596SOL    HW122819   2.250   4.849   6.392
 3596SOL    HW222820   2.295   4.848   6.234
 3597SOL     OW22821   3.133   5.521   6.177
 3597SOL    HW122822   3.177   5.585   6.113
 3597SOL    HW222823   3.083   5.573   6.247
 3598SOL     OW22824   2.894   4.273   5.602
 3598SOL    HW122825   2.853   4.355   5.563
 3598SOL    HW222826   2.958   4.299   5.675
 3599SOL     OW22827   2.423   3.946   6.733
 3599SOL    HW122828   2.461   3.862   6.770
 3599SOL    HW222829   2.335   3.965   6.777
 3600SOL     OW22830   2.728   4.178   6.228
 3600SOL    HW122831   2.696   4.250   6.166
 3600SOL    HW222832   2.752   4.097   6.175
 3601SOL     OW22833   2.879   3.763   6.339
 3601SOL    HW122834   2.807   3.768   6.270
 3601SOL    HW222835   2.855   3.694   6.408
 3602SOL     OW22836   3.291   4.897   6.453
 3602SOL    HW122837   3.236   4.813   6.446
 3602SOL    HW222838   3.317   4.926   6.361
 3603SOL     OW22839   3.328   4.314   6.578
 3603SOL    HW122840   3.298   4.219   6.585
 3603SOL    HW222841   3.401   4.330   6.644
 3604SOL     OW22842   3.719   4.557   5.963
 3604SOL    HW122843   3.761   4.493   6.027
 3604SOL    HW222844   3.681   4.506   5.885
 3605SOL     OW22845   3.526   5.004   6.243
 3605SOL    HW122846   3.625   5.012   6.257
 3605SOL    HW222847   3.481   5.088   6.274
 3606SOL     OW22848   3.252   4.299   5.664
 3606SOL    HW122849   3.198   4.278   5.745
 3606SOL    HW222850   3.343   4.258   5.673
 3607SOL     OW22851   2.389   3.980   5.914
 3607SOL    HW122852   2.416   3.921   5.839
 3607SOL    HW222853   2.389   4.075   5.883
 3608SOL     OW22854   2.973   4.919   6.686
 3608SOL    HW122855   2.933   4.963   6.767
 3608SOL    HW222856   2.932   4.956   6.603
 3609SOL     OW22857   3.500   4.823   6.665
 3609SOL    HW122858   3.505   4.904   6.724
 3609SOL    HW222859   3.414   4.825   6.614
 3610SOL     OW22860   2.567   4.774   5.954
 3610SOL    HW122861   2.553   4.781   6.053
 3610SOL    HW222862   2.651   4.723   5.936
 3611SOL     OW22863   2.272   4.537   6.837
 3611SOL    HW122864   2.358   4.549   6.887
 3611SOL    HW222865   2.230   4.450   6.864
 3612SOL     OW22866   3.136   4.110   6.848
 3612SOL    HW122867   3.157   4.184   6.912
 3612SOL    HW222868   3.047   4.127   6.805
 3613SOL     OW22869   2.229   4.824   6.087
 3613SOL    HW122870   2.222   4.907   6.031
 3613SOL    HW222871   2.233   4.744   6.027
 3614SOL     OW22872   2.428   4.261   6.451
 3614SOL    HW122873   2.440   4.327   6.377
 3614SOL    HW222874   2.474   4.295   6.534
 3615SOL     OW22875   3.114   5.072   5.974
 3615SOL    HW122876   3.164   5.149   6.014
 3615SOL    HW222877   3.019   5.074   6.006
 3616SOL     OW22878   3.134   5.169   6.728
 3616SOL    HW122879   3.181   5.182   6.815
 3616SOL    HW222880   3.068   5.095   6.737
 3617SOL     OW22881   3.444   4.363   6.058
 3617SOL    HW122882   3.413   4.424   6.131
 3617SOL    HW222883   3.494   4.415   5.989
 3618SOL     OW22884   2.216   5.234   6.915
 3618SOL    HW122885   2.195   5.190   6.828
 3618SOL    HW222886   2.313   5.260   6.918
 3619SOL     OW22887   2.435   4.594   6.615
 3619SOL    HW122888   2.479   4.683   6.606
 3619SOL    HW222889   2.372   4.594   6.692
 3620SOL     OW22890   3.222   4.586   6.631
 3620SOL    HW122891   3.147   4.586   6.565
 3620SOL    HW222892   3.259   4.494   6.640
 3621SOL     OW22893   2.169   3.937   6.817
 3621SOL    HW122894   2.146   3.974   6.907
 3621SOL    HW222895   2.139   3.842   6.811
 3622SOL     OW22896   1.899   5.034   6.868
 3622SOL    HW122897   1.952   4.985   6.936
 3622SOL    HW222898   1.921   5.132   6.873
 3623SOL     OW22899   2.594   4.358   6.650
 3623SOL    HW122900   2.653   4.332   6.574
 3623SOL    HW222901   2.566   4.454   6.639
 3624SOL     OW22902   2.169   3.787   6.204
 3624SOL    HW122903   2.158   3.881   6.237
 3624SOL    HW222904   2.164   3.724   6.281
 3625SOL     OW22905   2.885   4.490   6.552
 3625SOL    HW122906   2.900   4.511   6.648
 3625SOL    HW222907   2.855   4.395   6.543
 3626SOL     OW22908   2.930   5.057   6.435
 3626SOL    HW122909   2.937   4.973   6.380
 3626SOL    HW222910   2.992   5.126   6.399
 3627SOL     OW22911   2.181   4.534   6.535
 3627SOL    HW122912   2.274   4.570   6.540
 3627SOL    HW222913   2.175   4.449   6.587
 3628SOL     OW22914   2.201   4.233   6.592
 3628SOL    HW122915   2.149   4.150   6.575
 3628SOL    HW222916   2.278   4.238   6.528
 3629SOL     OW22917   3.022   3.931   7.063
 3629SOL    HW122918   3.022   3.995   7.140
 3629SOL    HW222919   3.050   3.979   6.980
 3630SOL     OW22920   1.870   5.050   5.786
 3630SOL    HW122921   1.777   5.071   5.755
 3630SOL    HW222922   1.880   4.951   5.799
 3631SOL     OW22923   1.950   5.525   6.513
 3631SOL    HW122924   1.908   5.439   6.486
 3631SOL    HW222925   2.044   5.528   6.479
 3632SOL     OW22926   2.366   5.292   6.496
 3632SOL    HW122927   2.432   5.366   6.505
 3632SOL    HW222928   2.410   5.213   6.454
 3633SOL     OW22929   2.864   4.520   6.824
 3633SOL    HW122930   2.905   4.488   6.910
 3633SOL    HW222931   2.768   4.493   6.821
 3634SOL     OW22932   1.902   4.268   6.700
 3634SOL    HW122933   1.987   4.235   6.659
 3634SOL    HW222934   1.915   4.283   6.798
 3635SOL     OW22935   2.677   4.296   5.911
 3635SOL    HW122936   2.684   4.207   5.865
 3635SOL    HW222937   2.583   4.330   5.903
 3636SOL     OW22938   3.519   4.328   6.792
 3636SOL    HW122939   3.481   4.259   6.854
 3636SOL    HW222940   3.601   4.292   6.748
 3637SOL     OW22941   2.533   4.188   6.855
 3637SOL    HW122942   2.499   4.099   6.825
 3637SOL    HW222943   2.559   4.242   6.775
 3638SOL     OW22944   2.792   5.402   7.051
 3638SOL    HW122945   2.768   5.384   6.956
 3638SOL    HW222946   2.822   5.496   7.061
 3639SOL     OW22947   3.209   4.783   6.820
 3639SOL    HW122948   3.233   4.720   6.746
 3639SOL    HW222949   3.119   4.823   6.802
 3640SOL     OW22950   3.164   4.579   5.895
 3640SOL    HW122951   3.078   4.548   5.937
 3640SOL    HW222952   3.160   4.565   5.796
 3641SOL     OW22953   3.621   5.471   6.740
 3641SOL    HW122954   3.682   5.501   6.667
 3641SOL    HW222955   3.583   5.382   6.718
 3642SOL     OW22956   3.114   5.455   6.714
 3642SOL    HW122957   3.198   5.460   6.660
 3642SOL    HW222958   3.091   5.359   6.732
 3643SOL     OW22959   1.945   4.982   6.608
 3643SOL    HW122960   1.940   4.981   6.708
 3643SOL    HW222961   1.862   4.941   6.570
 3644SOL     OW22962   3.588   3.859   6.109
 3644SOL    HW122963   3.661   3.842   6.042
 3644SOL    HW222964   3.557   3.772   6.147
 3645SOL     OW22965   3.250   5.297   6.063
 3645SOL    HW122966   3.317   5.309   5.989
 3645SOL    HW222967   3.210   5.386   6.086
 3646SOL     OW22968   3.142   4.651   6.258
 3646SOL    HW122969   3.202   4.570   6.260
 3646SOL    HW222970   3.182   4.720   6.198
 3647SOL     OW22971   2.534   5.340   5.740
 3647SOL    HW122972   2.543   5.350   5.641
 3647SOL    HW222973   2.494   5.251   5.761
 3648SOL     OW22974   3.512   5.444   6.980
 3648SOL    HW122975   3.565   5.454   6.896
 3648SOL    HW222976   3.485   5.534   7.014
 3649SOL     OW22977   2.125   4.050   6.306
 3649SOL    HW122978   2.046   4.101   6.272
 3649SOL    HW222979   2.116   4.035   6.404
 3650SOL     OW22980   3.056   5.336   5.617
 3650SOL    HW122981   3.062   5.243   5.654
 3650SOL    HW222982   2.997   5.336   5.537
 3651SOL     OW22983   2.684   4.726   6.958
 3651SOL    HW122984   2.724   4.725   6.866
 3651SOL    HW222985   2.694   4.818   6.998
 3652SOL     OW22986   2.778   4.634   5.877
 3652SOL    HW122987   2.841   4.672   5.809
 3652SOL    HW222988   2.818   4.551   5.916
 3653SOL     OW22989   3.366   5.331   5.630
 3653SOL    HW122990   3.274   5.368   5.637
 3653SOL    HW222991   3.404   5.351   5.540
 3654SOL     OW22992   2.901   4.822   6.282
 3654SOL    HW122993   2.831   4.775   6.336
 3654SOL    HW222994   2.960   4.754   6.239
 3655SOL     OW22995   2.876   3.960   6.557
 3655SOL    HW122996   2.868   3.924   6.464
 3655SOL    HW222997   2.874   3.884   6.622
 3656SOL     OW22998   2.452   5.211   6.077
 3656SOL    HW122999   2.494   5.153   6.007
 3656SOL    HW223000   2.408   5.290   6.033
 3657SOL     OW23001   3.571   4.109   6.967
 3657SOL    HW123002   3.644   4.178   6.971
 3657SOL    HW223003   3.599   4.034   6.908
 3658SOL     OW23004   2.117   5.072   5.876
 3658SOL    HW123005   2.021   5.073   5.849
 3658SOL    HW223006   2.129   5.125   5.960
 3659SOL     OW23007   1.937   4.069   5.619
 3659SOL    HW123008   1.845   4.041   5.590
 3659SOL    HW223009   1.968   4.146   5.563
 3660SOL     OW23010   1.934   3.890   5.904
 3660SOL    HW123011   1.917   3.973   5.850
 3660SOL    HW223012   2.024   3.853   5.882
 3661SOL     OW23013   3.045   5.059   5.705
 3661SOL    HW123014   2.946   5.048   5.707
 3661SOL    HW223015   3.079   5.074   5.798
 3662SOL     OW23016   3.355   5.491   6.545
 3662SOL    HW123017   3.388   5.555   6.476
 3662SOL    HW223018   3.421   5.485   6.620
 3663SOL     OW23019   3.312   4.944   7.219
 3663SOL    HW123020   3.303   4.934   7.318
 3663SOL    HW223021   3.408   4.937   7.193
 3664SOL     OW23022   3.536   4.607   6.840
 3664SOL    HW123023   3.509   4.518   6.803
 3664SOL    HW223024   3.537   4.675   6.767
 3665SOL     OW23025   2.456   4.469   6.238
 3665SOL    HW123026   2.506   4.554   6.219
 3665SOL    HW223027   2.368   4.471   6.190
 3666SOL     OW23028   3.592   4.658   7.103
 3666SOL    HW123029   3.630   4.749   7.118
 3666SOL    HW223030   3.584   4.641   7.004
 3667SOL     OW23031   2.721   5.098   5.602
 3667SOL    HW123032   2.675   5.113   5.690
 3667SOL    HW223033   2.765   5.183   5.572
 3668SOL     OW23034   2.523   5.514   6.539
 3668SOL    HW123035   2.477   5.602   6.526
 3668SOL    HW223036   2.622   5.526   6.532
 3669SOL     OW23037   2.721   4.680   6.447
 3669SOL    HW123038   2.775   4.611   6.495
 3669SOL    HW223039   2.689   4.749   6.513
 3670SOL     OW23040   2.945   4.708   5.673
 3670SOL    HW123041   2.922   4.761   5.591
 3670SOL    HW223042   3.026   4.652   5.654
 3671SOL     OW23043   3.723   5.293   6.437
 3671SOL    HW123044   3.652   5.281   6.367
 3671SOL    HW223045   3.724   5.214   6.497
 3672SOL     OW23046   1.941   4.964   6.239
 3672SOL    HW123047   1.940   4.917   6.327
 3672SOL    HW223048   2.023   4.936   6.188
 3673SOL     OW23049   3.686   3.916   6.813
 3673SOL    HW123050   3.682   3.826   6.857
 3673SOL    HW223051   3.689   3.905   6.714
 3674SOL     OW23052   2.290   4.148   6.106
 3674SOL    HW123053   2.320   4.076   6.044
 3674SOL    HW223054   2.251   4.108   6.189
 3675SOL     OW23055   3.567   5.211   6.690
 3675SOL    HW123056   3.474   5.186   6.663
 3675SOL    HW223057   3.593   5.161   6.772
 3676SOL     OW23058   2.674   5.310   6.273
 3676SOL    HW123059   2.706   5.320   6.179
 3676SOL    HW223060   2.595   5.248   6.275
 3677SOL     OW23061   3.286   3.938   6.698
 3677SOL    HW123062   3.338   3.873   6.753
 3677SOL    HW223063   3.237   4.001   6.759
 3678SOL     OW23064   2.863   3.758   6.740
 3678SOL    HW123065   2.800   3.686   6.709
 3678SOL    HW223066   2.956   3.722   6.740
 3679SOL     OW23067   2.632   5.054   5.887
 3679SOL    HW123068   2.586   4.967   5.904
 3679SOL    HW223069   2.723   5.051   5.928
 3680SOL     OW23070   3.214   3.776   5.754
 3680SOL    HW123071   3.249   3.735   5.670
 3680SOL    HW223072   3.124   3.738   5.774
 3681SOL     OW23073   3.162   4.177   6.277
 3681SOL    HW123074   3.103   4.257   6.281
 3681SOL    HW223075   3.177   4.142   6.370
 3682SOL     OW23076   1.901   4.801   5.886
 3682SOL    HW123077   2.000   4.790   5.877
 3682SOL    HW223078   1.861   4.715   5.918
 3683SOL     OW23079   2.737   5.370   5.923
 3683SOL    HW123080   2.660   5.335   5.869
 3683SOL    HW223081   2.705   5.441   5.985
 3684SOL     OW23082   2.092   6.214   0.113
 3684SOL    HW123083   1.999   6.212   0.150
 3684SOL    HW223084   2.093   6.175   0.021
 3685SOL     OW23085   2.087   5.861   0.996
 3685SOL    HW123086   2.122   5.844   1.088
 3685SOL    HW223087   1.999   5.816   0.984
 3686SOL     OW23088   1.881   5.954   0.647
 3686SOL    HW123089   1.799   5.997   0.686
 3686SOL    HW223090   1.853   5.881   0.584
 3687SOL     OW23091   3.417   7.097   0.703
 3687SOL    HW123092   3.360   7.081   0.784
 3687SOL    HW223093   3.358   7.107   0.623
 3688SOL     OW23094   2.997   6.289   0.717
 3688SOL    HW123095   3.054   6.367   0.692
 3688SOL    HW223096   2.937   6.315   0.793
 3689SOL     OW23097   3.617   6.193   0.231
 3689SOL    HW123098   3.605   6.180   0.132
 3689SOL    HW223099   3.587   6.112   0.280
 3690SOL     OW23100   2.630   6.730   1.023
 3690SOL    HW123101   2.552   6.747   1.083
 3690SOL    HW223102   2.664   6.817   0.987
 3691SOL     OW23103   2.547   6.598   0.665
 3691SOL    HW123104   2.616   6.582   0.735
 3691SOL    HW223105   2.474   6.655   0.703
 3692SOL     OW23106   2.197   7.021   1.061
 3692SOL    HW123107   2.119   6.990   1.008
 3692SOL    HW223108   2.255   7.079   1.004
 3693SOL     OW23109   3.322   7.091   1.339
 3693SOL    HW123110   3.346   7.185   1.365
 3693SOL    HW223111   3.306   7.037   1.421
 3694SOL     OW23112   2.300   5.978   1.499
 3694SOL    HW123113   2.382   5.922   1.508
 3694SOL    HW223114   2.219   5.920   1.503
 3695SOL     OW23115   3.465   6.033   0.737
 3695SOL    HW123116   3.391   6.079   0.687
 3695SOL    HW223117   3.516   6.101   0.790
 3696SOL     OW23118   2.093   7.299   0.483
 3696SOL    HW123119   2.127   7.376   0.537
 3696SOL    HW223120   2.137   7.299   0.393
 3697SOL     OW23121   2.092   7.020   0.538
 3697SOL    HW123122   2.066   7.116   0.538
 3697SOL    HW223123   2.021   6.966   0.583
 3698SOL     OW23124   2.102   6.677   0.886
 3698SOL    HW123125   2.116   6.593   0.938
 3698SOL    HW223126   2.047   6.741   0.941
 3699SOL     OW23127   2.468   6.550   0.123
 3699SOL    HW123128   2.475   6.634   0.069
 3699SOL    HW223129   2.514   6.563   0.211
 3700SOL     OW23130   3.456   5.700   1.480
 3700SOL    HW123131   3.438   5.767   1.408
 3700SOL    HW223132   3.453   5.746   1.569
 3701SOL     OW23133   1.984   6.229   0.563
 3701SOL    HW123134   1.939   6.141   0.580
 3701SOL    HW223135   1.983   6.283   0.647
 3702SOL     OW23136   3.704   7.353   0.359
 3702SOL    HW123137   3.758   7.324   0.439
 3702SOL    HW223138   3.734   7.443   0.330
 3703SOL     OW23139   1.889   7.182   0.117
 3703SOL    HW123140   1.870   7.086   0.138
 3703SOL    HW223141   1.856   7.240   0.192
 3704SOL     OW23142   3.551   6.508   0.612
 3704SOL    HW123143   3.646   6.479   0.620
 3704SOL    HW223144   3.543   6.573   0.537
 3705SOL     OW23145   3.503   6.694   0.432
 3705SOL    HW123146   3.589   6.696   0.380
 3705SOL    HW223147   3.517   6.741   0.520
 3706SOL     OW23148   1.975   6.323   1.597
 3706SOL    HW123149   2.063   6.310   1.642
 3706SOL    HW223150   1.962   6.420   1.575
 3707SOL     OW23151   2.475   6.951   0.726
 3707SOL    HW123152   2.426   6.864   0.735
 3707SOL    HW223153   2.452   6.994   0.639
 3708SOL     OW23154   3.155   6.814   1.423
 3708SOL    HW123155   3.192   6.741   1.365
 3708SOL    HW223156   3.207   6.819   1.508
 3709SOL     OW23157   2.671   5.590   0.502
 3709SOL    HW123158   2.711   5.681   0.493
 3709SOL    HW223159   2.571   5.598   0.508
 3710SOL     OW23160   3.387   6.585   0.190
 3710SOL    HW123161   3.324   6.509   0.203
 3710SOL    HW223162   3.435   6.603   0.276
 3711SOL     OW23163   3.049   7.378   1.616
 3711SOL    HW123164   3.073   7.438   1.540
 3711SOL    HW223165   3.056   7.283   1.586
 3712SOL     OW23166   3.328   7.003   0.953
 3712SOL    HW123167   3.269   7.009   1.033
 3712SOL    HW223168   3.313   6.915   0.907
 3713SOL     OW23169   3.529   7.300   0.572
 3713SOL    HW123170   3.488   7.277   0.484
 3713SOL    HW223171   3.511   7.226   0.637
 3714SOL     OW23172   2.460   6.315   0.270
 3714SOL    HW123173   2.484   6.384   0.202
 3714SOL    HW223174   2.382   6.348   0.324
 3715SOL     OW23175   3.143   5.931   0.944
 3715SOL    HW123176   3.057   5.881   0.931
 3715SOL    HW223177   3.205   5.877   1.000
 3716SOL     OW23178   3.438   7.248   0.307
 3716SOL    HW123179   3.527   7.294   0.310
 3716SOL    HW223180   3.417   7.224   0.212
 3717SOL     OW23181   2.853   5.996   1.242
 3717SOL    HW123182   2.776   6.030   1.296
 3717SOL    HW223183   2.819   5.945   1.163
 3718SOL     OW23184   2.903   6.287   0.429
 3718SOL    HW123185   2.929   6.283   0.525
 3718SOL    HW223186   2.818   6.236   0.415
 3719SOL     OW23187   1.938   6.397   0.789
 3719SOL    HW123188   2.037   6.385   0.798
 3719SOL    HW223189   1.914   6.492   0.810
 3720SOL     OW23190   2.727   5.934   0.195
 3720SOL    HW123191   2.786   5.997   0.146
 3720SOL    HW223192   2.746   5.840   0.166
 3721SOL     OW23193   3.224   6.730   0.545
 3721SOL    HW123194   3.307   6.701   0.497
 3721SOL    HW223195   3.175   6.797   0.489
 3722SOL     OW23196   2.412   5.782   0.885
 3722SOL    HW123197   2.407   5.777   0.985
 3722SOL    HW223198   2.414   5.878   0.856
 3723SOL     OW23199   2.870   7.042   0.477
 3723SOL    HW123200   2.824   7.114   0.425
 3723SOL    HW223201   2.866   7.062   0.575
 3724SOL     OW23202   2.213   7.387   0.853
 3724SOL    HW123203   2.263   7.301   0.859
 3724SOL    HW223204   2.278   7.464   0.850
 3725SOL     OW23205   3.657   6.652   0.873
 3725SOL    HW123206   3.595   6.637   0.797
 3725SOL    HW223207   3.605   6.663   0.958
 3726SOL     OW23208   3.089   7.136   1.506
 3726SOL    HW123209   3.095   7.059   1.570
 3726SOL    HW223210   3.037   7.110   1.426
 3727SOL     OW23211   2.183   6.529   0.242
 3727SOL    HW123212   2.265   6.568   0.200
 3727SOL    HW223213   2.156   6.447   0.193
 3728SOL     OW23214   3.320   6.321   0.728
 3728SOL    HW123215   3.315   6.256   0.803
 3728SOL    HW223216   3.400   6.380   0.741
 3729SOL     OW23217   2.973   7.362   0.237
 3729SOL    HW123218   2.913   7.300   0.287
 3729SOL    HW223219   3.004   7.318   0.152
 3730SOL     OW23220   3.494   6.963   0.081
 3730SOL    HW123221   3.462   7.057   0.071
 3730SOL    HW223222   3.418   6.900   0.069
 3731SOL     OW23223   2.326   7.329   0.323
 3731SOL    HW123224   2.359   7.368   0.409
 3731SOL    HW223225   2.402   7.322   0.258
 3732SOL     OW23226   3.262   5.693   0.426
 3732SOL    HW123227   3.238   5.656   0.336
 3732SOL    HW223228   3.361   5.709   0.430
 3733SOL     OW23229   2.111   7.371   1.241
 3733SOL    HW123230   2.168   7.306   1.291
 3733SOL    HW223231   2.095   7.338   1.148
 3734SOL     OW23232   2.802   7.284   0.904
 3734SOL    HW123233   2.882   7.227   0.925
 3734SOL    HW223234   2.753   7.244   0.827
 3735SOL     OW23235   2.244   6.286   0.480
 3735SOL    HW123236   2.289   6.196   0.477
 3735SOL    HW223237   2.150   6.275   0.513
 3736SOL     OW23238   3.409   5.808   1.729
 3736SOL    HW123239   3.404   5.845   1.821
 3736SOL    HW223240   3.337   5.739   1.717
 3737SOL     OW23241   2.750   7.100   1.195
 3737SOL    HW123242   2.727   7.075   1.101
 3737SOL    HW223243   2.811   7.031   1.234
 3738SOL     OW23244   3.213   6.176   1.433
 3738SOL    HW123245   3.241   6.133   1.518
 3738SOL    HW223246   3.238   6.272   1.434
 3739SOL     OW23247   2.665   6.988   0.924
 3739SOL    HW123248   2.755   7.002   0.882
 3739SOL    HW223249   2.594   6.990   0.853
 3740SOL     OW23250   2.784   6.089   0.899
 3740SOL    HW123251   2.759   6.080   0.803
 3740SOL    HW223252   2.832   6.007   0.930
 3741SOL     OW23253   2.401   5.650   0.512
 3741SOL    HW123254   2.320   5.651   0.570
 3741SOL    HW223255   2.404   5.733   0.457
 3742SOL     OW23256   3.296   6.774   0.041
 3742SOL    HW123257   3.328   6.698   0.098
 3742SOL    HW223258   3.204   6.801   0.071
 3743SOL     OW23259   2.159   5.621   0.171
 3743SOL    HW123260   2.208   5.705   0.150
 3743SOL    HW223261   2.221   5.556   0.216
 3744SOL     OW23262   2.797   5.822   0.480
 3744SOL    HW123263   2.749   5.863   0.402
 3744SOL    HW223264   2.896   5.820   0.461
 3745SOL     OW23265   3.089   7.156   0.793
 3745SOL    HW123266   3.110   7.230   0.728
 3745SOL    HW223267   3.157   7.156   0.866
 3746SOL     OW23268   2.321   6.738   0.741
 3746SOL    HW123269   2.250   6.711   0.806
 3746SOL    HW223270   2.295   6.710   0.648
 3747SOL     OW23271   3.133   7.383   0.591
 3747SOL    HW123272   3.177   7.447   0.527
 3747SOL    HW223273   3.083   7.435   0.661
 3748SOL     OW23274   2.894   6.135   0.016
 3748SOL    HW123275   2.853   6.217  -0.023
 3748SOL    HW223276   2.958   6.161   0.089
 3749SOL     OW23277   1.940   6.142   1.386
 3749SOL    HW123278   2.032   6.141   1.345
 3749SOL    HW223279   1.934   6.216   1.453
 3750SOL     OW23280   2.423   5.808   1.147
 3750SOL    HW123281   2.461   5.724   1.184
 3750SOL    HW223282   2.335   5.827   1.191
 3751SOL     OW23283   2.728   6.040   0.642
 3751SOL    HW123284   2.696   6.112   0.580
 3751SOL    HW223285   2.752   5.959   0.589
 3752SOL     OW23286   2.879   5.625   0.753
 3752SOL    HW123287   2.807   5.630   0.684
 3752SOL    HW223288   2.855   5.556   0.822
 3753SOL     OW23289   3.291   6.759   0.867
 3753SOL    HW123290   3.236   6.675   0.860
 3753SOL    HW223291   3.317   6.788   0.775
 3754SOL     OW23292   3.328   6.176   0.992
 3754SOL    HW123293   3.298   6.081   0.999
 3754SOL    HW223294   3.401   6.192   1.058
 3755SOL     OW23295   3.719   6.419   0.377
 3755SOL    HW123296   3.761   6.355   0.441
 3755SOL    HW223297   3.681   6.368   0.299
 3756SOL     OW23298   2.350   6.971   0.174
 3756SOL    HW123299   2.263   6.956   0.221
 3756SOL    HW223300   2.333   6.997   0.079
 3757SOL     OW23301   3.526   6.866   0.657
 3757SOL    HW123302   3.625   6.874   0.671
 3757SOL    HW223303   3.481   6.950   0.688
 3758SOL     OW23304   3.252   6.161   0.078
 3758SOL    HW123305   3.198   6.140   0.159
 3758SOL    HW223306   3.343   6.120   0.087
 3759SOL     OW23307   2.389   5.842   0.328
 3759SOL    HW123308   2.416   5.783   0.253
 3759SOL    HW223309   2.389   5.937   0.297
 3760SOL     OW23310   3.616   6.809   1.588
 3760SOL    HW123311   3.707   6.770   1.575
 3760SOL    HW223312   3.624   6.905   1.612
 3761SOL     OW23313   2.926   6.933   1.340
 3761SOL    HW123314   2.846   6.910   1.395
 3761SOL    HW223315   3.009   6.907   1.389
 3762SOL     OW23316   3.454   7.215   1.625
 3762SOL    HW123317   3.481   7.249   1.535
 3762SOL    HW223318   3.533   7.177   1.671
 3763SOL     OW23319   2.973   6.781   1.100
 3763SOL    HW123320   2.933   6.825   1.181
 3763SOL    HW223321   2.932   6.818   1.017
 3764SOL     OW23322   3.500   6.685   1.079
 3764SOL    HW123323   3.505   6.766   1.138
 3764SOL    HW223324   3.414   6.687   1.028
 3765SOL     OW23325   2.567   6.636   0.368
 3765SOL    HW123326   2.553   6.643   0.467
 3765SOL    HW223327   2.651   6.585   0.350
 3766SOL     OW23328   3.136   5.972   1.262
 3766SOL    HW123329   3.157   6.046   1.326
 3766SOL    HW223330   3.047   5.989   1.219
 3767SOL     OW23331   1.926   7.150   1.331
 3767SOL    HW123332   1.880   7.232   1.297
 3767SOL    HW223333   2.024   7.169   1.340
 3768SOL     OW23334   2.229   6.686   0.501
 3768SOL    HW123335   2.222   6.769   0.445
 3768SOL    HW223336   2.233   6.606   0.441
 3769SOL     OW23337   2.428   6.123   0.865
 3769SOL    HW123338   2.440   6.189   0.791
 3769SOL    HW223339   2.474   6.157   0.948
 3770SOL     OW23340   3.114   6.934   0.388
 3770SOL    HW123341   3.164   7.011   0.428
 3770SOL    HW223342   3.019   6.936   0.420
 3771SOL     OW23343   3.134   7.031   1.142
 3771SOL    HW123344   3.181   7.044   1.229
 3771SOL    HW223345   3.068   6.957   1.151
 3772SOL     OW23346   3.444   6.225   0.472
 3772SOL    HW123347   3.413   6.286   0.545
 3772SOL    HW223348   3.494   6.277   0.403
 3773SOL     OW23349   3.449   6.365   1.670
 3773SOL    HW123350   3.357   6.403   1.665
 3773SOL    HW223351   3.509   6.412   1.605
 3774SOL     OW23352   2.875   5.691   1.770
 3774SOL    HW123353   2.881   5.776   1.718
 3774SOL    HW223354   2.907   5.615   1.713
 3775SOL     OW23355   3.222   6.448   1.045
 3775SOL    HW123356   3.147   6.448   0.979
 3775SOL    HW223357   3.259   6.356   1.054
 3776SOL     OW23358   3.071   6.111   0.275
 3776SOL    HW123359   3.084   6.027   0.329
 3776SOL    HW223360   3.042   6.185   0.335
 3777SOL     OW23361   2.169   5.799   1.231
 3777SOL    HW123362   2.146   5.836   1.321
 3777SOL    HW223363   2.139   5.704   1.225
 3778SOL     OW23364   1.899   6.896   1.282
 3778SOL    HW123365   1.952   6.847   1.350
 3778SOL    HW223366   1.921   6.994   1.287
 3779SOL     OW23367   2.594   6.220   1.064
 3779SOL    HW123368   2.653   6.194   0.988
 3779SOL    HW223369   2.566   6.316   1.053
 3780SOL     OW23370   3.590   6.521   1.854
 3780SOL    HW123371   3.544   6.514   1.765
 3780SOL    HW223372   3.528   6.565   1.920
 3781SOL     OW23373   2.169   5.649   0.618
 3781SOL    HW123374   2.158   5.743   0.651
 3781SOL    HW223375   2.164   5.586   0.695
 3782SOL     OW23376   3.484   5.953   0.374
 3782SOL    HW123377   3.486   5.877   0.438
 3782SOL    HW223378   3.436   6.030   0.414
 3783SOL     OW23379   2.885   6.352   0.966
 3783SOL    HW123380   2.900   6.373   1.062
 3783SOL    HW223381   2.855   6.257   0.957
 3784SOL     OW23382   2.842   7.159   1.700
 3784SOL    HW123383   2.822   7.203   1.612
 3784SOL    HW223384   2.881   7.068   1.684
 3785SOL     OW23385   3.721   7.104   1.605
 3785SOL    HW123386   3.735   7.131   1.510
 3785SOL    HW223387   3.804   7.126   1.658
 3786SOL     OW23388   3.402   5.860   0.125
 3786SOL    HW123389   3.341   5.785   0.148
 3786SOL    HW223390   3.424   5.912   0.208
 3787SOL     OW23391   3.165   6.424   0.042
 3787SOL    HW123392   3.199   6.331   0.057
 3787SOL    HW223393   3.183   6.451  -0.053
 3788SOL     OW23394   2.930   6.919   0.849
 3788SOL    HW123395   2.937   6.835   0.794
 3788SOL    HW223396   2.992   6.988   0.813
 3789SOL     OW23397   2.181   6.396   0.949
 3789SOL    HW123398   2.274   6.432   0.954
 3789SOL    HW223399   2.175   6.311   1.001
 3790SOL     OW23400   2.201   6.095   1.006
 3790SOL    HW123401   2.149   6.012   0.989
 3790SOL    HW223402   2.278   6.100   0.942
 3791SOL     OW23403   1.950   7.387   0.927
 3791SOL    HW123404   1.908   7.301   0.900
 3791SOL    HW223405   2.044   7.390   0.893
 3792SOL     OW23406   2.366   7.154   0.910
 3792SOL    HW123407   2.432   7.228   0.919
 3792SOL    HW223408   2.410   7.075   0.868
 3793SOL     OW23409   2.864   6.382   1.238
 3793SOL    HW123410   2.905   6.350   1.324
 3793SOL    HW223411   2.768   6.355   1.235
 3794SOL     OW23412   1.902   6.130   1.114
 3794SOL    HW123413   1.987   6.097   1.073
 3794SOL    HW223414   1.915   6.145   1.212
 3795SOL     OW23415   2.051   6.106   1.722
 3795SOL    HW123416   2.110   6.066   1.652
 3795SOL    HW223417   1.993   6.177   1.681
 3796SOL     OW23418   2.677   6.158   0.325
 3796SOL    HW123419   2.684   6.069   0.279
 3796SOL    HW223420   2.583   6.192   0.317
 3797SOL     OW23421   3.519   6.190   1.206
 3797SOL    HW123422   3.481   6.121   1.268
 3797SOL    HW223423   3.601   6.154   1.162
 3798SOL     OW23424   2.533   6.050   1.269
 3798SOL    HW123425   2.499   5.961   1.239
 3798SOL    HW223426   2.559   6.104   1.189
 3799SOL     OW23427   2.335   6.086   0.191
 3799SOL    HW123428   2.396   6.166   0.195
 3799SOL    HW223429   2.240   6.117   0.198
 3800SOL     OW23430   2.021   6.723   1.466
 3800SOL    HW123431   2.043   6.662   1.542
 3800SOL    HW223432   2.031   6.674   1.380
 3801SOL     OW23433   3.209   6.645   1.234
 3801SOL    HW123434   3.233   6.582   1.160
 3801SOL    HW223435   3.119   6.685   1.216
 3802SOL     OW23436   3.164   6.441   0.309
 3802SOL    HW123437   3.078   6.410   0.351
 3802SOL    HW223438   3.160   6.427   0.210
 3803SOL     OW23439   3.621   7.333   1.154
 3803SOL    HW123440   3.682   7.363   1.081
 3803SOL    HW223441   3.583   7.244   1.132
 3804SOL     OW23442   3.114   7.317   1.128
 3804SOL    HW123443   3.198   7.322   1.074
 3804SOL    HW223444   3.091   7.221   1.146
 3805SOL     OW23445   1.945   6.844   1.022
 3805SOL    HW123446   1.940   6.843   1.122
 3805SOL    HW223447   1.862   6.803   0.984
 3806SOL     OW23448   2.765   5.672   0.133
 3806SOL    HW123449   2.816   5.673   0.047
 3806SOL    HW223450   2.821   5.630   0.204
 3807SOL     OW23451   3.588   5.721   0.523
 3807SOL    HW123452   3.661   5.704   0.456
 3807SOL    HW223453   3.557   5.634   0.561
 3808SOL     OW23454   3.250   7.159   0.477
 3808SOL    HW123455   3.317   7.171   0.403
 3808SOL    HW223456   3.210   7.248   0.500
 3809SOL     OW23457   3.142   6.513   0.672
 3809SOL    HW123458   3.202   6.432   0.674
 3809SOL    HW223459   3.182   6.582   0.612
 3810SOL     OW23460   2.692   6.859   1.422
 3810SOL    HW123461   2.687   6.892   1.517
 3810SOL    HW223462   2.606   6.878   1.376
 3811SOL     OW23463   2.534   7.202   0.154
 3811SOL    HW123464   2.543   7.212   0.055
 3811SOL    HW223465   2.494   7.113   0.175
 3812SOL     OW23466   3.512   7.306   1.394
 3812SOL    HW123467   3.565   7.316   1.310
 3812SOL    HW223468   3.485   7.396   1.428
 3813SOL     OW23469   3.703   5.761   0.963
 3813SOL    HW123470   3.742   5.676   0.927
 3813SOL    HW223471   3.605   5.763   0.944
 3814SOL     OW23472   2.125   5.912   0.720
 3814SOL    HW123473   2.046   5.963   0.686
 3814SOL    HW223474   2.116   5.897   0.818
 3815SOL     OW23475   3.056   7.198   0.031
 3815SOL    HW123476   3.062   7.105   0.068
 3815SOL    HW223477   2.997   7.198  -0.049
 3816SOL     OW23478   2.684   6.588   1.372
 3816SOL    HW123479   2.724   6.587   1.280
 3816SOL    HW223480   2.694   6.680   1.412
 3817SOL     OW23481   2.778   6.496   0.291
 3817SOL    HW123482   2.841   6.534   0.223
 3817SOL    HW223483   2.818   6.413   0.330
 3818SOL     OW23484   3.366   7.193   0.044
 3818SOL    HW123485   3.274   7.230   0.051
 3818SOL    HW223486   3.404   7.213  -0.046
 3819SOL     OW23487   3.476   6.878   1.289
 3819SOL    HW123488   3.536   6.881   1.369
 3819SOL    HW223489   3.401   6.942   1.302
 3820SOL     OW23490   2.901   6.684   0.696
 3820SOL    HW123491   2.831   6.637   0.750
 3820SOL    HW223492   2.960   6.616   0.653
 3821SOL     OW23493   2.876   5.822   0.971
 3821SOL    HW123494   2.868   5.786   0.878
 3821SOL    HW223495   2.874   5.746   1.036
 3822SOL     OW23496   2.452   7.073   0.491
 3822SOL    HW123497   2.494   7.015   0.421
 3822SOL    HW223498   2.408   7.152   0.447
 3823SOL     OW23499   3.571   5.971   1.381
 3823SOL    HW123500   3.644   6.040   1.385
 3823SOL    HW223501   3.599   5.896   1.322
 3824SOL     OW23502   2.117   6.934   0.290
 3824SOL    HW123503   2.021   6.935   0.263
 3824SOL    HW223504   2.129   6.987   0.374
 3825SOL     OW23505   1.967   6.599   1.726
 3825SOL    HW123506   1.890   6.566   1.780
 3825SOL    HW223507   2.052   6.569   1.768
 3826SOL     OW23508   3.302   6.442   1.398
 3826SOL    HW123509   3.245   6.494   1.335
 3826SOL    HW223510   3.398   6.454   1.374
 3827SOL     OW23511   1.934   5.752   0.318
 3827SOL    HW123512   1.917   5.835   0.264
 3827SOL    HW223513   2.024   5.715   0.296
 3828SOL     OW23514   3.045   6.921   0.119
 3828SOL    HW123515   2.946   6.910   0.121
 3828SOL    HW223516   3.079   6.936   0.212
 3829SOL     OW23517   3.355   7.353   0.959
 3829SOL    HW123518   3.388   7.417   0.890
 3829SOL    HW223519   3.421   7.347   1.034
 3830SOL     OW23520   3.312   6.806   1.633
 3830SOL    HW123521   3.303   6.796   1.732
 3830SOL    HW223522   3.408   6.799   1.607
 3831SOL     OW23523   2.252   7.327   1.560
 3831SOL    HW123524   2.161   7.368   1.558
 3831SOL    HW223525   2.245   7.233   1.592
 3832SOL     OW23526   3.536   6.469   1.254
 3832SOL    HW123527   3.509   6.380   1.217
 3832SOL    HW223528   3.537   6.537   1.181
 3833SOL     OW23529   3.087   5.911   0.449
 3833SOL    HW123530   3.152   5.837   0.438
 3833SOL    HW223531   3.107   5.961   0.533
 3834SOL     OW23532   2.456   6.331   0.652
 3834SOL    HW123533   2.506   6.416   0.633
 3834SOL    HW223534   2.368   6.333   0.604
 3835SOL     OW23535   3.592   6.520   1.517
 3835SOL    HW123536   3.630   6.611   1.532
 3835SOL    HW223537   3.584   6.503   1.418
 3836SOL     OW23538   2.721   6.960   0.016
 3836SOL    HW123539   2.675   6.975   0.104
 3836SOL    HW223540   2.765   7.045  -0.014
 3837SOL     OW23541   2.523   7.376   0.953
 3837SOL    HW123542   2.477   7.464   0.940
 3837SOL    HW223543   2.622   7.388   0.946
 3838SOL     OW23544   2.721   6.542   0.861
 3838SOL    HW123545   2.775   6.473   0.909
 3838SOL    HW223546   2.689   6.611   0.927
 3839SOL     OW23547   2.945   6.570   0.087
 3839SOL    HW123548   2.922   6.623   0.005
 3839SOL    HW223549   3.026   6.514   0.068
 3840SOL     OW23550   3.723   7.155   0.851
 3840SOL    HW123551   3.652   7.143   0.781
 3840SOL    HW223552   3.724   7.076   0.911
 3841SOL     OW23553   1.941   6.826   0.653
 3841SOL    HW123554   1.940   6.779   0.741
 3841SOL    HW223555   2.023   6.798   0.602
 3842SOL     OW23556   2.534   6.977   1.624
 3842SOL    HW123557   2.456   6.927   1.662
 3842SOL    HW223558   2.531   7.072   1.655
 3843SOL     OW23559   3.686   5.778   1.227
 3843SOL    HW123560   3.682   5.688   1.271
 3843SOL    HW223561   3.689   5.767   1.128
 3844SOL     OW23562   2.290   6.010   0.520
 3844SOL    HW123563   2.320   5.938   0.458
 3844SOL    HW223564   2.251   5.970   0.603
 3845SOL     OW23565   3.567   7.073   1.104
 3845SOL    HW123566   3.474   7.048   1.077
 3845SOL    HW223567   3.593   7.023   1.186
 3846SOL     OW23568   2.674   7.172   0.687
 3846SOL    HW123569   2.706   7.182   0.593
 3846SOL    HW223570   2.595   7.110   0.689
 3847SOL     OW23571   3.286   5.800   1.112
 3847SOL    HW123572   3.338   5.735   1.167
 3847SOL    HW223573   3.237   5.863   1.173
 3848SOL     OW23574   2.863   5.620   1.154
 3848SOL    HW123575   2.800   5.548   1.123
 3848SOL    HW223576   2.956   5.584   1.154
 3849SOL     OW23577   2.632   6.916   0.301
 3849SOL    HW123578   2.586   6.829   0.318
 3849SOL    HW223579   2.723   6.913   0.342
 3850SOL     OW23580   3.214   5.638   0.168
 3850SOL    HW123581   3.249   5.597   0.084
 3850SOL    HW223582   3.124   5.600   0.188
 3851SOL     OW23583   3.162   6.039   0.691
 3851SOL    HW123584   3.103   6.119   0.695
 3851SOL    HW223585   3.177   6.004   0.784
 3852SOL     OW23586   3.455   5.807   0.882
 3852SOL    HW123587   3.371   5.806   0.936
 3852SOL    HW223588   3.457   5.890   0.826
 3853SOL     OW23589   1.901   6.663   0.300
 3853SOL    HW123590   2.000   6.652   0.291
 3853SOL    HW223591   1.861   6.577   0.332
 3854SOL     OW23592   2.737   7.232   0.337
 3854SOL    HW123593   2.660   7.197   0.283
 3854SOL    HW223594   2.705   7.303   0.399
 3855SOL     OW23595   3.617   6.193   2.093
 3855SOL    HW123596   3.605   6.180   1.994
 3855SOL    HW223597   3.587   6.112   2.142
 3856SOL     OW23598   2.712   6.384   3.685
 3856SOL    HW123599   2.708   6.460   3.750
 3856SOL    HW223600   2.734   6.420   3.594
 3857SOL     OW23601   2.989   6.927   3.552
 3857SOL    HW123602   3.036   6.927   3.640
 3857SOL    HW223603   2.941   6.840   3.541
 3858SOL     OW23604   2.092   7.020   2.400
 3858SOL    HW123605   2.066   7.116   2.400
 3858SOL    HW223606   2.021   6.966   2.445
 3859SOL     OW23607   2.482   7.372   3.301
 3859SOL    HW123608   2.390   7.355   3.336
 3859SOL    HW223609   2.510   7.464   3.327
 3860SOL     OW23610   3.551   6.508   2.474
 3860SOL    HW123611   3.646   6.479   2.482
 3860SOL    HW223612   3.543   6.573   2.399
 3861SOL     OW23613   1.975   6.323   3.459
 3861SOL    HW123614   2.063   6.310   3.504
 3861SOL    HW223615   1.962   6.420   3.437
 3862SOL     OW23616   3.328   7.003   2.815
 3862SOL    HW123617   3.269   7.009   2.895
 3862SOL    HW223618   3.313   6.915   2.769
 3863SOL     OW23619   3.438   7.248   2.169
 3863SOL    HW123620   3.527   7.294   2.172
 3863SOL    HW223621   3.417   7.224   2.074
 3864SOL     OW23622   2.835   6.476   3.434
 3864SOL    HW123623   2.881   6.392   3.405
 3864SOL    HW223624   2.779   6.510   3.359
 3865SOL     OW23625   2.853   5.996   3.104
 3865SOL    HW123626   2.776   6.030   3.158
 3865SOL    HW223627   2.819   5.945   3.025
 3866SOL     OW23628   1.938   6.397   2.651
 3866SOL    HW123629   2.037   6.385   2.660
 3866SOL    HW223630   1.914   6.492   2.672
 3867SOL     OW23631   3.581   6.171   3.693
 3867SOL    HW123632   3.555   6.260   3.657
 3867SOL    HW223633   3.579   6.103   3.620
 3868SOL     OW23634   3.224   6.730   2.407
 3868SOL    HW123635   3.307   6.701   2.359
 3868SOL    HW223636   3.175   6.797   2.351
 3869SOL     OW23637   3.089   7.136   3.368
 3869SOL    HW123638   3.095   7.059   3.432
 3869SOL    HW223639   3.037   7.110   3.288
 3870SOL     OW23640   2.973   7.362   2.099
 3870SOL    HW123641   2.913   7.300   2.149
 3870SOL    HW223642   3.004   7.318   2.014
 3871SOL     OW23643   3.494   6.963   1.943
 3871SOL    HW123644   3.462   7.057   1.933
 3871SOL    HW223645   3.418   6.900   1.931
 3872SOL     OW23646   2.111   7.371   3.103
 3872SOL    HW123647   2.168   7.306   3.153
 3872SOL    HW223648   2.095   7.338   3.010
 3873SOL     OW23649   2.802   7.284   2.766
 3873SOL    HW123650   2.882   7.227   2.787
 3873SOL    HW223651   2.753   7.244   2.689
 3874SOL     OW23652   2.244   6.286   2.342
 3874SOL    HW123653   2.289   6.196   2.339
 3874SOL    HW223654   2.150   6.275   2.375
 3875SOL     OW23655   2.784   6.089   2.761
 3875SOL    HW123656   2.759   6.080   2.665
 3875SOL    HW223657   2.832   6.007   2.792
 3876SOL     OW23658   2.159   5.621   2.033
 3876SOL    HW123659   2.208   5.705   2.012
 3876SOL    HW223660   2.221   5.556   2.078
 3877SOL     OW23661   2.321   6.738   2.603
 3877SOL    HW123662   2.250   6.711   2.668
 3877SOL    HW223663   2.295   6.710   2.510
 3878SOL     OW23664   3.291   6.759   2.729
 3878SOL    HW123665   3.236   6.675   2.722
 3878SOL    HW223666   3.317   6.788   2.637
 3879SOL     OW23667   3.719   6.419   2.239
 3879SOL    HW123668   3.761   6.355   2.303
 3879SOL    HW223669   3.681   6.368   2.161
 3880SOL     OW23670   2.350   6.971   2.036
 3880SOL    HW123671   2.263   6.956   2.083
 3880SOL    HW223672   2.333   6.997   1.941
 3881SOL     OW23673   3.526   6.866   2.519
 3881SOL    HW123674   3.625   6.874   2.533
 3881SOL    HW223675   3.481   6.950   2.550
 3882SOL     OW23676   3.252   6.161   1.940
 3882SOL    HW123677   3.198   6.140   2.021
 3882SOL    HW223678   3.343   6.120   1.949
 3883SOL     OW23679   2.389   5.842   2.190
 3883SOL    HW123680   2.416   5.783   2.115
 3883SOL    HW223681   2.389   5.937   2.159
 3884SOL     OW23682   2.973   6.781   2.962
 3884SOL    HW123683   2.933   6.825   3.043
 3884SOL    HW223684   2.932   6.818   2.879
 3885SOL     OW23685   2.777   5.675   3.264
 3885SOL    HW123686   2.802   5.655   3.169
 3885SOL    HW223687   2.849   5.731   3.306
 3886SOL     OW23688   1.926   7.150   3.193
 3886SOL    HW123689   1.880   7.232   3.159
 3886SOL    HW223690   2.024   7.169   3.202
 3887SOL     OW23691   3.134   7.031   3.004
 3887SOL    HW123692   3.181   7.044   3.091
 3887SOL    HW223693   3.068   6.957   3.013
 3888SOL     OW23694   3.222   6.448   2.907
 3888SOL    HW123695   3.147   6.448   2.841
 3888SOL    HW223696   3.259   6.356   2.916
 3889SOL     OW23697   3.071   6.111   2.137
 3889SOL    HW123698   3.084   6.027   2.191
 3889SOL    HW223699   3.042   6.185   2.197
 3890SOL     OW23700   2.169   5.799   3.093
 3890SOL    HW123701   2.146   5.836   3.183
 3890SOL    HW223702   2.139   5.704   3.087
 3891SOL     OW23703   1.899   6.896   3.144
 3891SOL    HW123704   1.952   6.847   3.212
 3891SOL    HW223705   1.921   6.994   3.149
 3892SOL     OW23706   2.594   6.220   2.926
 3892SOL    HW123707   2.653   6.194   2.850
 3892SOL    HW223708   2.566   6.316   2.915
 3893SOL     OW23709   3.590   6.521   3.716
 3893SOL    HW123710   3.544   6.514   3.627
 3893SOL    HW223711   3.528   6.565   3.782
 3894SOL     OW23712   3.484   5.953   2.236
 3894SOL    HW123713   3.486   5.877   2.300
 3894SOL    HW223714   3.436   6.030   2.276
 3895SOL     OW23715   2.885   6.352   2.828
 3895SOL    HW123716   2.900   6.373   2.924
 3895SOL    HW223717   2.855   6.257   2.819
 3896SOL     OW23718   2.842   7.159   3.562
 3896SOL    HW123719   2.822   7.203   3.474
 3896SOL    HW223720   2.881   7.068   3.546
 3897SOL     OW23721   3.721   7.104   3.467
 3897SOL    HW123722   3.735   7.131   3.372
 3897SOL    HW223723   3.804   7.126   3.520
 3898SOL     OW23724   2.212   6.484   3.666
 3898SOL    HW123725   2.288   6.528   3.714
 3898SOL    HW223726   2.247   6.437   3.584
 3899SOL     OW23727   3.165   6.424   1.904
 3899SOL    HW123728   3.199   6.331   1.919
 3899SOL    HW223729   3.183   6.451   1.809
 3900SOL     OW23730   2.201   6.095   2.868
 3900SOL    HW123731   2.149   6.012   2.851
 3900SOL    HW223732   2.278   6.100   2.804
 3901SOL     OW23733   3.022   5.793   3.339
 3901SOL    HW123734   3.022   5.857   3.416
 3901SOL    HW223735   3.050   5.841   3.256
 3902SOL     OW23736   3.231   6.536   3.522
 3902SOL    HW123737   3.270   6.625   3.542
 3902SOL    HW223738   3.241   6.516   3.425
 3903SOL     OW23739   2.335   6.086   2.053
 3903SOL    HW123740   2.396   6.166   2.057
 3903SOL    HW223741   2.240   6.117   2.060
 3904SOL     OW23742   2.021   6.723   3.328
 3904SOL    HW123743   2.043   6.662   3.404
 3904SOL    HW223744   2.031   6.674   3.242
 3905SOL     OW23745   3.114   7.317   2.990
 3905SOL    HW123746   3.198   7.322   2.936
 3905SOL    HW223747   3.091   7.221   3.008
 3906SOL     OW23748   3.250   7.159   2.339
 3906SOL    HW123749   3.317   7.171   2.265
 3906SOL    HW223750   3.210   7.248   2.362
 3907SOL     OW23751   2.692   6.859   3.284
 3907SOL    HW123752   2.687   6.892   3.379
 3907SOL    HW223753   2.606   6.878   3.238
 3908SOL     OW23754   3.512   7.306   3.256
 3908SOL    HW123755   3.565   7.316   3.172
 3908SOL    HW223756   3.485   7.396   3.290
 3909SOL     OW23757   2.876   5.822   2.833
 3909SOL    HW123758   2.868   5.786   2.740
 3909SOL    HW223759   2.874   5.746   2.898
 3910SOL     OW23760   3.571   5.971   3.243
 3910SOL    HW123761   3.644   6.040   3.247
 3910SOL    HW223762   3.599   5.896   3.184
 3911SOL     OW23763   3.302   6.442   3.260
 3911SOL    HW123764   3.245   6.494   3.197
 3911SOL    HW223765   3.398   6.454   3.236
 3912SOL     OW23766   2.252   7.327   3.422
 3912SOL    HW123767   2.161   7.368   3.420
 3912SOL    HW223768   2.245   7.233   3.454
 3913SOL     OW23769   2.721   6.960   1.878
 3913SOL    HW123770   2.675   6.975   1.966
 3913SOL    HW223771   2.765   7.045   1.848
 3914SOL     OW23772   2.290   6.010   2.382
 3914SOL    HW123773   2.320   5.938   2.320
 3914SOL    HW223774   2.251   5.970   2.465
 3915SOL     OW23775   2.179   6.133   3.142
 3915SOL    HW123776   2.217   6.074   3.214
 3915SOL    HW223777   2.219   6.107   3.054
 3916SOL     OW23778   3.286   5.800   2.974
 3916SOL    HW123779   3.338   5.735   3.029
 3916SOL    HW223780   3.237   5.863   3.035
 3917SOL     OW23781   2.632   6.916   2.163
 3917SOL    HW123782   2.586   6.829   2.180
 3917SOL    HW223783   2.723   6.913   2.204
 3918SOL     OW23784   2.480   7.153   3.146
 3918SOL    HW123785   2.475   7.235   3.203
 3918SOL    HW223786   2.569   7.150   3.101
 3919SOL     OW23787   3.162   6.039   2.553
 3919SOL    HW123788   3.103   6.119   2.557
 3919SOL    HW223789   3.177   6.004   2.646
 3920SOL     OW23790   1.901   6.663   2.162
 3920SOL    HW123791   2.000   6.652   2.153
 3920SOL    HW223792   1.861   6.577   2.194
 3921SOL     OW23793   2.737   7.232   2.199
 3921SOL    HW123794   2.660   7.197   2.145
 3921SOL    HW223795   2.705   7.303   2.261
 3922SOL     OW23796   2.431   6.861   4.889
 3922SOL    HW123797   2.338   6.854   4.852
 3922SOL    HW223798   2.442   6.950   4.933
 3923SOL     OW23799   2.630   6.730   4.747
 3923SOL    HW123800   2.552   6.747   4.807
 3923SOL    HW223801   2.664   6.817   4.711
 3924SOL     OW23802   2.712   6.384   5.547
 3924SOL    HW123803   2.708   6.460   5.612
 3924SOL    HW223804   2.734   6.420   5.456
 3925SOL     OW23805   2.547   6.598   4.389
 3925SOL    HW123806   2.616   6.582   4.459
 3925SOL    HW223807   2.474   6.655   4.427
 3926SOL     OW23808   2.548   6.747   5.527
 3926SOL    HW123809   2.608   6.826   5.541
 3926SOL    HW223810   2.462   6.778   5.486
 3927SOL     OW23811   3.322   7.091   5.063
 3927SOL    HW123812   3.346   7.185   5.089
 3927SOL    HW223813   3.306   7.037   5.145
 3928SOL     OW23814   2.468   6.550   3.847
 3928SOL    HW123815   2.475   6.634   3.793
 3928SOL    HW223816   2.514   6.563   3.935
 3929SOL     OW23817   3.704   7.353   4.083
 3929SOL    HW123818   3.758   7.324   4.163
 3929SOL    HW223819   3.734   7.443   4.054
 3930SOL     OW23820   1.975   6.323   5.321
 3930SOL    HW123821   2.063   6.310   5.366
 3930SOL    HW223822   1.962   6.420   5.299
 3931SOL     OW23823   2.059   6.562   4.988
 3931SOL    HW123824   2.148   6.517   4.974
 3931SOL    HW223825   1.986   6.497   4.969
 3932SOL     OW23826   3.387   6.585   3.914
 3932SOL    HW123827   3.324   6.509   3.927
 3932SOL    HW223828   3.435   6.603   4.000
 3933SOL     OW23829   3.049   7.378   5.340
 3933SOL    HW123830   3.073   7.438   5.264
 3933SOL    HW223831   3.056   7.283   5.310
 3934SOL     OW23832   2.179   5.837   5.525
 3934SOL    HW123833   2.250   5.908   5.531
 3934SOL    HW223834   2.091   5.876   5.553
 3935SOL     OW23835   2.460   6.315   3.994
 3935SOL    HW123836   2.484   6.384   3.926
 3935SOL    HW223837   2.382   6.348   4.048
 3936SOL     OW23838   3.256   6.055   5.398
 3936SOL    HW123839   3.236   6.098   5.486
 3936SOL    HW223840   3.334   5.993   5.407
 3937SOL     OW23841   1.992   7.407   5.295
 3937SOL    HW123842   1.982   7.392   5.394
 3937SOL    HW223843   1.906   7.443   5.259
 3938SOL     OW23844   2.727   5.934   3.919
 3938SOL    HW123845   2.786   5.997   3.870
 3938SOL    HW223846   2.746   5.840   3.890
 3939SOL     OW23847   2.183   6.529   3.966
 3939SOL    HW123848   2.265   6.568   3.924
 3939SOL    HW223849   2.156   6.447   3.917
 3940SOL     OW23850   2.323   6.852   5.451
 3940SOL    HW123851   2.273   6.853   5.365
 3940SOL    HW223852   2.260   6.834   5.527
 3941SOL     OW23853   2.064   5.871   5.222
 3941SOL    HW123854   1.984   5.931   5.209
 3941SOL    HW223855   2.054   5.822   5.308
 3942SOL     OW23856   3.262   5.693   4.150
 3942SOL    HW123857   3.238   5.656   4.060
 3942SOL    HW223858   3.361   5.709   4.154
 3943SOL     OW23859   2.784   6.089   4.623
 3943SOL    HW123860   2.759   6.080   4.527
 3943SOL    HW223861   2.832   6.007   4.654
 3944SOL     OW23862   3.133   7.383   4.315
 3944SOL    HW123863   3.177   7.447   4.251
 3944SOL    HW223864   3.083   7.435   4.385
 3945SOL     OW23865   1.940   6.142   5.110
 3945SOL    HW123866   2.032   6.141   5.069
 3945SOL    HW223867   1.934   6.216   5.177
 3946SOL     OW23868   3.252   6.161   3.802
 3946SOL    HW123869   3.198   6.140   3.883
 3946SOL    HW223870   3.343   6.120   3.811
 3947SOL     OW23871   3.616   6.809   5.312
 3947SOL    HW123872   3.707   6.770   5.299
 3947SOL    HW223873   3.624   6.905   5.336
 3948SOL     OW23874   3.444   6.225   4.196
 3948SOL    HW123875   3.413   6.286   4.269
 3948SOL    HW223876   3.494   6.277   4.127
 3949SOL     OW23877   2.264   6.337   5.322
 3949SOL    HW123878   2.332   6.392   5.275
 3949SOL    HW223879   2.304   6.249   5.349
 3950SOL     OW23880   2.875   5.691   5.494
 3950SOL    HW123881   2.881   5.776   5.442
 3950SOL    HW223882   2.907   5.615   5.437
 3951SOL     OW23883   2.169   5.799   4.955
 3951SOL    HW123884   2.146   5.836   5.045
 3951SOL    HW223885   2.139   5.704   4.949
 3952SOL     OW23886   2.169   5.649   4.342
 3952SOL    HW123887   2.158   5.743   4.375
 3952SOL    HW223888   2.164   5.586   4.419
 3953SOL     OW23889   2.885   6.352   4.690
 3953SOL    HW123890   2.900   6.373   4.786
 3953SOL    HW223891   2.855   6.257   4.681
 3954SOL     OW23892   3.721   7.104   5.329
 3954SOL    HW123893   3.735   7.131   5.234
 3954SOL    HW223894   3.804   7.126   5.382
 3955SOL     OW23895   2.212   6.484   5.528
 3955SOL    HW123896   2.288   6.528   5.576
 3955SOL    HW223897   2.247   6.437   5.446
 3956SOL     OW23898   3.165   6.424   3.766
 3956SOL    HW123899   3.199   6.331   3.781
 3956SOL    HW223900   3.183   6.451   3.671
 3957SOL     OW23901   3.000   5.966   5.402
 3957SOL    HW123902   2.955   6.029   5.466
 3957SOL    HW223903   3.093   5.997   5.385
 3958SOL     OW23904   3.022   5.793   5.201
 3958SOL    HW123905   3.022   5.857   5.278
 3958SOL    HW223906   3.050   5.841   5.118
 3959SOL     OW23907   3.519   6.190   4.930
 3959SOL    HW123908   3.481   6.121   4.992
 3959SOL    HW223909   3.601   6.154   4.886
 3960SOL     OW23910   3.209   6.645   4.958
 3960SOL    HW123911   3.233   6.582   4.884
 3960SOL    HW223912   3.119   6.685   4.940
 3961SOL     OW23913   2.550   7.248   5.440
 3961SOL    HW123914   2.494   7.329   5.449
 3961SOL    HW223915   2.602   7.252   5.354
 3962SOL     OW23916   1.992   7.380   5.575
 3962SOL    HW123917   1.951   7.306   5.628
 3962SOL    HW223918   2.056   7.431   5.633
 3963SOL     OW23919   2.125   5.912   4.444
 3963SOL    HW123920   2.046   5.963   4.410
 3963SOL    HW223921   2.116   5.897   4.542
 3964SOL     OW23922   3.366   7.193   3.768
 3964SOL    HW123923   3.274   7.230   3.775
 3964SOL    HW223924   3.404   7.213   3.678
 3965SOL     OW23925   3.476   6.878   5.013
 3965SOL    HW123926   3.536   6.881   5.093
 3965SOL    HW223927   3.401   6.942   5.026
 3966SOL     OW23928   2.117   6.934   4.014
 3966SOL    HW123929   2.021   6.935   3.987
 3966SOL    HW223930   2.129   6.987   4.098
 3967SOL     OW23931   1.967   6.599   5.450
 3967SOL    HW123932   1.890   6.566   5.504
 3967SOL    HW223933   2.052   6.569   5.492
 3968SOL     OW23934   1.937   5.931   3.757
 3968SOL    HW123935   1.845   5.903   3.728
 3968SOL    HW223936   1.968   6.008   3.701
 3969SOL     OW23937   3.302   6.442   5.122
 3969SOL    HW123938   3.245   6.494   5.059
 3969SOL    HW223939   3.398   6.454   5.098
 3970SOL     OW23940   2.578   6.151   5.432
 3970SOL    HW123941   2.597   6.216   5.506
 3970SOL    HW223942   2.638   6.071   5.441
 3971SOL     OW23943   3.312   6.806   5.357
 3971SOL    HW123944   3.303   6.796   5.456
 3971SOL    HW223945   3.408   6.799   5.331
 3972SOL     OW23946   3.087   5.911   4.173
 3972SOL    HW123947   3.152   5.837   4.162
 3972SOL    HW223948   3.107   5.961   4.257
 3973SOL     OW23949   2.456   6.331   4.376
 3973SOL    HW123950   2.506   6.416   4.357
 3973SOL    HW223951   2.368   6.333   4.328
 3974SOL     OW23952   3.639   5.928   5.366
 3974SOL    HW123953   3.622   5.959   5.272
 3974SOL    HW223954   3.555   5.891   5.404
 3975SOL     OW23955   2.534   6.977   5.348
 3975SOL    HW123956   2.456   6.927   5.386
 3975SOL    HW223957   2.531   7.072   5.379
 3976SOL     OW23958   3.686   5.778   4.951
 3976SOL    HW123959   3.682   5.688   4.995
 3976SOL    HW223960   3.689   5.767   4.852
 3977SOL     OW23961   3.214   5.638   3.892
 3977SOL    HW123962   3.249   5.597   3.808
 3977SOL    HW223963   3.124   5.600   3.912
 3978SOL     OW23964   3.162   6.039   4.415
 3978SOL    HW123965   3.103   6.119   4.419
 3978SOL    HW223966   3.177   6.004   4.508
 3979SOL     OW23967   2.092   6.214   5.699
 3979SOL    HW123968   1.999   6.212   5.736
 3979SOL    HW223969   2.093   6.175   5.607
 3980SOL     OW23970   2.087   5.861   6.582
 3980SOL    HW123971   2.122   5.844   6.674
 3980SOL    HW223972   1.999   5.816   6.570
 3981SOL     OW23973   1.881   5.954   6.233
 3981SOL    HW123974   1.799   5.997   6.272
 3981SOL    HW223975   1.853   5.881   6.170
 3982SOL     OW23976   2.431   6.861   6.751
 3982SOL    HW123977   2.338   6.854   6.714
 3982SOL    HW223978   2.442   6.950   6.795
 3983SOL     OW23979   3.417   7.097   6.289
 3983SOL    HW123980   3.360   7.081   6.370
 3983SOL    HW223981   3.358   7.107   6.209
 3984SOL     OW23982   2.997   6.289   6.303
 3984SOL    HW123983   3.054   6.367   6.278
 3984SOL    HW223984   2.937   6.315   6.379
 3985SOL     OW23985   3.617   6.193   5.817
 3985SOL    HW123986   3.605   6.180   5.718
 3985SOL    HW223987   3.587   6.112   5.866
 3986SOL     OW23988   2.630   6.730   6.609
 3986SOL    HW123989   2.552   6.747   6.669
 3986SOL    HW223990   2.664   6.817   6.573
 3987SOL     OW23991   2.547   6.598   6.251
 3987SOL    HW123992   2.616   6.582   6.321
 3987SOL    HW223993   2.474   6.655   6.289
 3988SOL     OW23994   2.197   7.021   6.647
 3988SOL    HW123995   2.119   6.990   6.594
 3988SOL    HW223996   2.255   7.079   6.590
 3989SOL     OW23997   3.465   6.033   6.323
 3989SOL    HW123998   3.391   6.079   6.273
 3989SOL    HW223999   3.516   6.101   6.376
 3990SOL     OW24000   2.093   7.299   6.069
 3990SOL    HW124001   2.127   7.376   6.123
 3990SOL    HW224002   2.137   7.299   5.979
 3991SOL     OW24003   2.092   7.020   6.124
 3991SOL    HW124004   2.066   7.116   6.124
 3991SOL    HW224005   2.021   6.966   6.169
 3992SOL     OW24006   2.102   6.677   6.472
 3992SOL    HW124007   2.116   6.593   6.524
 3992SOL    HW224008   2.047   6.741   6.527
 3993SOL     OW24009   2.468   6.550   5.709
 3993SOL    HW124010   2.475   6.634   5.655
 3993SOL    HW224011   2.514   6.563   5.797
 3994SOL     OW24012   1.984   6.229   6.149
 3994SOL    HW124013   1.939   6.141   6.166
 3994SOL    HW224014   1.983   6.283   6.233
 3995SOL     OW24015   3.704   7.353   5.945
 3995SOL    HW124016   3.758   7.324   6.025
 3995SOL    HW224017   3.734   7.443   5.916
 3996SOL     OW24018   1.889   7.182   5.703
 3996SOL    HW124019   1.870   7.086   5.724
 3996SOL    HW224020   1.856   7.240   5.778
 3997SOL     OW24021   3.551   6.508   6.198
 3997SOL    HW124022   3.646   6.479   6.206
 3997SOL    HW224023   3.543   6.573   6.123
 3998SOL     OW24024   3.503   6.694   6.018
 3998SOL    HW124025   3.589   6.696   5.966
 3998SOL    HW224026   3.517   6.741   6.106
 3999SOL     OW24027   2.475   6.951   6.312
 3999SOL    HW124028   2.426   6.864   6.321
 3999SOL    HW224029   2.452   6.994   6.225
 4000SOL     OW24030   2.671   5.590   6.088
 4000SOL    HW124031   2.711   5.681   6.079
 4000SOL    HW224032   2.571   5.598   6.094
 4001SOL     OW24033   2.059   6.562   6.850
 4001SOL    HW124034   2.148   6.517   6.836
 4001SOL    HW224035   1.986   6.497   6.831
 4002SOL     OW24036   3.387   6.585   5.776
 4002SOL    HW124037   3.324   6.509   5.789
 4002SOL    HW224038   3.435   6.603   5.862
 4003SOL     OW24039   3.328   7.003   6.539
 4003SOL    HW124040   3.269   7.009   6.619
 4003SOL    HW224041   3.313   6.915   6.493
 4004SOL     OW24042   3.529   7.300   6.158
 4004SOL    HW124043   3.488   7.277   6.070
 4004SOL    HW224044   3.511   7.226   6.223
 4005SOL     OW24045   2.460   6.315   5.856
 4005SOL    HW124046   2.484   6.384   5.788
 4005SOL    HW224047   2.382   6.348   5.910
 4006SOL     OW24048   3.143   5.931   6.530
 4006SOL    HW124049   3.057   5.881   6.517
 4006SOL    HW224050   3.205   5.877   6.586
 4007SOL     OW24051   2.853   5.996   6.828
 4007SOL    HW124052   2.776   6.030   6.882
 4007SOL    HW224053   2.819   5.945   6.749
 4008SOL     OW24054   2.903   6.287   6.015
 4008SOL    HW124055   2.929   6.283   6.111
 4008SOL    HW224056   2.818   6.236   6.001
 4009SOL     OW24057   1.938   6.397   6.375
 4009SOL    HW124058   2.037   6.385   6.384
 4009SOL    HW224059   1.914   6.492   6.396
 4010SOL     OW24060   2.727   5.934   5.781
 4010SOL    HW124061   2.786   5.997   5.732
 4010SOL    HW224062   2.746   5.840   5.752
 4011SOL     OW24063   3.224   6.730   6.131
 4011SOL    HW124064   3.307   6.701   6.083
 4011SOL    HW224065   3.175   6.797   6.075
 4012SOL     OW24066   2.412   5.782   6.471
 4012SOL    HW124067   2.407   5.777   6.571
 4012SOL    HW224068   2.414   5.878   6.442
 4013SOL     OW24069   2.870   7.042   6.063
 4013SOL    HW124070   2.824   7.114   6.011
 4013SOL    HW224071   2.866   7.062   6.161
 4014SOL     OW24072   2.213   7.387   6.439
 4014SOL    HW124073   2.263   7.301   6.445
 4014SOL    HW224074   2.278   7.464   6.436
 4015SOL     OW24075   3.657   6.652   6.459
 4015SOL    HW124076   3.595   6.637   6.383
 4015SOL    HW224077   3.605   6.663   6.544
 4016SOL     OW24078   2.183   6.529   5.828
 4016SOL    HW124079   2.265   6.568   5.786
 4016SOL    HW224080   2.156   6.447   5.779
 4017SOL     OW24081   3.320   6.321   6.314
 4017SOL    HW124082   3.315   6.256   6.389
 4017SOL    HW224083   3.400   6.380   6.327
 4018SOL     OW24084   2.973   7.362   5.823
 4018SOL    HW124085   2.913   7.300   5.873
 4018SOL    HW224086   3.004   7.318   5.738
 4019SOL     OW24087   3.494   6.963   5.667
 4019SOL    HW124088   3.462   7.057   5.657
 4019SOL    HW224089   3.418   6.900   5.655
 4020SOL     OW24090   2.326   7.329   5.909
 4020SOL    HW124091   2.359   7.368   5.995
 4020SOL    HW224092   2.402   7.322   5.844
 4021SOL     OW24093   3.262   5.693   6.012
 4021SOL    HW124094   3.238   5.656   5.922
 4021SOL    HW224095   3.361   5.709   6.016
 4022SOL     OW24096   2.111   7.371   6.827
 4022SOL    HW124097   2.168   7.306   6.877
 4022SOL    HW224098   2.095   7.338   6.734
 4023SOL     OW24099   2.802   7.284   6.490
 4023SOL    HW124100   2.882   7.227   6.511
 4023SOL    HW224101   2.753   7.244   6.413
 4024SOL     OW24102   2.244   6.286   6.066
 4024SOL    HW124103   2.289   6.196   6.063
 4024SOL    HW224104   2.150   6.275   6.099
 4025SOL     OW24105   2.665   6.988   6.510
 4025SOL    HW124106   2.755   7.002   6.468
 4025SOL    HW224107   2.594   6.990   6.439
 4026SOL     OW24108   2.784   6.089   6.485
 4026SOL    HW124109   2.759   6.080   6.389
 4026SOL    HW224110   2.832   6.007   6.516
 4027SOL     OW24111   2.401   5.650   6.098
 4027SOL    HW124112   2.320   5.651   6.156
 4027SOL    HW224113   2.404   5.733   6.043
 4028SOL     OW24114   3.296   6.774   5.627
 4028SOL    HW124115   3.328   6.698   5.684
 4028SOL    HW224116   3.204   6.801   5.657
 4029SOL     OW24117   2.159   5.621   5.757
 4029SOL    HW124118   2.208   5.705   5.736
 4029SOL    HW224119   2.221   5.556   5.802
 4030SOL     OW24120   2.797   5.822   6.066
 4030SOL    HW124121   2.749   5.863   5.988
 4030SOL    HW224122   2.896   5.820   6.047
 4031SOL     OW24123   3.089   7.156   6.379
 4031SOL    HW124124   3.110   7.230   6.314
 4031SOL    HW224125   3.157   7.156   6.452
 4032SOL     OW24126   2.321   6.738   6.327
 4032SOL    HW124127   2.250   6.711   6.392
 4032SOL    HW224128   2.295   6.710   6.234
 4033SOL     OW24129   3.133   7.383   6.177
 4033SOL    HW124130   3.177   7.447   6.113
 4033SOL    HW224131   3.083   7.435   6.247
 4034SOL     OW24132   2.894   6.135   5.602
 4034SOL    HW124133   2.853   6.217   5.563
 4034SOL    HW224134   2.958   6.161   5.675
 4035SOL     OW24135   2.423   5.808   6.733
 4035SOL    HW124136   2.461   5.724   6.770
 4035SOL    HW224137   2.335   5.827   6.777
 4036SOL     OW24138   2.728   6.040   6.228
 4036SOL    HW124139   2.696   6.112   6.166
 4036SOL    HW224140   2.752   5.959   6.175
 4037SOL     OW24141   2.879   5.625   6.339
 4037SOL    HW124142   2.807   5.630   6.270
 4037SOL    HW224143   2.855   5.556   6.408
 4038SOL     OW24144   3.291   6.759   6.453
 4038SOL    HW124145   3.236   6.675   6.446
 4038SOL    HW224146   3.317   6.788   6.361
 4039SOL     OW24147   3.328   6.176   6.578
 4039SOL    HW124148   3.298   6.081   6.585
 4039SOL    HW224149   3.401   6.192   6.644
 4040SOL     OW24150   3.719   6.419   5.963
 4040SOL    HW124151   3.761   6.355   6.027
 4040SOL    HW224152   3.681   6.368   5.885
 4041SOL     OW24153   2.350   6.971   5.760
 4041SOL    HW124154   2.263   6.956   5.807
 4041SOL    HW224155   2.333   6.997   5.665
 4042SOL     OW24156   3.526   6.866   6.243
 4042SOL    HW124157   3.625   6.874   6.257
 4042SOL    HW224158   3.481   6.950   6.274
 4043SOL     OW24159   3.252   6.161   5.664
 4043SOL    HW124160   3.198   6.140   5.745
 4043SOL    HW224161   3.343   6.120   5.673
 4044SOL     OW24162   2.389   5.842   5.914
 4044SOL    HW124163   2.416   5.783   5.839
 4044SOL    HW224164   2.389   5.937   5.883
 4045SOL     OW24165   2.973   6.781   6.686
 4045SOL    HW124166   2.933   6.825   6.767
 4045SOL    HW224167   2.932   6.818   6.603
 4046SOL     OW24168   3.500   6.685   6.665
 4046SOL    HW124169   3.505   6.766   6.724
 4046SOL    HW224170   3.414   6.687   6.614
 4047SOL     OW24171   2.567   6.636   5.954
 4047SOL    HW124172   2.553   6.643   6.053
 4047SOL    HW224173   2.651   6.585   5.936
 4048SOL     OW24174   2.272   6.399   6.837
 4048SOL    HW124175   2.358   6.411   6.887
 4048SOL    HW224176   2.230   6.312   6.864
 4049SOL     OW24177   3.136   5.972   6.848
 4049SOL    HW124178   3.157   6.046   6.912
 4049SOL    HW224179   3.047   5.989   6.805
 4050SOL     OW24180   2.229   6.686   6.087
 4050SOL    HW124181   2.222   6.769   6.031
 4050SOL    HW224182   2.233   6.606   6.027
 4051SOL     OW24183   2.428   6.123   6.451
 4051SOL    HW124184   2.440   6.189   6.377
 4051SOL    HW224185   2.474   6.157   6.534
 4052SOL     OW24186   3.114   6.934   5.974
 4052SOL    HW124187   3.164   7.011   6.014
 4052SOL    HW224188   3.019   6.936   6.006
 4053SOL     OW24189   3.134   7.031   6.728
 4053SOL    HW124190   3.181   7.044   6.815
 4053SOL    HW224191   3.068   6.957   6.737
 4054SOL     OW24192   3.444   6.225   6.058
 4054SOL    HW124193   3.413   6.286   6.131
 4054SOL    HW224194   3.494   6.277   5.989
 4055SOL     OW24195   2.216   7.096   6.915
 4055SOL    HW124196   2.195   7.052   6.828
 4055SOL    HW224197   2.313   7.122   6.918
 4056SOL     OW24198   2.435   6.456   6.615
 4056SOL    HW124199   2.479   6.545   6.606
 4056SOL    HW224200   2.372   6.456   6.692
 4057SOL     OW24201   3.222   6.448   6.631
 4057SOL    HW124202   3.147   6.448   6.565
 4057SOL    HW224203   3.259   6.356   6.640
 4058SOL     OW24204   3.071   6.111   5.861
 4058SOL    HW124205   3.084   6.027   5.915
 4058SOL    HW224206   3.042   6.185   5.921
 4059SOL     OW24207   2.169   5.799   6.817
 4059SOL    HW124208   2.146   5.836   6.907
 4059SOL    HW224209   2.139   5.704   6.811
 4060SOL     OW24210   1.899   6.896   6.868
 4060SOL    HW124211   1.952   6.847   6.936
 4060SOL    HW224212   1.921   6.994   6.873
 4061SOL     OW24213   2.594   6.220   6.650
 4061SOL    HW124214   2.653   6.194   6.574
 4061SOL    HW224215   2.566   6.316   6.639
 4062SOL     OW24216   2.169   5.649   6.204
 4062SOL    HW124217   2.158   5.743   6.237
 4062SOL    HW224218   2.164   5.586   6.281
 4063SOL     OW24219   3.484   5.953   5.960
 4063SOL    HW124220   3.486   5.877   6.024
 4063SOL    HW224221   3.436   6.030   6.000
 4064SOL     OW24222   2.885   6.352   6.552
 4064SOL    HW124223   2.900   6.373   6.648
 4064SOL    HW224224   2.855   6.257   6.543
 4065SOL     OW24225   3.402   5.860   5.711
 4065SOL    HW124226   3.341   5.785   5.734
 4065SOL    HW224227   3.424   5.912   5.794
 4066SOL     OW24228   3.165   6.424   5.628
 4066SOL    HW124229   3.199   6.331   5.643
 4066SOL    HW224230   3.183   6.451   5.533
 4067SOL     OW24231   2.930   6.919   6.435
 4067SOL    HW124232   2.937   6.835   6.380
 4067SOL    HW224233   2.992   6.988   6.399
 4068SOL     OW24234   2.181   6.396   6.535
 4068SOL    HW124235   2.274   6.432   6.540
 4068SOL    HW224236   2.175   6.311   6.587
 4069SOL     OW24237   2.201   6.095   6.592
 4069SOL    HW124238   2.149   6.012   6.575
 4069SOL    HW224239   2.278   6.100   6.528
 4070SOL     OW24240   3.022   5.793   7.063
 4070SOL    HW124241   3.022   5.857   7.140
 4070SOL    HW224242   3.050   5.841   6.980
 4071SOL     OW24243   1.870   6.912   5.786
 4071SOL    HW124244   1.777   6.933   5.755
 4071SOL    HW224245   1.880   6.813   5.799
 4072SOL     OW24246   1.950   7.387   6.513
 4072SOL    HW124247   1.908   7.301   6.486
 4072SOL    HW224248   2.044   7.390   6.479
 4073SOL     OW24249   2.366   7.154   6.496
 4073SOL    HW124250   2.432   7.228   6.505
 4073SOL    HW224251   2.410   7.075   6.454
 4074SOL     OW24252   2.864   6.382   6.824
 4074SOL    HW124253   2.905   6.350   6.910
 4074SOL    HW224254   2.768   6.355   6.821
 4075SOL     OW24255   1.902   6.130   6.700
 4075SOL    HW124256   1.987   6.097   6.659
 4075SOL    HW224257   1.915   6.145   6.798
 4076SOL     OW24258   2.677   6.158   5.911
 4076SOL    HW124259   2.684   6.069   5.865
 4076SOL    HW224260   2.583   6.192   5.903
 4077SOL     OW24261   3.519   6.190   6.792
 4077SOL    HW124262   3.481   6.121   6.854
 4077SOL    HW224263   3.601   6.154   6.748
 4078SOL     OW24264   2.533   6.050   6.855
 4078SOL    HW124265   2.499   5.961   6.825
 4078SOL    HW224266   2.559   6.104   6.775
 4079SOL     OW24267   2.792   7.264   7.051
 4079SOL    HW124268   2.768   7.246   6.956
 4079SOL    HW224269   2.822   7.358   7.061
 4080SOL     OW24270   2.335   6.086   5.777
 4080SOL    HW124271   2.396   6.166   5.781
 4080SOL    HW224272   2.240   6.117   5.784
 4081SOL     OW24273   3.209   6.645   6.820
 4081SOL    HW124274   3.233   6.582   6.746
 4081SOL    HW224275   3.119   6.685   6.802
 4082SOL     OW24276   3.164   6.441   5.895
 4082SOL    HW124277   3.078   6.410   5.937
 4082SOL    HW224278   3.160   6.427   5.796
 4083SOL     OW24279   3.621   7.333   6.740
 4083SOL    HW124280   3.682   7.363   6.667
 4083SOL    HW224281   3.583   7.244   6.718
 4084SOL     OW24282   3.114   7.317   6.714
 4084SOL    HW124283   3.198   7.322   6.660
 4084SOL    HW224284   3.091   7.221   6.732
 4085SOL     OW24285   1.945   6.844   6.608
 4085SOL    HW124286   1.940   6.843   6.708
 4085SOL    HW224287   1.862   6.803   6.570
 4086SOL     OW24288   3.588   5.721   6.109
 4086SOL    HW124289   3.661   5.704   6.042
 4086SOL    HW224290   3.557   5.634   6.147
 4087SOL     OW24291   3.250   7.159   6.063
 4087SOL    HW124292   3.317   7.171   5.989
 4087SOL    HW224293   3.210   7.248   6.086
 4088SOL     OW24294   3.142   6.513   6.258
 4088SOL    HW124295   3.202   6.432   6.260
 4088SOL    HW224296   3.182   6.582   6.198
 4089SOL     OW24297   2.534   7.202   5.740
 4089SOL    HW124298   2.543   7.212   5.641
 4089SOL    HW224299   2.494   7.113   5.761
 4090SOL     OW24300   3.512   7.306   6.980
 4090SOL    HW124301   3.565   7.316   6.896
 4090SOL    HW224302   3.485   7.396   7.014
 4091SOL     OW24303   3.703   5.761   6.549
 4091SOL    HW124304   3.742   5.676   6.513
 4091SOL    HW224305   3.605   5.763   6.530
 4092SOL     OW24306   2.125   5.912   6.306
 4092SOL    HW124307   2.046   5.963   6.272
 4092SOL    HW224308   2.116   5.897   6.404
 4093SOL     OW24309   3.056   7.198   5.617
 4093SOL    HW124310   3.062   7.105   5.654
 4093SOL    HW224311   2.997   7.198   5.537
 4094SOL     OW24312   2.684   6.588   6.958
 4094SOL    HW124313   2.724   6.587   6.866
 4094SOL    HW224314   2.694   6.680   6.998
 4095SOL     OW24315   2.778   6.496   5.877
 4095SOL    HW124316   2.841   6.534   5.809
 4095SOL    HW224317   2.818   6.413   5.916
 4096SOL     OW24318   2.901   6.684   6.282
 4096SOL    HW124319   2.831   6.637   6.336
 4096SOL    HW224320   2.960   6.616   6.239
 4097SOL     OW24321   2.876   5.822   6.557
 4097SOL    HW124322   2.868   5.786   6.464
 4097SOL    HW224323   2.874   5.746   6.622
 4098SOL     OW24324   2.452   7.073   6.077
 4098SOL    HW124325   2.494   7.015   6.007
 4098SOL    HW224326   2.408   7.152   6.033
 4099SOL     OW24327   3.571   5.971   6.967
 4099SOL    HW124328   3.644   6.040   6.971
 4099SOL    HW224329   3.599   5.896   6.908
 4100SOL     OW24330   2.117   6.934   5.876
 4100SOL    HW124331   2.021   6.935   5.849
 4100SOL    HW224332   2.129   6.987   5.960
 4101SOL     OW24333   1.934   5.752   5.904
 4101SOL    HW124334   1.917   5.835   5.850
 4101SOL    HW224335   2.024   5.715   5.882
 4102SOL     OW24336   3.045   6.921   5.705
 4102SOL    HW124337   2.946   6.910   5.707
 4102SOL    HW224338   3.079   6.936   5.798
 4103SOL     OW24339   3.355   7.353   6.545
 4103SOL    HW124340   3.388   7.417   6.476
 4103SOL    HW224341   3.421   7.347   6.620
 4104SOL     OW24342   3.312   6.806   7.219
 4104SOL    HW124343   3.303   6.796   7.318
 4104SOL    HW224344   3.408   6.799   7.193
 4105SOL     OW24345   3.536   6.469   6.840
 4105SOL    HW124346   3.509   6.380   6.803
 4105SOL    HW224347   3.537   6.537   6.767
 4106SOL     OW24348   3.087   5.911   6.035
 4106SOL    HW124349   3.152   5.837   6.024
 4106SOL    HW224350   3.107   5.961   6.119
 4107SOL     OW24351   2.456   6.331   6.238
 4107SOL    HW124352   2.506   6.416   6.219
 4107SOL    HW224353   2.368   6.333   6.190
 4108SOL     OW24354   3.592   6.520   7.103
 4108SOL    HW124355   3.630   6.611   7.118
 4108SOL    HW224356   3.584   6.503   7.004
 4109SOL     OW24357   2.721   6.960   5.602
 4109SOL    HW124358   2.675   6.975   5.690
 4109SOL    HW224359   2.765   7.045   5.572
 4110SOL     OW24360   2.523   7.376   6.539
 4110SOL    HW124361   2.477   7.464   6.526
 4110SOL    HW224362   2.622   7.388   6.532
 4111SOL     OW24363   2.721   6.542   6.447
 4111SOL    HW124364   2.775   6.473   6.495
 4111SOL    HW224365   2.689   6.611   6.513
 4112SOL     OW24366   2.945   6.570   5.673
 4112SOL    HW124367   2.922   6.623   5.591
 4112SOL    HW224368   3.026   6.514   5.654
 4113SOL     OW24369   3.723   7.155   6.437
 4113SOL    HW124370   3.652   7.143   6.367
 4113SOL    HW224371   3.724   7.076   6.497
 4114SOL     OW24372   1.941   6.826   6.239
 4114SOL    HW124373   1.940   6.779   6.327
 4114SOL    HW224374   2.023   6.798   6.188
 4115SOL     OW24375   3.686   5.778   6.813
 4115SOL    HW124376   3.682   5.688   6.857
 4115SOL    HW224377   3.689   5.767   6.714
 4116SOL     OW24378   2.290   6.010   6.106
 4116SOL    HW124379   2.320   5.938   6.044
 4116SOL    HW224380   2.251   5.970   6.189
 4117SOL     OW24381   3.567   7.073   6.690
 4117SOL    HW124382   3.474   7.048   6.663
 4117SOL    HW224383   3.593   7.023   6.772
 4118SOL     OW24384   2.674   7.172   6.273
 4118SOL    HW124385   2.706   7.182   6.179
 4118SOL    HW224386   2.595   7.110   6.275
 4119SOL     OW24387   3.286   5.800   6.698
 4119SOL    HW124388   3.338   5.735   6.753
 4119SOL    HW224389   3.237   5.863   6.759
 4120SOL     OW24390   2.863   5.620   6.740
 4120SOL    HW124391   2.800   5.548   6.709
 4120SOL    HW224392   2.956   5.584   6.740
 4121SOL     OW24393   2.632   6.916   5.887
 4121SOL    HW124394   2.586   6.829   5.904
 4121SOL    HW224395   2.723   6.913   5.928
 4122SOL     OW24396   3.214   5.638   5.754
 4122SOL    HW124397   3.249   5.597   5.670
 4122SOL    HW224398   3.124   5.600   5.774
 4123SOL     OW24399   3.162   6.039   6.277
 4123SOL    HW124400   3.103   6.119   6.281
 4123SOL    HW224401   3.177   6.004   6.370
 4124SOL     OW24402   3.455   5.807   6.468
 4124SOL    HW124403   3.371   5.806   6.522
 4124SOL    HW224404   3.457   5.890   6.412
 4125SOL     OW24405   1.901   6.663   5.886
 4125SOL    HW124406   2.000   6.652   5.877
 4125SOL    HW224407   1.861   6.577   5.918
 4126SOL     OW24408   2.737   7.232   5.923
 4126SOL    HW124409   2.660   7.197   5.869
 4126SOL    HW224410   2.705   7.303   5.985
 4127SOL     OW24411   2.092   8.076   0.113
 4127SOL    HW124412   1.999   8.074   0.150
 4127SOL    HW224413   2.093   8.037   0.021
 4128SOL     OW24414   2.087   7.723   0.996
 4128SOL    HW124415   2.122   7.706   1.088
 4128SOL    HW224416   1.999   7.678   0.984
 4129SOL     OW24417   1.881   7.816   0.647
 4129SOL    HW124418   1.799   7.859   0.686
 4129SOL    HW224419   1.853   7.743   0.584
 4130SOL     OW24420   2.997   8.151   0.717
 4130SOL    HW124421   3.054   8.229   0.692
 4130SOL    HW224422   2.937   8.177   0.793
 4131SOL     OW24423   3.617   8.055   0.231
 4131SOL    HW124424   3.605   8.042   0.132
 4131SOL    HW224425   3.587   7.974   0.280
 4132SOL     OW24426   2.630   8.592   1.023
 4132SOL    HW124427   2.552   8.609   1.083
 4132SOL    HW224428   2.664   8.679   0.987
 4133SOL     OW24429   2.547   8.460   0.665
 4133SOL    HW124430   2.616   8.444   0.735
 4133SOL    HW224431   2.474   8.517   0.703
 4134SOL     OW24432   2.300   7.840   1.499
 4134SOL    HW124433   2.382   7.784   1.508
 4134SOL    HW224434   2.219   7.782   1.503
 4135SOL     OW24435   3.465   7.895   0.737
 4135SOL    HW124436   3.391   7.941   0.687
 4135SOL    HW224437   3.516   7.963   0.790
 4136SOL     OW24438   2.102   8.539   0.886
 4136SOL    HW124439   2.116   8.455   0.938
 4136SOL    HW224440   2.047   8.603   0.941
 4137SOL     OW24441   1.984   8.091   0.563
 4137SOL    HW124442   1.939   8.003   0.580
 4137SOL    HW224443   1.983   8.145   0.647
 4138SOL     OW24444   1.975   8.185   1.597
 4138SOL    HW124445   2.063   8.172   1.642
 4138SOL    HW224446   1.962   8.282   1.575
 4139SOL     OW24447   2.671   7.452   0.502
 4139SOL    HW124448   2.711   7.543   0.493
 4139SOL    HW224449   2.571   7.460   0.508
 4140SOL     OW24450   2.059   8.424   1.264
 4140SOL    HW124451   2.148   8.379   1.250
 4140SOL    HW224452   1.986   8.359   1.245
 4141SOL     OW24453   3.387   8.447   0.190
 4141SOL    HW124454   3.324   8.371   0.203
 4141SOL    HW224455   3.435   8.465   0.276
 4142SOL     OW24456   2.460   8.177   0.270
 4142SOL    HW124457   2.484   8.246   0.202
 4142SOL    HW224458   2.382   8.210   0.324
 4143SOL     OW24459   3.143   7.793   0.944
 4143SOL    HW124460   3.057   7.743   0.931
 4143SOL    HW224461   3.205   7.739   1.000
 4144SOL     OW24462   3.256   7.917   1.674
 4144SOL    HW124463   3.236   7.960   1.762
 4144SOL    HW224464   3.334   7.855   1.683
 4145SOL     OW24465   2.903   8.149   0.429
 4145SOL    HW124466   2.929   8.145   0.525
 4145SOL    HW224467   2.818   8.098   0.415
 4146SOL     OW24468   1.938   8.259   0.789
 4146SOL    HW124469   2.037   8.247   0.798
 4146SOL    HW224470   1.914   8.354   0.810
 4147SOL     OW24471   2.727   7.796   0.195
 4147SOL    HW124472   2.786   7.859   0.146
 4147SOL    HW224473   2.746   7.702   0.166
 4148SOL     OW24474   2.412   7.644   0.885
 4148SOL    HW124475   2.407   7.639   0.985
 4148SOL    HW224476   2.414   7.740   0.856
 4149SOL     OW24477   3.320   8.183   0.728
 4149SOL    HW124478   3.315   8.118   0.803
 4149SOL    HW224479   3.400   8.242   0.741
 4150SOL     OW24480   3.262   7.555   0.426
 4150SOL    HW124481   3.238   7.518   0.336
 4150SOL    HW224482   3.361   7.571   0.430
 4151SOL     OW24483   2.244   8.148   0.480
 4151SOL    HW124484   2.289   8.058   0.477
 4151SOL    HW224485   2.150   8.137   0.513
 4152SOL     OW24486   3.409   7.670   1.729
 4152SOL    HW124487   3.404   7.707   1.821
 4152SOL    HW224488   3.337   7.601   1.717
 4153SOL     OW24489   2.476   7.570   0.117
 4153SOL    HW124490   2.574   7.548   0.124
 4153SOL    HW224491   2.445   7.553   0.024
 4154SOL     OW24492   3.213   8.038   1.433
 4154SOL    HW124493   3.241   7.995   1.518
 4154SOL    HW224494   3.238   8.134   1.434
 4155SOL     OW24495   2.784   7.951   0.899
 4155SOL    HW124496   2.759   7.942   0.803
 4155SOL    HW224497   2.832   7.869   0.930
 4156SOL     OW24498   2.401   7.512   0.512
 4156SOL    HW124499   2.320   7.513   0.570
 4156SOL    HW224500   2.404   7.595   0.457
 4157SOL     OW24501   2.159   7.483   0.171
 4157SOL    HW124502   2.208   7.567   0.150
 4157SOL    HW224503   2.221   7.418   0.216
 4158SOL     OW24504   2.797   7.684   0.480
 4158SOL    HW124505   2.749   7.725   0.402
 4158SOL    HW224506   2.896   7.682   0.461
 4159SOL     OW24507   2.938   8.131   1.464
 4159SOL    HW124508   2.858   8.070   1.467
 4159SOL    HW224509   3.019   8.078   1.440
 4160SOL     OW24510   2.894   7.997   0.016
 4160SOL    HW124511   2.853   8.079  -0.023
 4160SOL    HW224512   2.958   8.023   0.089
 4161SOL     OW24513   2.423   7.670   1.147
 4161SOL    HW124514   2.461   7.586   1.184
 4161SOL    HW224515   2.335   7.689   1.191
 4162SOL     OW24516   2.728   7.902   0.642
 4162SOL    HW124517   2.696   7.974   0.580
 4162SOL    HW224518   2.752   7.821   0.589
 4163SOL     OW24519   2.879   7.487   0.753
 4163SOL    HW124520   2.807   7.492   0.684
 4163SOL    HW224521   2.855   7.418   0.822
 4164SOL     OW24522   3.328   8.038   0.992
 4164SOL    HW124523   3.298   7.943   0.999
 4164SOL    HW224524   3.401   8.054   1.058
 4165SOL     OW24525   3.719   8.281   0.377
 4165SOL    HW124526   3.761   8.217   0.441
 4165SOL    HW224527   3.681   8.230   0.299
 4166SOL     OW24528   3.252   8.023   0.078
 4166SOL    HW124529   3.198   8.002   0.159
 4166SOL    HW224530   3.343   7.982   0.087
 4167SOL     OW24531   2.389   7.704   0.328
 4167SOL    HW124532   2.416   7.645   0.253
 4167SOL    HW224533   2.389   7.799   0.297
 4168SOL     OW24534   3.500   8.547   1.079
 4168SOL    HW124535   3.505   8.628   1.138
 4168SOL    HW224536   3.414   8.549   1.028
 4169SOL     OW24537   3.136   7.834   1.262
 4169SOL    HW124538   3.157   7.908   1.326
 4169SOL    HW224539   3.047   7.851   1.219
 4170SOL     OW24540   2.428   7.985   0.865
 4170SOL    HW124541   2.440   8.051   0.791
 4170SOL    HW224542   2.474   8.019   0.948
 4171SOL     OW24543   3.444   8.087   0.472
 4171SOL    HW124544   3.413   8.148   0.545
 4171SOL    HW224545   3.494   8.139   0.403
 4172SOL     OW24546   2.366   7.498   1.740
 4172SOL    HW124547   2.324   7.441   1.670
 4172SOL    HW224548   2.300   7.567   1.772
 4173SOL     OW24549   2.435   8.318   1.029
 4173SOL    HW124550   2.479   8.407   1.020
 4173SOL    HW224551   2.372   8.318   1.106
 4174SOL     OW24552   3.222   8.310   1.045
 4174SOL    HW124553   3.147   8.310   0.979
 4174SOL    HW224554   3.259   8.218   1.054
 4175SOL     OW24555   3.071   7.973   0.275
 4175SOL    HW124556   3.084   7.889   0.329
 4175SOL    HW224557   3.042   8.047   0.335
 4176SOL     OW24558   2.169   7.661   1.231
 4176SOL    HW124559   2.146   7.698   1.321
 4176SOL    HW224560   2.139   7.566   1.225
 4177SOL     OW24561   2.594   8.082   1.064
 4177SOL    HW124562   2.653   8.056   0.988
 4177SOL    HW224563   2.566   8.178   1.053
 4178SOL     OW24564   3.590   8.383   1.854
 4178SOL    HW124565   3.544   8.376   1.765
 4178SOL    HW224566   3.528   8.427   1.920
 4179SOL     OW24567   2.169   7.511   0.618
 4179SOL    HW124568   2.158   7.605   0.651
 4179SOL    HW224569   2.164   7.448   0.695
 4180SOL     OW24570   3.484   7.815   0.374
 4180SOL    HW124571   3.486   7.739   0.438
 4180SOL    HW224572   3.436   7.892   0.414
 4181SOL     OW24573   2.885   8.214   0.966
 4181SOL    HW124574   2.900   8.235   1.062
 4181SOL    HW224575   2.855   8.119   0.957
 4182SOL     OW24576   3.402   7.722   0.125
 4182SOL    HW124577   3.341   7.647   0.148
 4182SOL    HW224578   3.424   7.774   0.208
 4183SOL     OW24579   3.165   8.286   0.042
 4183SOL    HW124580   3.199   8.193   0.057
 4183SOL    HW224581   3.183   8.313  -0.053
 4184SOL     OW24582   2.181   8.258   0.949
 4184SOL    HW124583   2.274   8.294   0.954
 4184SOL    HW224584   2.175   8.173   1.001
 4185SOL     OW24585   2.201   7.957   1.006
 4185SOL    HW124586   2.149   7.874   0.989
 4185SOL    HW224587   2.278   7.962   0.942
 4186SOL     OW24588   3.000   7.828   1.678
 4186SOL    HW124589   2.955   7.891   1.742
 4186SOL    HW224590   3.093   7.859   1.661
 4187SOL     OW24591   3.022   7.655   1.477
 4187SOL    HW124592   3.022   7.719   1.554
 4187SOL    HW224593   3.050   7.703   1.394
 4188SOL     OW24594   2.864   8.244   1.238
 4188SOL    HW124595   2.905   8.212   1.324
 4188SOL    HW224596   2.768   8.217   1.235
 4189SOL     OW24597   1.902   7.992   1.114
 4189SOL    HW124598   1.987   7.959   1.073
 4189SOL    HW224599   1.915   8.007   1.212
 4190SOL     OW24600   2.677   8.020   0.325
 4190SOL    HW124601   2.684   7.931   0.279
 4190SOL    HW224602   2.583   8.054   0.317
 4191SOL     OW24603   3.519   8.052   1.206
 4191SOL    HW124604   3.481   7.983   1.268
 4191SOL    HW224605   3.601   8.016   1.162
 4192SOL     OW24606   2.335   7.948   0.191
 4192SOL    HW124607   2.396   8.028   0.195
 4192SOL    HW224608   2.240   7.979   0.198
 4193SOL     OW24609   3.209   8.507   1.234
 4193SOL    HW124610   3.233   8.444   1.160
 4193SOL    HW224611   3.119   8.547   1.216
 4194SOL     OW24612   3.164   8.303   0.309
 4194SOL    HW124613   3.078   8.272   0.351
 4194SOL    HW224614   3.160   8.289   0.210
 4195SOL     OW24615   2.765   7.534   0.133
 4195SOL    HW124616   2.816   7.535   0.047
 4195SOL    HW224617   2.821   7.492   0.204
 4196SOL     OW24618   3.588   7.583   0.523
 4196SOL    HW124619   3.661   7.566   0.456
 4196SOL    HW224620   3.557   7.496   0.561
 4197SOL     OW24621   3.142   8.375   0.672
 4197SOL    HW124622   3.202   8.294   0.674
 4197SOL    HW224623   3.182   8.444   0.612
 4198SOL     OW24624   3.703   7.623   0.963
 4198SOL    HW124625   3.742   7.538   0.927
 4198SOL    HW224626   3.605   7.625   0.944
 4199SOL     OW24627   2.125   7.774   0.720
 4199SOL    HW124628   2.046   7.825   0.686
 4199SOL    HW224629   2.116   7.759   0.818
 4200SOL     OW24630   2.778   8.358   0.291
 4200SOL    HW124631   2.841   8.396   0.223
 4200SOL    HW224632   2.818   8.275   0.330
 4201SOL     OW24633   2.876   7.684   0.971
 4201SOL    HW124634   2.868   7.648   0.878
 4201SOL    HW224635   2.874   7.608   1.036
 4202SOL     OW24636   3.571   7.833   1.381
 4202SOL    HW124637   3.644   7.902   1.385
 4202SOL    HW224638   3.599   7.758   1.322
 4203SOL     OW24639   1.967   8.461   1.726
 4203SOL    HW124640   1.890   8.428   1.780
 4203SOL    HW224641   2.052   8.431   1.768
 4204SOL     OW24642   3.302   8.304   1.398
 4204SOL    HW124643   3.245   8.356   1.335
 4204SOL    HW224644   3.398   8.316   1.374
 4205SOL     OW24645   1.934   7.614   0.318
 4205SOL    HW124646   1.917   7.697   0.264
 4205SOL    HW224647   2.024   7.577   0.296
 4206SOL     OW24648   3.536   8.331   1.254
 4206SOL    HW124649   3.509   8.242   1.217
 4206SOL    HW224650   3.537   8.399   1.181
 4207SOL     OW24651   3.087   7.773   0.449
 4207SOL    HW124652   3.152   7.699   0.438
 4207SOL    HW224653   3.107   7.823   0.533
 4208SOL     OW24654   2.456   8.193   0.652
 4208SOL    HW124655   2.506   8.278   0.633
 4208SOL    HW224656   2.368   8.195   0.604
 4209SOL     OW24657   3.592   8.382   1.517
 4209SOL    HW124658   3.630   8.473   1.532
 4209SOL    HW224659   3.584   8.365   1.418
 4210SOL     OW24660   2.945   8.432   0.087
 4210SOL    HW124661   2.922   8.485   0.005
 4210SOL    HW224662   3.026   8.376   0.068
 4211SOL     OW24663   3.686   7.640   1.227
 4211SOL    HW124664   3.682   7.550   1.271
 4211SOL    HW224665   3.689   7.629   1.128
 4212SOL     OW24666   2.290   7.872   0.520
 4212SOL    HW124667   2.320   7.800   0.458
 4212SOL    HW224668   2.251   7.832   0.603
 4213SOL     OW24669   2.179   7.995   1.280
 4213SOL    HW124670   2.217   7.936   1.352
 4213SOL    HW224671   2.219   7.969   1.192
 4214SOL     OW24672   3.286   7.662   1.112
 4214SOL    HW124673   3.338   7.597   1.167
 4214SOL    HW224674   3.237   7.725   1.173
 4215SOL     OW24675   2.863   7.482   1.154
 4215SOL    HW124676   2.800   7.410   1.123
 4215SOL    HW224677   2.956   7.446   1.154
 4216SOL     OW24678   3.214   7.500   0.168
 4216SOL    HW124679   3.249   7.459   0.084
 4216SOL    HW224680   3.124   7.462   0.188
 4217SOL     OW24681   3.162   7.901   0.691
 4217SOL    HW124682   3.103   7.981   0.695
 4217SOL    HW224683   3.177   7.866   0.784
 4218SOL     OW24684   3.455   7.669   0.882
 4218SOL    HW124685   3.371   7.668   0.936
 4218SOL    HW224686   3.457   7.752   0.826
 4219SOL     OW24687   1.901   8.525   0.300
 4219SOL    HW124688   2.000   8.514   0.291
 4219SOL    HW224689   1.861   8.439   0.332
 4220SOL     OW24690   2.092   8.076   1.975
 4220SOL    HW124691   1.999   8.074   2.012
 4220SOL    HW224692   2.093   8.037   1.883
 4221SOL     OW24693   2.087   7.723   2.858
 4221SOL    HW124694   2.122   7.706   2.950
 4221SOL    HW224695   1.999   7.678   2.846
 4222SOL     OW24696   1.975   8.185   3.459
 4222SOL    HW124697   2.063   8.172   3.504
 4222SOL    HW224698   1.962   8.282   3.437
 4223SOL     OW24699   2.059   8.424   3.126
 4223SOL    HW124700   2.148   8.379   3.112
 4223SOL    HW224701   1.986   8.359   3.107
 4224SOL     OW24702   3.387   8.447   2.052
 4224SOL    HW124703   3.324   8.371   2.065
 4224SOL    HW224704   3.435   8.465   2.138
 4225SOL     OW24705   2.179   7.699   3.663
 4225SOL    HW124706   2.250   7.770   3.669
 4225SOL    HW224707   2.091   7.738   3.691
 4226SOL     OW24708   3.143   7.793   2.806
 4226SOL    HW124709   3.057   7.743   2.793
 4226SOL    HW224710   3.205   7.739   2.862
 4227SOL     OW24711   2.669   8.053   3.327
 4227SOL    HW124712   2.622   8.050   3.416
 4227SOL    HW224713   2.618   7.998   3.261
 4228SOL     OW24714   2.853   7.858   3.104
 4228SOL    HW124715   2.776   7.892   3.158
 4228SOL    HW224716   2.819   7.807   3.025
 4229SOL     OW24717   3.262   7.555   2.288
 4229SOL    HW124718   3.238   7.518   2.198
 4229SOL    HW224719   3.361   7.571   2.292
 4230SOL     OW24720   3.409   7.670   3.591
 4230SOL    HW124721   3.404   7.707   3.683
 4230SOL    HW224722   3.337   7.601   3.579
 4231SOL     OW24723   3.213   8.038   3.295
 4231SOL    HW124724   3.241   7.995   3.380
 4231SOL    HW224725   3.238   8.134   3.296
 4232SOL     OW24726   2.159   7.483   2.033
 4232SOL    HW124727   2.208   7.567   2.012
 4232SOL    HW224728   2.221   7.418   2.078
 4233SOL     OW24729   2.728   7.902   2.504
 4233SOL    HW124730   2.696   7.974   2.442
 4233SOL    HW224731   2.752   7.821   2.451
 4234SOL     OW24732   3.328   8.038   2.854
 4234SOL    HW124733   3.298   7.943   2.861
 4234SOL    HW224734   3.401   8.054   2.920
 4235SOL     OW24735   3.500   8.547   2.941
 4235SOL    HW124736   3.505   8.628   3.000
 4235SOL    HW224737   3.414   8.549   2.890
 4236SOL     OW24738   3.444   8.087   2.334
 4236SOL    HW124739   3.413   8.148   2.407
 4236SOL    HW224740   3.494   8.139   2.265
 4237SOL     OW24741   3.590   8.383   3.716
 4237SOL    HW124742   3.544   8.376   3.627
 4237SOL    HW224743   3.528   8.427   3.782
 4238SOL     OW24744   3.165   8.286   1.904
 4238SOL    HW124745   3.199   8.193   1.919
 4238SOL    HW224746   3.183   8.313   1.809
 4239SOL     OW24747   2.051   7.968   3.584
 4239SOL    HW124748   2.110   7.928   3.514
 4239SOL    HW224749   1.993   8.039   3.543
 4240SOL     OW24750   3.231   8.398   3.522
 4240SOL    HW124751   3.270   8.487   3.542
 4240SOL    HW224752   3.241   8.378   3.425
 4241SOL     OW24753   3.519   8.052   3.068
 4241SOL    HW124754   3.481   7.983   3.130
 4241SOL    HW224755   3.601   8.016   3.024
 4242SOL     OW24756   3.209   8.507   3.096
 4242SOL    HW124757   3.233   8.444   3.022
 4242SOL    HW224758   3.119   8.547   3.078
 4243SOL     OW24759   3.164   8.303   2.171
 4243SOL    HW124760   3.078   8.272   2.213
 4243SOL    HW224761   3.160   8.289   2.072
 4244SOL     OW24762   3.588   7.583   2.385
 4244SOL    HW124763   3.661   7.566   2.318
 4244SOL    HW224764   3.557   7.496   2.423
 4245SOL     OW24765   3.142   8.375   2.534
 4245SOL    HW124766   3.202   8.294   2.536
 4245SOL    HW224767   3.182   8.444   2.474
 4246SOL     OW24768   3.703   7.623   2.825
 4246SOL    HW124769   3.742   7.538   2.789
 4246SOL    HW224770   3.605   7.625   2.806
 4247SOL     OW24771   3.571   7.833   3.243
 4247SOL    HW124772   3.644   7.902   3.247
 4247SOL    HW224773   3.599   7.758   3.184
 4248SOL     OW24774   1.967   8.461   3.588
 4248SOL    HW124775   1.890   8.428   3.642
 4248SOL    HW224776   2.052   8.431   3.630
 4249SOL     OW24777   2.475   8.290   3.293
 4249SOL    HW124778   2.531   8.371   3.276
 4249SOL    HW224779   2.534   8.210   3.296
 4250SOL     OW24780   3.639   7.790   3.504
 4250SOL    HW124781   3.622   7.821   3.410
 4250SOL    HW224782   3.555   7.753   3.542
 4251SOL     OW24783   2.945   8.432   1.949
 4251SOL    HW124784   2.922   8.485   1.867
 4251SOL    HW224785   3.026   8.376   1.930
 4252SOL     OW24786   2.179   7.995   3.142
 4252SOL    HW124787   2.217   7.936   3.214
 4252SOL    HW224788   2.219   7.969   3.054
 4253SOL     OW24789   3.214   7.500   2.030
 4253SOL    HW124790   3.249   7.459   1.946
 4253SOL    HW224791   3.124   7.462   2.050
 4254SOL     OW24792   3.455   7.669   2.744
 4254SOL    HW124793   3.371   7.668   2.798
 4254SOL    HW224794   3.457   7.752   2.688
 4255SOL     OW24795   2.997   8.151   4.441
 4255SOL    HW124796   3.054   8.229   4.416
 4255SOL    HW224797   2.937   8.177   4.517
 4256SOL     OW24798   2.712   8.246   5.547
 4256SOL    HW124799   2.708   8.322   5.612
 4256SOL    HW224800   2.734   8.282   5.456
 4257SOL     OW24801   2.300   7.840   5.223
 4257SOL    HW124802   2.382   7.784   5.232
 4257SOL    HW224803   2.219   7.782   5.227
 4258SOL     OW24804   3.465   7.895   4.461
 4258SOL    HW124805   3.391   7.941   4.411
 4258SOL    HW224806   3.516   7.963   4.514
 4259SOL     OW24807   1.984   8.091   4.287
 4259SOL    HW124808   1.939   8.003   4.304
 4259SOL    HW224809   1.983   8.145   4.371
 4260SOL     OW24810   2.671   7.452   4.226
 4260SOL    HW124811   2.711   7.543   4.217
 4260SOL    HW224812   2.571   7.460   4.232
 4261SOL     OW24813   2.179   7.699   5.525
 4261SOL    HW124814   2.250   7.770   5.531
 4261SOL    HW224815   2.091   7.738   5.553
 4262SOL     OW24816   3.143   7.793   4.668
 4262SOL    HW124817   3.057   7.743   4.655
 4262SOL    HW224818   3.205   7.739   4.724
 4263SOL     OW24819   2.669   8.053   5.189
 4263SOL    HW124820   2.622   8.050   5.278
 4263SOL    HW224821   2.618   7.998   5.123
 4264SOL     OW24822   3.256   7.917   5.398
 4264SOL    HW124823   3.236   7.960   5.486
 4264SOL    HW224824   3.334   7.855   5.407
 4265SOL     OW24825   3.581   8.033   5.555
 4265SOL    HW124826   3.555   8.122   5.519
 4265SOL    HW224827   3.579   7.965   5.482
 4266SOL     OW24828   2.064   7.733   5.222
 4266SOL    HW124829   1.984   7.793   5.209
 4266SOL    HW224830   2.054   7.684   5.308
 4267SOL     OW24831   3.409   7.670   5.453
 4267SOL    HW124832   3.404   7.707   5.545
 4267SOL    HW224833   3.337   7.601   5.441
 4268SOL     OW24834   2.643   7.712   5.473
 4268SOL    HW124835   2.710   7.651   5.516
 4268SOL    HW224836   2.570   7.731   5.538
 4269SOL     OW24837   2.159   7.483   3.895
 4269SOL    HW124838   2.208   7.567   3.874
 4269SOL    HW224839   2.221   7.418   3.940
 4270SOL     OW24840   2.797   7.684   4.204
 4270SOL    HW124841   2.749   7.725   4.126
 4270SOL    HW224842   2.896   7.682   4.185
 4271SOL     OW24843   2.423   7.670   4.871
 4271SOL    HW124844   2.461   7.586   4.908
 4271SOL    HW224845   2.335   7.689   4.915
 4272SOL     OW24846   3.136   7.834   4.986
 4272SOL    HW124847   3.157   7.908   5.050
 4272SOL    HW224848   3.047   7.851   4.943
 4273SOL     OW24849   2.428   7.985   4.589
 4273SOL    HW124850   2.440   8.051   4.515
 4273SOL    HW224851   2.474   8.019   4.672
 4274SOL     OW24852   3.449   8.227   5.394
 4274SOL    HW124853   3.357   8.265   5.389
 4274SOL    HW224854   3.509   8.274   5.329
 4275SOL     OW24855   2.875   7.553   5.494
 4275SOL    HW124856   2.881   7.638   5.442
 4275SOL    HW224857   2.907   7.477   5.437
 4276SOL     OW24858   2.366   7.498   5.464
 4276SOL    HW124859   2.324   7.441   5.394
 4276SOL    HW224860   2.300   7.567   5.496
 4277SOL     OW24861   3.590   8.383   5.578
 4277SOL    HW124862   3.544   8.376   5.489
 4277SOL    HW224863   3.528   8.427   5.644
 4278SOL     OW24864   2.212   8.346   5.528
 4278SOL    HW124865   2.288   8.390   5.576
 4278SOL    HW224866   2.247   8.299   5.446
 4279SOL     OW24867   3.000   7.828   5.402
 4279SOL    HW124868   2.955   7.891   5.466
 4279SOL    HW224869   3.093   7.859   5.385
 4280SOL     OW24870   3.022   7.655   5.201
 4280SOL    HW124871   3.022   7.719   5.278
 4280SOL    HW224872   3.050   7.703   5.118
 4281SOL     OW24873   3.231   8.398   5.384
 4281SOL    HW124874   3.270   8.487   5.404
 4281SOL    HW224875   3.241   8.378   5.287
 4282SOL     OW24876   2.677   8.020   4.049
 4282SOL    HW124877   2.684   7.931   4.003
 4282SOL    HW224878   2.583   8.054   4.041
 4283SOL     OW24879   3.588   7.583   4.247
 4283SOL    HW124880   3.661   7.566   4.180
 4283SOL    HW224881   3.557   7.496   4.285
 4284SOL     OW24882   3.142   8.375   4.396
 4284SOL    HW124883   3.202   8.294   4.398
 4284SOL    HW224884   3.182   8.444   4.336
 4285SOL     OW24885   2.125   7.774   4.444
 4285SOL    HW124886   2.046   7.825   4.410
 4285SOL    HW224887   2.116   7.759   4.542
 4286SOL     OW24888   3.571   7.833   5.105
 4286SOL    HW124889   3.644   7.902   5.109
 4286SOL    HW224890   3.599   7.758   5.046
 4287SOL     OW24891   1.967   8.461   5.450
 4287SOL    HW124892   1.890   8.428   5.504
 4287SOL    HW224893   2.052   8.431   5.492
 4288SOL     OW24894   2.578   8.013   5.432
 4288SOL    HW124895   2.597   8.078   5.506
 4288SOL    HW224896   2.638   7.933   5.441
 4289SOL     OW24897   3.639   7.790   5.366
 4289SOL    HW124898   3.622   7.821   5.272
 4289SOL    HW224899   3.555   7.753   5.404
 4290SOL     OW24900   2.945   8.432   3.811
 4290SOL    HW124901   2.922   8.485   3.729
 4290SOL    HW224902   3.026   8.376   3.792
 4291SOL     OW24903   3.686   7.640   4.951
 4291SOL    HW124904   3.682   7.550   4.995
 4291SOL    HW224905   3.689   7.629   4.852
 4292SOL     OW24906   2.290   7.872   4.244
 4292SOL    HW124907   2.320   7.800   4.182
 4292SOL    HW224908   2.251   7.832   4.327
 4293SOL     OW24909   3.214   7.500   3.892
 4293SOL    HW124910   3.249   7.459   3.808
 4293SOL    HW224911   3.124   7.462   3.912
 4294SOL     OW24912   3.162   7.901   4.415
 4294SOL    HW124913   3.103   7.981   4.419
 4294SOL    HW224914   3.177   7.866   4.508
 4295SOL     OW24915   2.087   7.723   6.582
 4295SOL    HW124916   2.122   7.706   6.674
 4295SOL    HW224917   1.999   7.678   6.570
 4296SOL     OW24918   1.881   7.816   6.233
 4296SOL    HW124919   1.799   7.859   6.272
 4296SOL    HW224920   1.853   7.743   6.170
 4297SOL     OW24921   2.997   8.151   6.303
 4297SOL    HW124922   3.054   8.229   6.278
 4297SOL    HW224923   2.937   8.177   6.379
 4298SOL     OW24924   3.617   8.055   5.817
 4298SOL    HW124925   3.605   8.042   5.718
 4298SOL    HW224926   3.587   7.974   5.866
 4299SOL     OW24927   2.630   8.592   6.609
 4299SOL    HW124928   2.552   8.609   6.669
 4299SOL    HW224929   2.664   8.679   6.573
 4300SOL     OW24930   2.547   8.460   6.251
 4300SOL    HW124931   2.616   8.444   6.321
 4300SOL    HW224932   2.474   8.517   6.289
 4301SOL     OW24933   3.465   7.895   6.323
 4301SOL    HW124934   3.391   7.941   6.273
 4301SOL    HW224935   3.516   7.963   6.376
 4302SOL     OW24936   2.102   8.539   6.472
 4302SOL    HW124937   2.116   8.455   6.524
 4302SOL    HW224938   2.047   8.603   6.527
 4303SOL     OW24939   1.984   8.091   6.149
 4303SOL    HW124940   1.939   8.003   6.166
 4303SOL    HW224941   1.983   8.145   6.233
 4304SOL     OW24942   2.671   7.452   6.088
 4304SOL    HW124943   2.711   7.543   6.079
 4304SOL    HW224944   2.571   7.460   6.094
 4305SOL     OW24945   2.059   8.424   6.850
 4305SOL    HW124946   2.148   8.379   6.836
 4305SOL    HW224947   1.986   8.359   6.831
 4306SOL     OW24948   3.387   8.447   5.776
 4306SOL    HW124949   3.324   8.371   5.789
 4306SOL    HW224950   3.435   8.465   5.862
 4307SOL     OW24951   2.460   8.177   5.856
 4307SOL    HW124952   2.484   8.246   5.788
 4307SOL    HW224953   2.382   8.210   5.910
 4308SOL     OW24954   3.143   7.793   6.530
 4308SOL    HW124955   3.057   7.743   6.517
 4308SOL    HW224956   3.205   7.739   6.586
 4309SOL     OW24957   2.853   7.858   6.828
 4309SOL    HW124958   2.776   7.892   6.882
 4309SOL    HW224959   2.819   7.807   6.749
 4310SOL     OW24960   2.903   8.149   6.015
 4310SOL    HW124961   2.929   8.145   6.111
 4310SOL    HW224962   2.818   8.098   6.001
 4311SOL     OW24963   1.938   8.259   6.375
 4311SOL    HW124964   2.037   8.247   6.384
 4311SOL    HW224965   1.914   8.354   6.396
 4312SOL     OW24966   2.727   7.796   5.781
 4312SOL    HW124967   2.786   7.859   5.732
 4312SOL    HW224968   2.746   7.702   5.752
 4313SOL     OW24969   2.412   7.644   6.471
 4313SOL    HW124970   2.407   7.639   6.571
 4313SOL    HW224971   2.414   7.740   6.442
 4314SOL     OW24972   3.320   8.183   6.314
 4314SOL    HW124973   3.315   8.118   6.389
 4314SOL    HW224974   3.400   8.242   6.327
 4315SOL     OW24975   3.262   7.555   6.012
 4315SOL    HW124976   3.238   7.518   5.922
 4315SOL    HW224977   3.361   7.571   6.016
 4316SOL     OW24978   2.244   8.148   6.066
 4316SOL    HW124979   2.289   8.058   6.063
 4316SOL    HW224980   2.150   8.137   6.099
 4317SOL     OW24981   2.476   7.570   5.703
 4317SOL    HW124982   2.574   7.548   5.710
 4317SOL    HW224983   2.445   7.553   5.610
 4318SOL     OW24984   2.784   7.951   6.485
 4318SOL    HW124985   2.759   7.942   6.389
 4318SOL    HW224986   2.832   7.869   6.516
 4319SOL     OW24987   2.401   7.512   6.098
 4319SOL    HW124988   2.320   7.513   6.156
 4319SOL    HW224989   2.404   7.595   6.043
 4320SOL     OW24990   2.159   7.483   5.757
 4320SOL    HW124991   2.208   7.567   5.736
 4320SOL    HW224992   2.221   7.418   5.802
 4321SOL     OW24993   2.797   7.684   6.066
 4321SOL    HW124994   2.749   7.725   5.988
 4321SOL    HW224995   2.896   7.682   6.047
 4322SOL     OW24996   2.894   7.997   5.602
 4322SOL    HW124997   2.853   8.079   5.563
 4322SOL    HW224998   2.958   8.023   5.675
 4323SOL     OW24999   2.423   7.670   6.733
 4323SOL    HW125000   2.461   7.586   6.770
 4323SOL    HW225001   2.335   7.689   6.777
 4324SOL     OW25002   2.728   7.902   6.228
 4324SOL    HW125003   2.696   7.974   6.166
 4324SOL    HW225004   2.752   7.821   6.175
 4325SOL     OW25005   2.879   7.487   6.339
 4325SOL    HW125006   2.807   7.492   6.270
 4325SOL    HW225007   2.855   7.418   6.408
 4326SOL     OW25008   3.328   8.038   6.578
 4326SOL    HW125009   3.298   7.943   6.585
 4326SOL    HW225010   3.401   8.054   6.644
 4327SOL     OW25011   3.719   8.281   5.963
 4327SOL    HW125012   3.761   8.217   6.027
 4327SOL    HW225013   3.681   8.230   5.885
 4328SOL     OW25014   3.252   8.023   5.664
 4328SOL    HW125015   3.198   8.002   5.745
 4328SOL    HW225016   3.343   7.982   5.673
 4329SOL     OW25017   2.389   7.704   5.914
 4329SOL    HW125018   2.416   7.645   5.839
 4329SOL    HW225019   2.389   7.799   5.883
 4330SOL     OW25020   3.500   8.547   6.665
 4330SOL    HW125021   3.505   8.628   6.724
 4330SOL    HW225022   3.414   8.549   6.614
 4331SOL     OW25023   2.272   8.261   6.837
 4331SOL    HW125024   2.358   8.273   6.887
 4331SOL    HW225025   2.230   8.174   6.864
 4332SOL     OW25026   3.136   7.834   6.848
 4332SOL    HW125027   3.157   7.908   6.912
 4332SOL    HW225028   3.047   7.851   6.805
 4333SOL     OW25029   2.428   7.985   6.451
 4333SOL    HW125030   2.440   8.051   6.377
 4333SOL    HW225031   2.474   8.019   6.534
 4334SOL     OW25032   3.444   8.087   6.058
 4334SOL    HW125033   3.413   8.148   6.131
 4334SOL    HW225034   3.494   8.139   5.989
 4335SOL     OW25035   2.435   8.318   6.615
 4335SOL    HW125036   2.479   8.407   6.606
 4335SOL    HW225037   2.372   8.318   6.692
 4336SOL     OW25038   3.222   8.310   6.631
 4336SOL    HW125039   3.147   8.310   6.565
 4336SOL    HW225040   3.259   8.218   6.640
 4337SOL     OW25041   3.071   7.973   5.861
 4337SOL    HW125042   3.084   7.889   5.915
 4337SOL    HW225043   3.042   8.047   5.921
 4338SOL     OW25044   2.169   7.661   6.817
 4338SOL    HW125045   2.146   7.698   6.907
 4338SOL    HW225046   2.139   7.566   6.811
 4339SOL     OW25047   2.594   8.082   6.650
 4339SOL    HW125048   2.653   8.056   6.574
 4339SOL    HW225049   2.566   8.178   6.639
 4340SOL     OW25050   2.169   7.511   6.204
 4340SOL    HW125051   2.158   7.605   6.237
 4340SOL    HW225052   2.164   7.448   6.281
 4341SOL     OW25053   3.484   7.815   5.960
 4341SOL    HW125054   3.486   7.739   6.024
 4341SOL    HW225055   3.436   7.892   6.000
 4342SOL     OW25056   2.885   8.214   6.552
 4342SOL    HW125057   2.900   8.235   6.648
 4342SOL    HW225058   2.855   8.119   6.543
 4343SOL     OW25059   3.402   7.722   5.711
 4343SOL    HW125060   3.341   7.647   5.734
 4343SOL    HW225061   3.424   7.774   5.794
 4344SOL     OW25062   3.165   8.286   5.628
 4344SOL    HW125063   3.199   8.193   5.643
 4344SOL    HW225064   3.183   8.313   5.533
 4345SOL     OW25065   2.181   8.258   6.535
 4345SOL    HW125066   2.274   8.294   6.540
 4345SOL    HW225067   2.175   8.173   6.587
 4346SOL     OW25068   2.201   7.957   6.592
 4346SOL    HW125069   2.149   7.874   6.575
 4346SOL    HW225070   2.278   7.962   6.528
 4347SOL     OW25071   3.022   7.655   7.063
 4347SOL    HW125072   3.022   7.719   7.140
 4347SOL    HW225073   3.050   7.703   6.980
 4348SOL     OW25074   2.864   8.244   6.824
 4348SOL    HW125075   2.905   8.212   6.910
 4348SOL    HW225076   2.768   8.217   6.821
 4349SOL     OW25077   1.902   7.992   6.700
 4349SOL    HW125078   1.987   7.959   6.659
 4349SOL    HW225079   1.915   8.007   6.798
 4350SOL     OW25080   2.677   8.020   5.911
 4350SOL    HW125081   2.684   7.931   5.865
 4350SOL    HW225082   2.583   8.054   5.903
 4351SOL     OW25083   3.519   8.052   6.792
 4351SOL    HW125084   3.481   7.983   6.854
 4351SOL    HW225085   3.601   8.016   6.748
 4352SOL     OW25086   2.533   7.912   6.855
 4352SOL    HW125087   2.499   7.823   6.825
 4352SOL    HW225088   2.559   7.966   6.775
 4353SOL     OW25089   2.335   7.948   5.777
 4353SOL    HW125090   2.396   8.028   5.781
 4353SOL    HW225091   2.240   7.979   5.784
 4354SOL     OW25092   3.209   8.507   6.820
 4354SOL    HW125093   3.233   8.444   6.746
 4354SOL    HW225094   3.119   8.547   6.802
 4355SOL     OW25095   3.164   8.303   5.895
 4355SOL    HW125096   3.078   8.272   5.937
 4355SOL    HW225097   3.160   8.289   5.796
 4356SOL     OW25098   3.588   7.583   6.109
 4356SOL    HW125099   3.661   7.566   6.042
 4356SOL    HW225100   3.557   7.496   6.147
 4357SOL     OW25101   3.142   8.375   6.258
 4357SOL    HW125102   3.202   8.294   6.260
 4357SOL    HW225103   3.182   8.444   6.198
 4358SOL     OW25104   3.703   7.623   6.549
 4358SOL    HW125105   3.742   7.538   6.513
 4358SOL    HW225106   3.605   7.625   6.530
 4359SOL     OW25107   2.125   7.774   6.306
 4359SOL    HW125108   2.046   7.825   6.272
 4359SOL    HW225109   2.116   7.759   6.404
 4360SOL     OW25110   2.778   8.358   5.877
 4360SOL    HW125111   2.841   8.396   5.809
 4360SOL    HW225112   2.818   8.275   5.916
 4361SOL     OW25113   2.876   7.684   6.557
 4361SOL    HW125114   2.868   7.648   6.464
 4361SOL    HW225115   2.874   7.608   6.622
 4362SOL     OW25116   3.571   7.833   6.967
 4362SOL    HW125117   3.644   7.902   6.971
 4362SOL    HW225118   3.599   7.758   6.908
 4363SOL     OW25119   1.937   7.793   5.619
 4363SOL    HW125120   1.845   7.765   5.590
 4363SOL    HW225121   1.968   7.870   5.563
 4364SOL     OW25122   1.934   7.614   5.904
 4364SOL    HW125123   1.917   7.697   5.850
 4364SOL    HW225124   2.024   7.577   5.882
 4365SOL     OW25125   3.536   8.331   6.840
 4365SOL    HW125126   3.509   8.242   6.803
 4365SOL    HW225127   3.537   8.399   6.767
 4366SOL     OW25128   3.087   7.773   6.035
 4366SOL    HW125129   3.152   7.699   6.024
 4366SOL    HW225130   3.107   7.823   6.119
 4367SOL     OW25131   2.456   8.193   6.238
 4367SOL    HW125132   2.506   8.278   6.219
 4367SOL    HW225133   2.368   8.195   6.190
 4368SOL     OW25134   3.592   8.382   7.103
 4368SOL    HW125135   3.630   8.473   7.118
 4368SOL    HW225136   3.584   8.365   7.004
 4369SOL     OW25137   2.945   8.432   5.673
 4369SOL    HW125138   2.922   8.485   5.591
 4369SOL    HW225139   3.026   8.376   5.654
 4370SOL     OW25140   3.686   7.640   6.813
 4370SOL    HW125141   3.682   7.550   6.857
 4370SOL    HW225142   3.689   7.629   6.714
 4371SOL     OW25143   2.290   7.872   6.106
 4371SOL    HW125144   2.320   7.800   6.044
 4371SOL    HW225145   2.251   7.832   6.189
 4372SOL     OW25146   3.286   7.662   6.698
 4372SOL    HW125147   3.338   7.597   6.753
 4372SOL    HW225148   3.237   7.725   6.759
 4373SOL     OW25149   2.863   7.482   6.740
 4373SOL    HW125150   2.800   7.410   6.709
 4373SOL    HW225151   2.956   7.446   6.740
 4374SOL     OW25152   3.214   7.500   5.754
 4374SOL    HW125153   3.249   7.459   5.670
 4374SOL    HW225154   3.124   7.462   5.774
 4375SOL     OW25155   3.162   7.901   6.277
 4375SOL    HW125156   3.103   7.981   6.281
 4375SOL    HW225157   3.177   7.866   6.370
 4376SOL     OW25158   3.455   7.669   6.468
 4376SOL    HW125159   3.371   7.668   6.522
 4376SOL    HW225160   3.457   7.752   6.412
 4377SOL     OW25161   3.954   0.628   0.113
 4377SOL    HW125162   3.861   0.626   0.150
 4377SOL    HW225163   3.955   0.589   0.021
 4378SOL     OW25164   3.949   0.275   0.996
 4378SOL    HW125165   3.984   0.258   1.088
 4378SOL    HW225166   3.861   0.230   0.984
 4379SOL     OW25167   3.743   0.368   0.647
 4379SOL    HW125168   3.661   0.411   0.686
 4379SOL    HW225169   3.715   0.295   0.584
 4380SOL     OW25170   4.293   1.275   1.165
 4380SOL    HW125171   4.200   1.268   1.128
 4380SOL    HW225172   4.304   1.364   1.209
 4381SOL     OW25173   5.279   1.511   0.703
 4381SOL    HW125174   5.222   1.495   0.784
 4381SOL    HW225175   5.220   1.521   0.623
 4382SOL     OW25176   4.859   0.703   0.717
 4382SOL    HW125177   4.916   0.781   0.692
 4382SOL    HW225178   4.799   0.729   0.793
 4383SOL     OW25179   5.479   0.607   0.231
 4383SOL    HW125180   5.467   0.594   0.132
 4383SOL    HW225181   5.449   0.526   0.280
 4384SOL     OW25182   4.492   1.144   1.023
 4384SOL    HW125183   4.414   1.161   1.083
 4384SOL    HW225184   4.526   1.231   0.987
 4385SOL     OW25185   4.574   0.798   1.823
 4385SOL    HW125186   4.570   0.874   1.888
 4385SOL    HW225187   4.596   0.834   1.732
 4386SOL     OW25188   4.409   1.012   0.665
 4386SOL    HW125189   4.478   0.996   0.735
 4386SOL    HW225190   4.336   1.069   0.703
 4387SOL     OW25191   4.410   1.161   1.803
 4387SOL    HW125192   4.470   1.240   1.817
 4387SOL    HW225193   4.324   1.192   1.762
 4388SOL     OW25194   4.059   1.435   1.061
 4388SOL    HW125195   3.981   1.404   1.008
 4388SOL    HW225196   4.117   1.493   1.004
 4389SOL     OW25197   5.184   1.505   1.339
 4389SOL    HW125198   5.208   1.599   1.365
 4389SOL    HW225199   5.168   1.451   1.421
 4390SOL     OW25200   4.162   0.392   1.499
 4390SOL    HW125201   4.244   0.336   1.508
 4390SOL    HW225202   4.081   0.334   1.503
 4391SOL     OW25203   5.327   0.447   0.737
 4391SOL    HW125204   5.253   0.493   0.687
 4391SOL    HW225205   5.378   0.515   0.790
 4392SOL     OW25206   3.955   1.713   0.483
 4392SOL    HW125207   3.989   1.790   0.537
 4392SOL    HW225208   3.999   1.713   0.393
 4393SOL     OW25209   4.851   1.341   1.690
 4393SOL    HW125210   4.898   1.341   1.778
 4393SOL    HW225211   4.803   1.254   1.679
 4394SOL     OW25212   3.954   1.434   0.538
 4394SOL    HW125213   3.928   1.530   0.538
 4394SOL    HW225214   3.883   1.380   0.583
 4395SOL     OW25215   3.964   1.091   0.886
 4395SOL    HW125216   3.978   1.007   0.938
 4395SOL    HW225217   3.909   1.155   0.941
 4396SOL     OW25218   4.344   1.786   1.439
 4396SOL    HW125219   4.252   1.769   1.474
 4396SOL    HW225220   4.372   1.878   1.465
 4397SOL     OW25221   4.330   0.964   0.123
 4397SOL    HW125222   4.337   1.048   0.069
 4397SOL    HW225223   4.376   0.977   0.211
 4398SOL     OW25224   5.318   0.114   1.480
 4398SOL    HW125225   5.300   0.181   1.408
 4398SOL    HW225226   5.315   0.160   1.569
 4399SOL     OW25227   3.846   0.643   0.563
 4399SOL    HW125228   3.801   0.555   0.580
 4399SOL    HW225229   3.845   0.697   0.647
 4400SOL     OW25230   5.566   1.767   0.359
 4400SOL    HW125231   5.620   1.738   0.439
 4400SOL    HW225232   5.596   1.857   0.330
 4401SOL     OW25233   3.751   1.596   0.117
 4401SOL    HW125234   3.732   1.500   0.138
 4401SOL    HW225235   3.718   1.654   0.192
 4402SOL     OW25236   5.413   0.922   0.612
 4402SOL    HW125237   5.508   0.893   0.620
 4402SOL    HW225238   5.405   0.987   0.537
 4403SOL     OW25239   5.365   1.108   0.432
 4403SOL    HW125240   5.451   1.110   0.380
 4403SOL    HW225241   5.379   1.155   0.520
 4404SOL     OW25242   3.837   0.737   1.597
 4404SOL    HW125243   3.925   0.724   1.642
 4404SOL    HW225244   3.824   0.834   1.575
 4405SOL     OW25245   4.337   1.365   0.726
 4405SOL    HW125246   4.288   1.278   0.735
 4405SOL    HW225247   4.314   1.408   0.639
 4406SOL     OW25248   5.017   1.228   1.423
 4406SOL    HW125249   5.054   1.155   1.365
 4406SOL    HW225250   5.069   1.233   1.508
 4407SOL     OW25251   4.533   0.004   0.502
 4407SOL    HW125252   4.573   0.095   0.493
 4407SOL    HW225253   4.433   0.012   0.508
 4408SOL     OW25254   3.921   0.976   1.264
 4408SOL    HW125255   4.010   0.931   1.250
 4408SOL    HW225256   3.848   0.911   1.245
 4409SOL     OW25257   5.249   0.999   0.190
 4409SOL    HW125258   5.186   0.923   0.203
 4409SOL    HW225259   5.297   1.017   0.276
 4410SOL     OW25260   5.190   1.417   0.953
 4410SOL    HW125261   5.131   1.423   1.033
 4410SOL    HW225262   5.175   1.329   0.907
 4411SOL     OW25263   5.391   1.714   0.572
 4411SOL    HW125264   5.350   1.691   0.484
 4411SOL    HW225265   5.373   1.640   0.637
 4412SOL     OW25266   4.322   0.729   0.270
 4412SOL    HW125267   4.346   0.798   0.202
 4412SOL    HW225268   4.244   0.762   0.324
 4413SOL     OW25269   5.005   0.345   0.944
 4413SOL    HW125270   4.919   0.295   0.931
 4413SOL    HW225271   5.067   0.291   1.000
 4414SOL     OW25272   5.300   1.662   0.307
 4414SOL    HW125273   5.389   1.708   0.310
 4414SOL    HW225274   5.279   1.638   0.212
 4415SOL     OW25275   4.531   0.605   1.465
 4415SOL    HW125276   4.484   0.602   1.554
 4415SOL    HW225277   4.480   0.550   1.399
 4416SOL     OW25278   5.118   0.469   1.674
 4416SOL    HW125279   5.098   0.512   1.762
 4416SOL    HW225280   5.196   0.407   1.683
 4417SOL     OW25281   4.715   0.410   1.242
 4417SOL    HW125282   4.638   0.444   1.296
 4417SOL    HW225283   4.681   0.359   1.163
 4418SOL     OW25284   4.765   0.701   0.429
 4418SOL    HW125285   4.791   0.697   0.525
 4418SOL    HW225286   4.680   0.650   0.415
 4419SOL     OW25287   3.800   0.811   0.789
 4419SOL    HW125288   3.899   0.799   0.798
 4419SOL    HW225289   3.776   0.906   0.810
 4420SOL     OW25290   3.854   1.821   1.571
 4420SOL    HW125291   3.844   1.806   1.670
 4420SOL    HW225292   3.768   1.857   1.535
 4421SOL     OW25293   4.589   0.348   0.195
 4421SOL    HW125294   4.648   0.411   0.146
 4421SOL    HW225295   4.608   0.254   0.166
 4422SOL     OW25296   5.086   1.144   0.545
 4422SOL    HW125297   5.169   1.115   0.497
 4422SOL    HW225298   5.037   1.211   0.489
 4423SOL     OW25299   4.274   0.196   0.885
 4423SOL    HW125300   4.269   0.191   0.985
 4423SOL    HW225301   4.276   0.292   0.856
 4424SOL     OW25302   4.732   1.456   0.477
 4424SOL    HW125303   4.686   1.528   0.425
 4424SOL    HW225304   4.728   1.476   0.575
 4425SOL     OW25305   4.075   1.801   0.853
 4425SOL    HW125306   4.125   1.715   0.859
 4425SOL    HW225307   4.140   1.878   0.850
 4426SOL     OW25308   5.519   1.066   0.873
 4426SOL    HW125309   5.457   1.051   0.797
 4426SOL    HW225310   5.467   1.077   0.958
 4427SOL     OW25311   4.951   1.550   1.506
 4427SOL    HW125312   4.957   1.473   1.570
 4427SOL    HW225313   4.899   1.524   1.426
 4428SOL     OW25314   4.045   0.943   0.242
 4428SOL    HW125315   4.127   0.982   0.200
 4428SOL    HW225316   4.018   0.861   0.193
 4429SOL     OW25317   5.182   0.735   0.728
 4429SOL    HW125318   5.177   0.670   0.803
 4429SOL    HW225319   5.262   0.794   0.741
 4430SOL     OW25320   4.185   1.266   1.727
 4430SOL    HW125321   4.135   1.267   1.641
 4430SOL    HW225322   4.122   1.248   1.803
 4431SOL     OW25323   4.835   1.776   0.237
 4431SOL    HW125324   4.775   1.714   0.287
 4431SOL    HW225325   4.866   1.732   0.152
 4432SOL     OW25326   3.926   0.285   1.498
 4432SOL    HW125327   3.846   0.345   1.485
 4432SOL    HW225328   3.916   0.236   1.584
 4433SOL     OW25329   5.356   1.377   0.081
 4433SOL    HW125330   5.324   1.471   0.071
 4433SOL    HW225331   5.280   1.314   0.069
 4434SOL     OW25332   4.188   1.743   0.323
 4434SOL    HW125333   4.221   1.782   0.409
 4434SOL    HW225334   4.264   1.736   0.258
 4435SOL     OW25335   5.124   0.107   0.426
 4435SOL    HW125336   5.100   0.070   0.336
 4435SOL    HW225337   5.223   0.123   0.430
 4436SOL     OW25338   3.973   1.785   1.241
 4436SOL    HW125339   4.030   1.720   1.291
 4436SOL    HW225340   3.957   1.752   1.148
 4437SOL     OW25341   4.664   1.698   0.904
 4437SOL    HW125342   4.744   1.641   0.925
 4437SOL    HW225343   4.615   1.658   0.827
 4438SOL     OW25344   4.106   0.700   0.480
 4438SOL    HW125345   4.151   0.610   0.477
 4438SOL    HW225346   4.012   0.689   0.513
 4439SOL     OW25347   4.338   0.122   0.117
 4439SOL    HW125348   4.436   0.100   0.124
 4439SOL    HW225349   4.307   0.105   0.024
 4440SOL     OW25350   4.505   0.264   1.749
 4440SOL    HW125351   4.572   0.203   1.792
 4440SOL    HW225352   4.432   0.283   1.814
 4441SOL     OW25353   4.612   1.514   1.195
 4441SOL    HW125354   4.589   1.489   1.101
 4441SOL    HW225355   4.673   1.445   1.234
 4442SOL     OW25356   5.075   0.590   1.433
 4442SOL    HW125357   5.103   0.547   1.518
 4442SOL    HW225358   5.100   0.686   1.434
 4443SOL     OW25359   4.527   1.402   0.924
 4443SOL    HW125360   4.617   1.416   0.882
 4443SOL    HW225361   4.456   1.404   0.853
 4444SOL     OW25362   4.646   0.503   0.899
 4444SOL    HW125363   4.621   0.494   0.803
 4444SOL    HW225364   4.694   0.421   0.930
 4445SOL     OW25365   4.263   0.064   0.512
 4445SOL    HW125366   4.182   0.065   0.570
 4445SOL    HW225367   4.266   0.147   0.457
 4446SOL     OW25368   5.158   1.188   0.041
 4446SOL    HW125369   5.190   1.112   0.098
 4446SOL    HW225370   5.066   1.215   0.071
 4447SOL     OW25371   4.021   0.035   0.171
 4447SOL    HW125372   4.070   0.119   0.150
 4447SOL    HW225373   4.083  -0.030   0.216
 4448SOL     OW25374   4.659   0.236   0.480
 4448SOL    HW125375   4.611   0.277   0.402
 4448SOL    HW225376   4.758   0.234   0.461
 4449SOL     OW25377   4.800   0.683   1.464
 4449SOL    HW125378   4.720   0.622   1.467
 4449SOL    HW225379   4.881   0.630   1.440
 4450SOL     OW25380   4.951   1.570   0.793
 4450SOL    HW125381   4.972   1.644   0.728
 4450SOL    HW225382   5.019   1.570   0.866
 4451SOL     OW25383   4.183   1.152   0.741
 4451SOL    HW125384   4.112   1.125   0.806
 4451SOL    HW225385   4.157   1.124   0.648
 4452SOL     OW25386   4.995   1.797   0.591
 4452SOL    HW125387   5.039   1.861   0.527
 4452SOL    HW225388   4.945   1.849   0.661
 4453SOL     OW25389   4.756   0.549   0.016
 4453SOL    HW125390   4.715   0.631  -0.023
 4453SOL    HW225391   4.820   0.575   0.089
 4454SOL     OW25392   3.802   0.556   1.386
 4454SOL    HW125393   3.894   0.555   1.345
 4454SOL    HW225394   3.796   0.630   1.453
 4455SOL     OW25395   4.285   0.222   1.147
 4455SOL    HW125396   4.323   0.138   1.184
 4455SOL    HW225397   4.197   0.241   1.191
 4456SOL     OW25398   4.590   0.454   0.642
 4456SOL    HW125399   4.558   0.526   0.580
 4456SOL    HW225400   4.614   0.373   0.589
 4457SOL     OW25401   4.741   0.039   0.753
 4457SOL    HW125402   4.669   0.044   0.684
 4457SOL    HW225403   4.717  -0.030   0.822
 4458SOL     OW25404   5.153   1.173   0.867
 4458SOL    HW125405   5.098   1.089   0.860
 4458SOL    HW225406   5.179   1.202   0.775
 4459SOL     OW25407   5.190   0.590   0.992
 4459SOL    HW125408   5.160   0.495   0.999
 4459SOL    HW225409   5.263   0.606   1.058
 4460SOL     OW25410   5.581   0.833   0.377
 4460SOL    HW125411   5.623   0.769   0.441
 4460SOL    HW225412   5.543   0.782   0.299
 4461SOL     OW25413   4.212   1.385   0.174
 4461SOL    HW125414   4.125   1.370   0.221
 4461SOL    HW225415   4.195   1.411   0.079
 4462SOL     OW25416   5.388   1.280   0.657
 4462SOL    HW125417   5.487   1.288   0.671
 4462SOL    HW225418   5.343   1.364   0.688
 4463SOL     OW25419   5.114   0.575   0.078
 4463SOL    HW125420   5.060   0.554   0.159
 4463SOL    HW225421   5.205   0.534   0.087
 4464SOL     OW25422   4.251   0.256   0.328
 4464SOL    HW125423   4.278   0.197   0.253
 4464SOL    HW225424   4.251   0.351   0.297
 4465SOL     OW25425   4.788   1.347   1.340
 4465SOL    HW125426   4.708   1.324   1.395
 4465SOL    HW225427   4.871   1.321   1.389
 4466SOL     OW25428   4.835   1.195   1.100
 4466SOL    HW125429   4.795   1.239   1.181
 4466SOL    HW225430   4.794   1.232   1.017
 4467SOL     OW25431   5.362   1.099   1.079
 4467SOL    HW125432   5.367   1.180   1.138
 4467SOL    HW225433   5.276   1.101   1.028
 4468SOL     OW25434   4.429   1.050   0.368
 4468SOL    HW125435   4.415   1.057   0.467
 4468SOL    HW225436   4.513   0.999   0.350
 4469SOL     OW25437   4.134   0.813   1.251
 4469SOL    HW125438   4.220   0.825   1.301
 4469SOL    HW225439   4.092   0.726   1.278
 4470SOL     OW25440   4.998   0.386   1.262
 4470SOL    HW125441   5.019   0.460   1.326
 4470SOL    HW225442   4.909   0.403   1.219
 4471SOL     OW25443   3.788   1.564   1.331
 4471SOL    HW125444   3.742   1.646   1.297
 4471SOL    HW225445   3.886   1.583   1.340
 4472SOL     OW25446   4.091   1.100   0.501
 4472SOL    HW125447   4.084   1.183   0.445
 4472SOL    HW225448   4.095   1.020   0.441
 4473SOL     OW25449   4.290   0.537   0.865
 4473SOL    HW125450   4.302   0.603   0.791
 4473SOL    HW225451   4.336   0.571   0.948
 4474SOL     OW25452   4.976   1.348   0.388
 4474SOL    HW125453   5.026   1.425   0.428
 4474SOL    HW225454   4.881   1.350   0.420
 4475SOL     OW25455   4.996   1.445   1.142
 4475SOL    HW125456   5.043   1.458   1.229
 4475SOL    HW225457   4.930   1.371   1.151
 4476SOL     OW25458   5.306   0.639   0.472
 4476SOL    HW125459   5.275   0.700   0.545
 4476SOL    HW225460   5.356   0.691   0.403
 4477SOL     OW25461   4.078   1.510   1.329
 4477SOL    HW125462   4.057   1.466   1.242
 4477SOL    HW225463   4.175   1.536   1.332
 4478SOL     OW25464   4.126   0.751   1.598
 4478SOL    HW125465   4.194   0.806   1.551
 4478SOL    HW225466   4.166   0.663   1.625
 4479SOL     OW25467   5.311   0.779   1.670
 4479SOL    HW125468   5.219   0.817   1.665
 4479SOL    HW225469   5.371   0.826   1.605
 4480SOL     OW25470   4.228   0.050   1.740
 4480SOL    HW125471   4.186  -0.007   1.670
 4480SOL    HW225472   4.162   0.119   1.772
 4481SOL     OW25473   4.297   0.870   1.029
 4481SOL    HW125474   4.341   0.959   1.020
 4481SOL    HW225475   4.234   0.870   1.106
 4482SOL     OW25476   5.084   0.862   1.045
 4482SOL    HW125477   5.009   0.862   0.979
 4482SOL    HW225478   5.121   0.770   1.054
 4483SOL     OW25479   4.933   0.525   0.275
 4483SOL    HW125480   4.946   0.441   0.329
 4483SOL    HW225481   4.904   0.599   0.335
 4484SOL     OW25482   4.031   0.213   1.231
 4484SOL    HW125483   4.008   0.250   1.321
 4484SOL    HW225484   4.001   0.118   1.225
 4485SOL     OW25485   3.761   1.310   1.282
 4485SOL    HW125486   3.814   1.261   1.350
 4485SOL    HW225487   3.783   1.408   1.287
 4486SOL     OW25488   4.456   0.634   1.064
 4486SOL    HW125489   4.515   0.608   0.988
 4486SOL    HW225490   4.428   0.730   1.053
 4487SOL     OW25491   4.031   0.063   0.618
 4487SOL    HW125492   4.020   0.157   0.651
 4487SOL    HW225493   4.026   0.000   0.695
 4488SOL     OW25494   5.346   0.367   0.374
 4488SOL    HW125495   5.348   0.291   0.438
 4488SOL    HW225496   5.298   0.444   0.414
 4489SOL     OW25497   4.747   0.766   0.966
 4489SOL    HW125498   4.762   0.787   1.062
 4489SOL    HW225499   4.717   0.671   0.957
 4490SOL     OW25500   4.704   1.573   1.700
 4490SOL    HW125501   4.684   1.617   1.612
 4490SOL    HW225502   4.743   1.482   1.684
 4491SOL     OW25503   4.074   0.898   1.804
 4491SOL    HW125504   4.150   0.942   1.852
 4491SOL    HW225505   4.109   0.851   1.722
 4492SOL     OW25506   5.264   0.274   0.125
 4492SOL    HW125507   5.203   0.199   0.148
 4492SOL    HW225508   5.286   0.326   0.208
 4493SOL     OW25509   5.027   0.838   0.042
 4493SOL    HW125510   5.061   0.745   0.057
 4493SOL    HW225511   5.045   0.865  -0.053
 4494SOL     OW25512   4.792   1.333   0.849
 4494SOL    HW125513   4.799   1.249   0.794
 4494SOL    HW225514   4.854   1.402   0.813
 4495SOL     OW25515   4.043   0.810   0.949
 4495SOL    HW125516   4.136   0.846   0.954
 4495SOL    HW225517   4.037   0.725   1.001
 4496SOL     OW25518   4.063   0.509   1.006
 4496SOL    HW125519   4.011   0.426   0.989
 4496SOL    HW225520   4.140   0.514   0.942
 4497SOL     OW25521   3.812   1.801   0.927
 4497SOL    HW125522   3.770   1.715   0.900
 4497SOL    HW225523   3.906   1.804   0.893
 4498SOL     OW25524   4.228   1.568   0.910
 4498SOL    HW125525   4.294   1.642   0.919
 4498SOL    HW225526   4.272   1.489   0.868
 4499SOL     OW25527   4.726   0.796   1.238
 4499SOL    HW125528   4.767   0.764   1.324
 4499SOL    HW225529   4.630   0.769   1.235
 4500SOL     OW25530   3.764   0.544   1.114
 4500SOL    HW125531   3.849   0.511   1.073
 4500SOL    HW225532   3.777   0.559   1.212
 4501SOL     OW25533   3.913   0.520   1.722
 4501SOL    HW125534   3.972   0.480   1.652
 4501SOL    HW225535   3.855   0.591   1.681
 4502SOL     OW25536   4.539   0.572   0.325
 4502SOL    HW125537   4.546   0.483   0.279
 4502SOL    HW225538   4.445   0.606   0.317
 4503SOL     OW25539   5.381   0.604   1.206
 4503SOL    HW125540   5.343   0.535   1.268
 4503SOL    HW225541   5.463   0.568   1.162
 4504SOL     OW25542   3.976   1.564   1.744
 4504SOL    HW125543   3.946   1.621   1.820
 4504SOL    HW225544   3.969   1.467   1.770
 4505SOL     OW25545   4.395   0.464   1.269
 4505SOL    HW125546   4.361   0.375   1.239
 4505SOL    HW225547   4.421   0.518   1.189
 4506SOL     OW25548   4.197   0.500   0.191
 4506SOL    HW125549   4.258   0.580   0.195
 4506SOL    HW225550   4.102   0.531   0.198
 4507SOL     OW25551   3.883   1.137   1.466
 4507SOL    HW125552   3.905   1.076   1.542
 4507SOL    HW225553   3.893   1.088   1.380
 4508SOL     OW25554   5.071   1.059   1.234
 4508SOL    HW125555   5.095   0.996   1.160
 4508SOL    HW225556   4.981   1.099   1.216
 4509SOL     OW25557   5.026   0.855   0.309
 4509SOL    HW125558   4.940   0.824   0.351
 4509SOL    HW225559   5.022   0.841   0.210
 4510SOL     OW25560   4.976   1.731   1.128
 4510SOL    HW125561   5.060   1.736   1.074
 4510SOL    HW225562   4.953   1.635   1.146
 4511SOL     OW25563   3.807   1.258   1.022
 4511SOL    HW125564   3.802   1.257   1.122
 4511SOL    HW225565   3.724   1.217   0.984
 4512SOL     OW25566   4.412   1.662   1.716
 4512SOL    HW125567   4.356   1.743   1.725
 4512SOL    HW225568   4.464   1.666   1.630
 4513SOL     OW25569   4.627   0.086   0.133
 4513SOL    HW125570   4.678   0.087   0.047
 4513SOL    HW225571   4.683   0.044   0.204
 4514SOL     OW25572   5.450   0.135   0.523
 4514SOL    HW125573   5.523   0.118   0.456
 4514SOL    HW225574   5.419   0.048   0.561
 4515SOL     OW25575   5.112   1.573   0.477
 4515SOL    HW125576   5.179   1.585   0.403
 4515SOL    HW225577   5.072   1.662   0.500
 4516SOL     OW25578   5.004   0.927   0.672
 4516SOL    HW125579   5.064   0.846   0.674
 4516SOL    HW225580   5.044   0.996   0.612
 4517SOL     OW25581   4.554   1.273   1.422
 4517SOL    HW125582   4.549   1.306   1.517
 4517SOL    HW225583   4.468   1.292   1.376
 4518SOL     OW25584   4.396   1.616   0.154
 4518SOL    HW125585   4.405   1.626   0.055
 4518SOL    HW225586   4.356   1.527   0.175
 4519SOL     OW25587   5.374   1.720   1.394
 4519SOL    HW125588   5.427   1.730   1.310
 4519SOL    HW225589   5.347   1.810   1.428
 4520SOL     OW25590   5.565   0.175   0.963
 4520SOL    HW125591   5.604   0.090   0.927
 4520SOL    HW225592   5.467   0.177   0.944
 4521SOL     OW25593   3.987   0.326   0.720
 4521SOL    HW125594   3.908   0.377   0.686
 4521SOL    HW225595   3.978   0.311   0.818
 4522SOL     OW25596   4.918   1.612   0.031
 4522SOL    HW125597   4.924   1.519   0.068
 4522SOL    HW225598   4.859   1.612  -0.049
 4523SOL     OW25599   4.546   1.002   1.372
 4523SOL    HW125600   4.586   1.001   1.280
 4523SOL    HW225601   4.556   1.094   1.412
 4524SOL     OW25602   4.640   0.910   0.291
 4524SOL    HW125603   4.703   0.948   0.223
 4524SOL    HW225604   4.680   0.827   0.330
 4525SOL     OW25605   5.228   1.607   0.044
 4525SOL    HW125606   5.136   1.644   0.051
 4525SOL    HW225607   5.266   1.627  -0.046
 4526SOL     OW25608   4.096   1.288   1.490
 4526SOL    HW125609   4.083   1.381   1.456
 4526SOL    HW225610   4.012   1.236   1.477
 4527SOL     OW25611   5.338   1.292   1.289
 4527SOL    HW125612   5.398   1.295   1.369
 4527SOL    HW225613   5.263   1.356   1.302
 4528SOL     OW25614   4.763   1.098   0.696
 4528SOL    HW125615   4.693   1.051   0.750
 4528SOL    HW225616   4.822   1.030   0.653
 4529SOL     OW25617   4.738   0.236   0.971
 4529SOL    HW125618   4.730   0.200   0.878
 4529SOL    HW225619   4.736   0.160   1.036
 4530SOL     OW25620   4.314   1.487   0.491
 4530SOL    HW125621   4.356   1.429   0.421
 4530SOL    HW225622   4.270   1.566   0.447
 4531SOL     OW25623   5.433   0.385   1.381
 4531SOL    HW125624   5.506   0.454   1.385
 4531SOL    HW225625   5.461   0.310   1.322
 4532SOL     OW25626   3.979   1.348   0.290
 4532SOL    HW125627   3.883   1.349   0.263
 4532SOL    HW225628   3.991   1.401   0.374
 4533SOL     OW25629   3.829   1.013   1.726
 4533SOL    HW125630   3.752   0.980   1.780
 4533SOL    HW225631   3.914   0.983   1.768
 4534SOL     OW25632   5.164   0.856   1.398
 4534SOL    HW125633   5.107   0.908   1.335
 4534SOL    HW225634   5.260   0.868   1.374
 4535SOL     OW25635   4.907   1.335   0.119
 4535SOL    HW125636   4.808   1.324   0.121
 4535SOL    HW225637   4.941   1.350   0.212
 4536SOL     OW25638   4.337   0.842   1.431
 4536SOL    HW125639   4.393   0.923   1.414
 4536SOL    HW225640   4.396   0.762   1.434
 4537SOL     OW25641   5.217   1.767   0.959
 4537SOL    HW125642   5.250   1.831   0.890
 4537SOL    HW225643   5.283   1.761   1.034
 4538SOL     OW25644   4.440   0.565   1.708
 4538SOL    HW125645   4.459   0.630   1.782
 4538SOL    HW225646   4.500   0.485   1.717
 4539SOL     OW25647   5.174   1.220   1.633
 4539SOL    HW125648   5.165   1.210   1.732
 4539SOL    HW225649   5.270   1.213   1.607
 4540SOL     OW25650   4.114   1.741   1.560
 4540SOL    HW125651   4.023   1.782   1.558
 4540SOL    HW225652   4.107   1.647   1.592
 4541SOL     OW25653   5.398   0.883   1.254
 4541SOL    HW125654   5.371   0.794   1.217
 4541SOL    HW225655   5.399   0.951   1.181
 4542SOL     OW25656   4.949   0.325   0.449
 4542SOL    HW125657   5.014   0.251   0.438
 4542SOL    HW225658   4.969   0.375   0.533
 4543SOL     OW25659   4.318   0.745   0.652
 4543SOL    HW125660   4.368   0.830   0.633
 4543SOL    HW225661   4.230   0.747   0.604
 4544SOL     OW25662   5.501   0.342   1.642
 4544SOL    HW125663   5.484   0.373   1.548
 4544SOL    HW225664   5.417   0.305   1.680
 4545SOL     OW25665   5.454   0.934   1.517
 4545SOL    HW125666   5.492   1.025   1.532
 4545SOL    HW225667   5.446   0.917   1.418
 4546SOL     OW25668   4.583   1.374   0.016
 4546SOL    HW125669   4.537   1.389   0.104
 4546SOL    HW225670   4.627   1.459  -0.014
 4547SOL     OW25671   4.385   1.790   0.953
 4547SOL    HW125672   4.339   1.878   0.940
 4547SOL    HW225673   4.484   1.802   0.946
 4548SOL     OW25674   4.583   0.956   0.861
 4548SOL    HW125675   4.637   0.887   0.909
 4548SOL    HW225676   4.551   1.025   0.927
 4549SOL     OW25677   4.807   0.984   0.087
 4549SOL    HW125678   4.784   1.037   0.005
 4549SOL    HW225679   4.888   0.928   0.068
 4550SOL     OW25680   5.585   1.569   0.851
 4550SOL    HW125681   5.514   1.557   0.781
 4550SOL    HW225682   5.586   1.490   0.911
 4551SOL     OW25683   3.803   1.240   0.653
 4551SOL    HW125684   3.802   1.193   0.741
 4551SOL    HW225685   3.885   1.212   0.602
 4552SOL     OW25686   4.396   1.391   1.624
 4552SOL    HW125687   4.318   1.341   1.662
 4552SOL    HW225688   4.393   1.486   1.655
 4553SOL     OW25689   5.548   0.192   1.227
 4553SOL    HW125690   5.544   0.102   1.271
 4553SOL    HW225691   5.551   0.181   1.128
 4554SOL     OW25692   4.152   0.424   0.520
 4554SOL    HW125693   4.182   0.352   0.458
 4554SOL    HW225694   4.113   0.384   0.603
 4555SOL     OW25695   5.429   1.487   1.104
 4555SOL    HW125696   5.336   1.462   1.077
 4555SOL    HW225697   5.455   1.437   1.186
 4556SOL     OW25698   4.041   0.547   1.280
 4556SOL    HW125699   4.079   0.488   1.352
 4556SOL    HW225700   4.081   0.521   1.192
 4557SOL     OW25701   4.536   1.586   0.687
 4557SOL    HW125702   4.568   1.596   0.593
 4557SOL    HW225703   4.457   1.524   0.689
 4558SOL     OW25704   5.148   0.214   1.112
 4558SOL    HW125705   5.200   0.149   1.167
 4558SOL    HW225706   5.099   0.277   1.173
 4559SOL     OW25707   4.725   0.034   1.154
 4559SOL    HW125708   4.662  -0.038   1.123
 4559SOL    HW225709   4.818  -0.002   1.154
 4560SOL     OW25710   4.494   1.330   0.301
 4560SOL    HW125711   4.448   1.243   0.318
 4560SOL    HW225712   4.585   1.327   0.342
 4561SOL     OW25713   4.342   1.567   1.284
 4561SOL    HW125714   4.337   1.649   1.341
 4561SOL    HW225715   4.431   1.564   1.239
 4562SOL     OW25716   5.076   0.052   0.168
 4562SOL    HW125717   5.111   0.011   0.084
 4562SOL    HW225718   4.986   0.014   0.188
 4563SOL     OW25719   5.024   0.453   0.691
 4563SOL    HW125720   4.965   0.533   0.695
 4563SOL    HW225721   5.039   0.418   0.784
 4564SOL     OW25722   5.317   0.221   0.882
 4564SOL    HW125723   5.233   0.220   0.936
 4564SOL    HW225724   5.319   0.304   0.826
 4565SOL     OW25725   3.763   1.077   0.300
 4565SOL    HW125726   3.862   1.066   0.291
 4565SOL    HW225727   3.723   0.991   0.332
 4566SOL     OW25728   4.599   1.646   0.337
 4566SOL    HW125729   4.522   1.611   0.283
 4566SOL    HW225730   4.567   1.717   0.399
 4567SOL     OW25731   5.279   1.511   2.565
 4567SOL    HW125732   5.222   1.495   2.646
 4567SOL    HW225733   5.220   1.521   2.485
 4568SOL     OW25734   5.479   0.607   2.093
 4568SOL    HW125735   5.467   0.594   1.994
 4568SOL    HW225736   5.449   0.526   2.142
 4569SOL     OW25737   4.574   0.798   3.685
 4569SOL    HW125738   4.570   0.874   3.750
 4569SOL    HW225739   4.596   0.834   3.594
 4570SOL     OW25740   4.409   1.012   2.527
 4570SOL    HW125741   4.478   0.996   2.597
 4570SOL    HW225742   4.336   1.069   2.565
 4571SOL     OW25743   4.410   1.161   3.665
 4571SOL    HW125744   4.470   1.240   3.679
 4571SOL    HW225745   4.324   1.192   3.624
 4572SOL     OW25746   4.162   0.392   3.361
 4572SOL    HW125747   4.244   0.336   3.370
 4572SOL    HW225748   4.081   0.334   3.365
 4573SOL     OW25749   3.955   1.713   2.345
 4573SOL    HW125750   3.989   1.790   2.399
 4573SOL    HW225751   3.999   1.713   2.255
 4574SOL     OW25752   4.330   0.964   1.985
 4574SOL    HW125753   4.337   1.048   1.931
 4574SOL    HW225754   4.376   0.977   2.073
 4575SOL     OW25755   5.318   0.114   3.342
 4575SOL    HW125756   5.300   0.181   3.270
 4575SOL    HW225757   5.315   0.160   3.431
 4576SOL     OW25758   3.921   0.976   3.126
 4576SOL    HW125759   4.010   0.931   3.112
 4576SOL    HW225760   3.848   0.911   3.107
 4577SOL     OW25761   4.322   0.729   2.132
 4577SOL    HW125762   4.346   0.798   2.064
 4577SOL    HW225763   4.244   0.762   2.186
 4578SOL     OW25764   5.005   0.345   2.806
 4578SOL    HW125765   4.919   0.295   2.793
 4578SOL    HW225766   5.067   0.291   2.862
 4579SOL     OW25767   4.715   0.410   3.104
 4579SOL    HW125768   4.638   0.444   3.158
 4579SOL    HW225769   4.681   0.359   3.025
 4580SOL     OW25770   4.765   0.701   2.291
 4580SOL    HW125771   4.791   0.697   2.387
 4580SOL    HW225772   4.680   0.650   2.277
 4581SOL     OW25773   3.854   1.821   3.433
 4581SOL    HW125774   3.844   1.806   3.532
 4581SOL    HW225775   3.768   1.857   3.397
 4582SOL     OW25776   4.589   0.348   2.057
 4582SOL    HW125777   4.648   0.411   2.008
 4582SOL    HW225778   4.608   0.254   2.028
 4583SOL     OW25779   5.086   1.144   2.407
 4583SOL    HW125780   5.169   1.115   2.359
 4583SOL    HW225781   5.037   1.211   2.351
 4584SOL     OW25782   4.075   1.801   2.715
 4584SOL    HW125783   4.125   1.715   2.721
 4584SOL    HW225784   4.140   1.878   2.712
 4585SOL     OW25785   4.045   0.943   2.104
 4585SOL    HW125786   4.127   0.982   2.062
 4585SOL    HW225787   4.018   0.861   2.055
 4586SOL     OW25788   3.973   1.785   3.103
 4586SOL    HW125789   4.030   1.720   3.153
 4586SOL    HW225790   3.957   1.752   3.010
 4587SOL     OW25791   4.664   1.698   2.766
 4587SOL    HW125792   4.744   1.641   2.787
 4587SOL    HW225793   4.615   1.658   2.689
 4588SOL     OW25794   4.338   0.122   1.979
 4588SOL    HW125795   4.436   0.100   1.986
 4588SOL    HW225796   4.307   0.105   1.886
 4589SOL     OW25797   4.505   0.264   3.611
 4589SOL    HW125798   4.572   0.203   3.654
 4589SOL    HW225799   4.432   0.283   3.676
 4590SOL     OW25800   5.075   0.590   3.295
 4590SOL    HW125801   5.103   0.547   3.380
 4590SOL    HW225802   5.100   0.686   3.296
 4591SOL     OW25803   4.951   1.570   2.655
 4591SOL    HW125804   4.972   1.644   2.590
 4591SOL    HW225805   5.019   1.570   2.728
 4592SOL     OW25806   4.756   0.549   1.878
 4592SOL    HW125807   4.715   0.631   1.839
 4592SOL    HW225808   4.820   0.575   1.951
 4593SOL     OW25809   4.590   0.454   2.504
 4593SOL    HW125810   4.558   0.526   2.442
 4593SOL    HW225811   4.614   0.373   2.451
 4594SOL     OW25812   5.581   0.833   2.239
 4594SOL    HW125813   5.623   0.769   2.303
 4594SOL    HW225814   5.543   0.782   2.161
 4595SOL     OW25815   4.212   1.385   2.036
 4595SOL    HW125816   4.125   1.370   2.083
 4595SOL    HW225817   4.195   1.411   1.941
 4596SOL     OW25818   4.251   0.256   2.190
 4596SOL    HW125819   4.278   0.197   2.115
 4596SOL    HW225820   4.251   0.351   2.159
 4597SOL     OW25821   5.478   1.223   3.450
 4597SOL    HW125822   5.569   1.184   3.437
 4597SOL    HW225823   5.486   1.319   3.474
 4598SOL     OW25824   4.704   1.116   3.581
 4598SOL    HW125825   4.605   1.122   3.591
 4598SOL    HW225826   4.727   1.036   3.525
 4599SOL     OW25827   4.429   1.050   2.230
 4599SOL    HW125828   4.415   1.057   2.329
 4599SOL    HW225829   4.513   0.999   2.212
 4600SOL     OW25830   4.996   1.445   3.004
 4600SOL    HW125831   5.043   1.458   3.091
 4600SOL    HW225832   4.930   1.371   3.013
 4601SOL     OW25833   4.078   1.510   3.191
 4601SOL    HW125834   4.057   1.466   3.104
 4601SOL    HW225835   4.175   1.536   3.194
 4602SOL     OW25836   5.084   0.862   2.907
 4602SOL    HW125837   5.009   0.862   2.841
 4602SOL    HW225838   5.121   0.770   2.916
 4603SOL     OW25839   3.761   1.310   3.144
 4603SOL    HW125840   3.814   1.261   3.212
 4603SOL    HW225841   3.783   1.408   3.149
 4604SOL     OW25842   4.031   0.063   2.480
 4604SOL    HW125843   4.020   0.157   2.513
 4604SOL    HW225844   4.026   0.000   2.557
 4605SOL     OW25845   4.862   0.380   3.540
 4605SOL    HW125846   4.817   0.443   3.604
 4605SOL    HW225847   4.955   0.411   3.523
 4606SOL     OW25848   3.913   0.520   3.584
 4606SOL    HW125849   3.972   0.480   3.514
 4606SOL    HW225850   3.855   0.591   3.543
 4607SOL     OW25851   4.539   0.572   2.187
 4607SOL    HW125852   4.546   0.483   2.141
 4607SOL    HW225853   4.445   0.606   2.179
 4608SOL     OW25854   4.654   1.678   3.327
 4608SOL    HW125855   4.630   1.660   3.232
 4608SOL    HW225856   4.684   1.772   3.337
 4609SOL     OW25857   4.197   0.500   2.053
 4609SOL    HW125858   4.258   0.580   2.057
 4609SOL    HW225859   4.102   0.531   2.060
 4610SOL     OW25860   3.883   1.137   3.328
 4610SOL    HW125861   3.905   1.076   3.404
 4610SOL    HW225862   3.893   1.088   3.242
 4611SOL     OW25863   5.483   1.747   3.016
 4611SOL    HW125864   5.544   1.777   2.943
 4611SOL    HW225865   5.445   1.658   2.994
 4612SOL     OW25866   4.396   1.616   2.016
 4612SOL    HW125867   4.405   1.626   1.917
 4612SOL    HW225868   4.356   1.527   2.037
 4613SOL     OW25869   5.374   1.720   3.256
 4613SOL    HW125870   5.427   1.730   3.172
 4613SOL    HW225871   5.347   1.810   3.290
 4614SOL     OW25872   4.640   0.910   2.153
 4614SOL    HW125873   4.703   0.948   2.085
 4614SOL    HW225874   4.680   0.827   2.192
 4615SOL     OW25875   5.433   0.385   3.243
 4615SOL    HW125876   5.506   0.454   3.247
 4615SOL    HW225877   5.461   0.310   3.184
 4616SOL     OW25878   4.583   1.374   1.878
 4616SOL    HW125879   4.537   1.389   1.966
 4616SOL    HW225880   4.627   1.459   1.848
 4617SOL     OW25881   4.396   1.391   3.486
 4617SOL    HW125882   4.318   1.341   3.524
 4617SOL    HW225883   4.393   1.486   3.517
 4618SOL     OW25884   5.548   0.192   3.089
 4618SOL    HW125885   5.544   0.102   3.133
 4618SOL    HW225886   5.551   0.181   2.990
 4619SOL     OW25887   4.152   0.424   2.382
 4619SOL    HW125888   4.182   0.352   2.320
 4619SOL    HW225889   4.113   0.384   2.465
 4620SOL     OW25890   4.725   0.034   3.016
 4620SOL    HW125891   4.662  -0.038   2.985
 4620SOL    HW225892   4.818  -0.002   3.016
 4621SOL     OW25893   4.494   1.330   2.163
 4621SOL    HW125894   4.448   1.243   2.180
 4621SOL    HW225895   4.585   1.327   2.204
 4622SOL     OW25896   5.317   0.221   2.744
 4622SOL    HW125897   5.233   0.220   2.798
 4622SOL    HW225898   5.319   0.304   2.688
 4623SOL     OW25899   3.763   1.077   2.162
 4623SOL    HW125900   3.862   1.066   2.153
 4623SOL    HW225901   3.723   0.991   2.194
 4624SOL     OW25902   4.599   1.646   2.199
 4624SOL    HW125903   4.522   1.611   2.145
 4624SOL    HW225904   4.567   1.717   2.261
 4625SOL     OW25905   5.279   1.511   4.427
 4625SOL    HW125906   5.222   1.495   4.508
 4625SOL    HW225907   5.220   1.521   4.347
 4626SOL     OW25908   4.410   1.161   5.527
 4626SOL    HW125909   4.470   1.240   5.541
 4626SOL    HW225910   4.324   1.192   5.486
 4627SOL     OW25911   4.162   0.392   5.223
 4627SOL    HW125912   4.244   0.336   5.232
 4627SOL    HW225913   4.081   0.334   5.227
 4628SOL     OW25914   3.955   1.713   4.207
 4628SOL    HW125915   3.989   1.790   4.261
 4628SOL    HW225916   3.999   1.713   4.117
 4629SOL     OW25917   4.851   1.341   5.414
 4629SOL    HW125918   4.898   1.341   5.502
 4629SOL    HW225919   4.803   1.254   5.403
 4630SOL     OW25920   5.566   1.767   4.083
 4630SOL    HW125921   5.620   1.738   4.163
 4630SOL    HW225922   5.596   1.857   4.054
 4631SOL     OW25923   5.413   0.922   4.336
 4631SOL    HW125924   5.508   0.893   4.344
 4631SOL    HW225925   5.405   0.987   4.261
 4632SOL     OW25926   5.365   1.108   4.156
 4632SOL    HW125927   5.451   1.110   4.104
 4632SOL    HW225928   5.379   1.155   4.244
 4633SOL     OW25929   3.837   0.737   5.321
 4633SOL    HW125930   3.925   0.724   5.366
 4633SOL    HW225931   3.824   0.834   5.299
 4634SOL     OW25932   3.921   0.976   4.988
 4634SOL    HW125933   4.010   0.931   4.974
 4634SOL    HW225934   3.848   0.911   4.969
 4635SOL     OW25935   5.249   0.999   3.914
 4635SOL    HW125936   5.186   0.923   3.927
 4635SOL    HW225937   5.297   1.017   4.000
 4636SOL     OW25938   4.911   1.792   5.340
 4636SOL    HW125939   4.935   1.852   5.264
 4636SOL    HW225940   4.918   1.697   5.310
 4637SOL     OW25941   4.041   0.251   5.525
 4637SOL    HW125942   4.112   0.322   5.531
 4637SOL    HW225943   3.953   0.290   5.553
 4638SOL     OW25944   5.005   0.345   4.668
 4638SOL    HW125945   4.919   0.295   4.655
 4638SOL    HW225946   5.067   0.291   4.724
 4639SOL     OW25947   5.118   0.469   5.398
 4639SOL    HW125948   5.098   0.512   5.486
 4639SOL    HW225949   5.196   0.407   5.407
 4640SOL     OW25950   4.274   0.196   4.609
 4640SOL    HW125951   4.269   0.191   4.709
 4640SOL    HW225952   4.276   0.292   4.580
 4641SOL     OW25953   4.732   1.456   4.201
 4641SOL    HW125954   4.686   1.528   4.149
 4641SOL    HW225955   4.728   1.476   4.299
 4642SOL     OW25956   4.075   1.801   4.577
 4642SOL    HW125957   4.125   1.715   4.583
 4642SOL    HW225958   4.140   1.878   4.574
 4643SOL     OW25959   4.951   1.550   5.230
 4643SOL    HW125960   4.957   1.473   5.294
 4643SOL    HW225961   4.899   1.524   5.150
 4644SOL     OW25962   4.185   1.266   5.451
 4644SOL    HW125963   4.135   1.267   5.365
 4644SOL    HW225964   4.122   1.248   5.527
 4645SOL     OW25965   4.664   1.698   4.628
 4645SOL    HW125966   4.744   1.641   4.649
 4645SOL    HW225967   4.615   1.658   4.551
 4646SOL     OW25968   4.106   0.700   4.204
 4646SOL    HW125969   4.151   0.610   4.201
 4646SOL    HW225970   4.012   0.689   4.237
 4647SOL     OW25971   5.271   0.222   5.453
 4647SOL    HW125972   5.266   0.259   5.545
 4647SOL    HW225973   5.199   0.153   5.441
 4648SOL     OW25974   4.338   0.122   3.841
 4648SOL    HW125975   4.436   0.100   3.848
 4648SOL    HW225976   4.307   0.105   3.748
 4649SOL     OW25977   4.505   0.264   5.473
 4649SOL    HW125978   4.572   0.203   5.516
 4649SOL    HW225979   4.432   0.283   5.538
 4650SOL     OW25980   4.612   1.514   4.919
 4650SOL    HW125981   4.589   1.489   4.825
 4650SOL    HW225982   4.673   1.445   4.958
 4651SOL     OW25983   4.646   0.503   4.623
 4651SOL    HW125984   4.621   0.494   4.527
 4651SOL    HW225985   4.694   0.421   4.654
 4652SOL     OW25986   4.263   0.064   4.236
 4652SOL    HW125987   4.182   0.065   4.294
 4652SOL    HW225988   4.266   0.147   4.181
 4653SOL     OW25989   3.802   0.556   5.110
 4653SOL    HW125990   3.894   0.555   5.069
 4653SOL    HW225991   3.796   0.630   5.177
 4654SOL     OW25992   4.285   0.222   4.871
 4654SOL    HW125993   4.323   0.138   4.908
 4654SOL    HW225994   4.197   0.241   4.915
 4655SOL     OW25995   4.590   0.454   4.366
 4655SOL    HW125996   4.558   0.526   4.304
 4655SOL    HW225997   4.614   0.373   4.313
 4656SOL     OW25998   5.388   1.280   4.381
 4656SOL    HW125999   5.487   1.288   4.395
 4656SOL    HW226000   5.343   1.364   4.412
 4657SOL     OW26001   4.704   1.116   5.443
 4657SOL    HW126002   4.605   1.122   5.453
 4657SOL    HW226003   4.727   1.036   5.387
 4658SOL     OW26004   4.429   1.050   4.092
 4658SOL    HW126005   4.415   1.057   4.191
 4658SOL    HW226006   4.513   0.999   4.074
 4659SOL     OW26007   4.998   0.386   4.986
 4659SOL    HW126008   5.019   0.460   5.050
 4659SOL    HW226009   4.909   0.403   4.943
 4660SOL     OW26010   3.788   1.564   5.055
 4660SOL    HW126011   3.742   1.646   5.021
 4660SOL    HW226012   3.886   1.583   5.064
 4661SOL     OW26013   4.996   1.445   4.866
 4661SOL    HW126014   5.043   1.458   4.953
 4661SOL    HW226015   4.930   1.371   4.875
 4662SOL     OW26016   4.126   0.751   5.322
 4662SOL    HW126017   4.194   0.806   5.275
 4662SOL    HW226018   4.166   0.663   5.349
 4663SOL     OW26019   4.228   0.050   5.464
 4663SOL    HW126020   4.186  -0.007   5.394
 4663SOL    HW226021   4.162   0.119   5.496
 4664SOL     OW26022   4.031   0.213   4.955
 4664SOL    HW126023   4.008   0.250   5.045
 4664SOL    HW226024   4.001   0.118   4.949
 4665SOL     OW26025   3.761   1.310   5.006
 4665SOL    HW126026   3.814   1.261   5.074
 4665SOL    HW226027   3.783   1.408   5.011
 4666SOL     OW26028   5.452   0.935   5.578
 4666SOL    HW126029   5.406   0.928   5.489
 4666SOL    HW226030   5.390   0.979   5.644
 4667SOL     OW26031   4.031   0.063   4.342
 4667SOL    HW126032   4.020   0.157   4.375
 4667SOL    HW226033   4.026   0.000   4.419
 4668SOL     OW26034   4.747   0.766   4.690
 4668SOL    HW126035   4.762   0.787   4.786
 4668SOL    HW226036   4.717   0.671   4.681
 4669SOL     OW26037   4.704   1.573   5.424
 4669SOL    HW126038   4.684   1.617   5.336
 4669SOL    HW226039   4.743   1.482   5.408
 4670SOL     OW26040   4.074   0.898   5.528
 4670SOL    HW126041   4.150   0.942   5.576
 4670SOL    HW226042   4.109   0.851   5.446
 4671SOL     OW26043   5.264   0.274   3.849
 4671SOL    HW126044   5.203   0.199   3.872
 4671SOL    HW226045   5.286   0.326   3.932
 4672SOL     OW26046   5.027   0.838   3.766
 4672SOL    HW126047   5.061   0.745   3.781
 4672SOL    HW226048   5.045   0.865   3.671
 4673SOL     OW26049   4.792   1.333   4.573
 4673SOL    HW126050   4.799   1.249   4.518
 4673SOL    HW226051   4.854   1.402   4.537
 4674SOL     OW26052   4.862   0.380   5.402
 4674SOL    HW126053   4.817   0.443   5.466
 4674SOL    HW226054   4.955   0.411   5.385
 4675SOL     OW26055   4.884   0.207   5.201
 4675SOL    HW126056   4.884   0.271   5.278
 4675SOL    HW226057   4.912   0.255   5.118
 4676SOL     OW26058   3.913   0.520   5.446
 4676SOL    HW126059   3.972   0.480   5.376
 4676SOL    HW226060   3.855   0.591   5.405
 4677SOL     OW26061   3.976   1.564   5.468
 4677SOL    HW126062   3.946   1.621   5.544
 4677SOL    HW226063   3.969   1.467   5.494
 4678SOL     OW26064   4.654   1.678   5.189
 4678SOL    HW126065   4.630   1.660   5.094
 4678SOL    HW226066   4.684   1.772   5.199
 4679SOL     OW26067   3.883   1.137   5.190
 4679SOL    HW126068   3.905   1.076   5.266
 4679SOL    HW226069   3.893   1.088   5.104
 4680SOL     OW26070   3.854   1.794   5.575
 4680SOL    HW126071   3.813   1.720   5.628
 4680SOL    HW226072   3.918   1.845   5.633
 4681SOL     OW26073   4.396   1.616   3.878
 4681SOL    HW126074   4.405   1.626   3.779
 4681SOL    HW226075   4.356   1.527   3.899
 4682SOL     OW26076   5.374   1.720   5.118
 4682SOL    HW126077   5.427   1.730   5.034
 4682SOL    HW226078   5.347   1.810   5.152
 4683SOL     OW26079   4.096   1.288   5.214
 4683SOL    HW126080   4.083   1.381   5.180
 4683SOL    HW226081   4.012   1.236   5.201
 4684SOL     OW26082   5.338   1.292   5.013
 4684SOL    HW126083   5.398   1.295   5.093
 4684SOL    HW226084   5.263   1.356   5.026
 4685SOL     OW26085   4.763   1.098   4.420
 4685SOL    HW126086   4.693   1.051   4.474
 4685SOL    HW226087   4.822   1.030   4.377
 4686SOL     OW26088   5.433   0.385   5.105
 4686SOL    HW126089   5.506   0.454   5.109
 4686SOL    HW226090   5.461   0.310   5.046
 4687SOL     OW26091   3.829   1.013   5.450
 4687SOL    HW126092   3.752   0.980   5.504
 4687SOL    HW226093   3.914   0.983   5.492
 4688SOL     OW26094   4.396   0.203   5.213
 4688SOL    HW126095   4.486   0.187   5.173
 4688SOL    HW226096   4.404   0.208   5.312
 4689SOL     OW26097   4.907   1.335   3.843
 4689SOL    HW126098   4.808   1.324   3.845
 4689SOL    HW226099   4.941   1.350   3.936
 4690SOL     OW26100   4.440   0.565   5.432
 4690SOL    HW126101   4.459   0.630   5.506
 4690SOL    HW226102   4.500   0.485   5.441
 4691SOL     OW26103   5.501   0.342   5.366
 4691SOL    HW126104   5.484   0.373   5.272
 4691SOL    HW226105   5.417   0.305   5.404
 4692SOL     OW26106   4.385   1.790   4.677
 4692SOL    HW126107   4.339   1.878   4.664
 4692SOL    HW226108   4.484   1.802   4.670
 4693SOL     OW26109   4.807   0.984   3.811
 4693SOL    HW126110   4.784   1.037   3.729
 4693SOL    HW226111   4.888   0.928   3.792
 4694SOL     OW26112   3.945   1.314   5.568
 4694SOL    HW126113   3.880   1.241   5.547
 4694SOL    HW226114   3.949   1.328   5.666
 4695SOL     OW26115   3.803   1.240   4.377
 4695SOL    HW126116   3.802   1.193   4.465
 4695SOL    HW226117   3.885   1.212   4.326
 4696SOL     OW26118   4.041   0.547   5.004
 4696SOL    HW126119   4.079   0.488   5.076
 4696SOL    HW226120   4.081   0.521   4.916
 4697SOL     OW26121   4.536   1.586   4.411
 4697SOL    HW126122   4.568   1.596   4.317
 4697SOL    HW226123   4.457   1.524   4.413
 4698SOL     OW26124   5.148   0.214   4.836
 4698SOL    HW126125   5.200   0.149   4.891
 4698SOL    HW226126   5.099   0.277   4.897
 4699SOL     OW26127   5.076   0.052   3.892
 4699SOL    HW126128   5.111   0.011   3.808
 4699SOL    HW226129   4.986   0.014   3.912
 4700SOL     OW26130   5.024   0.453   4.415
 4700SOL    HW126131   4.965   0.533   4.419
 4700SOL    HW226132   5.039   0.418   4.508
 4701SOL     OW26133   3.954   0.628   5.699
 4701SOL    HW126134   3.861   0.626   5.736
 4701SOL    HW226135   3.955   0.589   5.607
 4702SOL     OW26136   3.949   0.275   6.582
 4702SOL    HW126137   3.984   0.258   6.674
 4702SOL    HW226138   3.861   0.230   6.570
 4703SOL     OW26139   3.743   0.368   6.233
 4703SOL    HW126140   3.661   0.411   6.272
 4703SOL    HW226141   3.715   0.295   6.170
 4704SOL     OW26142   4.293   1.275   6.751
 4704SOL    HW126143   4.200   1.268   6.714
 4704SOL    HW226144   4.304   1.364   6.795
 4705SOL     OW26145   5.279   1.511   6.289
 4705SOL    HW126146   5.222   1.495   6.370
 4705SOL    HW226147   5.220   1.521   6.209
 4706SOL     OW26148   4.859   0.703   6.303
 4706SOL    HW126149   4.916   0.781   6.278
 4706SOL    HW226150   4.799   0.729   6.379
 4707SOL     OW26151   5.479   0.607   5.817
 4707SOL    HW126152   5.467   0.594   5.718
 4707SOL    HW226153   5.449   0.526   5.866
 4708SOL     OW26154   4.492   1.144   6.609
 4708SOL    HW126155   4.414   1.161   6.669
 4708SOL    HW226156   4.526   1.231   6.573
 4709SOL     OW26157   4.409   1.012   6.251
 4709SOL    HW126158   4.478   0.996   6.321
 4709SOL    HW226159   4.336   1.069   6.289
 4710SOL     OW26160   4.059   1.435   6.647
 4710SOL    HW126161   3.981   1.404   6.594
 4710SOL    HW226162   4.117   1.493   6.590
 4711SOL     OW26163   5.327   0.447   6.323
 4711SOL    HW126164   5.253   0.493   6.273
 4711SOL    HW226165   5.378   0.515   6.376
 4712SOL     OW26166   3.955   1.713   6.069
 4712SOL    HW126167   3.989   1.790   6.123
 4712SOL    HW226168   3.999   1.713   5.979
 4713SOL     OW26169   3.954   1.434   6.124
 4713SOL    HW126170   3.928   1.530   6.124
 4713SOL    HW226171   3.883   1.380   6.169
 4714SOL     OW26172   3.964   1.091   6.472
 4714SOL    HW126173   3.978   1.007   6.524
 4714SOL    HW226174   3.909   1.155   6.527
 4715SOL     OW26175   4.344   1.786   7.025
 4715SOL    HW126176   4.252   1.769   7.060
 4715SOL    HW226177   4.372   1.878   7.051
 4716SOL     OW26178   4.330   0.964   5.709
 4716SOL    HW126179   4.337   1.048   5.655
 4716SOL    HW226180   4.376   0.977   5.797
 4717SOL     OW26181   3.846   0.643   6.149
 4717SOL    HW126182   3.801   0.555   6.166
 4717SOL    HW226183   3.845   0.697   6.233
 4718SOL     OW26184   5.413   0.922   6.198
 4718SOL    HW126185   5.508   0.893   6.206
 4718SOL    HW226186   5.405   0.987   6.123
 4719SOL     OW26187   5.365   1.108   6.018
 4719SOL    HW126188   5.451   1.110   5.966
 4719SOL    HW226189   5.379   1.155   6.106
 4720SOL     OW26190   4.337   1.365   6.312
 4720SOL    HW126191   4.288   1.278   6.321
 4720SOL    HW226192   4.314   1.408   6.225
 4721SOL     OW26193   4.533   0.004   6.088
 4721SOL    HW126194   4.573   0.095   6.079
 4721SOL    HW226195   4.433   0.012   6.094
 4722SOL     OW26196   3.921   0.976   6.850
 4722SOL    HW126197   4.010   0.931   6.836
 4722SOL    HW226198   3.848   0.911   6.831
 4723SOL     OW26199   5.249   0.999   5.776
 4723SOL    HW126200   5.186   0.923   5.789
 4723SOL    HW226201   5.297   1.017   5.862
 4724SOL     OW26202   5.190   1.417   6.539
 4724SOL    HW126203   5.131   1.423   6.619
 4724SOL    HW226204   5.175   1.329   6.493
 4725SOL     OW26205   5.391   1.714   6.158
 4725SOL    HW126206   5.350   1.691   6.070
 4725SOL    HW226207   5.373   1.640   6.223
 4726SOL     OW26208   4.322   0.729   5.856
 4726SOL    HW126209   4.346   0.798   5.788
 4726SOL    HW226210   4.244   0.762   5.910
 4727SOL     OW26211   5.005   0.345   6.530
 4727SOL    HW126212   4.919   0.295   6.517
 4727SOL    HW226213   5.067   0.291   6.586
 4728SOL     OW26214   5.300   1.662   5.893
 4728SOL    HW126215   5.389   1.708   5.896
 4728SOL    HW226216   5.279   1.638   5.798
 4729SOL     OW26217   4.715   0.410   6.828
 4729SOL    HW126218   4.638   0.444   6.882
 4729SOL    HW226219   4.681   0.359   6.749
 4730SOL     OW26220   4.765   0.701   6.015
 4730SOL    HW126221   4.791   0.697   6.111
 4730SOL    HW226222   4.680   0.650   6.001
 4731SOL     OW26223   3.800   0.811   6.375
 4731SOL    HW126224   3.899   0.799   6.384
 4731SOL    HW226225   3.776   0.906   6.396
 4732SOL     OW26226   4.589   0.348   5.781
 4732SOL    HW126227   4.648   0.411   5.732
 4732SOL    HW226228   4.608   0.254   5.752
 4733SOL     OW26229   5.086   1.144   6.131
 4733SOL    HW126230   5.169   1.115   6.083
 4733SOL    HW226231   5.037   1.211   6.075
 4734SOL     OW26232   4.274   0.196   6.471
 4734SOL    HW126233   4.269   0.191   6.571
 4734SOL    HW226234   4.276   0.292   6.442
 4735SOL     OW26235   4.732   1.456   6.063
 4735SOL    HW126236   4.686   1.528   6.011
 4735SOL    HW226237   4.728   1.476   6.161
 4736SOL     OW26238   4.075   1.801   6.439
 4736SOL    HW126239   4.125   1.715   6.445
 4736SOL    HW226240   4.140   1.878   6.436
 4737SOL     OW26241   5.519   1.066   6.459
 4737SOL    HW126242   5.457   1.051   6.383
 4737SOL    HW226243   5.467   1.077   6.544
 4738SOL     OW26244   4.045   0.943   5.828
 4738SOL    HW126245   4.127   0.982   5.786
 4738SOL    HW226246   4.018   0.861   5.779
 4739SOL     OW26247   5.182   0.735   6.314
 4739SOL    HW126248   5.177   0.670   6.389
 4739SOL    HW226249   5.262   0.794   6.327
 4740SOL     OW26250   3.926   0.285   7.084
 4740SOL    HW126251   3.846   0.345   7.071
 4740SOL    HW226252   3.916   0.236   7.170
 4741SOL     OW26253   5.356   1.377   5.667
 4741SOL    HW126254   5.324   1.471   5.657
 4741SOL    HW226255   5.280   1.314   5.655
 4742SOL     OW26256   4.188   1.743   5.909
 4742SOL    HW126257   4.221   1.782   5.995
 4742SOL    HW226258   4.264   1.736   5.844
 4743SOL     OW26259   5.124   0.107   6.012
 4743SOL    HW126260   5.100   0.070   5.922
 4743SOL    HW226261   5.223   0.123   6.016
 4744SOL     OW26262   3.973   1.785   6.827
 4744SOL    HW126263   4.030   1.720   6.877
 4744SOL    HW226264   3.957   1.752   6.734
 4745SOL     OW26265   4.664   1.698   6.490
 4745SOL    HW126266   4.744   1.641   6.511
 4745SOL    HW226267   4.615   1.658   6.413
 4746SOL     OW26268   4.106   0.700   6.066
 4746SOL    HW126269   4.151   0.610   6.063
 4746SOL    HW226270   4.012   0.689   6.099
 4747SOL     OW26271   4.338   0.122   5.703
 4747SOL    HW126272   4.436   0.100   5.710
 4747SOL    HW226273   4.307   0.105   5.610
 4748SOL     OW26274   4.527   1.402   6.510
 4748SOL    HW126275   4.617   1.416   6.468
 4748SOL    HW226276   4.456   1.404   6.439
 4749SOL     OW26277   4.646   0.503   6.485
 4749SOL    HW126278   4.621   0.494   6.389
 4749SOL    HW226279   4.694   0.421   6.516
 4750SOL     OW26280   4.263   0.064   6.098
 4750SOL    HW126281   4.182   0.065   6.156
 4750SOL    HW226282   4.266   0.147   6.043
 4751SOL     OW26283   5.158   1.188   5.627
 4751SOL    HW126284   5.190   1.112   5.684
 4751SOL    HW226285   5.066   1.215   5.657
 4752SOL     OW26286   4.021   0.035   5.757
 4752SOL    HW126287   4.070   0.119   5.736
 4752SOL    HW226288   4.083  -0.030   5.802
 4753SOL     OW26289   4.659   0.236   6.066
 4753SOL    HW126290   4.611   0.277   5.988
 4753SOL    HW226291   4.758   0.234   6.047
 4754SOL     OW26292   4.951   1.570   6.379
 4754SOL    HW126293   4.972   1.644   6.314
 4754SOL    HW226294   5.019   1.570   6.452
 4755SOL     OW26295   4.183   1.152   6.327
 4755SOL    HW126296   4.112   1.125   6.392
 4755SOL    HW226297   4.157   1.124   6.234
 4756SOL     OW26298   4.995   1.797   6.177
 4756SOL    HW126299   5.039   1.861   6.113
 4756SOL    HW226300   4.945   1.849   6.247
 4757SOL     OW26301   4.756   0.549   5.602
 4757SOL    HW126302   4.715   0.631   5.563
 4757SOL    HW226303   4.820   0.575   5.675
 4758SOL     OW26304   4.285   0.222   6.733
 4758SOL    HW126305   4.323   0.138   6.770
 4758SOL    HW226306   4.197   0.241   6.777
 4759SOL     OW26307   4.590   0.454   6.228
 4759SOL    HW126308   4.558   0.526   6.166
 4759SOL    HW226309   4.614   0.373   6.175
 4760SOL     OW26310   4.741   0.039   6.339
 4760SOL    HW126311   4.669   0.044   6.270
 4760SOL    HW226312   4.717  -0.030   6.408
 4761SOL     OW26313   5.153   1.173   6.453
 4761SOL    HW126314   5.098   1.089   6.446
 4761SOL    HW226315   5.179   1.202   6.361
 4762SOL     OW26316   5.190   0.590   6.578
 4762SOL    HW126317   5.160   0.495   6.585
 4762SOL    HW226318   5.263   0.606   6.644
 4763SOL     OW26319   5.581   0.833   5.963
 4763SOL    HW126320   5.623   0.769   6.027
 4763SOL    HW226321   5.543   0.782   5.885
 4764SOL     OW26322   4.212   1.385   5.760
 4764SOL    HW126323   4.125   1.370   5.807
 4764SOL    HW226324   4.195   1.411   5.665
 4765SOL     OW26325   5.388   1.280   6.243
 4765SOL    HW126326   5.487   1.288   6.257
 4765SOL    HW226327   5.343   1.364   6.274
 4766SOL     OW26328   5.114   0.575   5.664
 4766SOL    HW126329   5.060   0.554   5.745
 4766SOL    HW226330   5.205   0.534   5.673
 4767SOL     OW26331   4.251   0.256   5.914
 4767SOL    HW126332   4.278   0.197   5.839
 4767SOL    HW226333   4.251   0.351   5.883
 4768SOL     OW26334   4.835   1.195   6.686
 4768SOL    HW126335   4.795   1.239   6.767
 4768SOL    HW226336   4.794   1.232   6.603
 4769SOL     OW26337   5.362   1.099   6.665
 4769SOL    HW126338   5.367   1.180   6.724
 4769SOL    HW226339   5.276   1.101   6.614
 4770SOL     OW26340   4.429   1.050   5.954
 4770SOL    HW126341   4.415   1.057   6.053
 4770SOL    HW226342   4.513   0.999   5.936
 4771SOL     OW26343   4.134   0.813   6.837
 4771SOL    HW126344   4.220   0.825   6.887
 4771SOL    HW226345   4.092   0.726   6.864
 4772SOL     OW26346   4.998   0.386   6.848
 4772SOL    HW126347   5.019   0.460   6.912
 4772SOL    HW226348   4.909   0.403   6.805
 4773SOL     OW26349   4.091   1.100   6.087
 4773SOL    HW126350   4.084   1.183   6.031
 4773SOL    HW226351   4.095   1.020   6.027
 4774SOL     OW26352   4.290   0.537   6.451
 4774SOL    HW126353   4.302   0.603   6.377
 4774SOL    HW226354   4.336   0.571   6.534
 4775SOL     OW26355   4.976   1.348   5.974
 4775SOL    HW126356   5.026   1.425   6.014
 4775SOL    HW226357   4.881   1.350   6.006
 4776SOL     OW26358   4.996   1.445   6.728
 4776SOL    HW126359   5.043   1.458   6.815
 4776SOL    HW226360   4.930   1.371   6.737
 4777SOL     OW26361   5.306   0.639   6.058
 4777SOL    HW126362   5.275   0.700   6.131
 4777SOL    HW226363   5.356   0.691   5.989
 4778SOL     OW26364   4.078   1.510   6.915
 4778SOL    HW126365   4.057   1.466   6.828
 4778SOL    HW226366   4.175   1.536   6.918
 4779SOL     OW26367   4.297   0.870   6.615
 4779SOL    HW126368   4.341   0.959   6.606
 4779SOL    HW226369   4.234   0.870   6.692
 4780SOL     OW26370   5.084   0.862   6.631
 4780SOL    HW126371   5.009   0.862   6.565
 4780SOL    HW226372   5.121   0.770   6.640
 4781SOL     OW26373   4.933   0.525   5.861
 4781SOL    HW126374   4.946   0.441   5.915
 4781SOL    HW226375   4.904   0.599   5.921
 4782SOL     OW26376   4.031   0.213   6.817
 4782SOL    HW126377   4.008   0.250   6.907
 4782SOL    HW226378   4.001   0.118   6.811
 4783SOL     OW26379   3.761   1.310   6.868
 4783SOL    HW126380   3.814   1.261   6.936
 4783SOL    HW226381   3.783   1.408   6.873
 4784SOL     OW26382   4.456   0.634   6.650
 4784SOL    HW126383   4.515   0.608   6.574
 4784SOL    HW226384   4.428   0.730   6.639
 4785SOL     OW26385   4.031   0.063   6.204
 4785SOL    HW126386   4.020   0.157   6.237
 4785SOL    HW226387   4.026   0.000   6.281
 4786SOL     OW26388   5.346   0.367   5.960
 4786SOL    HW126389   5.348   0.291   6.024
 4786SOL    HW226390   5.298   0.444   6.000
 4787SOL     OW26391   4.747   0.766   6.552
 4787SOL    HW126392   4.762   0.787   6.648
 4787SOL    HW226393   4.717   0.671   6.543
 4788SOL     OW26394   5.264   0.274   5.711
 4788SOL    HW126395   5.203   0.199   5.734
 4788SOL    HW226396   5.286   0.326   5.794
 4789SOL     OW26397   4.792   1.333   6.435
 4789SOL    HW126398   4.799   1.249   6.380
 4789SOL    HW226399   4.854   1.402   6.399
 4790SOL     OW26400   4.043   0.810   6.535
 4790SOL    HW126401   4.136   0.846   6.540
 4790SOL    HW226402   4.037   0.725   6.587
 4791SOL     OW26403   4.063   0.509   6.592
 4791SOL    HW126404   4.011   0.426   6.575
 4791SOL    HW226405   4.140   0.514   6.528
 4792SOL     OW26406   4.884   0.207   7.063
 4792SOL    HW126407   4.884   0.271   7.140
 4792SOL    HW226408   4.912   0.255   6.980
 4793SOL     OW26409   3.732   1.326   5.786
 4793SOL    HW126410   3.639   1.347   5.755
 4793SOL    HW226411   3.742   1.227   5.799
 4794SOL     OW26412   3.812   1.801   6.513
 4794SOL    HW126413   3.770   1.715   6.486
 4794SOL    HW226414   3.906   1.804   6.479
 4795SOL     OW26415   4.228   1.568   6.496
 4795SOL    HW126416   4.294   1.642   6.505
 4795SOL    HW226417   4.272   1.489   6.454
 4796SOL     OW26418   4.726   0.796   6.824
 4796SOL    HW126419   4.767   0.764   6.910
 4796SOL    HW226420   4.630   0.769   6.821
 4797SOL     OW26421   3.764   0.544   6.700
 4797SOL    HW126422   3.849   0.511   6.659
 4797SOL    HW226423   3.777   0.559   6.798
 4798SOL     OW26424   4.539   0.572   5.911
 4798SOL    HW126425   4.546   0.483   5.865
 4798SOL    HW226426   4.445   0.606   5.903
 4799SOL     OW26427   5.381   0.604   6.792
 4799SOL    HW126428   5.343   0.535   6.854
 4799SOL    HW226429   5.463   0.568   6.748
 4800SOL     OW26430   4.395   0.464   6.855
 4800SOL    HW126431   4.361   0.375   6.825
 4800SOL    HW226432   4.421   0.518   6.775
 4801SOL     OW26433   4.654   1.678   7.051
 4801SOL    HW126434   4.630   1.660   6.956
 4801SOL    HW226435   4.684   1.772   7.061
 4802SOL     OW26436   4.197   0.500   5.777
 4802SOL    HW126437   4.258   0.580   5.781
 4802SOL    HW226438   4.102   0.531   5.784
 4803SOL     OW26439   5.071   1.059   6.820
 4803SOL    HW126440   5.095   0.996   6.746
 4803SOL    HW226441   4.981   1.099   6.802
 4804SOL     OW26442   5.026   0.855   5.895
 4804SOL    HW126443   4.940   0.824   5.937
 4804SOL    HW226444   5.022   0.841   5.796
 4805SOL     OW26445   5.483   1.747   6.740
 4805SOL    HW126446   5.544   1.777   6.667
 4805SOL    HW226447   5.445   1.658   6.718
 4806SOL     OW26448   4.976   1.731   6.714
 4806SOL    HW126449   5.060   1.736   6.660
 4806SOL    HW226450   4.953   1.635   6.732
 4807SOL     OW26451   3.807   1.258   6.608
 4807SOL    HW126452   3.802   1.257   6.708
 4807SOL    HW226453   3.724   1.217   6.570
 4808SOL     OW26454   5.450   0.135   6.109
 4808SOL    HW126455   5.523   0.118   6.042
 4808SOL    HW226456   5.419   0.048   6.147
 4809SOL     OW26457   5.112   1.573   6.063
 4809SOL    HW126458   5.179   1.585   5.989
 4809SOL    HW226459   5.072   1.662   6.086
 4810SOL     OW26460   5.004   0.927   6.258
 4810SOL    HW126461   5.064   0.846   6.260
 4810SOL    HW226462   5.044   0.996   6.198
 4811SOL     OW26463   5.374   1.720   6.980
 4811SOL    HW126464   5.427   1.730   6.896
 4811SOL    HW226465   5.347   1.810   7.014
 4812SOL     OW26466   5.565   0.175   6.549
 4812SOL    HW126467   5.604   0.090   6.513
 4812SOL    HW226468   5.467   0.177   6.530
 4813SOL     OW26469   3.987   0.326   6.306
 4813SOL    HW126470   3.908   0.377   6.272
 4813SOL    HW226471   3.978   0.311   6.404
 4814SOL     OW26472   4.918   1.612   5.617
 4814SOL    HW126473   4.924   1.519   5.654
 4814SOL    HW226474   4.859   1.612   5.537
 4815SOL     OW26475   4.546   1.002   6.958
 4815SOL    HW126476   4.586   1.001   6.866
 4815SOL    HW226477   4.556   1.094   6.998
 4816SOL     OW26478   5.228   1.607   5.630
 4816SOL    HW126479   5.136   1.644   5.637
 4816SOL    HW226480   5.266   1.627   5.540
 4817SOL     OW26481   4.763   1.098   6.282
 4817SOL    HW126482   4.693   1.051   6.336
 4817SOL    HW226483   4.822   1.030   6.239
 4818SOL     OW26484   4.738   0.236   6.557
 4818SOL    HW126485   4.730   0.200   6.464
 4818SOL    HW226486   4.736   0.160   6.622
 4819SOL     OW26487   4.314   1.487   6.077
 4819SOL    HW126488   4.356   1.429   6.007
 4819SOL    HW226489   4.270   1.566   6.033
 4820SOL     OW26490   5.433   0.385   6.967
 4820SOL    HW126491   5.506   0.454   6.971
 4820SOL    HW226492   5.461   0.310   6.908
 4821SOL     OW26493   3.979   1.348   5.876
 4821SOL    HW126494   3.883   1.349   5.849
 4821SOL    HW226495   3.991   1.401   5.960
 4822SOL     OW26496   3.799   0.345   5.619
 4822SOL    HW126497   3.707   0.317   5.590
 4822SOL    HW226498   3.830   0.422   5.563
 4823SOL     OW26499   3.796   0.166   5.904
 4823SOL    HW126500   3.779   0.249   5.850
 4823SOL    HW226501   3.886   0.129   5.882
 4824SOL     OW26502   4.907   1.335   5.705
 4824SOL    HW126503   4.808   1.324   5.707
 4824SOL    HW226504   4.941   1.350   5.798
 4825SOL     OW26505   5.217   1.767   6.545
 4825SOL    HW126506   5.250   1.831   6.476
 4825SOL    HW226507   5.283   1.761   6.620
 4826SOL     OW26508   5.174   1.220   7.219
 4826SOL    HW126509   5.165   1.210   7.318
 4826SOL    HW226510   5.270   1.213   7.193
 4827SOL     OW26511   5.398   0.883   6.840
 4827SOL    HW126512   5.371   0.794   6.803
 4827SOL    HW226513   5.399   0.951   6.767
 4828SOL     OW26514   4.949   0.325   6.035
 4828SOL    HW126515   5.014   0.251   6.024
 4828SOL    HW226516   4.969   0.375   6.119
 4829SOL     OW26517   4.318   0.745   6.238
 4829SOL    HW126518   4.368   0.830   6.219
 4829SOL    HW226519   4.230   0.747   6.190
 4830SOL     OW26520   5.454   0.934   7.103
 4830SOL    HW126521   5.492   1.025   7.118
 4830SOL    HW226522   5.446   0.917   7.004
 4831SOL     OW26523   4.385   1.790   6.539
 4831SOL    HW126524   4.339   1.878   6.526
 4831SOL    HW226525   4.484   1.802   6.532
 4832SOL     OW26526   4.583   0.956   6.447
 4832SOL    HW126527   4.637   0.887   6.495
 4832SOL    HW226528   4.551   1.025   6.513
 4833SOL     OW26529   5.585   1.569   6.437
 4833SOL    HW126530   5.514   1.557   6.367
 4833SOL    HW226531   5.586   1.490   6.497
 4834SOL     OW26532   3.803   1.240   6.239
 4834SOL    HW126533   3.802   1.193   6.327
 4834SOL    HW226534   3.885   1.212   6.188
 4835SOL     OW26535   5.548   0.192   6.813
 4835SOL    HW126536   5.544   0.102   6.857
 4835SOL    HW226537   5.551   0.181   6.714
 4836SOL     OW26538   4.152   0.424   6.106
 4836SOL    HW126539   4.182   0.352   6.044
 4836SOL    HW226540   4.113   0.384   6.189
 4837SOL     OW26541   5.429   1.487   6.690
 4837SOL    HW126542   5.336   1.462   6.663
 4837SOL    HW226543   5.455   1.437   6.772
 4838SOL     OW26544   4.536   1.586   6.273
 4838SOL    HW126545   4.568   1.596   6.179
 4838SOL    HW226546   4.457   1.524   6.275
 4839SOL     OW26547   5.148   0.214   6.698
 4839SOL    HW126548   5.200   0.149   6.753
 4839SOL    HW226549   5.099   0.277   6.759
 4840SOL     OW26550   4.725   0.034   6.740
 4840SOL    HW126551   4.662  -0.038   6.709
 4840SOL    HW226552   4.818  -0.002   6.740
 4841SOL     OW26553   4.494   1.330   5.887
 4841SOL    HW126554   4.448   1.243   5.904
 4841SOL    HW226555   4.585   1.327   5.928
 4842SOL     OW26556   5.076   0.052   5.754
 4842SOL    HW126557   5.111   0.011   5.670
 4842SOL    HW226558   4.986   0.014   5.774
 4843SOL     OW26559   5.024   0.453   6.277
 4843SOL    HW126560   4.965   0.533   6.281
 4843SOL    HW226561   5.039   0.418   6.370
 4844SOL     OW26562   5.317   0.221   6.468
 4844SOL    HW126563   5.233   0.220   6.522
 4844SOL    HW226564   5.319   0.304   6.412
 4845SOL     OW26565   3.763   1.077   5.886
 4845SOL    HW126566   3.862   1.066   5.877
 4845SOL    HW226567   3.723   0.991   5.918
 4846SOL     OW26568   4.599   1.646   5.923
 4846SOL    HW126569   4.522   1.611   5.869
 4846SOL    HW226570   4.567   1.717   5.985
 4847SOL     OW26571   3.954   2.490   0.113
 4847SOL    HW126572   3.861   2.488   0.150
 4847SOL    HW226573   3.955   2.451   0.021
 4848SOL     OW26574   3.949   2.137   0.996
 4848SOL    HW126575   3.984   2.120   1.088
 4848SOL    HW226576   3.861   2.092   0.984
 4849SOL     OW26577   3.743   2.230   0.647
 4849SOL    HW126578   3.661   2.273   0.686
 4849SOL    HW226579   3.715   2.157   0.584
 4850SOL     OW26580   4.293   3.137   1.165
 4850SOL    HW126581   4.200   3.130   1.128
 4850SOL    HW226582   4.304   3.226   1.209
 4851SOL     OW26583   5.279   3.373   0.703
 4851SOL    HW126584   5.222   3.357   0.784
 4851SOL    HW226585   5.220   3.383   0.623
 4852SOL     OW26586   4.859   2.565   0.717
 4852SOL    HW126587   4.916   2.643   0.692
 4852SOL    HW226588   4.799   2.591   0.793
 4853SOL     OW26589   5.479   2.469   0.231
 4853SOL    HW126590   5.467   2.456   0.132
 4853SOL    HW226591   5.449   2.388   0.280
 4854SOL     OW26592   4.409   2.874   0.665
 4854SOL    HW126593   4.478   2.858   0.735
 4854SOL    HW226594   4.336   2.931   0.703
 4855SOL     OW26595   4.410   3.023   1.803
 4855SOL    HW126596   4.470   3.102   1.817
 4855SOL    HW226597   4.324   3.054   1.762
 4856SOL     OW26598   4.059   3.297   1.061
 4856SOL    HW126599   3.981   3.266   1.008
 4856SOL    HW226600   4.117   3.355   1.004
 4857SOL     OW26601   5.184   3.367   1.339
 4857SOL    HW126602   5.208   3.461   1.365
 4857SOL    HW226603   5.168   3.313   1.421
 4858SOL     OW26604   4.162   2.254   1.499
 4858SOL    HW126605   4.244   2.198   1.508
 4858SOL    HW226606   4.081   2.196   1.503
 4859SOL     OW26607   5.327   2.309   0.737
 4859SOL    HW126608   5.253   2.355   0.687
 4859SOL    HW226609   5.378   2.377   0.790
 4860SOL     OW26610   3.955   3.575   0.483
 4860SOL    HW126611   3.989   3.652   0.537
 4860SOL    HW226612   3.999   3.575   0.393
 4861SOL     OW26613   3.954   3.296   0.538
 4861SOL    HW126614   3.928   3.392   0.538
 4861SOL    HW226615   3.883   3.242   0.583
 4862SOL     OW26616   3.964   2.953   0.886
 4862SOL    HW126617   3.978   2.869   0.938
 4862SOL    HW226618   3.909   3.017   0.941
 4863SOL     OW26619   4.344   3.648   1.439
 4863SOL    HW126620   4.252   3.631   1.474
 4863SOL    HW226621   4.372   3.740   1.465
 4864SOL     OW26622   4.330   2.826   0.123
 4864SOL    HW126623   4.337   2.910   0.069
 4864SOL    HW226624   4.376   2.839   0.211
 4865SOL     OW26625   5.318   1.976   1.480
 4865SOL    HW126626   5.300   2.043   1.408
 4865SOL    HW226627   5.315   2.022   1.569
 4866SOL     OW26628   3.846   2.505   0.563
 4866SOL    HW126629   3.801   2.417   0.580
 4866SOL    HW226630   3.845   2.559   0.647
 4867SOL     OW26631   5.566   3.629   0.359
 4867SOL    HW126632   5.620   3.600   0.439
 4867SOL    HW226633   5.596   3.719   0.330
 4868SOL     OW26634   3.751   3.458   0.117
 4868SOL    HW126635   3.732   3.362   0.138
 4868SOL    HW226636   3.718   3.516   0.192
 4869SOL     OW26637   5.413   2.784   0.612
 4869SOL    HW126638   5.508   2.755   0.620
 4869SOL    HW226639   5.405   2.849   0.537
 4870SOL     OW26640   5.365   2.970   0.432
 4870SOL    HW126641   5.451   2.972   0.380
 4870SOL    HW226642   5.379   3.017   0.520
 4871SOL     OW26643   3.837   2.599   1.597
 4871SOL    HW126644   3.925   2.586   1.642
 4871SOL    HW226645   3.824   2.696   1.575
 4872SOL     OW26646   4.337   3.227   0.726
 4872SOL    HW126647   4.288   3.140   0.735
 4872SOL    HW226648   4.314   3.270   0.639
 4873SOL     OW26649   5.017   3.090   1.423
 4873SOL    HW126650   5.054   3.017   1.365
 4873SOL    HW226651   5.069   3.095   1.508
 4874SOL     OW26652   4.533   1.866   0.502
 4874SOL    HW126653   4.573   1.957   0.493
 4874SOL    HW226654   4.433   1.874   0.508
 4875SOL     OW26655   3.921   2.838   1.264
 4875SOL    HW126656   4.010   2.793   1.250
 4875SOL    HW226657   3.848   2.773   1.245
 4876SOL     OW26658   5.249   2.861   0.190
 4876SOL    HW126659   5.186   2.785   0.203
 4876SOL    HW226660   5.297   2.879   0.276
 4877SOL     OW26661   4.911   3.654   1.616
 4877SOL    HW126662   4.935   3.714   1.540
 4877SOL    HW226663   4.918   3.559   1.586
 4878SOL     OW26664   4.041   2.113   1.801
 4878SOL    HW126665   4.112   2.184   1.807
 4878SOL    HW226666   3.953   2.152   1.829
 4879SOL     OW26667   5.190   3.279   0.953
 4879SOL    HW126668   5.131   3.285   1.033
 4879SOL    HW226669   5.175   3.191   0.907
 4880SOL     OW26670   5.391   3.576   0.572
 4880SOL    HW126671   5.350   3.553   0.484
 4880SOL    HW226672   5.373   3.502   0.637
 4881SOL     OW26673   4.322   2.591   0.270
 4881SOL    HW126674   4.346   2.660   0.202
 4881SOL    HW226675   4.244   2.624   0.324
 4882SOL     OW26676   5.005   2.207   0.944
 4882SOL    HW126677   4.919   2.157   0.931
 4882SOL    HW226678   5.067   2.153   1.000
 4883SOL     OW26679   5.300   3.524   0.307
 4883SOL    HW126680   5.389   3.570   0.310
 4883SOL    HW226681   5.279   3.500   0.212
 4884SOL     OW26682   4.531   2.467   1.465
 4884SOL    HW126683   4.484   2.464   1.554
 4884SOL    HW226684   4.480   2.412   1.399
 4885SOL     OW26685   4.715   2.272   1.242
 4885SOL    HW126686   4.638   2.306   1.296
 4885SOL    HW226687   4.681   2.221   1.163
 4886SOL     OW26688   4.765   2.563   0.429
 4886SOL    HW126689   4.791   2.559   0.525
 4886SOL    HW226690   4.680   2.512   0.415
 4887SOL     OW26691   3.800   2.673   0.789
 4887SOL    HW126692   3.899   2.661   0.798
 4887SOL    HW226693   3.776   2.768   0.810
 4888SOL     OW26694   4.589   2.210   0.195
 4888SOL    HW126695   4.648   2.273   0.146
 4888SOL    HW226696   4.608   2.116   0.166
 4889SOL     OW26697   5.086   3.006   0.545
 4889SOL    HW126698   5.169   2.977   0.497
 4889SOL    HW226699   5.037   3.073   0.489
 4890SOL     OW26700   4.274   2.058   0.885
 4890SOL    HW126701   4.269   2.053   0.985
 4890SOL    HW226702   4.276   2.154   0.856
 4891SOL     OW26703   4.732   3.318   0.477
 4891SOL    HW126704   4.686   3.390   0.425
 4891SOL    HW226705   4.728   3.338   0.575
 4892SOL     OW26706   4.075   3.663   0.853
 4892SOL    HW126707   4.125   3.577   0.859
 4892SOL    HW226708   4.140   3.740   0.850
 4893SOL     OW26709   5.519   2.928   0.873
 4893SOL    HW126710   5.457   2.913   0.797
 4893SOL    HW226711   5.467   2.939   0.958
 4894SOL     OW26712   4.951   3.412   1.506
 4894SOL    HW126713   4.957   3.335   1.570
 4894SOL    HW226714   4.899   3.386   1.426
 4895SOL     OW26715   4.045   2.805   0.242
 4895SOL    HW126716   4.127   2.844   0.200
 4895SOL    HW226717   4.018   2.723   0.193
 4896SOL     OW26718   5.182   2.597   0.728
 4896SOL    HW126719   5.177   2.532   0.803
 4896SOL    HW226720   5.262   2.656   0.741
 4897SOL     OW26721   4.185   3.128   1.727
 4897SOL    HW126722   4.135   3.129   1.641
 4897SOL    HW226723   4.122   3.110   1.803
 4898SOL     OW26724   4.835   3.638   0.237
 4898SOL    HW126725   4.775   3.576   0.287
 4898SOL    HW226726   4.866   3.594   0.152
 4899SOL     OW26727   3.926   2.147   1.498
 4899SOL    HW126728   3.846   2.207   1.485
 4899SOL    HW226729   3.916   2.098   1.584
 4900SOL     OW26730   5.356   3.239   0.081
 4900SOL    HW126731   5.324   3.333   0.071
 4900SOL    HW226732   5.280   3.176   0.069
 4901SOL     OW26733   4.188   3.605   0.323
 4901SOL    HW126734   4.221   3.644   0.409
 4901SOL    HW226735   4.264   3.598   0.258
 4902SOL     OW26736   5.124   1.969   0.426
 4902SOL    HW126737   5.100   1.932   0.336
 4902SOL    HW226738   5.223   1.985   0.430
 4903SOL     OW26739   3.973   3.647   1.241
 4903SOL    HW126740   4.030   3.582   1.291
 4903SOL    HW226741   3.957   3.614   1.148
 4904SOL     OW26742   4.664   3.560   0.904
 4904SOL    HW126743   4.744   3.503   0.925
 4904SOL    HW226744   4.615   3.520   0.827
 4905SOL     OW26745   4.106   2.562   0.480
 4905SOL    HW126746   4.151   2.472   0.477
 4905SOL    HW226747   4.012   2.551   0.513
 4906SOL     OW26748   4.505   2.126   1.749
 4906SOL    HW126749   4.572   2.065   1.792
 4906SOL    HW226750   4.432   2.145   1.814
 4907SOL     OW26751   5.075   2.452   1.433
 4907SOL    HW126752   5.103   2.409   1.518
 4907SOL    HW226753   5.100   2.548   1.434
 4908SOL     OW26754   4.527   3.264   0.924
 4908SOL    HW126755   4.617   3.278   0.882
 4908SOL    HW226756   4.456   3.266   0.853
 4909SOL     OW26757   4.646   2.365   0.899
 4909SOL    HW126758   4.621   2.356   0.803
 4909SOL    HW226759   4.694   2.283   0.930
 4910SOL     OW26760   4.263   1.926   0.512
 4910SOL    HW126761   4.182   1.927   0.570
 4910SOL    HW226762   4.266   2.009   0.457
 4911SOL     OW26763   5.158   3.050   0.041
 4911SOL    HW126764   5.190   2.974   0.098
 4911SOL    HW226765   5.066   3.077   0.071
 4912SOL     OW26766   4.021   1.897   0.171
 4912SOL    HW126767   4.070   1.981   0.150
 4912SOL    HW226768   4.083   1.832   0.216
 4913SOL     OW26769   4.659   2.098   0.480
 4913SOL    HW126770   4.611   2.139   0.402
 4913SOL    HW226771   4.758   2.096   0.461
 4914SOL     OW26772   4.800   2.545   1.464
 4914SOL    HW126773   4.720   2.484   1.467
 4914SOL    HW226774   4.881   2.492   1.440
 4915SOL     OW26775   4.951   3.432   0.793
 4915SOL    HW126776   4.972   3.506   0.728
 4915SOL    HW226777   5.019   3.432   0.866
 4916SOL     OW26778   4.183   3.014   0.741
 4916SOL    HW126779   4.112   2.987   0.806
 4916SOL    HW226780   4.157   2.986   0.648
 4917SOL     OW26781   4.995   3.659   0.591
 4917SOL    HW126782   5.039   3.723   0.527
 4917SOL    HW226783   4.945   3.711   0.661
 4918SOL     OW26784   4.756   2.411   0.016
 4918SOL    HW126785   4.715   2.493  -0.023
 4918SOL    HW226786   4.820   2.437   0.089
 4919SOL     OW26787   3.802   2.418   1.386
 4919SOL    HW126788   3.894   2.417   1.345
 4919SOL    HW226789   3.796   2.492   1.453
 4920SOL     OW26790   4.285   2.084   1.147
 4920SOL    HW126791   4.323   2.000   1.184
 4920SOL    HW226792   4.197   2.103   1.191
 4921SOL     OW26793   4.590   2.316   0.642
 4921SOL    HW126794   4.558   2.388   0.580
 4921SOL    HW226795   4.614   2.235   0.589
 4922SOL     OW26796   4.741   1.901   0.753
 4922SOL    HW126797   4.669   1.906   0.684
 4922SOL    HW226798   4.717   1.832   0.822
 4923SOL     OW26799   5.153   3.035   0.867
 4923SOL    HW126800   5.098   2.951   0.860
 4923SOL    HW226801   5.179   3.064   0.775
 4924SOL     OW26802   5.190   2.452   0.992
 4924SOL    HW126803   5.160   2.357   0.999
 4924SOL    HW226804   5.263   2.468   1.058
 4925SOL     OW26805   5.581   2.695   0.377
 4925SOL    HW126806   5.623   2.631   0.441
 4925SOL    HW226807   5.543   2.644   0.299
 4926SOL     OW26808   4.212   3.247   0.174
 4926SOL    HW126809   4.125   3.232   0.221
 4926SOL    HW226810   4.195   3.273   0.079
 4927SOL     OW26811   5.388   3.142   0.657
 4927SOL    HW126812   5.487   3.150   0.671
 4927SOL    HW226813   5.343   3.226   0.688
 4928SOL     OW26814   5.114   2.437   0.078
 4928SOL    HW126815   5.060   2.416   0.159
 4928SOL    HW226816   5.205   2.396   0.087
 4929SOL     OW26817   4.251   2.118   0.328
 4929SOL    HW126818   4.278   2.059   0.253
 4929SOL    HW226819   4.251   2.213   0.297
 4930SOL     OW26820   4.835   3.057   1.100
 4930SOL    HW126821   4.795   3.101   1.181
 4930SOL    HW226822   4.794   3.094   1.017
 4931SOL     OW26823   5.362   2.961   1.079
 4931SOL    HW126824   5.367   3.042   1.138
 4931SOL    HW226825   5.276   2.963   1.028
 4932SOL     OW26826   4.429   2.912   0.368
 4932SOL    HW126827   4.415   2.919   0.467
 4932SOL    HW226828   4.513   2.861   0.350
 4933SOL     OW26829   4.134   2.675   1.251
 4933SOL    HW126830   4.220   2.687   1.301
 4933SOL    HW226831   4.092   2.588   1.278
 4934SOL     OW26832   4.998   2.248   1.262
 4934SOL    HW126833   5.019   2.322   1.326
 4934SOL    HW226834   4.909   2.265   1.219
 4935SOL     OW26835   3.788   3.426   1.331
 4935SOL    HW126836   3.742   3.508   1.297
 4935SOL    HW226837   3.886   3.445   1.340
 4936SOL     OW26838   4.091   2.962   0.501
 4936SOL    HW126839   4.084   3.045   0.445
 4936SOL    HW226840   4.095   2.882   0.441
 4937SOL     OW26841   4.290   2.399   0.865
 4937SOL    HW126842   4.302   2.465   0.791
 4937SOL    HW226843   4.336   2.433   0.948
 4938SOL     OW26844   4.976   3.210   0.388
 4938SOL    HW126845   5.026   3.287   0.428
 4938SOL    HW226846   4.881   3.212   0.420
 4939SOL     OW26847   4.996   3.307   1.142
 4939SOL    HW126848   5.043   3.320   1.229
 4939SOL    HW226849   4.930   3.233   1.151
 4940SOL     OW26850   5.306   2.501   0.472
 4940SOL    HW126851   5.275   2.562   0.545
 4940SOL    HW226852   5.356   2.553   0.403
 4941SOL     OW26853   4.078   3.372   1.329
 4941SOL    HW126854   4.057   3.328   1.242
 4941SOL    HW226855   4.175   3.398   1.332
 4942SOL     OW26856   4.126   2.613   1.598
 4942SOL    HW126857   4.194   2.668   1.551
 4942SOL    HW226858   4.166   2.525   1.625
 4943SOL     OW26859   5.311   2.641   1.670
 4943SOL    HW126860   5.219   2.679   1.665
 4943SOL    HW226861   5.371   2.688   1.605
 4944SOL     OW26862   4.228   1.912   1.740
 4944SOL    HW126863   4.186   1.855   1.670
 4944SOL    HW226864   4.162   1.981   1.772
 4945SOL     OW26865   4.297   2.732   1.029
 4945SOL    HW126866   4.341   2.821   1.020
 4945SOL    HW226867   4.234   2.732   1.106
 4946SOL     OW26868   5.084   2.724   1.045
 4946SOL    HW126869   5.009   2.724   0.979
 4946SOL    HW226870   5.121   2.632   1.054
 4947SOL     OW26871   4.933   2.387   0.275
 4947SOL    HW126872   4.946   2.303   0.329
 4947SOL    HW226873   4.904   2.461   0.335
 4948SOL     OW26874   4.031   2.075   1.231
 4948SOL    HW126875   4.008   2.112   1.321
 4948SOL    HW226876   4.001   1.980   1.225
 4949SOL     OW26877   3.761   3.172   1.282
 4949SOL    HW126878   3.814   3.123   1.350
 4949SOL    HW226879   3.783   3.270   1.287
 4950SOL     OW26880   4.456   2.496   1.064
 4950SOL    HW126881   4.515   2.470   0.988
 4950SOL    HW226882   4.428   2.592   1.053
 4951SOL     OW26883   4.031   1.925   0.618
 4951SOL    HW126884   4.020   2.019   0.651
 4951SOL    HW226885   4.026   1.862   0.695
 4952SOL     OW26886   5.346   2.229   0.374
 4952SOL    HW126887   5.348   2.153   0.438
 4952SOL    HW226888   5.298   2.306   0.414
 4953SOL     OW26889   4.747   2.628   0.966
 4953SOL    HW126890   4.762   2.649   1.062
 4953SOL    HW226891   4.717   2.533   0.957
 4954SOL     OW26892   4.704   3.435   1.700
 4954SOL    HW126893   4.684   3.479   1.612
 4954SOL    HW226894   4.743   3.344   1.684
 4955SOL     OW26895   5.583   3.380   1.605
 4955SOL    HW126896   5.597   3.407   1.510
 4955SOL    HW226897   5.666   3.402   1.658
 4956SOL     OW26898   4.074   2.760   1.804
 4956SOL    HW126899   4.150   2.804   1.852
 4956SOL    HW226900   4.109   2.713   1.722
 4957SOL     OW26901   5.264   2.136   0.125
 4957SOL    HW126902   5.203   2.061   0.148
 4957SOL    HW226903   5.286   2.188   0.208
 4958SOL     OW26904   5.027   2.700   0.042
 4958SOL    HW126905   5.061   2.607   0.057
 4958SOL    HW226906   5.045   2.727  -0.053
 4959SOL     OW26907   4.792   3.195   0.849
 4959SOL    HW126908   4.799   3.111   0.794
 4959SOL    HW226909   4.854   3.264   0.813
 4960SOL     OW26910   4.043   2.672   0.949
 4960SOL    HW126911   4.136   2.708   0.954
 4960SOL    HW226912   4.037   2.587   1.001
 4961SOL     OW26913   4.063   2.371   1.006
 4961SOL    HW126914   4.011   2.288   0.989
 4961SOL    HW226915   4.140   2.376   0.942
 4962SOL     OW26916   3.812   3.663   0.927
 4962SOL    HW126917   3.770   3.577   0.900
 4962SOL    HW226918   3.906   3.666   0.893
 4963SOL     OW26919   4.228   3.430   0.910
 4963SOL    HW126920   4.294   3.504   0.919
 4963SOL    HW226921   4.272   3.351   0.868
 4964SOL     OW26922   4.726   2.658   1.238
 4964SOL    HW126923   4.767   2.626   1.324
 4964SOL    HW226924   4.630   2.631   1.235
 4965SOL     OW26925   3.764   2.406   1.114
 4965SOL    HW126926   3.849   2.373   1.073
 4965SOL    HW226927   3.777   2.421   1.212
 4966SOL     OW26928   3.913   2.382   1.722
 4966SOL    HW126929   3.972   2.342   1.652
 4966SOL    HW226930   3.855   2.453   1.681
 4967SOL     OW26931   5.093   2.812   1.660
 4967SOL    HW126932   5.132   2.901   1.680
 4967SOL    HW226933   5.103   2.792   1.563
 4968SOL     OW26934   4.539   2.434   0.325
 4968SOL    HW126935   4.546   2.345   0.279
 4968SOL    HW226936   4.445   2.468   0.317
 4969SOL     OW26937   5.381   2.466   1.206
 4969SOL    HW126938   5.343   2.397   1.268
 4969SOL    HW226939   5.463   2.430   1.162
 4970SOL     OW26940   4.395   2.326   1.269
 4970SOL    HW126941   4.361   2.237   1.239
 4970SOL    HW226942   4.421   2.380   1.189
 4971SOL     OW26943   4.654   3.540   1.465
 4971SOL    HW126944   4.630   3.522   1.370
 4971SOL    HW226945   4.684   3.634   1.475
 4972SOL     OW26946   4.197   2.362   0.191
 4972SOL    HW126947   4.258   2.442   0.195
 4972SOL    HW226948   4.102   2.393   0.198
 4973SOL     OW26949   3.883   2.999   1.466
 4973SOL    HW126950   3.905   2.938   1.542
 4973SOL    HW226951   3.893   2.950   1.380
 4974SOL     OW26952   5.071   2.921   1.234
 4974SOL    HW126953   5.095   2.858   1.160
 4974SOL    HW226954   4.981   2.961   1.216
 4975SOL     OW26955   5.026   2.717   0.309
 4975SOL    HW126956   4.940   2.686   0.351
 4975SOL    HW226957   5.022   2.703   0.210
 4976SOL     OW26958   5.483   3.609   1.154
 4976SOL    HW126959   5.544   3.639   1.081
 4976SOL    HW226960   5.445   3.520   1.132
 4977SOL     OW26961   4.976   3.593   1.128
 4977SOL    HW126962   5.060   3.598   1.074
 4977SOL    HW226963   4.953   3.497   1.146
 4978SOL     OW26964   3.807   3.120   1.022
 4978SOL    HW126965   3.802   3.119   1.122
 4978SOL    HW226966   3.724   3.079   0.984
 4979SOL     OW26967   4.627   1.948   0.133
 4979SOL    HW126968   4.678   1.949   0.047
 4979SOL    HW226969   4.683   1.906   0.204
 4980SOL     OW26970   5.450   1.997   0.523
 4980SOL    HW126971   5.523   1.980   0.456
 4980SOL    HW226972   5.419   1.910   0.561
 4981SOL     OW26973   5.112   3.435   0.477
 4981SOL    HW126974   5.179   3.447   0.403
 4981SOL    HW226975   5.072   3.524   0.500
 4982SOL     OW26976   5.004   2.789   0.672
 4982SOL    HW126977   5.064   2.708   0.674
 4982SOL    HW226978   5.044   2.858   0.612
 4983SOL     OW26979   4.396   3.478   0.154
 4983SOL    HW126980   4.405   3.488   0.055
 4983SOL    HW226981   4.356   3.389   0.175
 4984SOL     OW26982   5.565   2.037   0.963
 4984SOL    HW126983   5.604   1.952   0.927
 4984SOL    HW226984   5.467   2.039   0.944
 4985SOL     OW26985   3.987   2.188   0.720
 4985SOL    HW126986   3.908   2.239   0.686
 4985SOL    HW226987   3.978   2.173   0.818
 4986SOL     OW26988   4.918   3.474   0.031
 4986SOL    HW126989   4.924   3.381   0.068
 4986SOL    HW226990   4.859   3.474  -0.049
 4987SOL     OW26991   4.546   2.864   1.372
 4987SOL    HW126992   4.586   2.863   1.280
 4987SOL    HW226993   4.556   2.956   1.412
 4988SOL     OW26994   4.640   2.772   0.291
 4988SOL    HW126995   4.703   2.810   0.223
 4988SOL    HW226996   4.680   2.689   0.330
 4989SOL     OW26997   5.228   3.469   0.044
 4989SOL    HW126998   5.136   3.506   0.051
 4989SOL    HW226999   5.266   3.489  -0.046
 4990SOL     OW27000   4.096   3.150   1.490
 4990SOL    HW127001   4.083   3.243   1.456
 4990SOL    HW227002   4.012   3.098   1.477
 4991SOL     OW27003   5.338   3.154   1.289
 4991SOL    HW127004   5.398   3.157   1.369
 4991SOL    HW227005   5.263   3.218   1.302
 4992SOL     OW27006   4.763   2.960   0.696
 4992SOL    HW127007   4.693   2.913   0.750
 4992SOL    HW227008   4.822   2.892   0.653
 4993SOL     OW27009   4.738   2.098   0.971
 4993SOL    HW127010   4.730   2.062   0.878
 4993SOL    HW227011   4.736   2.022   1.036
 4994SOL     OW27012   4.314   3.349   0.491
 4994SOL    HW127013   4.356   3.291   0.421
 4994SOL    HW227014   4.270   3.428   0.447
 4995SOL     OW27015   5.433   2.247   1.381
 4995SOL    HW127016   5.506   2.316   1.385
 4995SOL    HW227017   5.461   2.172   1.322
 4996SOL     OW27018   3.979   3.210   0.290
 4996SOL    HW127019   3.883   3.211   0.263
 4996SOL    HW227020   3.991   3.263   0.374
 4997SOL     OW27021   3.829   2.875   1.726
 4997SOL    HW127022   3.752   2.842   1.780
 4997SOL    HW227023   3.914   2.845   1.768
 4998SOL     OW27024   4.396   2.065   1.489
 4998SOL    HW127025   4.486   2.049   1.449
 4998SOL    HW227026   4.404   2.070   1.588
 4999SOL     OW27027   5.164   2.718   1.398
 4999SOL    HW127028   5.107   2.770   1.335
 4999SOL    HW227029   5.260   2.730   1.374
 5000SOL     OW27030   3.796   2.028   0.318
 5000SOL    HW127031   3.779   2.111   0.264
 5000SOL    HW227032   3.886   1.991   0.296
 5001SOL     OW27033   4.907   3.197   0.119
 5001SOL    HW127034   4.808   3.186   0.121
 5001SOL    HW227035   4.941   3.212   0.212
 5002SOL     OW27036   4.337   2.704   1.431
 5002SOL    HW127037   4.393   2.785   1.414
 5002SOL    HW227038   4.396   2.624   1.434
 5003SOL     OW27039   5.217   3.629   0.959
 5003SOL    HW127040   5.250   3.693   0.890
 5003SOL    HW227041   5.283   3.623   1.034
 5004SOL     OW27042   5.174   3.082   1.633
 5004SOL    HW127043   5.165   3.072   1.732
 5004SOL    HW227044   5.270   3.075   1.607
 5005SOL     OW27045   5.398   2.745   1.254
 5005SOL    HW127046   5.371   2.656   1.217
 5005SOL    HW227047   5.399   2.813   1.181
 5006SOL     OW27048   4.949   2.187   0.449
 5006SOL    HW127049   5.014   2.113   0.438
 5006SOL    HW227050   4.969   2.237   0.533
 5007SOL     OW27051   4.318   2.607   0.652
 5007SOL    HW127052   4.368   2.692   0.633
 5007SOL    HW227053   4.230   2.609   0.604
 5008SOL     OW27054   5.501   2.204   1.642
 5008SOL    HW127055   5.484   2.235   1.548
 5008SOL    HW227056   5.417   2.167   1.680
 5009SOL     OW27057   5.454   2.796   1.517
 5009SOL    HW127058   5.492   2.887   1.532
 5009SOL    HW227059   5.446   2.779   1.418
 5010SOL     OW27060   4.583   3.236   0.016
 5010SOL    HW127061   4.537   3.251   0.104
 5010SOL    HW227062   4.627   3.321  -0.014
 5011SOL     OW27063   4.385   3.652   0.953
 5011SOL    HW127064   4.339   3.740   0.940
 5011SOL    HW227065   4.484   3.664   0.946
 5012SOL     OW27066   4.583   2.818   0.861
 5012SOL    HW127067   4.637   2.749   0.909
 5012SOL    HW227068   4.551   2.887   0.927
 5013SOL     OW27069   4.807   2.846   0.087
 5013SOL    HW127070   4.784   2.899   0.005
 5013SOL    HW227071   4.888   2.790   0.068
 5014SOL     OW27072   5.585   3.431   0.851
 5014SOL    HW127073   5.514   3.419   0.781
 5014SOL    HW227074   5.586   3.352   0.911
 5015SOL     OW27075   3.803   3.102   0.653
 5015SOL    HW127076   3.802   3.055   0.741
 5015SOL    HW227077   3.885   3.074   0.602
 5016SOL     OW27078   4.396   3.253   1.624
 5016SOL    HW127079   4.318   3.203   1.662
 5016SOL    HW227080   4.393   3.348   1.655
 5017SOL     OW27081   4.152   2.286   0.520
 5017SOL    HW127082   4.182   2.214   0.458
 5017SOL    HW227083   4.113   2.246   0.603
 5018SOL     OW27084   5.429   3.349   1.104
 5018SOL    HW127085   5.336   3.324   1.077
 5018SOL    HW227086   5.455   3.299   1.186
 5019SOL     OW27087   4.041   2.409   1.280
 5019SOL    HW127088   4.079   2.350   1.352
 5019SOL    HW227089   4.081   2.383   1.192
 5020SOL     OW27090   4.536   3.448   0.687
 5020SOL    HW127091   4.568   3.458   0.593
 5020SOL    HW227092   4.457   3.386   0.689
 5021SOL     OW27093   5.148   2.076   1.112
 5021SOL    HW127094   5.200   2.011   1.167
 5021SOL    HW227095   5.099   2.139   1.173
 5022SOL     OW27096   4.725   1.896   1.154
 5022SOL    HW127097   4.662   1.824   1.123
 5022SOL    HW227098   4.818   1.860   1.154
 5023SOL     OW27099   4.494   3.192   0.301
 5023SOL    HW127100   4.448   3.105   0.318
 5023SOL    HW227101   4.585   3.189   0.342
 5024SOL     OW27102   4.342   3.429   1.284
 5024SOL    HW127103   4.337   3.511   1.341
 5024SOL    HW227104   4.431   3.426   1.239
 5025SOL     OW27105   5.076   1.914   0.168
 5025SOL    HW127106   5.111   1.873   0.084
 5025SOL    HW227107   4.986   1.876   0.188
 5026SOL     OW27108   5.024   2.315   0.691
 5026SOL    HW127109   4.965   2.395   0.695
 5026SOL    HW227110   5.039   2.280   0.784
 5027SOL     OW27111   5.317   2.083   0.882
 5027SOL    HW127112   5.233   2.082   0.936
 5027SOL    HW227113   5.319   2.166   0.826
 5028SOL     OW27114   3.763   2.939   0.300
 5028SOL    HW127115   3.862   2.928   0.291
 5028SOL    HW227116   3.723   2.853   0.332
 5029SOL     OW27117   4.599   3.508   0.337
 5029SOL    HW127118   4.522   3.473   0.283
 5029SOL    HW227119   4.567   3.579   0.399
 5030SOL     OW27120   5.279   3.373   2.565
 5030SOL    HW127121   5.222   3.357   2.646
 5030SOL    HW227122   5.220   3.383   2.485
 5031SOL     OW27123   5.479   2.469   2.093
 5031SOL    HW127124   5.467   2.456   1.994
 5031SOL    HW227125   5.449   2.388   2.142
 5032SOL     OW27126   4.492   3.006   2.885
 5032SOL    HW127127   4.414   3.023   2.945
 5032SOL    HW227128   4.526   3.093   2.849
 5033SOL     OW27129   4.574   2.660   3.685
 5033SOL    HW127130   4.570   2.736   3.750
 5033SOL    HW227131   4.596   2.696   3.594
 5034SOL     OW27132   4.410   3.023   3.665
 5034SOL    HW127133   4.470   3.102   3.679
 5034SOL    HW227134   4.324   3.054   3.624
 5035SOL     OW27135   3.964   2.953   2.748
 5035SOL    HW127136   3.978   2.869   2.800
 5035SOL    HW227137   3.909   3.017   2.803
 5036SOL     OW27138   5.318   1.976   3.342
 5036SOL    HW127139   5.300   2.043   3.270
 5036SOL    HW227140   5.315   2.022   3.431
 5037SOL     OW27141   5.566   3.629   2.221
 5037SOL    HW127142   5.620   3.600   2.301
 5037SOL    HW227143   5.596   3.719   2.192
 5038SOL     OW27144   5.413   2.784   2.474
 5038SOL    HW127145   5.508   2.755   2.482
 5038SOL    HW227146   5.405   2.849   2.399
 5039SOL     OW27147   5.005   2.207   2.806
 5039SOL    HW127148   4.919   2.157   2.793
 5039SOL    HW227149   5.067   2.153   2.862
 5040SOL     OW27150   5.118   2.331   3.536
 5040SOL    HW127151   5.098   2.374   3.624
 5040SOL    HW227152   5.196   2.269   3.545
 5041SOL     OW27153   4.697   2.752   3.434
 5041SOL    HW127154   4.743   2.668   3.405
 5041SOL    HW227155   4.641   2.786   3.359
 5042SOL     OW27156   5.443   2.447   3.693
 5042SOL    HW127157   5.417   2.536   3.657
 5042SOL    HW227158   5.441   2.379   3.620
 5043SOL     OW27159   5.519   2.928   2.735
 5043SOL    HW127160   5.457   2.913   2.659
 5043SOL    HW227161   5.467   2.939   2.820
 5044SOL     OW27162   5.271   2.084   3.591
 5044SOL    HW127163   5.266   2.121   3.683
 5044SOL    HW227164   5.199   2.015   3.579
 5045SOL     OW27165   4.505   2.126   3.611
 5045SOL    HW127166   4.572   2.065   3.654
 5045SOL    HW227167   4.432   2.145   3.676
 5046SOL     OW27168   4.646   2.365   2.761
 5046SOL    HW127169   4.621   2.356   2.665
 5046SOL    HW227170   4.694   2.283   2.792
 5047SOL     OW27171   4.183   3.014   2.603
 5047SOL    HW127172   4.112   2.987   2.668
 5047SOL    HW227173   4.157   2.986   2.510
 5048SOL     OW27174   4.756   2.411   1.878
 5048SOL    HW127175   4.715   2.493   1.839
 5048SOL    HW227176   4.820   2.437   1.951
 5049SOL     OW27177   3.802   2.418   3.248
 5049SOL    HW127178   3.894   2.417   3.207
 5049SOL    HW227179   3.796   2.492   3.315
 5050SOL     OW27180   4.285   2.084   3.009
 5050SOL    HW127181   4.323   2.000   3.046
 5050SOL    HW227182   4.197   2.103   3.053
 5051SOL     OW27183   4.251   2.118   2.190
 5051SOL    HW127184   4.278   2.059   2.115
 5051SOL    HW227185   4.251   2.213   2.159
 5052SOL     OW27186   5.316   3.491   3.487
 5052SOL    HW127187   5.343   3.525   3.397
 5052SOL    HW227188   5.395   3.453   3.533
 5053SOL     OW27189   4.639   1.951   3.264
 5053SOL    HW127190   4.664   1.931   3.169
 5053SOL    HW227191   4.711   2.007   3.306
 5054SOL     OW27192   4.704   2.978   3.581
 5054SOL    HW127193   4.605   2.984   3.591
 5054SOL    HW227194   4.727   2.898   3.525
 5055SOL     OW27195   5.306   2.501   2.334
 5055SOL    HW127196   5.275   2.562   2.407
 5055SOL    HW227197   5.356   2.553   2.265
 5056SOL     OW27198   4.078   3.372   3.191
 5056SOL    HW127199   4.057   3.328   3.104
 5056SOL    HW227200   4.175   3.398   3.194
 5057SOL     OW27201   4.737   1.967   3.632
 5057SOL    HW127202   4.743   2.052   3.580
 5057SOL    HW227203   4.769   1.891   3.575
 5058SOL     OW27204   5.084   2.724   2.907
 5058SOL    HW127205   5.009   2.724   2.841
 5058SOL    HW227206   5.121   2.632   2.916
 5059SOL     OW27207   3.761   3.172   3.144
 5059SOL    HW127208   3.814   3.123   3.212
 5059SOL    HW227209   3.783   3.270   3.149
 5060SOL     OW27210   5.452   2.797   3.716
 5060SOL    HW127211   5.406   2.790   3.627
 5060SOL    HW227212   5.390   2.841   3.782
 5061SOL     OW27213   4.031   1.925   2.480
 5061SOL    HW127214   4.020   2.019   2.513
 5061SOL    HW227215   4.026   1.862   2.557
 5062SOL     OW27216   4.704   3.435   3.562
 5062SOL    HW127217   4.684   3.479   3.474
 5062SOL    HW227218   4.743   3.344   3.546
 5063SOL     OW27219   4.862   2.242   3.540
 5063SOL    HW127220   4.817   2.305   3.604
 5063SOL    HW227221   4.955   2.273   3.523
 5064SOL     OW27222   4.884   2.069   3.339
 5064SOL    HW127223   4.884   2.133   3.416
 5064SOL    HW227224   4.912   2.117   3.256
 5065SOL     OW27225   3.976   3.426   3.606
 5065SOL    HW127226   3.946   3.483   3.682
 5065SOL    HW227227   3.969   3.329   3.632
 5066SOL     OW27228   4.654   3.540   3.327
 5066SOL    HW127229   4.630   3.522   3.232
 5066SOL    HW227230   4.684   3.634   3.337
 5067SOL     OW27231   3.883   2.999   3.328
 5067SOL    HW127232   3.905   2.938   3.404
 5067SOL    HW227233   3.893   2.950   3.242
 5068SOL     OW27234   4.412   3.524   3.578
 5068SOL    HW127235   4.356   3.605   3.587
 5068SOL    HW227236   4.464   3.528   3.492
 5069SOL     OW27237   4.396   3.478   2.016
 5069SOL    HW127238   4.405   3.488   1.917
 5069SOL    HW227239   4.356   3.389   2.037
 5070SOL     OW27240   5.374   3.582   3.256
 5070SOL    HW127241   5.427   3.592   3.172
 5070SOL    HW227242   5.347   3.672   3.290
 5071SOL     OW27243   4.763   2.960   2.558
 5071SOL    HW127244   4.693   2.913   2.612
 5071SOL    HW227245   4.822   2.892   2.515
 5072SOL     OW27246   4.738   2.098   2.833
 5072SOL    HW127247   4.730   2.062   2.740
 5072SOL    HW227248   4.736   2.022   2.898
 5073SOL     OW27249   4.396   2.065   3.351
 5073SOL    HW127250   4.486   2.049   3.311
 5073SOL    HW227251   4.404   2.070   3.450
 5074SOL     OW27252   3.799   2.207   1.895
 5074SOL    HW127253   3.707   2.179   1.866
 5074SOL    HW227254   3.830   2.284   1.839
 5075SOL     OW27255   5.164   2.718   3.260
 5075SOL    HW127256   5.107   2.770   3.197
 5075SOL    HW227257   5.260   2.730   3.236
 5076SOL     OW27258   3.796   2.028   2.180
 5076SOL    HW127259   3.779   2.111   2.126
 5076SOL    HW227260   3.886   1.991   2.158
 5077SOL     OW27261   5.217   3.629   2.821
 5077SOL    HW127262   5.250   3.693   2.752
 5077SOL    HW227263   5.283   3.623   2.896
 5078SOL     OW27264   4.114   3.603   3.422
 5078SOL    HW127265   4.023   3.644   3.420
 5078SOL    HW227266   4.107   3.509   3.454
 5079SOL     OW27267   4.318   2.607   2.514
 5079SOL    HW127268   4.368   2.692   2.495
 5079SOL    HW227269   4.230   2.609   2.466
 5080SOL     OW27270   4.583   2.818   2.723
 5080SOL    HW127271   4.637   2.749   2.771
 5080SOL    HW227272   4.551   2.887   2.789
 5081SOL     OW27273   3.945   3.176   3.706
 5081SOL    HW127274   3.880   3.103   3.685
 5081SOL    HW227275   3.949   3.190   3.804
 5082SOL     OW27276   4.152   2.286   2.382
 5082SOL    HW127277   4.182   2.214   2.320
 5082SOL    HW227278   4.113   2.246   2.465
 5083SOL     OW27279   4.536   3.448   2.549
 5083SOL    HW127280   4.568   3.458   2.455
 5083SOL    HW227281   4.457   3.386   2.551
 5084SOL     OW27282   4.342   3.429   3.146
 5084SOL    HW127283   4.337   3.511   3.203
 5084SOL    HW227284   4.431   3.426   3.101
 5085SOL     OW27285   4.599   3.508   2.199
 5085SOL    HW127286   4.522   3.473   2.145
 5085SOL    HW227287   4.567   3.579   2.261
 5086SOL     OW27288   3.954   2.490   3.837
 5086SOL    HW127289   3.861   2.488   3.874
 5086SOL    HW227290   3.955   2.451   3.745
 5087SOL     OW27291   3.743   2.230   4.371
 5087SOL    HW127292   3.661   2.273   4.410
 5087SOL    HW227293   3.715   2.157   4.308
 5088SOL     OW27294   4.859   2.565   4.441
 5088SOL    HW127295   4.916   2.643   4.416
 5088SOL    HW227296   4.799   2.591   4.517
 5089SOL     OW27297   5.479   2.469   3.955
 5089SOL    HW127298   5.467   2.456   3.856
 5089SOL    HW227299   5.449   2.388   4.004
 5090SOL     OW27300   4.574   2.660   5.547
 5090SOL    HW127301   4.570   2.736   5.612
 5090SOL    HW227302   4.596   2.696   5.456
 5091SOL     OW27303   4.409   2.874   4.389
 5091SOL    HW127304   4.478   2.858   4.459
 5091SOL    HW227305   4.336   2.931   4.427
 5092SOL     OW27306   4.162   2.254   5.223
 5092SOL    HW127307   4.244   2.198   5.232
 5092SOL    HW227308   4.081   2.196   5.227
 5093SOL     OW27309   3.955   3.575   4.207
 5093SOL    HW127310   3.989   3.652   4.261
 5093SOL    HW227311   3.999   3.575   4.117
 5094SOL     OW27312   5.566   3.629   4.083
 5094SOL    HW127313   5.620   3.600   4.163
 5094SOL    HW227314   5.596   3.719   4.054
 5095SOL     OW27315   3.751   3.458   3.841
 5095SOL    HW127316   3.732   3.362   3.862
 5095SOL    HW227317   3.718   3.516   3.916
 5096SOL     OW27318   3.837   2.599   5.321
 5096SOL    HW127319   3.925   2.586   5.366
 5096SOL    HW227320   3.824   2.696   5.299
 5097SOL     OW27321   4.337   3.227   4.450
 5097SOL    HW127322   4.288   3.140   4.459
 5097SOL    HW227323   4.314   3.270   4.363
 5098SOL     OW27324   4.533   1.866   4.226
 5098SOL    HW127325   4.573   1.957   4.217
 5098SOL    HW227326   4.433   1.874   4.232
 5099SOL     OW27327   4.041   2.113   5.525
 5099SOL    HW127328   4.112   2.184   5.531
 5099SOL    HW227329   3.953   2.152   5.553
 5100SOL     OW27330   5.190   3.279   4.677
 5100SOL    HW127331   5.131   3.285   4.757
 5100SOL    HW227332   5.175   3.191   4.631
 5101SOL     OW27333   5.391   3.576   4.296
 5101SOL    HW127334   5.350   3.553   4.208
 5101SOL    HW227335   5.373   3.502   4.361
 5102SOL     OW27336   4.715   2.272   4.966
 5102SOL    HW127337   4.638   2.306   5.020
 5102SOL    HW227338   4.681   2.221   4.887
 5103SOL     OW27339   4.589   2.210   3.919
 5103SOL    HW127340   4.648   2.273   3.870
 5103SOL    HW227341   4.608   2.116   3.890
 5104SOL     OW27342   5.519   2.928   4.597
 5104SOL    HW127343   5.457   2.913   4.521
 5104SOL    HW227344   5.467   2.939   4.682
 5105SOL     OW27345   4.045   2.805   3.966
 5105SOL    HW127346   4.127   2.844   3.924
 5105SOL    HW227347   4.018   2.723   3.917
 5106SOL     OW27348   5.356   3.239   3.805
 5106SOL    HW127349   5.324   3.333   3.795
 5106SOL    HW227350   5.280   3.176   3.793
 5107SOL     OW27351   5.124   1.969   4.150
 5107SOL    HW127352   5.100   1.932   4.060
 5107SOL    HW227353   5.223   1.985   4.154
 5108SOL     OW27354   4.106   2.562   4.204
 5108SOL    HW127355   4.151   2.472   4.201
 5108SOL    HW227356   4.012   2.551   4.237
 5109SOL     OW27357   4.338   1.984   3.841
 5109SOL    HW127358   4.436   1.962   3.848
 5109SOL    HW227359   4.307   1.967   3.748
 5110SOL     OW27360   4.505   2.126   5.473
 5110SOL    HW127361   4.572   2.065   5.516
 5110SOL    HW227362   4.432   2.145   5.538
 5111SOL     OW27363   4.612   3.376   4.919
 5111SOL    HW127364   4.589   3.351   4.825
 5111SOL    HW227365   4.673   3.307   4.958
 5112SOL     OW27366   4.527   3.264   4.648
 5112SOL    HW127367   4.617   3.278   4.606
 5112SOL    HW227368   4.456   3.266   4.577
 5113SOL     OW27369   5.158   3.050   3.765
 5113SOL    HW127370   5.190   2.974   3.822
 5113SOL    HW227371   5.066   3.077   3.795
 5114SOL     OW27372   4.800   2.545   5.188
 5114SOL    HW127373   4.720   2.484   5.191
 5114SOL    HW227374   4.881   2.492   5.164
 5115SOL     OW27375   4.951   3.432   4.517
 5115SOL    HW127376   4.972   3.506   4.452
 5115SOL    HW227377   5.019   3.432   4.590
 5116SOL     OW27378   3.802   2.418   5.110
 5116SOL    HW127379   3.894   2.417   5.069
 5116SOL    HW227380   3.796   2.492   5.177
 5117SOL     OW27381   4.285   2.084   4.871
 5117SOL    HW127382   4.323   2.000   4.908
 5117SOL    HW227383   4.197   2.103   4.915
 5118SOL     OW27384   4.741   1.901   4.477
 5118SOL    HW127385   4.669   1.906   4.408
 5118SOL    HW227386   4.717   1.832   4.546
 5119SOL     OW27387   5.153   3.035   4.591
 5119SOL    HW127388   5.098   2.951   4.584
 5119SOL    HW227389   5.179   3.064   4.499
 5120SOL     OW27390   5.581   2.695   4.101
 5120SOL    HW127391   5.623   2.631   4.165
 5120SOL    HW227392   5.543   2.644   4.023
 5121SOL     OW27393   4.212   3.247   3.898
 5121SOL    HW127394   4.125   3.232   3.945
 5121SOL    HW227395   4.195   3.273   3.803
 5122SOL     OW27396   5.114   2.437   3.802
 5122SOL    HW127397   5.060   2.416   3.883
 5122SOL    HW227398   5.205   2.396   3.811
 5123SOL     OW27399   5.362   2.961   4.803
 5123SOL    HW127400   5.367   3.042   4.862
 5123SOL    HW227401   5.276   2.963   4.752
 5124SOL     OW27402   4.704   2.978   5.443
 5124SOL    HW127403   4.605   2.984   5.453
 5124SOL    HW227404   4.727   2.898   5.387
 5125SOL     OW27405   4.429   2.912   4.092
 5125SOL    HW127406   4.415   2.919   4.191
 5125SOL    HW227407   4.513   2.861   4.074
 5126SOL     OW27408   4.998   2.248   4.986
 5126SOL    HW127409   5.019   2.322   5.050
 5126SOL    HW227410   4.909   2.265   4.943
 5127SOL     OW27411   5.306   2.501   4.196
 5127SOL    HW127412   5.275   2.562   4.269
 5127SOL    HW227413   5.356   2.553   4.127
 5128SOL     OW27414   4.078   3.372   5.053
 5128SOL    HW127415   4.057   3.328   4.966
 5128SOL    HW227416   4.175   3.398   5.056
 5129SOL     OW27417   4.737   1.967   5.494
 5129SOL    HW127418   4.743   2.052   5.442
 5129SOL    HW227419   4.769   1.891   5.437
 5130SOL     OW27420   4.228   1.912   5.464
 5130SOL    HW127421   4.186   1.855   5.394
 5130SOL    HW227422   4.162   1.981   5.496
 5131SOL     OW27423   4.297   2.732   4.753
 5131SOL    HW127424   4.341   2.821   4.744
 5131SOL    HW227425   4.234   2.732   4.830
 5132SOL     OW27426   4.933   2.387   3.999
 5132SOL    HW127427   4.946   2.303   4.053
 5132SOL    HW227428   4.904   2.461   4.059
 5133SOL     OW27429   4.031   2.075   4.955
 5133SOL    HW127430   4.008   2.112   5.045
 5133SOL    HW227431   4.001   1.980   4.949
 5134SOL     OW27432   4.456   2.496   4.788
 5134SOL    HW127433   4.515   2.470   4.712
 5134SOL    HW227434   4.428   2.592   4.777
 5135SOL     OW27435   4.031   1.925   4.342
 5135SOL    HW127436   4.020   2.019   4.375
 5135SOL    HW227437   4.026   1.862   4.419
 5136SOL     OW27438   4.747   2.628   4.690
 5136SOL    HW127439   4.762   2.649   4.786
 5136SOL    HW227440   4.717   2.533   4.681
 5137SOL     OW27441   5.583   3.380   5.329
 5137SOL    HW127442   5.597   3.407   5.234
 5137SOL    HW227443   5.666   3.402   5.382
 5138SOL     OW27444   5.264   2.136   3.849
 5138SOL    HW127445   5.203   2.061   3.872
 5138SOL    HW227446   5.286   2.188   3.932
 5139SOL     OW27447   5.027   2.700   3.766
 5139SOL    HW127448   5.061   2.607   3.781
 5139SOL    HW227449   5.045   2.727   3.671
 5140SOL     OW27450   3.913   2.382   5.446
 5140SOL    HW127451   3.972   2.342   5.376
 5140SOL    HW227452   3.855   2.453   5.405
 5141SOL     OW27453   4.539   2.434   4.049
 5141SOL    HW127454   4.546   2.345   4.003
 5141SOL    HW227455   4.445   2.468   4.041
 5142SOL     OW27456   5.381   2.466   4.930
 5142SOL    HW127457   5.343   2.397   4.992
 5142SOL    HW227458   5.463   2.430   4.886
 5143SOL     OW27459   4.395   2.326   4.993
 5143SOL    HW127460   4.361   2.237   4.963
 5143SOL    HW227461   4.421   2.380   4.913
 5144SOL     OW27462   5.112   3.435   4.201
 5144SOL    HW127463   5.179   3.447   4.127
 5144SOL    HW227464   5.072   3.524   4.224
 5145SOL     OW27465   5.565   2.037   4.687
 5145SOL    HW127466   5.604   1.952   4.651
 5145SOL    HW227467   5.467   2.039   4.668
 5146SOL     OW27468   3.987   2.188   4.444
 5146SOL    HW127469   3.908   2.239   4.410
 5146SOL    HW227470   3.978   2.173   4.542
 5147SOL     OW27471   4.918   3.474   3.755
 5147SOL    HW127472   4.924   3.381   3.792
 5147SOL    HW227473   4.859   3.474   3.675
 5148SOL     OW27474   4.096   3.150   5.214
 5148SOL    HW127475   4.083   3.243   5.180
 5148SOL    HW227476   4.012   3.098   5.201
 5149SOL     OW27477   3.799   2.207   3.757
 5149SOL    HW127478   3.707   2.179   3.728
 5149SOL    HW227479   3.830   2.284   3.701
 5150SOL     OW27480   3.796   2.028   4.042
 5150SOL    HW127481   3.779   2.111   3.988
 5150SOL    HW227482   3.886   1.991   4.020
 5151SOL     OW27483   4.907   3.197   3.843
 5151SOL    HW127484   4.808   3.186   3.845
 5151SOL    HW227485   4.941   3.212   3.936
 5152SOL     OW27486   4.114   3.603   5.284
 5152SOL    HW127487   4.023   3.644   5.282
 5152SOL    HW227488   4.107   3.509   5.316
 5153SOL     OW27489   5.148   2.076   4.836
 5153SOL    HW127490   5.200   2.011   4.891
 5153SOL    HW227491   5.099   2.139   4.897
 5154SOL     OW27492   5.076   1.914   3.892
 5154SOL    HW127493   5.111   1.873   3.808
 5154SOL    HW227494   4.986   1.876   3.912
 5155SOL     OW27495   5.024   2.315   4.415
 5155SOL    HW127496   4.965   2.395   4.419
 5155SOL    HW227497   5.039   2.280   4.508
 5156SOL     OW27498   4.599   3.508   4.061
 5156SOL    HW127499   4.522   3.473   4.007
 5156SOL    HW227500   4.567   3.579   4.123
 5157SOL     OW27501   3.954   2.490   5.699
 5157SOL    HW127502   3.861   2.488   5.736
 5157SOL    HW227503   3.955   2.451   5.607
 5158SOL     OW27504   3.949   2.137   6.582
 5158SOL    HW127505   3.984   2.120   6.674
 5158SOL    HW227506   3.861   2.092   6.570
 5159SOL     OW27507   3.743   2.230   6.233
 5159SOL    HW127508   3.661   2.273   6.272
 5159SOL    HW227509   3.715   2.157   6.170
 5160SOL     OW27510   4.293   3.137   6.751
 5160SOL    HW127511   4.200   3.130   6.714
 5160SOL    HW227512   4.304   3.226   6.795
 5161SOL     OW27513   5.279   3.373   6.289
 5161SOL    HW127514   5.222   3.357   6.370
 5161SOL    HW227515   5.220   3.383   6.209
 5162SOL     OW27516   4.859   2.565   6.303
 5162SOL    HW127517   4.916   2.643   6.278
 5162SOL    HW227518   4.799   2.591   6.379
 5163SOL     OW27519   4.492   3.006   6.609
 5163SOL    HW127520   4.414   3.023   6.669
 5163SOL    HW227521   4.526   3.093   6.573
 5164SOL     OW27522   4.409   2.874   6.251
 5164SOL    HW127523   4.478   2.858   6.321
 5164SOL    HW227524   4.336   2.931   6.289
 5165SOL     OW27525   4.059   3.297   6.647
 5165SOL    HW127526   3.981   3.266   6.594
 5165SOL    HW227527   4.117   3.355   6.590
 5166SOL     OW27528   5.327   2.309   6.323
 5166SOL    HW127529   5.253   2.355   6.273
 5166SOL    HW227530   5.378   2.377   6.376
 5167SOL     OW27531   3.955   3.575   6.069
 5167SOL    HW127532   3.989   3.652   6.123
 5167SOL    HW227533   3.999   3.575   5.979
 5168SOL     OW27534   3.954   3.296   6.124
 5168SOL    HW127535   3.928   3.392   6.124
 5168SOL    HW227536   3.883   3.242   6.169
 5169SOL     OW27537   3.964   2.953   6.472
 5169SOL    HW127538   3.978   2.869   6.524
 5169SOL    HW227539   3.909   3.017   6.527
 5170SOL     OW27540   4.344   3.648   7.025
 5170SOL    HW127541   4.252   3.631   7.060
 5170SOL    HW227542   4.372   3.740   7.051
 5171SOL     OW27543   3.846   2.505   6.149
 5171SOL    HW127544   3.801   2.417   6.166
 5171SOL    HW227545   3.845   2.559   6.233
 5172SOL     OW27546   4.337   3.227   6.312
 5172SOL    HW127547   4.288   3.140   6.321
 5172SOL    HW227548   4.314   3.270   6.225
 5173SOL     OW27549   4.533   1.866   6.088
 5173SOL    HW127550   4.573   1.957   6.079
 5173SOL    HW227551   4.433   1.874   6.094
 5174SOL     OW27552   3.921   2.838   6.850
 5174SOL    HW127553   4.010   2.793   6.836
 5174SOL    HW227554   3.848   2.773   6.831
 5175SOL     OW27555   5.190   3.279   6.539
 5175SOL    HW127556   5.131   3.285   6.619
 5175SOL    HW227557   5.175   3.191   6.493
 5176SOL     OW27558   5.391   3.576   6.158
 5176SOL    HW127559   5.350   3.553   6.070
 5176SOL    HW227560   5.373   3.502   6.223
 5177SOL     OW27561   4.322   2.591   5.856
 5177SOL    HW127562   4.346   2.660   5.788
 5177SOL    HW227563   4.244   2.624   5.910
 5178SOL     OW27564   5.005   2.207   6.530
 5178SOL    HW127565   4.919   2.157   6.517
 5178SOL    HW227566   5.067   2.153   6.586
 5179SOL     OW27567   5.300   3.524   5.893
 5179SOL    HW127568   5.389   3.570   5.896
 5179SOL    HW227569   5.279   3.500   5.798
 5180SOL     OW27570   4.715   2.272   6.828
 5180SOL    HW127571   4.638   2.306   6.882
 5180SOL    HW227572   4.681   2.221   6.749
 5181SOL     OW27573   4.765   2.563   6.015
 5181SOL    HW127574   4.791   2.559   6.111
 5181SOL    HW227575   4.680   2.512   6.001
 5182SOL     OW27576   3.800   2.673   6.375
 5182SOL    HW127577   3.899   2.661   6.384
 5182SOL    HW227578   3.776   2.768   6.396
 5183SOL     OW27579   4.589   2.210   5.781
 5183SOL    HW127580   4.648   2.273   5.732
 5183SOL    HW227581   4.608   2.116   5.752
 5184SOL     OW27582   4.274   2.058   6.471
 5184SOL    HW127583   4.269   2.053   6.571
 5184SOL    HW227584   4.276   2.154   6.442
 5185SOL     OW27585   4.732   3.318   6.063
 5185SOL    HW127586   4.686   3.390   6.011
 5185SOL    HW227587   4.728   3.338   6.161
 5186SOL     OW27588   4.075   3.663   6.439
 5186SOL    HW127589   4.125   3.577   6.445
 5186SOL    HW227590   4.140   3.740   6.436
 5187SOL     OW27591   5.519   2.928   6.459
 5187SOL    HW127592   5.457   2.913   6.383
 5187SOL    HW227593   5.467   2.939   6.544
 5188SOL     OW27594   4.045   2.805   5.828
 5188SOL    HW127595   4.127   2.844   5.786
 5188SOL    HW227596   4.018   2.723   5.779
 5189SOL     OW27597   5.182   2.597   6.314
 5189SOL    HW127598   5.177   2.532   6.389
 5189SOL    HW227599   5.262   2.656   6.327
 5190SOL     OW27600   3.973   3.647   6.827
 5190SOL    HW127601   4.030   3.582   6.877
 5190SOL    HW227602   3.957   3.614   6.734
 5191SOL     OW27603   4.664   3.560   6.490
 5191SOL    HW127604   4.744   3.503   6.511
 5191SOL    HW227605   4.615   3.520   6.413
 5192SOL     OW27606   4.106   2.562   6.066
 5192SOL    HW127607   4.151   2.472   6.063
 5192SOL    HW227608   4.012   2.551   6.099
 5193SOL     OW27609   4.338   1.984   5.703
 5193SOL    HW127610   4.436   1.962   5.710
 5193SOL    HW227611   4.307   1.967   5.610
 5194SOL     OW27612   4.527   3.264   6.510
 5194SOL    HW127613   4.617   3.278   6.468
 5194SOL    HW227614   4.456   3.266   6.439
 5195SOL     OW27615   4.646   2.365   6.485
 5195SOL    HW127616   4.621   2.356   6.389
 5195SOL    HW227617   4.694   2.283   6.516
 5196SOL     OW27618   4.263   1.926   6.098
 5196SOL    HW127619   4.182   1.927   6.156
 5196SOL    HW227620   4.266   2.009   6.043
 5197SOL     OW27621   4.021   1.897   5.757
 5197SOL    HW127622   4.070   1.981   5.736
 5197SOL    HW227623   4.083   1.832   5.802
 5198SOL     OW27624   4.659   2.098   6.066
 5198SOL    HW127625   4.611   2.139   5.988
 5198SOL    HW227626   4.758   2.096   6.047
 5199SOL     OW27627   4.951   3.432   6.379
 5199SOL    HW127628   4.972   3.506   6.314
 5199SOL    HW227629   5.019   3.432   6.452
 5200SOL     OW27630   4.183   3.014   6.327
 5200SOL    HW127631   4.112   2.987   6.392
 5200SOL    HW227632   4.157   2.986   6.234
 5201SOL     OW27633   4.995   3.659   6.177
 5201SOL    HW127634   5.039   3.723   6.113
 5201SOL    HW227635   4.945   3.711   6.247
 5202SOL     OW27636   4.285   2.084   6.733
 5202SOL    HW127637   4.323   2.000   6.770
 5202SOL    HW227638   4.197   2.103   6.777
 5203SOL     OW27639   4.590   2.316   6.228
 5203SOL    HW127640   4.558   2.388   6.166
 5203SOL    HW227641   4.614   2.235   6.175
 5204SOL     OW27642   4.741   1.901   6.339
 5204SOL    HW127643   4.669   1.906   6.270
 5204SOL    HW227644   4.717   1.832   6.408
 5205SOL     OW27645   5.153   3.035   6.453
 5205SOL    HW127646   5.098   2.951   6.446
 5205SOL    HW227647   5.179   3.064   6.361
 5206SOL     OW27648   5.190   2.452   6.578
 5206SOL    HW127649   5.160   2.357   6.585
 5206SOL    HW227650   5.263   2.468   6.644
 5207SOL     OW27651   4.212   3.247   5.760
 5207SOL    HW127652   4.125   3.232   5.807
 5207SOL    HW227653   4.195   3.273   5.665
 5208SOL     OW27654   4.251   2.118   5.914
 5208SOL    HW127655   4.278   2.059   5.839
 5208SOL    HW227656   4.251   2.213   5.883
 5209SOL     OW27657   4.835   3.057   6.686
 5209SOL    HW127658   4.795   3.101   6.767
 5209SOL    HW227659   4.794   3.094   6.603
 5210SOL     OW27660   5.362   2.961   6.665
 5210SOL    HW127661   5.367   3.042   6.724
 5210SOL    HW227662   5.276   2.963   6.614
 5211SOL     OW27663   4.429   2.912   5.954
 5211SOL    HW127664   4.415   2.919   6.053
 5211SOL    HW227665   4.513   2.861   5.936
 5212SOL     OW27666   4.134   2.675   6.837
 5212SOL    HW127667   4.220   2.687   6.887
 5212SOL    HW227668   4.092   2.588   6.864
 5213SOL     OW27669   4.998   2.248   6.848
 5213SOL    HW127670   5.019   2.322   6.912
 5213SOL    HW227671   4.909   2.265   6.805
 5214SOL     OW27672   4.091   2.962   6.087
 5214SOL    HW127673   4.084   3.045   6.031
 5214SOL    HW227674   4.095   2.882   6.027
 5215SOL     OW27675   4.290   2.399   6.451
 5215SOL    HW127676   4.302   2.465   6.377
 5215SOL    HW227677   4.336   2.433   6.534
 5216SOL     OW27678   4.976   3.210   5.974
 5216SOL    HW127679   5.026   3.287   6.014
 5216SOL    HW227680   4.881   3.212   6.006
 5217SOL     OW27681   4.996   3.307   6.728
 5217SOL    HW127682   5.043   3.320   6.815
 5217SOL    HW227683   4.930   3.233   6.737
 5218SOL     OW27684   4.078   3.372   6.915
 5218SOL    HW127685   4.057   3.328   6.828
 5218SOL    HW227686   4.175   3.398   6.918
 5219SOL     OW27687   4.297   2.732   6.615
 5219SOL    HW127688   4.341   2.821   6.606
 5219SOL    HW227689   4.234   2.732   6.692
 5220SOL     OW27690   5.084   2.724   6.631
 5220SOL    HW127691   5.009   2.724   6.565
 5220SOL    HW227692   5.121   2.632   6.640
 5221SOL     OW27693   4.031   2.075   6.817
 5221SOL    HW127694   4.008   2.112   6.907
 5221SOL    HW227695   4.001   1.980   6.811
 5222SOL     OW27696   3.761   3.172   6.868
 5222SOL    HW127697   3.814   3.123   6.936
 5222SOL    HW227698   3.783   3.270   6.873
 5223SOL     OW27699   4.456   2.496   6.650
 5223SOL    HW127700   4.515   2.470   6.574
 5223SOL    HW227701   4.428   2.592   6.639
 5224SOL     OW27702   4.031   1.925   6.204
 5224SOL    HW127703   4.020   2.019   6.237
 5224SOL    HW227704   4.026   1.862   6.281
 5225SOL     OW27705   5.346   2.229   5.960
 5225SOL    HW127706   5.348   2.153   6.024
 5225SOL    HW227707   5.298   2.306   6.000
 5226SOL     OW27708   4.747   2.628   6.552
 5226SOL    HW127709   4.762   2.649   6.648
 5226SOL    HW227710   4.717   2.533   6.543
 5227SOL     OW27711   5.264   2.136   5.711
 5227SOL    HW127712   5.203   2.061   5.734
 5227SOL    HW227713   5.286   2.188   5.794
 5228SOL     OW27714   4.792   3.195   6.435
 5228SOL    HW127715   4.799   3.111   6.380
 5228SOL    HW227716   4.854   3.264   6.399
 5229SOL     OW27717   4.043   2.672   6.535
 5229SOL    HW127718   4.136   2.708   6.540
 5229SOL    HW227719   4.037   2.587   6.587
 5230SOL     OW27720   4.063   2.371   6.592
 5230SOL    HW127721   4.011   2.288   6.575
 5230SOL    HW227722   4.140   2.376   6.528
 5231SOL     OW27723   4.884   2.069   7.063
 5231SOL    HW127724   4.884   2.133   7.140
 5231SOL    HW227725   4.912   2.117   6.980
 5232SOL     OW27726   3.812   3.663   6.513
 5232SOL    HW127727   3.770   3.577   6.486
 5232SOL    HW227728   3.906   3.666   6.479
 5233SOL     OW27729   4.228   3.430   6.496
 5233SOL    HW127730   4.294   3.504   6.505
 5233SOL    HW227731   4.272   3.351   6.454
 5234SOL     OW27732   4.726   2.658   6.824
 5234SOL    HW127733   4.767   2.626   6.910
 5234SOL    HW227734   4.630   2.631   6.821
 5235SOL     OW27735   3.764   2.406   6.700
 5235SOL    HW127736   3.849   2.373   6.659
 5235SOL    HW227737   3.777   2.421   6.798
 5236SOL     OW27738   4.539   2.434   5.911
 5236SOL    HW127739   4.546   2.345   5.865
 5236SOL    HW227740   4.445   2.468   5.903
 5237SOL     OW27741   5.381   2.466   6.792
 5237SOL    HW127742   5.343   2.397   6.854
 5237SOL    HW227743   5.463   2.430   6.748
 5238SOL     OW27744   4.395   2.326   6.855
 5238SOL    HW127745   4.361   2.237   6.825
 5238SOL    HW227746   4.421   2.380   6.775
 5239SOL     OW27747   4.654   3.540   7.051
 5239SOL    HW127748   4.630   3.522   6.956
 5239SOL    HW227749   4.684   3.634   7.061
 5240SOL     OW27750   4.197   2.362   5.777
 5240SOL    HW127751   4.258   2.442   5.781
 5240SOL    HW227752   4.102   2.393   5.784
 5241SOL     OW27753   5.071   2.921   6.820
 5241SOL    HW127754   5.095   2.858   6.746
 5241SOL    HW227755   4.981   2.961   6.802
 5242SOL     OW27756   5.483   3.609   6.740
 5242SOL    HW127757   5.544   3.639   6.667
 5242SOL    HW227758   5.445   3.520   6.718
 5243SOL     OW27759   4.976   3.593   6.714
 5243SOL    HW127760   5.060   3.598   6.660
 5243SOL    HW227761   4.953   3.497   6.732
 5244SOL     OW27762   3.807   3.120   6.608
 5244SOL    HW127763   3.802   3.119   6.708
 5244SOL    HW227764   3.724   3.079   6.570
 5245SOL     OW27765   5.112   3.435   6.063
 5245SOL    HW127766   5.179   3.447   5.989
 5245SOL    HW227767   5.072   3.524   6.086
 5246SOL     OW27768   5.374   3.582   6.980
 5246SOL    HW127769   5.427   3.592   6.896
 5246SOL    HW227770   5.347   3.672   7.014
 5247SOL     OW27771   5.565   2.037   6.549
 5247SOL    HW127772   5.604   1.952   6.513
 5247SOL    HW227773   5.467   2.039   6.530
 5248SOL     OW27774   3.987   2.188   6.306
 5248SOL    HW127775   3.908   2.239   6.272
 5248SOL    HW227776   3.978   2.173   6.404
 5249SOL     OW27777   4.546   2.864   6.958
 5249SOL    HW127778   4.586   2.863   6.866
 5249SOL    HW227779   4.556   2.956   6.998
 5250SOL     OW27780   4.763   2.960   6.282
 5250SOL    HW127781   4.693   2.913   6.336
 5250SOL    HW227782   4.822   2.892   6.239
 5251SOL     OW27783   4.738   2.098   6.557
 5251SOL    HW127784   4.730   2.062   6.464
 5251SOL    HW227785   4.736   2.022   6.622
 5252SOL     OW27786   4.314   3.349   6.077
 5252SOL    HW127787   4.356   3.291   6.007
 5252SOL    HW227788   4.270   3.428   6.033
 5253SOL     OW27789   5.433   2.247   6.967
 5253SOL    HW127790   5.506   2.316   6.971
 5253SOL    HW227791   5.461   2.172   6.908
 5254SOL     OW27792   3.979   3.210   5.876
 5254SOL    HW127793   3.883   3.211   5.849
 5254SOL    HW227794   3.991   3.263   5.960
 5255SOL     OW27795   3.799   2.207   5.619
 5255SOL    HW127796   3.707   2.179   5.590
 5255SOL    HW227797   3.830   2.284   5.563
 5256SOL     OW27798   3.796   2.028   5.904
 5256SOL    HW127799   3.779   2.111   5.850
 5256SOL    HW227800   3.886   1.991   5.882
 5257SOL     OW27801   4.907   3.197   5.705
 5257SOL    HW127802   4.808   3.186   5.707
 5257SOL    HW227803   4.941   3.212   5.798
 5258SOL     OW27804   5.217   3.629   6.545
 5258SOL    HW127805   5.250   3.693   6.476
 5258SOL    HW227806   5.283   3.623   6.620
 5259SOL     OW27807   5.174   3.082   7.219
 5259SOL    HW127808   5.165   3.072   7.318
 5259SOL    HW227809   5.270   3.075   7.193
 5260SOL     OW27810   5.398   2.745   6.840
 5260SOL    HW127811   5.371   2.656   6.803
 5260SOL    HW227812   5.399   2.813   6.767
 5261SOL     OW27813   4.949   2.187   6.035
 5261SOL    HW127814   5.014   2.113   6.024
 5261SOL    HW227815   4.969   2.237   6.119
 5262SOL     OW27816   4.318   2.607   6.238
 5262SOL    HW127817   4.368   2.692   6.219
 5262SOL    HW227818   4.230   2.609   6.190
 5263SOL     OW27819   5.454   2.796   7.103
 5263SOL    HW127820   5.492   2.887   7.118
 5263SOL    HW227821   5.446   2.779   7.004
 5264SOL     OW27822   4.385   3.652   6.539
 5264SOL    HW127823   4.339   3.740   6.526
 5264SOL    HW227824   4.484   3.664   6.532
 5265SOL     OW27825   4.583   2.818   6.447
 5265SOL    HW127826   4.637   2.749   6.495
 5265SOL    HW227827   4.551   2.887   6.513
 5266SOL     OW27828   5.585   3.431   6.437
 5266SOL    HW127829   5.514   3.419   6.367
 5266SOL    HW227830   5.586   3.352   6.497
 5267SOL     OW27831   3.803   3.102   6.239
 5267SOL    HW127832   3.802   3.055   6.327
 5267SOL    HW227833   3.885   3.074   6.188
 5268SOL     OW27834   5.548   2.054   6.813
 5268SOL    HW127835   5.544   1.964   6.857
 5268SOL    HW227836   5.551   2.043   6.714
 5269SOL     OW27837   4.152   2.286   6.106
 5269SOL    HW127838   4.182   2.214   6.044
 5269SOL    HW227839   4.113   2.246   6.189
 5270SOL     OW27840   5.429   3.349   6.690
 5270SOL    HW127841   5.336   3.324   6.663
 5270SOL    HW227842   5.455   3.299   6.772
 5271SOL     OW27843   4.536   3.448   6.273
 5271SOL    HW127844   4.568   3.458   6.179
 5271SOL    HW227845   4.457   3.386   6.275
 5272SOL     OW27846   5.148   2.076   6.698
 5272SOL    HW127847   5.200   2.011   6.753
 5272SOL    HW227848   5.099   2.139   6.759
 5273SOL     OW27849   4.725   1.896   6.740
 5273SOL    HW127850   4.662   1.824   6.709
 5273SOL    HW227851   4.818   1.860   6.740
 5274SOL     OW27852   4.494   3.192   5.887
 5274SOL    HW127853   4.448   3.105   5.904
 5274SOL    HW227854   4.585   3.189   5.928
 5275SOL     OW27855   5.024   2.315   6.277
 5275SOL    HW127856   4.965   2.395   6.281
 5275SOL    HW227857   5.039   2.280   6.370
 5276SOL     OW27858   5.317   2.083   6.468
 5276SOL    HW127859   5.233   2.082   6.522
 5276SOL    HW227860   5.319   2.166   6.412
 5277SOL     OW27861   3.954   4.352   0.113
 5277SOL    HW127862   3.861   4.350   0.150
 5277SOL    HW227863   3.955   4.313   0.021
 5278SOL     OW27864   3.949   3.999   0.996
 5278SOL    HW127865   3.984   3.982   1.088
 5278SOL    HW227866   3.861   3.954   0.984
 5279SOL     OW27867   3.743   4.092   0.647
 5279SOL    HW127868   3.661   4.135   0.686
 5279SOL    HW227869   3.715   4.019   0.584
 5280SOL     OW27870   4.293   4.999   1.165
 5280SOL    HW127871   4.200   4.992   1.128
 5280SOL    HW227872   4.304   5.088   1.209
 5281SOL     OW27873   5.279   5.235   0.703
 5281SOL    HW127874   5.222   5.219   0.784
 5281SOL    HW227875   5.220   5.245   0.623
 5282SOL     OW27876   4.859   4.427   0.717
 5282SOL    HW127877   4.916   4.505   0.692
 5282SOL    HW227878   4.799   4.453   0.793
 5283SOL     OW27879   5.479   4.331   0.231
 5283SOL    HW127880   5.467   4.318   0.132
 5283SOL    HW227881   5.449   4.250   0.280
 5284SOL     OW27882   4.492   4.868   1.023
 5284SOL    HW127883   4.414   4.885   1.083
 5284SOL    HW227884   4.526   4.955   0.987
 5285SOL     OW27885   4.409   4.736   0.665
 5285SOL    HW127886   4.478   4.720   0.735
 5285SOL    HW227887   4.336   4.793   0.703
 5286SOL     OW27888   4.410   4.885   1.803
 5286SOL    HW127889   4.470   4.964   1.817
 5286SOL    HW227890   4.324   4.916   1.762
 5287SOL     OW27891   4.059   5.159   1.061
 5287SOL    HW127892   3.981   5.128   1.008
 5287SOL    HW227893   4.117   5.217   1.004
 5288SOL     OW27894   5.184   5.229   1.339
 5288SOL    HW127895   5.208   5.323   1.365
 5288SOL    HW227896   5.168   5.175   1.421
 5289SOL     OW27897   4.162   4.116   1.499
 5289SOL    HW127898   4.244   4.060   1.508
 5289SOL    HW227899   4.081   4.058   1.503
 5290SOL     OW27900   5.327   4.171   0.737
 5290SOL    HW127901   5.253   4.217   0.687
 5290SOL    HW227902   5.378   4.239   0.790
 5291SOL     OW27903   3.955   5.437   0.483
 5291SOL    HW127904   3.989   5.514   0.537
 5291SOL    HW227905   3.999   5.437   0.393
 5292SOL     OW27906   3.954   5.158   0.538
 5292SOL    HW127907   3.928   5.254   0.538
 5292SOL    HW227908   3.883   5.104   0.583
 5293SOL     OW27909   3.964   4.815   0.886
 5293SOL    HW127910   3.978   4.731   0.938
 5293SOL    HW227911   3.909   4.879   0.941
 5294SOL     OW27912   4.344   5.510   1.439
 5294SOL    HW127913   4.252   5.493   1.474
 5294SOL    HW227914   4.372   5.602   1.465
 5295SOL     OW27915   4.330   4.688   0.123
 5295SOL    HW127916   4.337   4.772   0.069
 5295SOL    HW227917   4.376   4.701   0.211
 5296SOL     OW27918   3.846   4.367   0.563
 5296SOL    HW127919   3.801   4.279   0.580
 5296SOL    HW227920   3.845   4.421   0.647
 5297SOL     OW27921   5.566   5.491   0.359
 5297SOL    HW127922   5.620   5.462   0.439
 5297SOL    HW227923   5.596   5.581   0.330
 5298SOL     OW27924   3.751   5.320   0.117
 5298SOL    HW127925   3.732   5.224   0.138
 5298SOL    HW227926   3.718   5.378   0.192
 5299SOL     OW27927   5.413   4.646   0.612
 5299SOL    HW127928   5.508   4.617   0.620
 5299SOL    HW227929   5.405   4.711   0.537
 5300SOL     OW27930   5.365   4.832   0.432
 5300SOL    HW127931   5.451   4.834   0.380
 5300SOL    HW227932   5.379   4.879   0.520
 5301SOL     OW27933   3.837   4.461   1.597
 5301SOL    HW127934   3.925   4.448   1.642
 5301SOL    HW227935   3.824   4.558   1.575
 5302SOL     OW27936   4.337   5.089   0.726
 5302SOL    HW127937   4.288   5.002   0.735
 5302SOL    HW227938   4.314   5.132   0.639
 5303SOL     OW27939   5.017   4.952   1.423
 5303SOL    HW127940   5.054   4.879   1.365
 5303SOL    HW227941   5.069   4.957   1.508
 5304SOL     OW27942   4.533   3.728   0.502
 5304SOL    HW127943   4.573   3.819   0.493
 5304SOL    HW227944   4.433   3.736   0.508
 5305SOL     OW27945   3.921   4.700   1.264
 5305SOL    HW127946   4.010   4.655   1.250
 5305SOL    HW227947   3.848   4.635   1.245
 5306SOL     OW27948   5.249   4.723   0.190
 5306SOL    HW127949   5.186   4.647   0.203
 5306SOL    HW227950   5.297   4.741   0.276
 5307SOL     OW27951   4.911   5.516   1.616
 5307SOL    HW127952   4.935   5.576   1.540
 5307SOL    HW227953   4.918   5.421   1.586
 5308SOL     OW27954   5.190   5.141   0.953
 5308SOL    HW127955   5.131   5.147   1.033
 5308SOL    HW227956   5.175   5.053   0.907
 5309SOL     OW27957   5.391   5.438   0.572
 5309SOL    HW127958   5.350   5.415   0.484
 5309SOL    HW227959   5.373   5.364   0.637
 5310SOL     OW27960   4.322   4.453   0.270
 5310SOL    HW127961   4.346   4.522   0.202
 5310SOL    HW227962   4.244   4.486   0.324
 5311SOL     OW27963   5.005   4.069   0.944
 5311SOL    HW127964   4.919   4.019   0.931
 5311SOL    HW227965   5.067   4.015   1.000
 5312SOL     OW27966   5.300   5.386   0.307
 5312SOL    HW127967   5.389   5.432   0.310
 5312SOL    HW227968   5.279   5.362   0.212
 5313SOL     OW27969   4.715   4.134   1.242
 5313SOL    HW127970   4.638   4.168   1.296
 5313SOL    HW227971   4.681   4.083   1.163
 5314SOL     OW27972   4.765   4.425   0.429
 5314SOL    HW127973   4.791   4.421   0.525
 5314SOL    HW227974   4.680   4.374   0.415
 5315SOL     OW27975   3.800   4.535   0.789
 5315SOL    HW127976   3.899   4.523   0.798
 5315SOL    HW227977   3.776   4.630   0.810
 5316SOL     OW27978   3.854   5.545   1.571
 5316SOL    HW127979   3.844   5.530   1.670
 5316SOL    HW227980   3.768   5.581   1.535
 5317SOL     OW27981   4.589   4.072   0.195
 5317SOL    HW127982   4.648   4.135   0.146
 5317SOL    HW227983   4.608   3.978   0.166
 5318SOL     OW27984   5.443   4.309   1.831
 5318SOL    HW127985   5.417   4.398   1.795
 5318SOL    HW227986   5.441   4.241   1.758
 5319SOL     OW27987   5.086   4.868   0.545
 5319SOL    HW127988   5.169   4.839   0.497
 5319SOL    HW227989   5.037   4.935   0.489
 5320SOL     OW27990   4.274   3.920   0.885
 5320SOL    HW127991   4.269   3.915   0.985
 5320SOL    HW227992   4.276   4.016   0.856
 5321SOL     OW27993   4.732   5.180   0.477
 5321SOL    HW127994   4.686   5.252   0.425
 5321SOL    HW227995   4.728   5.200   0.575
 5322SOL     OW27996   4.075   5.525   0.853
 5322SOL    HW127997   4.125   5.439   0.859
 5322SOL    HW227998   4.140   5.602   0.850
 5323SOL     OW27999   5.519   4.790   0.873
 5323SOL    HW128000   5.457   4.775   0.797
 5323SOL    HW228001   5.467   4.801   0.958
 5324SOL     OW28002   4.951   5.274   1.506
 5324SOL    HW128003   4.957   5.197   1.570
 5324SOL    HW228004   4.899   5.248   1.426
 5325SOL     OW28005   4.045   4.667   0.242
 5325SOL    HW128006   4.127   4.706   0.200
 5325SOL    HW228007   4.018   4.585   0.193
 5326SOL     OW28008   5.182   4.459   0.728
 5326SOL    HW128009   5.177   4.394   0.803
 5326SOL    HW228010   5.262   4.518   0.741
 5327SOL     OW28011   4.185   4.990   1.727
 5327SOL    HW128012   4.135   4.991   1.641
 5327SOL    HW228013   4.122   4.972   1.803
 5328SOL     OW28014   4.835   5.500   0.237
 5328SOL    HW128015   4.775   5.438   0.287
 5328SOL    HW228016   4.866   5.456   0.152
 5329SOL     OW28017   5.356   5.101   0.081
 5329SOL    HW128018   5.324   5.195   0.071
 5329SOL    HW228019   5.280   5.038   0.069
 5330SOL     OW28020   4.188   5.467   0.323
 5330SOL    HW128021   4.221   5.506   0.409
 5330SOL    HW228022   4.264   5.460   0.258
 5331SOL     OW28023   5.124   3.831   0.426
 5331SOL    HW128024   5.100   3.794   0.336
 5331SOL    HW228025   5.223   3.847   0.430
 5332SOL     OW28026   3.973   5.509   1.241
 5332SOL    HW128027   4.030   5.444   1.291
 5332SOL    HW228028   3.957   5.476   1.148
 5333SOL     OW28029   4.664   5.422   0.904
 5333SOL    HW128030   4.744   5.365   0.925
 5333SOL    HW228031   4.615   5.382   0.827
 5334SOL     OW28032   4.106   4.424   0.480
 5334SOL    HW128033   4.151   4.334   0.477
 5334SOL    HW228034   4.012   4.413   0.513
 5335SOL     OW28035   4.505   3.988   1.749
 5335SOL    HW128036   4.572   3.927   1.792
 5335SOL    HW228037   4.432   4.007   1.814
 5336SOL     OW28038   4.612   5.238   1.195
 5336SOL    HW128039   4.589   5.213   1.101
 5336SOL    HW228040   4.673   5.169   1.234
 5337SOL     OW28041   5.075   4.314   1.433
 5337SOL    HW128042   5.103   4.271   1.518
 5337SOL    HW228043   5.100   4.410   1.434
 5338SOL     OW28044   4.527   5.126   0.924
 5338SOL    HW128045   4.617   5.140   0.882
 5338SOL    HW228046   4.456   5.128   0.853
 5339SOL     OW28047   4.646   4.227   0.899
 5339SOL    HW128048   4.621   4.218   0.803
 5339SOL    HW228049   4.694   4.145   0.930
 5340SOL     OW28050   4.263   3.788   0.512
 5340SOL    HW128051   4.182   3.789   0.570
 5340SOL    HW228052   4.266   3.871   0.457
 5341SOL     OW28053   5.158   4.912   0.041
 5341SOL    HW128054   5.190   4.836   0.098
 5341SOL    HW228055   5.066   4.939   0.071
 5342SOL     OW28056   4.021   3.759   0.171
 5342SOL    HW128057   4.070   3.843   0.150
 5342SOL    HW228058   4.083   3.694   0.216
 5343SOL     OW28059   4.659   3.960   0.480
 5343SOL    HW128060   4.611   4.001   0.402
 5343SOL    HW228061   4.758   3.958   0.461
 5344SOL     OW28062   4.951   5.294   0.793
 5344SOL    HW128063   4.972   5.368   0.728
 5344SOL    HW228064   5.019   5.294   0.866
 5345SOL     OW28065   4.183   4.876   0.741
 5345SOL    HW128066   4.112   4.849   0.806
 5345SOL    HW228067   4.157   4.848   0.648
 5346SOL     OW28068   4.995   5.521   0.591
 5346SOL    HW128069   5.039   5.585   0.527
 5346SOL    HW228070   4.945   5.573   0.661
 5347SOL     OW28071   4.756   4.273   0.016
 5347SOL    HW128072   4.715   4.355  -0.023
 5347SOL    HW228073   4.820   4.299   0.089
 5348SOL     OW28074   3.802   4.280   1.386
 5348SOL    HW128075   3.894   4.279   1.345
 5348SOL    HW228076   3.796   4.354   1.453
 5349SOL     OW28077   4.285   3.946   1.147
 5349SOL    HW128078   4.323   3.862   1.184
 5349SOL    HW228079   4.197   3.965   1.191
 5350SOL     OW28080   4.590   4.178   0.642
 5350SOL    HW128081   4.558   4.250   0.580
 5350SOL    HW228082   4.614   4.097   0.589
 5351SOL     OW28083   4.741   3.763   0.753
 5351SOL    HW128084   4.669   3.768   0.684
 5351SOL    HW228085   4.717   3.694   0.822
 5352SOL     OW28086   5.153   4.897   0.867
 5352SOL    HW128087   5.098   4.813   0.860
 5352SOL    HW228088   5.179   4.926   0.775
 5353SOL     OW28089   5.190   4.314   0.992
 5353SOL    HW128090   5.160   4.219   0.999
 5353SOL    HW228091   5.263   4.330   1.058
 5354SOL     OW28092   5.581   4.557   0.377
 5354SOL    HW128093   5.623   4.493   0.441
 5354SOL    HW228094   5.543   4.506   0.299
 5355SOL     OW28095   4.212   5.109   0.174
 5355SOL    HW128096   4.125   5.094   0.221
 5355SOL    HW228097   4.195   5.135   0.079
 5356SOL     OW28098   5.388   5.004   0.657
 5356SOL    HW128099   5.487   5.012   0.671
 5356SOL    HW228100   5.343   5.088   0.688
 5357SOL     OW28101   5.114   4.299   0.078
 5357SOL    HW128102   5.060   4.278   0.159
 5357SOL    HW228103   5.205   4.258   0.087
 5358SOL     OW28104   4.251   3.980   0.328
 5358SOL    HW128105   4.278   3.921   0.253
 5358SOL    HW228106   4.251   4.075   0.297
 5359SOL     OW28107   5.478   4.947   1.588
 5359SOL    HW128108   5.569   4.908   1.575
 5359SOL    HW228109   5.486   5.043   1.612
 5360SOL     OW28110   4.788   5.071   1.340
 5360SOL    HW128111   4.708   5.048   1.395
 5360SOL    HW228112   4.871   5.045   1.389
 5361SOL     OW28113   4.835   4.919   1.100
 5361SOL    HW128114   4.795   4.963   1.181
 5361SOL    HW228115   4.794   4.956   1.017
 5362SOL     OW28116   5.362   4.823   1.079
 5362SOL    HW128117   5.367   4.904   1.138
 5362SOL    HW228118   5.276   4.825   1.028
 5363SOL     OW28119   4.639   3.813   1.402
 5363SOL    HW128120   4.664   3.793   1.307
 5363SOL    HW228121   4.711   3.869   1.444
 5364SOL     OW28122   4.429   4.774   0.368
 5364SOL    HW128123   4.415   4.781   0.467
 5364SOL    HW228124   4.513   4.723   0.350
 5365SOL     OW28125   4.134   4.537   1.251
 5365SOL    HW128126   4.220   4.549   1.301
 5365SOL    HW228127   4.092   4.450   1.278
 5366SOL     OW28128   4.998   4.110   1.262
 5366SOL    HW128129   5.019   4.184   1.326
 5366SOL    HW228130   4.909   4.127   1.219
 5367SOL     OW28131   3.788   5.288   1.331
 5367SOL    HW128132   3.742   5.370   1.297
 5367SOL    HW228133   3.886   5.307   1.340
 5368SOL     OW28134   4.091   4.824   0.501
 5368SOL    HW128135   4.084   4.907   0.445
 5368SOL    HW228136   4.095   4.744   0.441
 5369SOL     OW28137   4.290   4.261   0.865
 5369SOL    HW128138   4.302   4.327   0.791
 5369SOL    HW228139   4.336   4.295   0.948
 5370SOL     OW28140   4.976   5.072   0.388
 5370SOL    HW128141   5.026   5.149   0.428
 5370SOL    HW228142   4.881   5.074   0.420
 5371SOL     OW28143   4.996   5.169   1.142
 5371SOL    HW128144   5.043   5.182   1.229
 5371SOL    HW228145   4.930   5.095   1.151
 5372SOL     OW28146   5.306   4.363   0.472
 5372SOL    HW128147   5.275   4.424   0.545
 5372SOL    HW228148   5.356   4.415   0.403
 5373SOL     OW28149   4.078   5.234   1.329
 5373SOL    HW128150   4.057   5.190   1.242
 5373SOL    HW228151   4.175   5.260   1.332
 5374SOL     OW28152   4.126   4.475   1.598
 5374SOL    HW128153   4.194   4.530   1.551
 5374SOL    HW228154   4.166   4.387   1.625
 5375SOL     OW28155   5.311   4.503   1.670
 5375SOL    HW128156   5.219   4.541   1.665
 5375SOL    HW228157   5.371   4.550   1.605
 5376SOL     OW28158   4.737   3.829   1.770
 5376SOL    HW128159   4.743   3.914   1.718
 5376SOL    HW228160   4.769   3.753   1.713
 5377SOL     OW28161   4.297   4.594   1.029
 5377SOL    HW128162   4.341   4.683   1.020
 5377SOL    HW228163   4.234   4.594   1.106
 5378SOL     OW28164   5.084   4.586   1.045
 5378SOL    HW128165   5.009   4.586   0.979
 5378SOL    HW228166   5.121   4.494   1.054
 5379SOL     OW28167   4.933   4.249   0.275
 5379SOL    HW128168   4.946   4.165   0.329
 5379SOL    HW228169   4.904   4.323   0.335
 5380SOL     OW28170   3.761   5.034   1.282
 5380SOL    HW128171   3.814   4.985   1.350
 5380SOL    HW228172   3.783   5.132   1.287
 5381SOL     OW28173   4.456   4.358   1.064
 5381SOL    HW128174   4.515   4.332   0.988
 5381SOL    HW228175   4.428   4.454   1.053
 5382SOL     OW28176   5.452   4.659   1.854
 5382SOL    HW128177   5.406   4.652   1.765
 5382SOL    HW228178   5.390   4.703   1.920
 5383SOL     OW28179   4.031   3.787   0.618
 5383SOL    HW128180   4.020   3.881   0.651
 5383SOL    HW228181   4.026   3.724   0.695
 5384SOL     OW28182   5.346   4.091   0.374
 5384SOL    HW128183   5.348   4.015   0.438
 5384SOL    HW228184   5.298   4.168   0.414
 5385SOL     OW28185   4.747   4.490   0.966
 5385SOL    HW128186   4.762   4.511   1.062
 5385SOL    HW228187   4.717   4.395   0.957
 5386SOL     OW28188   4.074   4.622   1.804
 5386SOL    HW128189   4.150   4.666   1.852
 5386SOL    HW228190   4.109   4.575   1.722
 5387SOL     OW28191   5.264   3.998   0.125
 5387SOL    HW128192   5.203   3.923   0.148
 5387SOL    HW228193   5.286   4.050   0.208
 5388SOL     OW28194   5.027   4.562   0.042
 5388SOL    HW128195   5.061   4.469   0.057
 5388SOL    HW228196   5.045   4.589  -0.053
 5389SOL     OW28197   4.792   5.057   0.849
 5389SOL    HW128198   4.799   4.973   0.794
 5389SOL    HW228199   4.854   5.126   0.813
 5390SOL     OW28200   4.043   4.534   0.949
 5390SOL    HW128201   4.136   4.570   0.954
 5390SOL    HW228202   4.037   4.449   1.001
 5391SOL     OW28203   4.063   4.233   1.006
 5391SOL    HW128204   4.011   4.150   0.989
 5391SOL    HW228205   4.140   4.238   0.942
 5392SOL     OW28206   4.862   4.104   1.678
 5392SOL    HW128207   4.817   4.167   1.742
 5392SOL    HW228208   4.955   4.135   1.661
 5393SOL     OW28209   4.884   3.931   1.477
 5393SOL    HW128210   4.884   3.995   1.554
 5393SOL    HW228211   4.912   3.979   1.394
 5394SOL     OW28212   3.812   5.525   0.927
 5394SOL    HW128213   3.770   5.439   0.900
 5394SOL    HW228214   3.906   5.528   0.893
 5395SOL     OW28215   4.228   5.292   0.910
 5395SOL    HW128216   4.294   5.366   0.919
 5395SOL    HW228217   4.272   5.213   0.868
 5396SOL     OW28218   3.764   4.268   1.114
 5396SOL    HW128219   3.849   4.235   1.073
 5396SOL    HW228220   3.777   4.283   1.212
 5397SOL     OW28221   3.913   4.244   1.722
 5397SOL    HW128222   3.972   4.204   1.652
 5397SOL    HW228223   3.855   4.315   1.681
 5398SOL     OW28224   5.093   4.674   1.660
 5398SOL    HW128225   5.132   4.763   1.680
 5398SOL    HW228226   5.103   4.654   1.563
 5399SOL     OW28227   4.539   4.296   0.325
 5399SOL    HW128228   4.546   4.207   0.279
 5399SOL    HW228229   4.445   4.330   0.317
 5400SOL     OW28230   5.381   4.328   1.206
 5400SOL    HW128231   5.343   4.259   1.268
 5400SOL    HW228232   5.463   4.292   1.162
 5401SOL     OW28233   3.976   5.288   1.744
 5401SOL    HW128234   3.946   5.345   1.820
 5401SOL    HW228235   3.969   5.191   1.770
 5402SOL     OW28236   4.395   4.188   1.269
 5402SOL    HW128237   4.361   4.099   1.239
 5402SOL    HW228238   4.421   4.242   1.189
 5403SOL     OW28239   4.654   5.402   1.465
 5403SOL    HW128240   4.630   5.384   1.370
 5403SOL    HW228241   4.684   5.496   1.475
 5404SOL     OW28242   4.197   4.224   0.191
 5404SOL    HW128243   4.258   4.304   0.195
 5404SOL    HW228244   4.102   4.255   0.198
 5405SOL     OW28245   3.883   4.861   1.466
 5405SOL    HW128246   3.905   4.800   1.542
 5405SOL    HW228247   3.893   4.812   1.380
 5406SOL     OW28248   5.071   4.783   1.234
 5406SOL    HW128249   5.095   4.720   1.160
 5406SOL    HW228250   4.981   4.823   1.216
 5407SOL     OW28251   5.026   4.579   0.309
 5407SOL    HW128252   4.940   4.548   0.351
 5407SOL    HW228253   5.022   4.565   0.210
 5408SOL     OW28254   5.483   5.471   1.154
 5408SOL    HW128255   5.544   5.501   1.081
 5408SOL    HW228256   5.445   5.382   1.132
 5409SOL     OW28257   4.976   5.455   1.128
 5409SOL    HW128258   5.060   5.460   1.074
 5409SOL    HW228259   4.953   5.359   1.146
 5410SOL     OW28260   3.807   4.982   1.022
 5410SOL    HW128261   3.802   4.981   1.122
 5410SOL    HW228262   3.724   4.941   0.984
 5411SOL     OW28263   4.412   5.386   1.716
 5411SOL    HW128264   4.356   5.467   1.725
 5411SOL    HW228265   4.464   5.390   1.630
 5412SOL     OW28266   4.627   3.810   0.133
 5412SOL    HW128267   4.678   3.811   0.047
 5412SOL    HW228268   4.683   3.768   0.204
 5413SOL     OW28269   5.450   3.859   0.523
 5413SOL    HW128270   5.523   3.842   0.456
 5413SOL    HW228271   5.419   3.772   0.561
 5414SOL     OW28272   5.112   5.297   0.477
 5414SOL    HW128273   5.179   5.309   0.403
 5414SOL    HW228274   5.072   5.386   0.500
 5415SOL     OW28275   3.854   5.518   1.851
 5415SOL    HW128276   3.813   5.444   1.904
 5415SOL    HW228277   3.918   5.569   1.909
 5416SOL     OW28278   5.004   4.651   0.672
 5416SOL    HW128279   5.064   4.570   0.674
 5416SOL    HW228280   5.044   4.720   0.612
 5417SOL     OW28281   4.396   5.340   0.154
 5417SOL    HW128282   4.405   5.350   0.055
 5417SOL    HW228283   4.356   5.251   0.175
 5418SOL     OW28284   5.374   5.444   1.394
 5418SOL    HW128285   5.427   5.454   1.310
 5418SOL    HW228286   5.347   5.534   1.428
 5419SOL     OW28287   5.565   3.899   0.963
 5419SOL    HW128288   5.604   3.814   0.927
 5419SOL    HW228289   5.467   3.901   0.944
 5420SOL     OW28290   3.987   4.050   0.720
 5420SOL    HW128291   3.908   4.101   0.686
 5420SOL    HW228292   3.978   4.035   0.818
 5421SOL     OW28293   4.918   5.336   0.031
 5421SOL    HW128294   4.924   5.243   0.068
 5421SOL    HW228295   4.859   5.336  -0.049
 5422SOL     OW28296   4.546   4.726   1.372
 5422SOL    HW128297   4.586   4.725   1.280
 5422SOL    HW228298   4.556   4.818   1.412
 5423SOL     OW28299   4.640   4.634   0.291
 5423SOL    HW128300   4.703   4.672   0.223
 5423SOL    HW228301   4.680   4.551   0.330
 5424SOL     OW28302   5.228   5.331   0.044
 5424SOL    HW128303   5.136   5.368   0.051
 5424SOL    HW228304   5.266   5.351  -0.046
 5425SOL     OW28305   4.096   5.012   1.490
 5425SOL    HW128306   4.083   5.105   1.456
 5425SOL    HW228307   4.012   4.960   1.477
 5426SOL     OW28308   5.338   5.016   1.289
 5426SOL    HW128309   5.398   5.019   1.369
 5426SOL    HW228310   5.263   5.080   1.302
 5427SOL     OW28311   4.763   4.822   0.696
 5427SOL    HW128312   4.693   4.775   0.750
 5427SOL    HW228313   4.822   4.754   0.653
 5428SOL     OW28314   4.738   3.960   0.971
 5428SOL    HW128315   4.730   3.924   0.878
 5428SOL    HW228316   4.736   3.884   1.036
 5429SOL     OW28317   4.314   5.211   0.491
 5429SOL    HW128318   4.356   5.153   0.421
 5429SOL    HW228319   4.270   5.290   0.447
 5430SOL     OW28320   5.433   4.109   1.381
 5430SOL    HW128321   5.506   4.178   1.385
 5430SOL    HW228322   5.461   4.034   1.322
 5431SOL     OW28323   3.979   5.072   0.290
 5431SOL    HW128324   3.883   5.073   0.263
 5431SOL    HW228325   3.991   5.125   0.374
 5432SOL     OW28326   3.829   4.737   1.726
 5432SOL    HW128327   3.752   4.704   1.780
 5432SOL    HW228328   3.914   4.707   1.768
 5433SOL     OW28329   4.396   3.927   1.489
 5433SOL    HW128330   4.486   3.911   1.449
 5433SOL    HW228331   4.404   3.932   1.588
 5434SOL     OW28332   5.164   4.580   1.398
 5434SOL    HW128333   5.107   4.632   1.335
 5434SOL    HW228334   5.260   4.592   1.374
 5435SOL     OW28335   3.796   3.890   0.318
 5435SOL    HW128336   3.779   3.973   0.264
 5435SOL    HW228337   3.886   3.853   0.296
 5436SOL     OW28338   4.907   5.059   0.119
 5436SOL    HW128339   4.808   5.048   0.121
 5436SOL    HW228340   4.941   5.074   0.212
 5437SOL     OW28341   4.337   4.566   1.431
 5437SOL    HW128342   4.393   4.647   1.414
 5437SOL    HW228343   4.396   4.486   1.434
 5438SOL     OW28344   5.217   5.491   0.959
 5438SOL    HW128345   5.250   5.555   0.890
 5438SOL    HW228346   5.283   5.485   1.034
 5439SOL     OW28347   4.440   4.289   1.708
 5439SOL    HW128348   4.459   4.354   1.782
 5439SOL    HW228349   4.500   4.209   1.717
 5440SOL     OW28350   5.174   4.944   1.633
 5440SOL    HW128351   5.165   4.934   1.732
 5440SOL    HW228352   5.270   4.937   1.607
 5441SOL     OW28353   4.114   5.465   1.560
 5441SOL    HW128354   4.023   5.506   1.558
 5441SOL    HW228355   4.107   5.371   1.592
 5442SOL     OW28356   5.398   4.607   1.254
 5442SOL    HW128357   5.371   4.518   1.217
 5442SOL    HW228358   5.399   4.675   1.181
 5443SOL     OW28359   4.949   4.049   0.449
 5443SOL    HW128360   5.014   3.975   0.438
 5443SOL    HW228361   4.969   4.099   0.533
 5444SOL     OW28362   4.318   4.469   0.652
 5444SOL    HW128363   4.368   4.554   0.633
 5444SOL    HW228364   4.230   4.471   0.604
 5445SOL     OW28365   5.454   4.658   1.517
 5445SOL    HW128366   5.492   4.749   1.532
 5445SOL    HW228367   5.446   4.641   1.418
 5446SOL     OW28368   4.583   5.098   0.016
 5446SOL    HW128369   4.537   5.113   0.104
 5446SOL    HW228370   4.627   5.183  -0.014
 5447SOL     OW28371   4.385   5.514   0.953
 5447SOL    HW128372   4.339   5.602   0.940
 5447SOL    HW228373   4.484   5.526   0.946
 5448SOL     OW28374   4.583   4.680   0.861
 5448SOL    HW128375   4.637   4.611   0.909
 5448SOL    HW228376   4.551   4.749   0.927
 5449SOL     OW28377   4.807   4.708   0.087
 5449SOL    HW128378   4.784   4.761   0.005
 5449SOL    HW228379   4.888   4.652   0.068
 5450SOL     OW28380   5.585   5.293   0.851
 5450SOL    HW128381   5.514   5.281   0.781
 5450SOL    HW228382   5.586   5.214   0.911
 5451SOL     OW28383   3.803   4.964   0.653
 5451SOL    HW128384   3.802   4.917   0.741
 5451SOL    HW228385   3.885   4.936   0.602
 5452SOL     OW28386   5.548   3.916   1.227
 5452SOL    HW128387   5.544   3.826   1.271
 5452SOL    HW228388   5.551   3.905   1.128
 5453SOL     OW28389   4.152   4.148   0.520
 5453SOL    HW128390   4.182   4.076   0.458
 5453SOL    HW228391   4.113   4.108   0.603
 5454SOL     OW28392   5.429   5.211   1.104
 5454SOL    HW128393   5.336   5.186   1.077
 5454SOL    HW228394   5.455   5.161   1.186
 5455SOL     OW28395   4.041   4.271   1.280
 5455SOL    HW128396   4.079   4.212   1.352
 5455SOL    HW228397   4.081   4.245   1.192
 5456SOL     OW28398   4.536   5.310   0.687
 5456SOL    HW128399   4.568   5.320   0.593
 5456SOL    HW228400   4.457   5.248   0.689
 5457SOL     OW28401   5.148   3.938   1.112
 5457SOL    HW128402   5.200   3.873   1.167
 5457SOL    HW228403   5.099   4.001   1.173
 5458SOL     OW28404   4.725   3.758   1.154
 5458SOL    HW128405   4.662   3.686   1.123
 5458SOL    HW228406   4.818   3.722   1.154
 5459SOL     OW28407   4.494   5.054   0.301
 5459SOL    HW128408   4.448   4.967   0.318
 5459SOL    HW228409   4.585   5.051   0.342
 5460SOL     OW28410   4.342   5.291   1.284
 5460SOL    HW128411   4.337   5.373   1.341
 5460SOL    HW228412   4.431   5.288   1.239
 5461SOL     OW28413   5.076   3.776   0.168
 5461SOL    HW128414   5.111   3.735   0.084
 5461SOL    HW228415   4.986   3.738   0.188
 5462SOL     OW28416   5.024   4.177   0.691
 5462SOL    HW128417   4.965   4.257   0.695
 5462SOL    HW228418   5.039   4.142   0.784
 5463SOL     OW28419   5.317   3.945   0.882
 5463SOL    HW128420   5.233   3.944   0.936
 5463SOL    HW228421   5.319   4.028   0.826
 5464SOL     OW28422   3.763   4.801   0.300
 5464SOL    HW128423   3.862   4.790   0.291
 5464SOL    HW228424   3.723   4.715   0.332
 5465SOL     OW28425   4.599   5.370   0.337
 5465SOL    HW128426   4.522   5.335   0.283
 5465SOL    HW228427   4.567   5.441   0.399
 5466SOL     OW28428   3.954   4.352   1.975
 5466SOL    HW128429   3.861   4.350   2.012
 5466SOL    HW228430   3.955   4.313   1.883
 5467SOL     OW28431   5.279   5.235   2.565
 5467SOL    HW128432   5.222   5.219   2.646
 5467SOL    HW228433   5.220   5.245   2.485
 5468SOL     OW28434   4.410   4.885   3.665
 5468SOL    HW128435   4.470   4.964   3.679
 5468SOL    HW228436   4.324   4.916   3.624
 5469SOL     OW28437   5.017   4.952   3.285
 5469SOL    HW128438   5.054   4.879   3.227
 5469SOL    HW228439   5.069   4.957   3.370
 5470SOL     OW28440   4.697   4.614   3.434
 5470SOL    HW128441   4.743   4.530   3.405
 5470SOL    HW228442   4.641   4.648   3.359
 5471SOL     OW28443   4.715   4.134   3.104
 5471SOL    HW128444   4.638   4.168   3.158
 5471SOL    HW228445   4.681   4.083   3.025
 5472SOL     OW28446   3.854   5.545   3.433
 5472SOL    HW128447   3.844   5.530   3.532
 5472SOL    HW228448   3.768   5.581   3.397
 5473SOL     OW28449   4.274   3.920   2.747
 5473SOL    HW128450   4.269   3.915   2.847
 5473SOL    HW228451   4.276   4.016   2.718
 5474SOL     OW28452   4.732   5.180   2.339
 5474SOL    HW128453   4.686   5.252   2.287
 5474SOL    HW228454   4.728   5.200   2.437
 5475SOL     OW28455   4.951   5.274   3.368
 5475SOL    HW128456   4.957   5.197   3.432
 5475SOL    HW228457   4.899   5.248   3.288
 5476SOL     OW28458   4.185   4.990   3.589
 5476SOL    HW128459   4.135   4.991   3.503
 5476SOL    HW228460   4.122   4.972   3.665
 5477SOL     OW28461   4.835   5.500   2.099
 5477SOL    HW128462   4.775   5.438   2.149
 5477SOL    HW228463   4.866   5.456   2.014
 5478SOL     OW28464   3.926   4.009   3.360
 5478SOL    HW128465   3.846   4.069   3.347
 5478SOL    HW228466   3.916   3.960   3.446
 5479SOL     OW28467   4.664   5.422   2.766
 5479SOL    HW128468   4.744   5.365   2.787
 5479SOL    HW228469   4.615   5.382   2.689
 5480SOL     OW28470   4.505   3.988   3.611
 5480SOL    HW128471   4.572   3.927   3.654
 5480SOL    HW228472   4.432   4.007   3.676
 5481SOL     OW28473   4.612   5.238   3.057
 5481SOL    HW128474   4.589   5.213   2.963
 5481SOL    HW228475   4.673   5.169   3.096
 5482SOL     OW28476   4.800   4.407   3.326
 5482SOL    HW128477   4.720   4.346   3.329
 5482SOL    HW228478   4.881   4.354   3.302
 5483SOL     OW28479   4.285   3.946   3.009
 5483SOL    HW128480   4.323   3.862   3.046
 5483SOL    HW228481   4.197   3.965   3.053
 5484SOL     OW28482   4.590   4.178   2.504
 5484SOL    HW128483   4.558   4.250   2.442
 5484SOL    HW228484   4.614   4.097   2.451
 5485SOL     OW28485   5.190   4.314   2.854
 5485SOL    HW128486   5.160   4.219   2.861
 5485SOL    HW228487   5.263   4.330   2.920
 5486SOL     OW28488   4.212   5.109   2.036
 5486SOL    HW128489   4.125   5.094   2.083
 5486SOL    HW228490   4.195   5.135   1.941
 5487SOL     OW28491   4.251   3.980   2.190
 5487SOL    HW128492   4.278   3.921   2.115
 5487SOL    HW228493   4.251   4.075   2.159
 5488SOL     OW28494   4.134   4.537   3.113
 5488SOL    HW128495   4.220   4.549   3.163
 5488SOL    HW228496   4.092   4.450   3.140
 5489SOL     OW28497   4.976   5.072   2.250
 5489SOL    HW128498   5.026   5.149   2.290
 5489SOL    HW228499   4.881   5.074   2.282
 5490SOL     OW28500   4.996   5.169   3.004
 5490SOL    HW128501   5.043   5.182   3.091
 5490SOL    HW228502   4.930   5.095   3.013
 5491SOL     OW28503   4.126   4.475   3.460
 5491SOL    HW128504   4.194   4.530   3.413
 5491SOL    HW228505   4.166   4.387   3.487
 5492SOL     OW28506   4.297   4.594   2.891
 5492SOL    HW128507   4.341   4.683   2.882
 5492SOL    HW228508   4.234   4.594   2.968
 5493SOL     OW28509   5.084   4.586   2.907
 5493SOL    HW128510   5.009   4.586   2.841
 5493SOL    HW228511   5.121   4.494   2.916
 5494SOL     OW28512   4.031   3.937   3.093
 5494SOL    HW128513   4.008   3.974   3.183
 5494SOL    HW228514   4.001   3.842   3.087
 5495SOL     OW28515   5.346   4.091   2.236
 5495SOL    HW128516   5.348   4.015   2.300
 5495SOL    HW228517   5.298   4.168   2.276
 5496SOL     OW28518   4.228   5.292   2.772
 5496SOL    HW128519   4.294   5.366   2.781
 5496SOL    HW228520   4.272   5.213   2.730
 5497SOL     OW28521   4.726   4.520   3.100
 5497SOL    HW128522   4.767   4.488   3.186
 5497SOL    HW228523   4.630   4.493   3.097
 5498SOL     OW28524   3.764   4.268   2.976
 5498SOL    HW128525   3.849   4.235   2.935
 5498SOL    HW228526   3.777   4.283   3.074
 5499SOL     OW28527   3.913   4.244   3.584
 5499SOL    HW128528   3.972   4.204   3.514
 5499SOL    HW228529   3.855   4.315   3.543
 5500SOL     OW28530   4.539   4.296   2.187
 5500SOL    HW128531   4.546   4.207   2.141
 5500SOL    HW228532   4.445   4.330   2.179
 5501SOL     OW28533   4.395   4.188   3.131
 5501SOL    HW128534   4.361   4.099   3.101
 5501SOL    HW228535   4.421   4.242   3.051
 5502SOL     OW28536   4.197   4.224   2.053
 5502SOL    HW128537   4.258   4.304   2.057
 5502SOL    HW228538   4.102   4.255   2.060
 5503SOL     OW28539   4.412   5.386   3.578
 5503SOL    HW128540   4.356   5.467   3.587
 5503SOL    HW228541   4.464   5.390   3.492
 5504SOL     OW28542   5.450   3.859   2.385
 5504SOL    HW128543   5.523   3.842   2.318
 5504SOL    HW228544   5.419   3.772   2.423
 5505SOL     OW28545   5.112   5.297   2.339
 5505SOL    HW128546   5.179   5.309   2.265
 5505SOL    HW228547   5.072   5.386   2.362
 5506SOL     OW28548   3.854   5.518   3.713
 5506SOL    HW128549   3.813   5.444   3.766
 5506SOL    HW228550   3.918   5.569   3.771
 5507SOL     OW28551   4.396   5.340   2.016
 5507SOL    HW128552   4.405   5.350   1.917
 5507SOL    HW228553   4.356   5.251   2.037
 5508SOL     OW28554   5.565   3.899   2.825
 5508SOL    HW128555   5.604   3.814   2.789
 5508SOL    HW228556   5.467   3.901   2.806
 5509SOL     OW28557   3.987   4.050   2.582
 5509SOL    HW128558   3.908   4.101   2.548
 5509SOL    HW228559   3.978   4.035   2.680
 5510SOL     OW28560   4.918   5.336   1.893
 5510SOL    HW128561   4.924   5.243   1.930
 5510SOL    HW228562   4.859   5.336   1.813
 5511SOL     OW28563   4.096   5.012   3.352
 5511SOL    HW128564   4.083   5.105   3.318
 5511SOL    HW228565   4.012   4.960   3.339
 5512SOL     OW28566   4.396   3.927   3.351
 5512SOL    HW128567   4.486   3.911   3.311
 5512SOL    HW228568   4.404   3.932   3.450
 5513SOL     OW28569   3.799   4.069   1.895
 5513SOL    HW128570   3.707   4.041   1.866
 5513SOL    HW228571   3.830   4.146   1.839
 5514SOL     OW28572   5.454   4.658   3.379
 5514SOL    HW128573   5.492   4.749   3.394
 5514SOL    HW228574   5.446   4.641   3.280
 5515SOL     OW28575   4.583   5.098   1.878
 5515SOL    HW128576   4.537   5.113   1.966
 5515SOL    HW228577   4.627   5.183   1.848
 5516SOL     OW28578   4.583   4.680   2.723
 5516SOL    HW128579   4.637   4.611   2.771
 5516SOL    HW228580   4.551   4.749   2.789
 5517SOL     OW28581   5.548   3.916   3.089
 5517SOL    HW128582   5.544   3.826   3.133
 5517SOL    HW228583   5.551   3.905   2.990
 5518SOL     OW28584   4.536   5.310   2.549
 5518SOL    HW128585   4.568   5.320   2.455
 5518SOL    HW228586   4.457   5.248   2.551
 5519SOL     OW28587   4.342   5.291   3.146
 5519SOL    HW128588   4.337   5.373   3.203
 5519SOL    HW228589   4.431   5.288   3.101
 5520SOL     OW28590   4.599   5.370   2.199
 5520SOL    HW128591   4.522   5.335   2.145
 5520SOL    HW228592   4.567   5.441   2.261
 5521SOL     OW28593   4.293   4.999   4.889
 5521SOL    HW128594   4.200   4.992   4.852
 5521SOL    HW228595   4.304   5.088   4.933
 5522SOL     OW28596   4.859   4.427   4.441
 5522SOL    HW128597   4.916   4.505   4.416
 5522SOL    HW228598   4.799   4.453   4.517
 5523SOL     OW28599   5.479   4.331   3.955
 5523SOL    HW128600   5.467   4.318   3.856
 5523SOL    HW228601   5.449   4.250   4.004
 5524SOL     OW28602   4.574   4.522   5.547
 5524SOL    HW128603   4.570   4.598   5.612
 5524SOL    HW228604   4.596   4.558   5.456
 5525SOL     OW28605   3.955   5.437   4.207
 5525SOL    HW128606   3.989   5.514   4.261
 5525SOL    HW228607   3.999   5.437   4.117
 5526SOL     OW28608   4.851   5.065   5.414
 5526SOL    HW128609   4.898   5.065   5.502
 5526SOL    HW228610   4.803   4.978   5.403
 5527SOL     OW28611   3.964   4.815   4.610
 5527SOL    HW128612   3.978   4.731   4.662
 5527SOL    HW228613   3.909   4.879   4.665
 5528SOL     OW28614   4.344   5.510   5.163
 5528SOL    HW128615   4.252   5.493   5.198
 5528SOL    HW228616   4.372   5.602   5.189
 5529SOL     OW28617   5.318   3.838   5.204
 5529SOL    HW128618   5.300   3.905   5.132
 5529SOL    HW228619   5.315   3.884   5.293
 5530SOL     OW28620   5.365   4.832   4.156
 5530SOL    HW128621   5.451   4.834   4.104
 5530SOL    HW228622   5.379   4.879   4.244
 5531SOL     OW28623   4.337   5.089   4.450
 5531SOL    HW128624   4.288   5.002   4.459
 5531SOL    HW228625   4.314   5.132   4.363
 5532SOL     OW28626   4.533   3.728   4.226
 5532SOL    HW128627   4.573   3.819   4.217
 5532SOL    HW228628   4.433   3.736   4.232
 5533SOL     OW28629   5.249   4.723   3.914
 5533SOL    HW128630   5.186   4.647   3.927
 5533SOL    HW228631   5.297   4.741   4.000
 5534SOL     OW28632   4.911   5.516   5.340
 5534SOL    HW128633   4.935   5.576   5.264
 5534SOL    HW228634   4.918   5.421   5.310
 5535SOL     OW28635   4.041   3.975   5.525
 5535SOL    HW128636   4.112   4.046   5.531
 5535SOL    HW228637   3.953   4.014   5.553
 5536SOL     OW28638   4.715   4.134   4.966
 5536SOL    HW128639   4.638   4.168   5.020
 5536SOL    HW228640   4.681   4.083   4.887
 5537SOL     OW28641   4.732   5.180   4.201
 5537SOL    HW128642   4.686   5.252   4.149
 5537SOL    HW228643   4.728   5.200   4.299
 5538SOL     OW28644   4.045   4.667   3.966
 5538SOL    HW128645   4.127   4.706   3.924
 5538SOL    HW228646   4.018   4.585   3.917
 5539SOL     OW28647   4.835   5.500   3.961
 5539SOL    HW128648   4.775   5.438   4.011
 5539SOL    HW228649   4.866   5.456   3.876
 5540SOL     OW28650   3.926   4.009   5.222
 5540SOL    HW128651   3.846   4.069   5.209
 5540SOL    HW228652   3.916   3.960   5.308
 5541SOL     OW28653   4.188   5.467   4.047
 5541SOL    HW128654   4.221   5.506   4.133
 5541SOL    HW228655   4.264   5.460   3.982
 5542SOL     OW28656   4.338   3.846   3.841
 5542SOL    HW128657   4.436   3.824   3.848
 5542SOL    HW228658   4.307   3.829   3.748
 5543SOL     OW28659   4.612   5.238   4.919
 5543SOL    HW128660   4.589   5.213   4.825
 5543SOL    HW228661   4.673   5.169   4.958
 5544SOL     OW28662   4.263   3.788   4.236
 5544SOL    HW128663   4.182   3.789   4.294
 5544SOL    HW228664   4.266   3.871   4.181
 5545SOL     OW28665   4.021   3.759   3.895
 5545SOL    HW128666   4.070   3.843   3.874
 5545SOL    HW228667   4.083   3.694   3.940
 5546SOL     OW28668   4.756   4.273   3.740
 5546SOL    HW128669   4.715   4.355   3.701
 5546SOL    HW228670   4.820   4.299   3.813
 5547SOL     OW28671   4.741   3.763   4.477
 5547SOL    HW128672   4.669   3.768   4.408
 5547SOL    HW228673   4.717   3.694   4.546
 5548SOL     OW28674   5.153   4.897   4.591
 5548SOL    HW128675   5.098   4.813   4.584
 5548SOL    HW228676   5.179   4.926   4.499
 5549SOL     OW28677   5.190   4.314   4.716
 5549SOL    HW128678   5.160   4.219   4.723
 5549SOL    HW228679   5.263   4.330   4.782
 5550SOL     OW28680   5.114   4.299   3.802
 5550SOL    HW128681   5.060   4.278   3.883
 5550SOL    HW228682   5.205   4.258   3.811
 5551SOL     OW28683   4.251   3.980   4.052
 5551SOL    HW128684   4.278   3.921   3.977
 5551SOL    HW228685   4.251   4.075   4.021
 5552SOL     OW28686   4.639   3.813   5.126
 5552SOL    HW128687   4.664   3.793   5.031
 5552SOL    HW228688   4.711   3.869   5.168
 5553SOL     OW28689   4.704   4.840   5.443
 5553SOL    HW128690   4.605   4.846   5.453
 5553SOL    HW228691   4.727   4.760   5.387
 5554SOL     OW28692   4.429   4.774   4.092
 5554SOL    HW128693   4.415   4.781   4.191
 5554SOL    HW228694   4.513   4.723   4.074
 5555SOL     OW28695   4.134   4.537   4.975
 5555SOL    HW128696   4.220   4.549   5.025
 5555SOL    HW228697   4.092   4.450   5.002
 5556SOL     OW28698   4.996   5.169   4.866
 5556SOL    HW128699   5.043   5.182   4.953
 5556SOL    HW228700   4.930   5.095   4.875
 5557SOL     OW28701   5.306   4.363   4.196
 5557SOL    HW128702   5.275   4.424   4.269
 5557SOL    HW228703   5.356   4.415   4.127
 5558SOL     OW28704   4.737   3.829   5.494
 5558SOL    HW128705   4.743   3.914   5.442
 5558SOL    HW228706   4.769   3.753   5.437
 5559SOL     OW28707   4.297   4.594   4.753
 5559SOL    HW128708   4.341   4.683   4.744
 5559SOL    HW228709   4.234   4.594   4.830
 5560SOL     OW28710   3.761   5.034   5.006
 5560SOL    HW128711   3.814   4.985   5.074
 5560SOL    HW228712   3.783   5.132   5.011
 5561SOL     OW28713   4.031   3.787   4.342
 5561SOL    HW128714   4.020   3.881   4.375
 5561SOL    HW228715   4.026   3.724   4.419
 5562SOL     OW28716   4.747   4.490   4.690
 5562SOL    HW128717   4.762   4.511   4.786
 5562SOL    HW228718   4.717   4.395   4.681
 5563SOL     OW28719   4.704   5.297   5.424
 5563SOL    HW128720   4.684   5.341   5.336
 5563SOL    HW228721   4.743   5.206   5.408
 5564SOL     OW28722   5.583   5.242   5.329
 5564SOL    HW128723   5.597   5.269   5.234
 5564SOL    HW228724   5.666   5.264   5.382
 5565SOL     OW28725   4.792   5.057   4.573
 5565SOL    HW128726   4.799   4.973   4.518
 5565SOL    HW228727   4.854   5.126   4.537
 5566SOL     OW28728   4.043   4.534   4.673
 5566SOL    HW128729   4.136   4.570   4.678
 5566SOL    HW228730   4.037   4.449   4.725
 5567SOL     OW28731   4.862   4.104   5.402
 5567SOL    HW128732   4.817   4.167   5.466
 5567SOL    HW228733   4.955   4.135   5.385
 5568SOL     OW28734   3.764   4.268   4.838
 5568SOL    HW128735   3.849   4.235   4.797
 5568SOL    HW228736   3.777   4.283   4.936
 5569SOL     OW28737   4.654   5.402   5.189
 5569SOL    HW128738   4.630   5.384   5.094
 5569SOL    HW228739   4.684   5.496   5.199
 5570SOL     OW28740   5.071   4.783   4.958
 5570SOL    HW128741   5.095   4.720   4.884
 5570SOL    HW228742   4.981   4.823   4.940
 5571SOL     OW28743   3.807   4.982   4.746
 5571SOL    HW128744   3.802   4.981   4.846
 5571SOL    HW228745   3.724   4.941   4.708
 5572SOL     OW28746   4.412   5.386   5.440
 5572SOL    HW128747   4.356   5.467   5.449
 5572SOL    HW228748   4.464   5.390   5.354
 5573SOL     OW28749   3.854   5.518   5.575
 5573SOL    HW128750   3.813   5.444   5.628
 5573SOL    HW228751   3.918   5.569   5.633
 5574SOL     OW28752   4.396   5.340   3.878
 5574SOL    HW128753   4.405   5.350   3.779
 5574SOL    HW228754   4.356   5.251   3.899
 5575SOL     OW28755   4.918   5.336   3.755
 5575SOL    HW128756   4.924   5.243   3.792
 5575SOL    HW228757   4.859   5.336   3.675
 5576SOL     OW28758   4.640   4.634   4.015
 5576SOL    HW128759   4.703   4.672   3.947
 5576SOL    HW228760   4.680   4.551   4.054
 5577SOL     OW28761   4.314   5.211   4.215
 5577SOL    HW128762   4.356   5.153   4.145
 5577SOL    HW228763   4.270   5.290   4.171
 5578SOL     OW28764   4.396   3.927   5.213
 5578SOL    HW128765   4.486   3.911   5.173
 5578SOL    HW228766   4.404   3.932   5.312
 5579SOL     OW28767   3.799   4.069   3.757
 5579SOL    HW128768   3.707   4.041   3.728
 5579SOL    HW228769   3.830   4.146   3.701
 5580SOL     OW28770   5.164   4.580   5.122
 5580SOL    HW128771   5.107   4.632   5.059
 5580SOL    HW228772   5.260   4.592   5.098
 5581SOL     OW28773   4.907   5.059   3.843
 5581SOL    HW128774   4.808   5.048   3.845
 5581SOL    HW228775   4.941   5.074   3.936
 5582SOL     OW28776   5.174   4.944   5.357
 5582SOL    HW128777   5.165   4.934   5.456
 5582SOL    HW228778   5.270   4.937   5.331
 5583SOL     OW28779   5.398   4.607   4.978
 5583SOL    HW128780   5.371   4.518   4.941
 5583SOL    HW228781   5.399   4.675   4.905
 5584SOL     OW28782   4.385   5.514   4.677
 5584SOL    HW128783   4.339   5.602   4.664
 5584SOL    HW228784   4.484   5.526   4.670
 5585SOL     OW28785   4.583   4.680   4.585
 5585SOL    HW128786   4.637   4.611   4.633
 5585SOL    HW228787   4.551   4.749   4.651
 5586SOL     OW28788   4.041   4.271   5.004
 5586SOL    HW128789   4.079   4.212   5.076
 5586SOL    HW228790   4.081   4.245   4.916
 5587SOL     OW28791   4.725   3.758   4.878
 5587SOL    HW128792   4.662   3.686   4.847
 5587SOL    HW228793   4.818   3.722   4.878
 5588SOL     OW28794   5.076   3.776   3.892
 5588SOL    HW128795   5.111   3.735   3.808
 5588SOL    HW228796   4.986   3.738   3.912
 5589SOL     OW28797   5.024   4.177   4.415
 5589SOL    HW128798   4.965   4.257   4.419
 5589SOL    HW228799   5.039   4.142   4.508
 5590SOL     OW28800   4.599   5.370   4.061
 5590SOL    HW128801   4.522   5.335   4.007
 5590SOL    HW228802   4.567   5.441   4.123
 5591SOL     OW28803   3.954   4.352   5.699
 5591SOL    HW128804   3.861   4.350   5.736
 5591SOL    HW228805   3.955   4.313   5.607
 5592SOL     OW28806   3.949   3.999   6.582
 5592SOL    HW128807   3.984   3.982   6.674
 5592SOL    HW228808   3.861   3.954   6.570
 5593SOL     OW28809   4.293   4.999   6.751
 5593SOL    HW128810   4.200   4.992   6.714
 5593SOL    HW228811   4.304   5.088   6.795
 5594SOL     OW28812   5.279   5.235   6.289
 5594SOL    HW128813   5.222   5.219   6.370
 5594SOL    HW228814   5.220   5.245   6.209
 5595SOL     OW28815   4.859   4.427   6.303
 5595SOL    HW128816   4.916   4.505   6.278
 5595SOL    HW228817   4.799   4.453   6.379
 5596SOL     OW28818   4.492   4.868   6.609
 5596SOL    HW128819   4.414   4.885   6.669
 5596SOL    HW228820   4.526   4.955   6.573
 5597SOL     OW28821   4.409   4.736   6.251
 5597SOL    HW128822   4.478   4.720   6.321
 5597SOL    HW228823   4.336   4.793   6.289
 5598SOL     OW28824   4.059   5.159   6.647
 5598SOL    HW128825   3.981   5.128   6.594
 5598SOL    HW228826   4.117   5.217   6.590
 5599SOL     OW28827   5.327   4.171   6.323
 5599SOL    HW128828   5.253   4.217   6.273
 5599SOL    HW228829   5.378   4.239   6.376
 5600SOL     OW28830   3.955   5.437   6.069
 5600SOL    HW128831   3.989   5.514   6.123
 5600SOL    HW228832   3.999   5.437   5.979
 5601SOL     OW28833   3.954   5.158   6.124
 5601SOL    HW128834   3.928   5.254   6.124
 5601SOL    HW228835   3.883   5.104   6.169
 5602SOL     OW28836   3.964   4.815   6.472
 5602SOL    HW128837   3.978   4.731   6.524
 5602SOL    HW228838   3.909   4.879   6.527
 5603SOL     OW28839   4.344   5.510   7.025
 5603SOL    HW128840   4.252   5.493   7.060
 5603SOL    HW228841   4.372   5.602   7.051
 5604SOL     OW28842   4.330   4.688   5.709
 5604SOL    HW128843   4.337   4.772   5.655
 5604SOL    HW228844   4.376   4.701   5.797
 5605SOL     OW28845   3.846   4.367   6.149
 5605SOL    HW128846   3.801   4.279   6.166
 5605SOL    HW228847   3.845   4.421   6.233
 5606SOL     OW28848   3.751   5.320   5.703
 5606SOL    HW128849   3.732   5.224   5.724
 5606SOL    HW228850   3.718   5.378   5.778
 5607SOL     OW28851   5.413   4.646   6.198
 5607SOL    HW128852   5.508   4.617   6.206
 5607SOL    HW228853   5.405   4.711   6.123
 5608SOL     OW28854   5.365   4.832   6.018
 5608SOL    HW128855   5.451   4.834   5.966
 5608SOL    HW228856   5.379   4.879   6.106
 5609SOL     OW28857   4.337   5.089   6.312
 5609SOL    HW128858   4.288   5.002   6.321
 5609SOL    HW228859   4.314   5.132   6.225
 5610SOL     OW28860   4.533   3.728   6.088
 5610SOL    HW128861   4.573   3.819   6.079
 5610SOL    HW228862   4.433   3.736   6.094
 5611SOL     OW28863   3.921   4.700   6.850
 5611SOL    HW128864   4.010   4.655   6.836
 5611SOL    HW228865   3.848   4.635   6.831
 5612SOL     OW28866   5.190   5.141   6.539
 5612SOL    HW128867   5.131   5.147   6.619
 5612SOL    HW228868   5.175   5.053   6.493
 5613SOL     OW28869   4.322   4.453   5.856
 5613SOL    HW128870   4.346   4.522   5.788
 5613SOL    HW228871   4.244   4.486   5.910
 5614SOL     OW28872   5.005   4.069   6.530
 5614SOL    HW128873   4.919   4.019   6.517
 5614SOL    HW228874   5.067   4.015   6.586
 5615SOL     OW28875   4.715   4.134   6.828
 5615SOL    HW128876   4.638   4.168   6.882
 5615SOL    HW228877   4.681   4.083   6.749
 5616SOL     OW28878   4.765   4.425   6.015
 5616SOL    HW128879   4.791   4.421   6.111
 5616SOL    HW228880   4.680   4.374   6.001
 5617SOL     OW28881   3.800   4.535   6.375
 5617SOL    HW128882   3.899   4.523   6.384
 5617SOL    HW228883   3.776   4.630   6.396
 5618SOL     OW28884   5.086   4.868   6.131
 5618SOL    HW128885   5.169   4.839   6.083
 5618SOL    HW228886   5.037   4.935   6.075
 5619SOL     OW28887   4.274   3.920   6.471
 5619SOL    HW128888   4.269   3.915   6.571
 5619SOL    HW228889   4.276   4.016   6.442
 5620SOL     OW28890   4.732   5.180   6.063
 5620SOL    HW128891   4.686   5.252   6.011
 5620SOL    HW228892   4.728   5.200   6.161
 5621SOL     OW28893   4.075   5.525   6.439
 5621SOL    HW128894   4.125   5.439   6.445
 5621SOL    HW228895   4.140   5.602   6.436
 5622SOL     OW28896   5.519   4.790   6.459
 5622SOL    HW128897   5.457   4.775   6.383
 5622SOL    HW228898   5.467   4.801   6.544
 5623SOL     OW28899   4.045   4.667   5.828
 5623SOL    HW128900   4.127   4.706   5.786
 5623SOL    HW228901   4.018   4.585   5.779
 5624SOL     OW28902   5.182   4.459   6.314
 5624SOL    HW128903   5.177   4.394   6.389
 5624SOL    HW228904   5.262   4.518   6.327
 5625SOL     OW28905   4.835   5.500   5.823
 5625SOL    HW128906   4.775   5.438   5.873
 5625SOL    HW228907   4.866   5.456   5.738
 5626SOL     OW28908   4.188   5.467   5.909
 5626SOL    HW128909   4.221   5.506   5.995
 5626SOL    HW228910   4.264   5.460   5.844
 5627SOL     OW28911   5.124   3.831   6.012
 5627SOL    HW128912   5.100   3.794   5.922
 5627SOL    HW228913   5.223   3.847   6.016
 5628SOL     OW28914   3.973   5.509   6.827
 5628SOL    HW128915   4.030   5.444   6.877
 5628SOL    HW228916   3.957   5.476   6.734
 5629SOL     OW28917   4.664   5.422   6.490
 5629SOL    HW128918   4.744   5.365   6.511
 5629SOL    HW228919   4.615   5.382   6.413
 5630SOL     OW28920   4.106   4.424   6.066
 5630SOL    HW128921   4.151   4.334   6.063
 5630SOL    HW228922   4.012   4.413   6.099
 5631SOL     OW28923   4.527   5.126   6.510
 5631SOL    HW128924   4.617   5.140   6.468
 5631SOL    HW228925   4.456   5.128   6.439
 5632SOL     OW28926   4.646   4.227   6.485
 5632SOL    HW128927   4.621   4.218   6.389
 5632SOL    HW228928   4.694   4.145   6.516
 5633SOL     OW28929   4.263   3.788   6.098
 5633SOL    HW128930   4.182   3.789   6.156
 5633SOL    HW228931   4.266   3.871   6.043
 5634SOL     OW28932   5.158   4.912   5.627
 5634SOL    HW128933   5.190   4.836   5.684
 5634SOL    HW228934   5.066   4.939   5.657
 5635SOL     OW28935   4.951   5.294   6.379
 5635SOL    HW128936   4.972   5.368   6.314
 5635SOL    HW228937   5.019   5.294   6.452
 5636SOL     OW28938   4.183   4.876   6.327
 5636SOL    HW128939   4.112   4.849   6.392
 5636SOL    HW228940   4.157   4.848   6.234
 5637SOL     OW28941   4.995   5.521   6.177
 5637SOL    HW128942   5.039   5.585   6.113
 5637SOL    HW228943   4.945   5.573   6.247
 5638SOL     OW28944   4.756   4.273   5.602
 5638SOL    HW128945   4.715   4.355   5.563
 5638SOL    HW228946   4.820   4.299   5.675
 5639SOL     OW28947   4.285   3.946   6.733
 5639SOL    HW128948   4.323   3.862   6.770
 5639SOL    HW228949   4.197   3.965   6.777
 5640SOL     OW28950   4.590   4.178   6.228
 5640SOL    HW128951   4.558   4.250   6.166
 5640SOL    HW228952   4.614   4.097   6.175
 5641SOL     OW28953   4.741   3.763   6.339
 5641SOL    HW128954   4.669   3.768   6.270
 5641SOL    HW228955   4.717   3.694   6.408
 5642SOL     OW28956   5.153   4.897   6.453
 5642SOL    HW128957   5.098   4.813   6.446
 5642SOL    HW228958   5.179   4.926   6.361
 5643SOL     OW28959   5.190   4.314   6.578
 5643SOL    HW128960   5.160   4.219   6.585
 5643SOL    HW228961   5.263   4.330   6.644
 5644SOL     OW28962   5.581   4.557   5.963
 5644SOL    HW128963   5.623   4.493   6.027
 5644SOL    HW228964   5.543   4.506   5.885
 5645SOL     OW28965   5.388   5.004   6.243
 5645SOL    HW128966   5.487   5.012   6.257
 5645SOL    HW228967   5.343   5.088   6.274
 5646SOL     OW28968   4.251   3.980   5.914
 5646SOL    HW128969   4.278   3.921   5.839
 5646SOL    HW228970   4.251   4.075   5.883
 5647SOL     OW28971   4.835   4.919   6.686
 5647SOL    HW128972   4.795   4.963   6.767
 5647SOL    HW228973   4.794   4.956   6.603
 5648SOL     OW28974   5.362   4.823   6.665
 5648SOL    HW128975   5.367   4.904   6.724
 5648SOL    HW228976   5.276   4.825   6.614
 5649SOL     OW28977   4.429   4.774   5.954
 5649SOL    HW128978   4.415   4.781   6.053
 5649SOL    HW228979   4.513   4.723   5.936
 5650SOL     OW28980   4.134   4.537   6.837
 5650SOL    HW128981   4.220   4.549   6.887
 5650SOL    HW228982   4.092   4.450   6.864
 5651SOL     OW28983   4.998   4.110   6.848
 5651SOL    HW128984   5.019   4.184   6.912
 5651SOL    HW228985   4.909   4.127   6.805
 5652SOL     OW28986   4.091   4.824   6.087
 5652SOL    HW128987   4.084   4.907   6.031
 5652SOL    HW228988   4.095   4.744   6.027
 5653SOL     OW28989   4.290   4.261   6.451
 5653SOL    HW128990   4.302   4.327   6.377
 5653SOL    HW228991   4.336   4.295   6.534
 5654SOL     OW28992   4.976   5.072   5.974
 5654SOL    HW128993   5.026   5.149   6.014
 5654SOL    HW228994   4.881   5.074   6.006
 5655SOL     OW28995   4.996   5.169   6.728
 5655SOL    HW128996   5.043   5.182   6.815
 5655SOL    HW228997   4.930   5.095   6.737
 5656SOL     OW28998   5.306   4.363   6.058
 5656SOL    HW128999   5.275   4.424   6.131
 5656SOL    HW229000   5.356   4.415   5.989
 5657SOL     OW29001   4.078   5.234   6.915
 5657SOL    HW129002   4.057   5.190   6.828
 5657SOL    HW229003   4.175   5.260   6.918
 5658SOL     OW29004   4.297   4.594   6.615
 5658SOL    HW129005   4.341   4.683   6.606
 5658SOL    HW229006   4.234   4.594   6.692
 5659SOL     OW29007   5.084   4.586   6.631
 5659SOL    HW129008   5.009   4.586   6.565
 5659SOL    HW229009   5.121   4.494   6.640
 5660SOL     OW29010   4.933   4.249   5.861
 5660SOL    HW129011   4.946   4.165   5.915
 5660SOL    HW229012   4.904   4.323   5.921
 5661SOL     OW29013   4.031   3.937   6.817
 5661SOL    HW129014   4.008   3.974   6.907
 5661SOL    HW229015   4.001   3.842   6.811
 5662SOL     OW29016   3.761   5.034   6.868
 5662SOL    HW129017   3.814   4.985   6.936
 5662SOL    HW229018   3.783   5.132   6.873
 5663SOL     OW29019   4.456   4.358   6.650
 5663SOL    HW129020   4.515   4.332   6.574
 5663SOL    HW229021   4.428   4.454   6.639
 5664SOL     OW29022   4.031   3.787   6.204
 5664SOL    HW129023   4.020   3.881   6.237
 5664SOL    HW229024   4.026   3.724   6.281
 5665SOL     OW29025   4.747   4.490   6.552
 5665SOL    HW129026   4.762   4.511   6.648
 5665SOL    HW229027   4.717   4.395   6.543
 5666SOL     OW29028   4.792   5.057   6.435
 5666SOL    HW129029   4.799   4.973   6.380
 5666SOL    HW229030   4.854   5.126   6.399
 5667SOL     OW29031   4.043   4.534   6.535
 5667SOL    HW129032   4.136   4.570   6.540
 5667SOL    HW229033   4.037   4.449   6.587
 5668SOL     OW29034   4.063   4.233   6.592
 5668SOL    HW129035   4.011   4.150   6.575
 5668SOL    HW229036   4.140   4.238   6.528
 5669SOL     OW29037   4.884   3.931   7.063
 5669SOL    HW129038   4.884   3.995   7.140
 5669SOL    HW229039   4.912   3.979   6.980
 5670SOL     OW29040   3.732   5.050   5.786
 5670SOL    HW129041   3.639   5.071   5.755
 5670SOL    HW229042   3.742   4.951   5.799
 5671SOL     OW29043   3.812   5.525   6.513
 5671SOL    HW129044   3.770   5.439   6.486
 5671SOL    HW229045   3.906   5.528   6.479
 5672SOL     OW29046   4.228   5.292   6.496
 5672SOL    HW129047   4.294   5.366   6.505
 5672SOL    HW229048   4.272   5.213   6.454
 5673SOL     OW29049   4.726   4.520   6.824
 5673SOL    HW129050   4.767   4.488   6.910
 5673SOL    HW229051   4.630   4.493   6.821
 5674SOL     OW29052   3.764   4.268   6.700
 5674SOL    HW129053   3.849   4.235   6.659
 5674SOL    HW229054   3.777   4.283   6.798
 5675SOL     OW29055   5.381   4.328   6.792
 5675SOL    HW129056   5.343   4.259   6.854
 5675SOL    HW229057   5.463   4.292   6.748
 5676SOL     OW29058   4.395   4.188   6.855
 5676SOL    HW129059   4.361   4.099   6.825
 5676SOL    HW229060   4.421   4.242   6.775
 5677SOL     OW29061   4.654   5.402   7.051
 5677SOL    HW129062   4.630   5.384   6.956
 5677SOL    HW229063   4.684   5.496   7.061
 5678SOL     OW29064   5.071   4.783   6.820
 5678SOL    HW129065   5.095   4.720   6.746
 5678SOL    HW229066   4.981   4.823   6.802
 5679SOL     OW29067   5.483   5.471   6.740
 5679SOL    HW129068   5.544   5.501   6.667
 5679SOL    HW229069   5.445   5.382   6.718
 5680SOL     OW29070   4.976   5.455   6.714
 5680SOL    HW129071   5.060   5.460   6.660
 5680SOL    HW229072   4.953   5.359   6.732
 5681SOL     OW29073   3.807   4.982   6.608
 5681SOL    HW129074   3.802   4.981   6.708
 5681SOL    HW229075   3.724   4.941   6.570
 5682SOL     OW29076   5.450   3.859   6.109
 5682SOL    HW129077   5.523   3.842   6.042
 5682SOL    HW229078   5.419   3.772   6.147
 5683SOL     OW29079   5.112   5.297   6.063
 5683SOL    HW129080   5.179   5.309   5.989
 5683SOL    HW229081   5.072   5.386   6.086
 5684SOL     OW29082   5.004   4.651   6.258
 5684SOL    HW129083   5.064   4.570   6.260
 5684SOL    HW229084   5.044   4.720   6.198
 5685SOL     OW29085   4.396   5.340   5.740
 5685SOL    HW129086   4.405   5.350   5.641
 5685SOL    HW229087   4.356   5.251   5.761
 5686SOL     OW29088   5.374   5.444   6.980
 5686SOL    HW129089   5.427   5.454   6.896
 5686SOL    HW229090   5.347   5.534   7.014
 5687SOL     OW29091   5.565   3.899   6.549
 5687SOL    HW129092   5.604   3.814   6.513
 5687SOL    HW229093   5.467   3.901   6.530
 5688SOL     OW29094   3.987   4.050   6.306
 5688SOL    HW129095   3.908   4.101   6.272
 5688SOL    HW229096   3.978   4.035   6.404
 5689SOL     OW29097   4.918   5.336   5.617
 5689SOL    HW129098   4.924   5.243   5.654
 5689SOL    HW229099   4.859   5.336   5.537
 5690SOL     OW29100   4.546   4.726   6.958
 5690SOL    HW129101   4.586   4.725   6.866
 5690SOL    HW229102   4.556   4.818   6.998
 5691SOL     OW29103   4.640   4.634   5.877
 5691SOL    HW129104   4.703   4.672   5.809
 5691SOL    HW229105   4.680   4.551   5.916
 5692SOL     OW29106   4.763   4.822   6.282
 5692SOL    HW129107   4.693   4.775   6.336
 5692SOL    HW229108   4.822   4.754   6.239
 5693SOL     OW29109   4.738   3.960   6.557
 5693SOL    HW129110   4.730   3.924   6.464
 5693SOL    HW229111   4.736   3.884   6.622
 5694SOL     OW29112   4.314   5.211   6.077
 5694SOL    HW129113   4.356   5.153   6.007
 5694SOL    HW229114   4.270   5.290   6.033
 5695SOL     OW29115   5.433   4.109   6.967
 5695SOL    HW129116   5.506   4.178   6.971
 5695SOL    HW229117   5.461   4.034   6.908
 5696SOL     OW29118   3.979   5.072   5.876
 5696SOL    HW129119   3.883   5.073   5.849
 5696SOL    HW229120   3.991   5.125   5.960
 5697SOL     OW29121   3.796   3.890   5.904
 5697SOL    HW129122   3.779   3.973   5.850
 5697SOL    HW229123   3.886   3.853   5.882
 5698SOL     OW29124   4.907   5.059   5.705
 5698SOL    HW129125   4.808   5.048   5.707
 5698SOL    HW229126   4.941   5.074   5.798
 5699SOL     OW29127   5.217   5.491   6.545
 5699SOL    HW129128   5.250   5.555   6.476
 5699SOL    HW229129   5.283   5.485   6.620
 5700SOL     OW29130   5.174   4.944   7.219
 5700SOL    HW129131   5.165   4.934   7.318
 5700SOL    HW229132   5.270   4.937   7.193
 5701SOL     OW29133   5.398   4.607   6.840
 5701SOL    HW129134   5.371   4.518   6.803
 5701SOL    HW229135   5.399   4.675   6.767
 5702SOL     OW29136   4.949   4.049   6.035
 5702SOL    HW129137   5.014   3.975   6.024
 5702SOL    HW229138   4.969   4.099   6.119
 5703SOL     OW29139   4.318   4.469   6.238
 5703SOL    HW129140   4.368   4.554   6.219
 5703SOL    HW229141   4.230   4.471   6.190
 5704SOL     OW29142   5.454   4.658   7.103
 5704SOL    HW129143   5.492   4.749   7.118
 5704SOL    HW229144   5.446   4.641   7.004
 5705SOL     OW29145   4.583   5.098   5.602
 5705SOL    HW129146   4.537   5.113   5.690
 5705SOL    HW229147   4.627   5.183   5.572
 5706SOL     OW29148   4.385   5.514   6.539
 5706SOL    HW129149   4.339   5.602   6.526
 5706SOL    HW229150   4.484   5.526   6.532
 5707SOL     OW29151   4.583   4.680   6.447
 5707SOL    HW129152   4.637   4.611   6.495
 5707SOL    HW229153   4.551   4.749   6.513
 5708SOL     OW29154   4.807   4.708   5.673
 5708SOL    HW129155   4.784   4.761   5.591
 5708SOL    HW229156   4.888   4.652   5.654
 5709SOL     OW29157   5.585   5.293   6.437
 5709SOL    HW129158   5.514   5.281   6.367
 5709SOL    HW229159   5.586   5.214   6.497
 5710SOL     OW29160   3.803   4.964   6.239
 5710SOL    HW129161   3.802   4.917   6.327
 5710SOL    HW229162   3.885   4.936   6.188
 5711SOL     OW29163   5.548   3.916   6.813
 5711SOL    HW129164   5.544   3.826   6.857
 5711SOL    HW229165   5.551   3.905   6.714
 5712SOL     OW29166   4.152   4.148   6.106
 5712SOL    HW129167   4.182   4.076   6.044
 5712SOL    HW229168   4.113   4.108   6.189
 5713SOL     OW29169   5.429   5.211   6.690
 5713SOL    HW129170   5.336   5.186   6.663
 5713SOL    HW229171   5.455   5.161   6.772
 5714SOL     OW29172   4.536   5.310   6.273
 5714SOL    HW129173   4.568   5.320   6.179
 5714SOL    HW229174   4.457   5.248   6.275
 5715SOL     OW29175   5.148   3.938   6.698
 5715SOL    HW129176   5.200   3.873   6.753
 5715SOL    HW229177   5.099   4.001   6.759
 5716SOL     OW29178   4.725   3.758   6.740
 5716SOL    HW129179   4.662   3.686   6.709
 5716SOL    HW229180   4.818   3.722   6.740
 5717SOL     OW29181   4.494   5.054   5.887
 5717SOL    HW129182   4.448   4.967   5.904
 5717SOL    HW229183   4.585   5.051   5.928
 5718SOL     OW29184   5.024   4.177   6.277
 5718SOL    HW129185   4.965   4.257   6.281
 5718SOL    HW229186   5.039   4.142   6.370
 5719SOL     OW29187   5.317   3.945   6.468
 5719SOL    HW129188   5.233   3.944   6.522
 5719SOL    HW229189   5.319   4.028   6.412
 5720SOL     OW29190   3.763   4.801   5.886
 5720SOL    HW129191   3.862   4.790   5.877
 5720SOL    HW229192   3.723   4.715   5.918
 5721SOL     OW29193   4.599   5.370   5.923
 5721SOL    HW129194   4.522   5.335   5.869
 5721SOL    HW229195   4.567   5.441   5.985
 5722SOL     OW29196   3.954   6.214   0.113
 5722SOL    HW129197   3.861   6.212   0.150
 5722SOL    HW229198   3.955   6.175   0.021
 5723SOL     OW29199   3.949   5.861   0.996
 5723SOL    HW129200   3.984   5.844   1.088
 5723SOL    HW229201   3.861   5.816   0.984
 5724SOL     OW29202   3.743   5.954   0.647
 5724SOL    HW129203   3.661   5.997   0.686
 5724SOL    HW229204   3.715   5.881   0.584
 5725SOL     OW29205   4.293   6.861   1.165
 5725SOL    HW129206   4.200   6.854   1.128
 5725SOL    HW229207   4.304   6.950   1.209
 5726SOL     OW29208   5.279   7.097   0.703
 5726SOL    HW129209   5.222   7.081   0.784
 5726SOL    HW229210   5.220   7.107   0.623
 5727SOL     OW29211   4.859   6.289   0.717
 5727SOL    HW129212   4.916   6.367   0.692
 5727SOL    HW229213   4.799   6.315   0.793
 5728SOL     OW29214   5.479   6.193   0.231
 5728SOL    HW129215   5.467   6.180   0.132
 5728SOL    HW229216   5.449   6.112   0.280
 5729SOL     OW29217   4.492   6.730   1.023
 5729SOL    HW129218   4.414   6.747   1.083
 5729SOL    HW229219   4.526   6.817   0.987
 5730SOL     OW29220   4.574   6.384   1.823
 5730SOL    HW129221   4.570   6.460   1.888
 5730SOL    HW229222   4.596   6.420   1.732
 5731SOL     OW29223   4.409   6.598   0.665
 5731SOL    HW129224   4.478   6.582   0.735
 5731SOL    HW229225   4.336   6.655   0.703
 5732SOL     OW29226   4.410   6.747   1.803
 5732SOL    HW129227   4.470   6.826   1.817
 5732SOL    HW229228   4.324   6.778   1.762
 5733SOL     OW29229   4.059   7.021   1.061
 5733SOL    HW129230   3.981   6.990   1.008
 5733SOL    HW229231   4.117   7.079   1.004
 5734SOL     OW29232   5.184   7.091   1.339
 5734SOL    HW129233   5.208   7.185   1.365
 5734SOL    HW229234   5.168   7.037   1.421
 5735SOL     OW29235   4.162   5.978   1.499
 5735SOL    HW129236   4.244   5.922   1.508
 5735SOL    HW229237   4.081   5.920   1.503
 5736SOL     OW29238   5.327   6.033   0.737
 5736SOL    HW129239   5.253   6.079   0.687
 5736SOL    HW229240   5.378   6.101   0.790
 5737SOL     OW29241   3.955   7.299   0.483
 5737SOL    HW129242   3.989   7.376   0.537
 5737SOL    HW229243   3.999   7.299   0.393
 5738SOL     OW29244   4.851   6.927   1.690
 5738SOL    HW129245   4.898   6.927   1.778
 5738SOL    HW229246   4.803   6.840   1.679
 5739SOL     OW29247   3.954   7.020   0.538
 5739SOL    HW129248   3.928   7.116   0.538
 5739SOL    HW229249   3.883   6.966   0.583
 5740SOL     OW29250   3.964   6.677   0.886
 5740SOL    HW129251   3.978   6.593   0.938
 5740SOL    HW229252   3.909   6.741   0.941
 5741SOL     OW29253   4.344   7.372   1.439
 5741SOL    HW129254   4.252   7.355   1.474
 5741SOL    HW229255   4.372   7.464   1.465
 5742SOL     OW29256   4.330   6.550   0.123
 5742SOL    HW129257   4.337   6.634   0.069
 5742SOL    HW229258   4.376   6.563   0.211
 5743SOL     OW29259   3.846   6.229   0.563
 5743SOL    HW129260   3.801   6.141   0.580
 5743SOL    HW229261   3.845   6.283   0.647
 5744SOL     OW29262   5.566   7.353   0.359
 5744SOL    HW129263   5.620   7.324   0.439
 5744SOL    HW229264   5.596   7.443   0.330
 5745SOL     OW29265   3.751   7.182   0.117
 5745SOL    HW129266   3.732   7.086   0.138
 5745SOL    HW229267   3.718   7.240   0.192
 5746SOL     OW29268   5.413   6.508   0.612
 5746SOL    HW129269   5.508   6.479   0.620
 5746SOL    HW229270   5.405   6.573   0.537
 5747SOL     OW29271   5.365   6.694   0.432
 5747SOL    HW129272   5.451   6.696   0.380
 5747SOL    HW229273   5.379   6.741   0.520
 5748SOL     OW29274   3.837   6.323   1.597
 5748SOL    HW129275   3.925   6.310   1.642
 5748SOL    HW229276   3.824   6.420   1.575
 5749SOL     OW29277   4.337   6.951   0.726
 5749SOL    HW129278   4.288   6.864   0.735
 5749SOL    HW229279   4.314   6.994   0.639
 5750SOL     OW29280   5.017   6.814   1.423
 5750SOL    HW129281   5.054   6.741   1.365
 5750SOL    HW229282   5.069   6.819   1.508
 5751SOL     OW29283   4.533   5.590   0.502
 5751SOL    HW129284   4.573   5.681   0.493
 5751SOL    HW229285   4.433   5.598   0.508
 5752SOL     OW29286   3.921   6.562   1.264
 5752SOL    HW129287   4.010   6.517   1.250
 5752SOL    HW229288   3.848   6.497   1.245
 5753SOL     OW29289   5.249   6.585   0.190
 5753SOL    HW129290   5.186   6.509   0.203
 5753SOL    HW229291   5.297   6.603   0.276
 5754SOL     OW29292   5.190   7.003   0.953
 5754SOL    HW129293   5.131   7.009   1.033
 5754SOL    HW229294   5.175   6.915   0.907
 5755SOL     OW29295   5.391   7.300   0.572
 5755SOL    HW129296   5.350   7.277   0.484
 5755SOL    HW229297   5.373   7.226   0.637
 5756SOL     OW29298   4.322   6.315   0.270
 5756SOL    HW129299   4.346   6.384   0.202
 5756SOL    HW229300   4.244   6.348   0.324
 5757SOL     OW29301   5.005   5.931   0.944
 5757SOL    HW129302   4.919   5.881   0.931
 5757SOL    HW229303   5.067   5.877   1.000
 5758SOL     OW29304   5.300   7.248   0.307
 5758SOL    HW129305   5.389   7.294   0.310
 5758SOL    HW229306   5.279   7.224   0.212
 5759SOL     OW29307   4.531   6.191   1.465
 5759SOL    HW129308   4.484   6.188   1.554
 5759SOL    HW229309   4.480   6.136   1.399
 5760SOL     OW29310   4.697   6.476   1.572
 5760SOL    HW129311   4.743   6.392   1.543
 5760SOL    HW229312   4.641   6.510   1.497
 5761SOL     OW29313   4.715   5.996   1.242
 5761SOL    HW129314   4.638   6.030   1.296
 5761SOL    HW229315   4.681   5.945   1.163
 5762SOL     OW29316   4.765   6.287   0.429
 5762SOL    HW129317   4.791   6.283   0.525
 5762SOL    HW229318   4.680   6.236   0.415
 5763SOL     OW29319   3.800   6.397   0.789
 5763SOL    HW129320   3.899   6.385   0.798
 5763SOL    HW229321   3.776   6.492   0.810
 5764SOL     OW29322   3.854   7.407   1.571
 5764SOL    HW129323   3.844   7.392   1.670
 5764SOL    HW229324   3.768   7.443   1.535
 5765SOL     OW29325   4.589   5.934   0.195
 5765SOL    HW129326   4.648   5.997   0.146
 5765SOL    HW229327   4.608   5.840   0.166
 5766SOL     OW29328   5.086   6.730   0.545
 5766SOL    HW129329   5.169   6.701   0.497
 5766SOL    HW229330   5.037   6.797   0.489
 5767SOL     OW29331   4.274   5.782   0.885
 5767SOL    HW129332   4.269   5.777   0.985
 5767SOL    HW229333   4.276   5.878   0.856
 5768SOL     OW29334   4.732   7.042   0.477
 5768SOL    HW129335   4.686   7.114   0.425
 5768SOL    HW229336   4.728   7.062   0.575
 5769SOL     OW29337   4.075   7.387   0.853
 5769SOL    HW129338   4.125   7.301   0.859
 5769SOL    HW229339   4.140   7.464   0.850
 5770SOL     OW29340   5.519   6.652   0.873
 5770SOL    HW129341   5.457   6.637   0.797
 5770SOL    HW229342   5.467   6.663   0.958
 5771SOL     OW29343   4.951   7.136   1.506
 5771SOL    HW129344   4.957   7.059   1.570
 5771SOL    HW229345   4.899   7.110   1.426
 5772SOL     OW29346   4.045   6.529   0.242
 5772SOL    HW129347   4.127   6.568   0.200
 5772SOL    HW229348   4.018   6.447   0.193
 5773SOL     OW29349   5.182   6.321   0.728
 5773SOL    HW129350   5.177   6.256   0.803
 5773SOL    HW229351   5.262   6.380   0.741
 5774SOL     OW29352   4.185   6.852   1.727
 5774SOL    HW129353   4.135   6.853   1.641
 5774SOL    HW229354   4.122   6.834   1.803
 5775SOL     OW29355   4.835   7.362   0.237
 5775SOL    HW129356   4.775   7.300   0.287
 5775SOL    HW229357   4.866   7.318   0.152
 5776SOL     OW29358   3.926   5.871   1.498
 5776SOL    HW129359   3.846   5.931   1.485
 5776SOL    HW229360   3.916   5.822   1.584
 5777SOL     OW29361   5.356   6.963   0.081
 5777SOL    HW129362   5.324   7.057   0.071
 5777SOL    HW229363   5.280   6.900   0.069
 5778SOL     OW29364   4.188   7.329   0.323
 5778SOL    HW129365   4.221   7.368   0.409
 5778SOL    HW229366   4.264   7.322   0.258
 5779SOL     OW29367   5.124   5.693   0.426
 5779SOL    HW129368   5.100   5.656   0.336
 5779SOL    HW229369   5.223   5.709   0.430
 5780SOL     OW29370   3.973   7.371   1.241
 5780SOL    HW129371   4.030   7.306   1.291
 5780SOL    HW229372   3.957   7.338   1.148
 5781SOL     OW29373   4.664   7.284   0.904
 5781SOL    HW129374   4.744   7.227   0.925
 5781SOL    HW229375   4.615   7.244   0.827
 5782SOL     OW29376   4.106   6.286   0.480
 5782SOL    HW129377   4.151   6.196   0.477
 5782SOL    HW229378   4.012   6.275   0.513
 5783SOL     OW29379   4.505   5.850   1.749
 5783SOL    HW129380   4.572   5.789   1.792
 5783SOL    HW229381   4.432   5.869   1.814
 5784SOL     OW29382   4.612   7.100   1.195
 5784SOL    HW129383   4.589   7.075   1.101
 5784SOL    HW229384   4.673   7.031   1.234
 5785SOL     OW29385   5.075   6.176   1.433
 5785SOL    HW129386   5.103   6.133   1.518
 5785SOL    HW229387   5.100   6.272   1.434
 5786SOL     OW29388   4.527   6.988   0.924
 5786SOL    HW129389   4.617   7.002   0.882
 5786SOL    HW229390   4.456   6.990   0.853
 5787SOL     OW29391   4.646   6.089   0.899
 5787SOL    HW129392   4.621   6.080   0.803
 5787SOL    HW229393   4.694   6.007   0.930
 5788SOL     OW29394   4.263   5.650   0.512
 5788SOL    HW129395   4.182   5.651   0.570
 5788SOL    HW229396   4.266   5.733   0.457
 5789SOL     OW29397   5.158   6.774   0.041
 5789SOL    HW129398   5.190   6.698   0.098
 5789SOL    HW229399   5.066   6.801   0.071
 5790SOL     OW29400   4.021   5.621   0.171
 5790SOL    HW129401   4.070   5.705   0.150
 5790SOL    HW229402   4.083   5.556   0.216
 5791SOL     OW29403   4.659   5.822   0.480
 5791SOL    HW129404   4.611   5.863   0.402
 5791SOL    HW229405   4.758   5.820   0.461
 5792SOL     OW29406   4.800   6.269   1.464
 5792SOL    HW129407   4.720   6.208   1.467
 5792SOL    HW229408   4.881   6.216   1.440
 5793SOL     OW29409   4.951   7.156   0.793
 5793SOL    HW129410   4.972   7.230   0.728
 5793SOL    HW229411   5.019   7.156   0.866
 5794SOL     OW29412   4.183   6.738   0.741
 5794SOL    HW129413   4.112   6.711   0.806
 5794SOL    HW229414   4.157   6.710   0.648
 5795SOL     OW29415   4.995   7.383   0.591
 5795SOL    HW129416   5.039   7.447   0.527
 5795SOL    HW229417   4.945   7.435   0.661
 5796SOL     OW29418   4.756   6.135   0.016
 5796SOL    HW129419   4.715   6.217  -0.023
 5796SOL    HW229420   4.820   6.161   0.089
 5797SOL     OW29421   3.802   6.142   1.386
 5797SOL    HW129422   3.894   6.141   1.345
 5797SOL    HW229423   3.796   6.216   1.453
 5798SOL     OW29424   4.285   5.808   1.147
 5798SOL    HW129425   4.323   5.724   1.184
 5798SOL    HW229426   4.197   5.827   1.191
 5799SOL     OW29427   4.590   6.040   0.642
 5799SOL    HW129428   4.558   6.112   0.580
 5799SOL    HW229429   4.614   5.959   0.589
 5800SOL     OW29430   4.741   5.625   0.753
 5800SOL    HW129431   4.669   5.630   0.684
 5800SOL    HW229432   4.717   5.556   0.822
 5801SOL     OW29433   5.153   6.759   0.867
 5801SOL    HW129434   5.098   6.675   0.860
 5801SOL    HW229435   5.179   6.788   0.775
 5802SOL     OW29436   5.190   6.176   0.992
 5802SOL    HW129437   5.160   6.081   0.999
 5802SOL    HW229438   5.263   6.192   1.058
 5803SOL     OW29439   5.581   6.419   0.377
 5803SOL    HW129440   5.623   6.355   0.441
 5803SOL    HW229441   5.543   6.368   0.299
 5804SOL     OW29442   4.212   6.971   0.174
 5804SOL    HW129443   4.125   6.956   0.221
 5804SOL    HW229444   4.195   6.997   0.079
 5805SOL     OW29445   5.388   6.866   0.657
 5805SOL    HW129446   5.487   6.874   0.671
 5805SOL    HW229447   5.343   6.950   0.688
 5806SOL     OW29448   5.114   6.161   0.078
 5806SOL    HW129449   5.060   6.140   0.159
 5806SOL    HW229450   5.205   6.120   0.087
 5807SOL     OW29451   4.251   5.842   0.328
 5807SOL    HW129452   4.278   5.783   0.253
 5807SOL    HW229453   4.251   5.937   0.297
 5808SOL     OW29454   5.478   6.809   1.588
 5808SOL    HW129455   5.569   6.770   1.575
 5808SOL    HW229456   5.486   6.905   1.612
 5809SOL     OW29457   4.788   6.933   1.340
 5809SOL    HW129458   4.708   6.910   1.395
 5809SOL    HW229459   4.871   6.907   1.389
 5810SOL     OW29460   4.835   6.781   1.100
 5810SOL    HW129461   4.795   6.825   1.181
 5810SOL    HW229462   4.794   6.818   1.017
 5811SOL     OW29463   5.362   6.685   1.079
 5811SOL    HW129464   5.367   6.766   1.138
 5811SOL    HW229465   5.276   6.687   1.028
 5812SOL     OW29466   4.639   5.675   1.402
 5812SOL    HW129467   4.664   5.655   1.307
 5812SOL    HW229468   4.711   5.731   1.444
 5813SOL     OW29469   4.704   6.702   1.719
 5813SOL    HW129470   4.605   6.708   1.729
 5813SOL    HW229471   4.727   6.622   1.663
 5814SOL     OW29472   4.429   6.636   0.368
 5814SOL    HW129473   4.415   6.643   0.467
 5814SOL    HW229474   4.513   6.585   0.350
 5815SOL     OW29475   4.134   6.399   1.251
 5815SOL    HW129476   4.220   6.411   1.301
 5815SOL    HW229477   4.092   6.312   1.278
 5816SOL     OW29478   4.998   5.972   1.262
 5816SOL    HW129479   5.019   6.046   1.326
 5816SOL    HW229480   4.909   5.989   1.219
 5817SOL     OW29481   3.788   7.150   1.331
 5817SOL    HW129482   3.742   7.232   1.297
 5817SOL    HW229483   3.886   7.169   1.340
 5818SOL     OW29484   4.091   6.686   0.501
 5818SOL    HW129485   4.084   6.769   0.445
 5818SOL    HW229486   4.095   6.606   0.441
 5819SOL     OW29487   4.290   6.123   0.865
 5819SOL    HW129488   4.302   6.189   0.791
 5819SOL    HW229489   4.336   6.157   0.948
 5820SOL     OW29490   4.976   6.934   0.388
 5820SOL    HW129491   5.026   7.011   0.428
 5820SOL    HW229492   4.881   6.936   0.420
 5821SOL     OW29493   4.996   7.031   1.142
 5821SOL    HW129494   5.043   7.044   1.229
 5821SOL    HW229495   4.930   6.957   1.151
 5822SOL     OW29496   5.306   6.225   0.472
 5822SOL    HW129497   5.275   6.286   0.545
 5822SOL    HW229498   5.356   6.277   0.403
 5823SOL     OW29499   4.078   7.096   1.329
 5823SOL    HW129500   4.057   7.052   1.242
 5823SOL    HW229501   4.175   7.122   1.332
 5824SOL     OW29502   4.126   6.337   1.598
 5824SOL    HW129503   4.194   6.392   1.551
 5824SOL    HW229504   4.166   6.249   1.625
 5825SOL     OW29505   5.311   6.365   1.670
 5825SOL    HW129506   5.219   6.403   1.665
 5825SOL    HW229507   5.371   6.412   1.605
 5826SOL     OW29508   4.737   5.691   1.770
 5826SOL    HW129509   4.743   5.776   1.718
 5826SOL    HW229510   4.769   5.615   1.713
 5827SOL     OW29511   4.297   6.456   1.029
 5827SOL    HW129512   4.341   6.545   1.020
 5827SOL    HW229513   4.234   6.456   1.106
 5828SOL     OW29514   5.084   6.448   1.045
 5828SOL    HW129515   5.009   6.448   0.979
 5828SOL    HW229516   5.121   6.356   1.054
 5829SOL     OW29517   4.933   6.111   0.275
 5829SOL    HW129518   4.946   6.027   0.329
 5829SOL    HW229519   4.904   6.185   0.335
 5830SOL     OW29520   4.031   5.799   1.231
 5830SOL    HW129521   4.008   5.836   1.321
 5830SOL    HW229522   4.001   5.704   1.225
 5831SOL     OW29523   3.761   6.896   1.282
 5831SOL    HW129524   3.814   6.847   1.350
 5831SOL    HW229525   3.783   6.994   1.287
 5832SOL     OW29526   4.456   6.220   1.064
 5832SOL    HW129527   4.515   6.194   0.988
 5832SOL    HW229528   4.428   6.316   1.053
 5833SOL     OW29529   4.031   5.649   0.618
 5833SOL    HW129530   4.020   5.743   0.651
 5833SOL    HW229531   4.026   5.586   0.695
 5834SOL     OW29532   5.346   5.953   0.374
 5834SOL    HW129533   5.348   5.877   0.438
 5834SOL    HW229534   5.298   6.030   0.414
 5835SOL     OW29535   4.747   6.352   0.966
 5835SOL    HW129536   4.762   6.373   1.062
 5835SOL    HW229537   4.717   6.257   0.957
 5836SOL     OW29538   5.264   5.860   0.125
 5836SOL    HW129539   5.203   5.785   0.148
 5836SOL    HW229540   5.286   5.912   0.208
 5837SOL     OW29541   5.027   6.424   0.042
 5837SOL    HW129542   5.061   6.331   0.057
 5837SOL    HW229543   5.045   6.451  -0.053
 5838SOL     OW29544   4.792   6.919   0.849
 5838SOL    HW129545   4.799   6.835   0.794
 5838SOL    HW229546   4.854   6.988   0.813
 5839SOL     OW29547   4.043   6.396   0.949
 5839SOL    HW129548   4.136   6.432   0.954
 5839SOL    HW229549   4.037   6.311   1.001
 5840SOL     OW29550   4.063   6.095   1.006
 5840SOL    HW129551   4.011   6.012   0.989
 5840SOL    HW229552   4.140   6.100   0.942
 5841SOL     OW29553   4.884   5.793   1.477
 5841SOL    HW129554   4.884   5.857   1.554
 5841SOL    HW229555   4.912   5.841   1.394
 5842SOL     OW29556   3.812   7.387   0.927
 5842SOL    HW129557   3.770   7.301   0.900
 5842SOL    HW229558   3.906   7.390   0.893
 5843SOL     OW29559   4.228   7.154   0.910
 5843SOL    HW129560   4.294   7.228   0.919
 5843SOL    HW229561   4.272   7.075   0.868
 5844SOL     OW29562   4.726   6.382   1.238
 5844SOL    HW129563   4.767   6.350   1.324
 5844SOL    HW229564   4.630   6.355   1.235
 5845SOL     OW29565   3.764   6.130   1.114
 5845SOL    HW129566   3.849   6.097   1.073
 5845SOL    HW229567   3.777   6.145   1.212
 5846SOL     OW29568   3.913   6.106   1.722
 5846SOL    HW129569   3.972   6.066   1.652
 5846SOL    HW229570   3.855   6.177   1.681
 5847SOL     OW29571   5.093   6.536   1.660
 5847SOL    HW129572   5.132   6.625   1.680
 5847SOL    HW229573   5.103   6.516   1.563
 5848SOL     OW29574   4.539   6.158   0.325
 5848SOL    HW129575   4.546   6.069   0.279
 5848SOL    HW229576   4.445   6.192   0.317
 5849SOL     OW29577   5.381   6.190   1.206
 5849SOL    HW129578   5.343   6.121   1.268
 5849SOL    HW229579   5.463   6.154   1.162
 5850SOL     OW29580   4.395   6.050   1.269
 5850SOL    HW129581   4.361   5.961   1.239
 5850SOL    HW229582   4.421   6.104   1.189
 5851SOL     OW29583   4.654   7.264   1.465
 5851SOL    HW129584   4.630   7.246   1.370
 5851SOL    HW229585   4.684   7.358   1.475
 5852SOL     OW29586   4.197   6.086   0.191
 5852SOL    HW129587   4.258   6.166   0.195
 5852SOL    HW229588   4.102   6.117   0.198
 5853SOL     OW29589   3.883   6.723   1.466
 5853SOL    HW129590   3.905   6.662   1.542
 5853SOL    HW229591   3.893   6.674   1.380
 5854SOL     OW29592   5.071   6.645   1.234
 5854SOL    HW129593   5.095   6.582   1.160
 5854SOL    HW229594   4.981   6.685   1.216
 5855SOL     OW29595   5.026   6.441   0.309
 5855SOL    HW129596   4.940   6.410   0.351
 5855SOL    HW229597   5.022   6.427   0.210
 5856SOL     OW29598   5.483   7.333   1.154
 5856SOL    HW129599   5.544   7.363   1.081
 5856SOL    HW229600   5.445   7.244   1.132
 5857SOL     OW29601   4.976   7.317   1.128
 5857SOL    HW129602   5.060   7.322   1.074
 5857SOL    HW229603   4.953   7.221   1.146
 5858SOL     OW29604   3.807   6.844   1.022
 5858SOL    HW129605   3.802   6.843   1.122
 5858SOL    HW229606   3.724   6.803   0.984
 5859SOL     OW29607   4.412   7.248   1.716
 5859SOL    HW129608   4.356   7.329   1.725
 5859SOL    HW229609   4.464   7.252   1.630
 5860SOL     OW29610   4.627   5.672   0.133
 5860SOL    HW129611   4.678   5.673   0.047
 5860SOL    HW229612   4.683   5.630   0.204
 5861SOL     OW29613   5.450   5.721   0.523
 5861SOL    HW129614   5.523   5.704   0.456
 5861SOL    HW229615   5.419   5.634   0.561
 5862SOL     OW29616   5.112   7.159   0.477
 5862SOL    HW129617   5.179   7.171   0.403
 5862SOL    HW229618   5.072   7.248   0.500
 5863SOL     OW29619   5.004   6.513   0.672
 5863SOL    HW129620   5.064   6.432   0.674
 5863SOL    HW229621   5.044   6.582   0.612
 5864SOL     OW29622   4.554   6.859   1.422
 5864SOL    HW129623   4.549   6.892   1.517
 5864SOL    HW229624   4.468   6.878   1.376
 5865SOL     OW29625   4.396   7.202   0.154
 5865SOL    HW129626   4.405   7.212   0.055
 5865SOL    HW229627   4.356   7.113   0.175
 5866SOL     OW29628   5.374   7.306   1.394
 5866SOL    HW129629   5.427   7.316   1.310
 5866SOL    HW229630   5.347   7.396   1.428
 5867SOL     OW29631   5.565   5.761   0.963
 5867SOL    HW129632   5.604   5.676   0.927
 5867SOL    HW229633   5.467   5.763   0.944
 5868SOL     OW29634   3.987   5.912   0.720
 5868SOL    HW129635   3.908   5.963   0.686
 5868SOL    HW229636   3.978   5.897   0.818
 5869SOL     OW29637   4.918   7.198   0.031
 5869SOL    HW129638   4.924   7.105   0.068
 5869SOL    HW229639   4.859   7.198  -0.049
 5870SOL     OW29640   4.546   6.588   1.372
 5870SOL    HW129641   4.586   6.587   1.280
 5870SOL    HW229642   4.556   6.680   1.412
 5871SOL     OW29643   4.640   6.496   0.291
 5871SOL    HW129644   4.703   6.534   0.223
 5871SOL    HW229645   4.680   6.413   0.330
 5872SOL     OW29646   5.228   7.193   0.044
 5872SOL    HW129647   5.136   7.230   0.051
 5872SOL    HW229648   5.266   7.213  -0.046
 5873SOL     OW29649   4.096   6.874   1.490
 5873SOL    HW129650   4.083   6.967   1.456
 5873SOL    HW229651   4.012   6.822   1.477
 5874SOL     OW29652   5.338   6.878   1.289
 5874SOL    HW129653   5.398   6.881   1.369
 5874SOL    HW229654   5.263   6.942   1.302
 5875SOL     OW29655   4.763   6.684   0.696
 5875SOL    HW129656   4.693   6.637   0.750
 5875SOL    HW229657   4.822   6.616   0.653
 5876SOL     OW29658   4.738   5.822   0.971
 5876SOL    HW129659   4.730   5.786   0.878
 5876SOL    HW229660   4.736   5.746   1.036
 5877SOL     OW29661   4.314   7.073   0.491
 5877SOL    HW129662   4.356   7.015   0.421
 5877SOL    HW229663   4.270   7.152   0.447
 5878SOL     OW29664   5.433   5.971   1.381
 5878SOL    HW129665   5.506   6.040   1.385
 5878SOL    HW229666   5.461   5.896   1.322
 5879SOL     OW29667   3.979   6.934   0.290
 5879SOL    HW129668   3.883   6.935   0.263
 5879SOL    HW229669   3.991   6.987   0.374
 5880SOL     OW29670   4.396   5.789   1.489
 5880SOL    HW129671   4.486   5.773   1.449
 5880SOL    HW229672   4.404   5.794   1.588
 5881SOL     OW29673   5.164   6.442   1.398
 5881SOL    HW129674   5.107   6.494   1.335
 5881SOL    HW229675   5.260   6.454   1.374
 5882SOL     OW29676   3.796   5.752   0.318
 5882SOL    HW129677   3.779   5.835   0.264
 5882SOL    HW229678   3.886   5.715   0.296
 5883SOL     OW29679   4.907   6.921   0.119
 5883SOL    HW129680   4.808   6.910   0.121
 5883SOL    HW229681   4.941   6.936   0.212
 5884SOL     OW29682   4.337   6.428   1.431
 5884SOL    HW129683   4.393   6.509   1.414
 5884SOL    HW229684   4.396   6.348   1.434
 5885SOL     OW29685   5.217   7.353   0.959
 5885SOL    HW129686   5.250   7.417   0.890
 5885SOL    HW229687   5.283   7.347   1.034
 5886SOL     OW29688   4.440   6.151   1.708
 5886SOL    HW129689   4.459   6.216   1.782
 5886SOL    HW229690   4.500   6.071   1.717
 5887SOL     OW29691   5.174   6.806   1.633
 5887SOL    HW129692   5.165   6.796   1.732
 5887SOL    HW229693   5.270   6.799   1.607
 5888SOL     OW29694   4.114   7.327   1.560
 5888SOL    HW129695   4.023   7.368   1.558
 5888SOL    HW229696   4.107   7.233   1.592
 5889SOL     OW29697   5.398   6.469   1.254
 5889SOL    HW129698   5.371   6.380   1.217
 5889SOL    HW229699   5.399   6.537   1.181
 5890SOL     OW29700   4.949   5.911   0.449
 5890SOL    HW129701   5.014   5.837   0.438
 5890SOL    HW229702   4.969   5.961   0.533
 5891SOL     OW29703   4.318   6.331   0.652
 5891SOL    HW129704   4.368   6.416   0.633
 5891SOL    HW229705   4.230   6.333   0.604
 5892SOL     OW29706   5.454   6.520   1.517
 5892SOL    HW129707   5.492   6.611   1.532
 5892SOL    HW229708   5.446   6.503   1.418
 5893SOL     OW29709   4.583   6.960   0.016
 5893SOL    HW129710   4.537   6.975   0.104
 5893SOL    HW229711   4.627   7.045  -0.014
 5894SOL     OW29712   4.385   7.376   0.953
 5894SOL    HW129713   4.339   7.464   0.940
 5894SOL    HW229714   4.484   7.388   0.946
 5895SOL     OW29715   4.583   6.542   0.861
 5895SOL    HW129716   4.637   6.473   0.909
 5895SOL    HW229717   4.551   6.611   0.927
 5896SOL     OW29718   4.807   6.570   0.087
 5896SOL    HW129719   4.784   6.623   0.005
 5896SOL    HW229720   4.888   6.514   0.068
 5897SOL     OW29721   5.585   7.155   0.851
 5897SOL    HW129722   5.514   7.143   0.781
 5897SOL    HW229723   5.586   7.076   0.911
 5898SOL     OW29724   3.945   6.900   1.844
 5898SOL    HW129725   3.880   6.827   1.823
 5898SOL    HW229726   3.949   6.914   1.942
 5899SOL     OW29727   3.803   6.826   0.653
 5899SOL    HW129728   3.802   6.779   0.741
 5899SOL    HW229729   3.885   6.798   0.602
 5900SOL     OW29730   4.396   6.977   1.624
 5900SOL    HW129731   4.318   6.927   1.662
 5900SOL    HW229732   4.393   7.072   1.655
 5901SOL     OW29733   5.548   5.778   1.227
 5901SOL    HW129734   5.544   5.688   1.271
 5901SOL    HW229735   5.551   5.767   1.128
 5902SOL     OW29736   4.152   6.010   0.520
 5902SOL    HW129737   4.182   5.938   0.458
 5902SOL    HW229738   4.113   5.970   0.603
 5903SOL     OW29739   5.429   7.073   1.104
 5903SOL    HW129740   5.336   7.048   1.077
 5903SOL    HW229741   5.455   7.023   1.186
 5904SOL     OW29742   4.041   6.133   1.280
 5904SOL    HW129743   4.079   6.074   1.352
 5904SOL    HW229744   4.081   6.107   1.192
 5905SOL     OW29745   4.536   7.172   0.687
 5905SOL    HW129746   4.568   7.182   0.593
 5905SOL    HW229747   4.457   7.110   0.689
 5906SOL     OW29748   5.148   5.800   1.112
 5906SOL    HW129749   5.200   5.735   1.167
 5906SOL    HW229750   5.099   5.863   1.173
 5907SOL     OW29751   4.725   5.620   1.154
 5907SOL    HW129752   4.662   5.548   1.123
 5907SOL    HW229753   4.818   5.584   1.154
 5908SOL     OW29754   4.494   6.916   0.301
 5908SOL    HW129755   4.448   6.829   0.318
 5908SOL    HW229756   4.585   6.913   0.342
 5909SOL     OW29757   4.342   7.153   1.284
 5909SOL    HW129758   4.337   7.235   1.341
 5909SOL    HW229759   4.431   7.150   1.239
 5910SOL     OW29760   5.076   5.638   0.168
 5910SOL    HW129761   5.111   5.597   0.084
 5910SOL    HW229762   4.986   5.600   0.188
 5911SOL     OW29763   5.024   6.039   0.691
 5911SOL    HW129764   4.965   6.119   0.695
 5911SOL    HW229765   5.039   6.004   0.784
 5912SOL     OW29766   5.317   5.807   0.882
 5912SOL    HW129767   5.233   5.806   0.936
 5912SOL    HW229768   5.319   5.890   0.826
 5913SOL     OW29769   3.763   6.663   0.300
 5913SOL    HW129770   3.862   6.652   0.291
 5913SOL    HW229771   3.723   6.577   0.332
 5914SOL     OW29772   4.599   7.232   0.337
 5914SOL    HW129773   4.522   7.197   0.283
 5914SOL    HW229774   4.567   7.303   0.399
 5915SOL     OW29775   3.954   6.214   1.975
 5915SOL    HW129776   3.861   6.212   2.012
 5915SOL    HW229777   3.955   6.175   1.883
 5916SOL     OW29778   3.949   5.861   2.858
 5916SOL    HW129779   3.984   5.844   2.950
 5916SOL    HW229780   3.861   5.816   2.846
 5917SOL     OW29781   4.574   6.384   3.685
 5917SOL    HW129782   4.570   6.460   3.750
 5917SOL    HW229783   4.596   6.420   3.594
 5918SOL     OW29784   4.410   6.747   3.665
 5918SOL    HW129785   4.470   6.826   3.679
 5918SOL    HW229786   4.324   6.778   3.624
 5919SOL     OW29787   4.851   6.927   3.552
 5919SOL    HW129788   4.898   6.927   3.640
 5919SOL    HW229789   4.803   6.840   3.541
 5920SOL     OW29790   3.954   7.020   2.400
 5920SOL    HW129791   3.928   7.116   2.400
 5920SOL    HW229792   3.883   6.966   2.445
 5921SOL     OW29793   3.964   6.677   2.748
 5921SOL    HW129794   3.978   6.593   2.800
 5921SOL    HW229795   3.909   6.741   2.803
 5922SOL     OW29796   4.344   7.372   3.301
 5922SOL    HW129797   4.252   7.355   3.336
 5922SOL    HW229798   4.372   7.464   3.327
 5923SOL     OW29799   4.330   6.550   1.985
 5923SOL    HW129800   4.337   6.634   1.931
 5923SOL    HW229801   4.376   6.563   2.073
 5924SOL     OW29802   3.846   6.229   2.425
 5924SOL    HW129803   3.801   6.141   2.442
 5924SOL    HW229804   3.845   6.283   2.509
 5925SOL     OW29805   5.413   6.508   2.474
 5925SOL    HW129806   5.508   6.479   2.482
 5925SOL    HW229807   5.405   6.573   2.399
 5926SOL     OW29808   5.365   6.694   2.294
 5926SOL    HW129809   5.451   6.696   2.242
 5926SOL    HW229810   5.379   6.741   2.382
 5927SOL     OW29811   3.837   6.323   3.459
 5927SOL    HW129812   3.925   6.310   3.504
 5927SOL    HW229813   3.824   6.420   3.437
 5928SOL     OW29814   4.337   6.951   2.588
 5928SOL    HW129815   4.288   6.864   2.597
 5928SOL    HW229816   4.314   6.994   2.501
 5929SOL     OW29817   5.017   6.814   3.285
 5929SOL    HW129818   5.054   6.741   3.227
 5929SOL    HW229819   5.069   6.819   3.370
 5930SOL     OW29820   3.921   6.562   3.126
 5930SOL    HW129821   4.010   6.517   3.112
 5930SOL    HW229822   3.848   6.497   3.107
 5931SOL     OW29823   5.249   6.585   2.052
 5931SOL    HW129824   5.186   6.509   2.065
 5931SOL    HW229825   5.297   6.603   2.138
 5932SOL     OW29826   5.190   7.003   2.815
 5932SOL    HW129827   5.131   7.009   2.895
 5932SOL    HW229828   5.175   6.915   2.769
 5933SOL     OW29829   4.322   6.315   2.132
 5933SOL    HW129830   4.346   6.384   2.064
 5933SOL    HW229831   4.244   6.348   2.186
 5934SOL     OW29832   5.005   5.931   2.806
 5934SOL    HW129833   4.919   5.881   2.793
 5934SOL    HW229834   5.067   5.877   2.862
 5935SOL     OW29835   4.531   6.191   3.327
 5935SOL    HW129836   4.484   6.188   3.416
 5935SOL    HW229837   4.480   6.136   3.261
 5936SOL     OW29838   4.589   5.934   2.057
 5936SOL    HW129839   4.648   5.997   2.008
 5936SOL    HW229840   4.608   5.840   2.028
 5937SOL     OW29841   4.732   7.042   2.339
 5937SOL    HW129842   4.686   7.114   2.287
 5937SOL    HW229843   4.728   7.062   2.437
 5938SOL     OW29844   4.075   7.387   2.715
 5938SOL    HW129845   4.125   7.301   2.721
 5938SOL    HW229846   4.140   7.464   2.712
 5939SOL     OW29847   4.951   7.136   3.368
 5939SOL    HW129848   4.957   7.059   3.432
 5939SOL    HW229849   4.899   7.110   3.288
 5940SOL     OW29850   4.835   7.362   2.099
 5940SOL    HW129851   4.775   7.300   2.149
 5940SOL    HW229852   4.866   7.318   2.014
 5941SOL     OW29853   3.926   5.871   3.360
 5941SOL    HW129854   3.846   5.931   3.347
 5941SOL    HW229855   3.916   5.822   3.446
 5942SOL     OW29856   5.356   6.963   1.943
 5942SOL    HW129857   5.324   7.057   1.933
 5942SOL    HW229858   5.280   6.900   1.931
 5943SOL     OW29859   5.124   5.693   2.288
 5943SOL    HW129860   5.100   5.656   2.198
 5943SOL    HW229861   5.223   5.709   2.292
 5944SOL     OW29862   4.664   7.284   2.766
 5944SOL    HW129863   4.744   7.227   2.787
 5944SOL    HW229864   4.615   7.244   2.689
 5945SOL     OW29865   4.106   6.286   2.342
 5945SOL    HW129866   4.151   6.196   2.339
 5945SOL    HW229867   4.012   6.275   2.375
 5946SOL     OW29868   5.271   5.808   3.591
 5946SOL    HW129869   5.266   5.845   3.683
 5946SOL    HW229870   5.199   5.739   3.579
 5947SOL     OW29871   4.505   5.850   3.611
 5947SOL    HW129872   4.572   5.789   3.654
 5947SOL    HW229873   4.432   5.869   3.676
 5948SOL     OW29874   4.612   7.100   3.057
 5948SOL    HW129875   4.589   7.075   2.963
 5948SOL    HW229876   4.673   7.031   3.096
 5949SOL     OW29877   5.075   6.176   3.295
 5949SOL    HW129878   5.103   6.133   3.380
 5949SOL    HW229879   5.100   6.272   3.296
 5950SOL     OW29880   4.646   6.089   2.761
 5950SOL    HW129881   4.621   6.080   2.665
 5950SOL    HW229882   4.694   6.007   2.792
 5951SOL     OW29883   5.158   6.774   1.903
 5951SOL    HW129884   5.190   6.698   1.960
 5951SOL    HW229885   5.066   6.801   1.933
 5952SOL     OW29886   4.021   5.621   2.033
 5952SOL    HW129887   4.070   5.705   2.012
 5952SOL    HW229888   4.083   5.556   2.078
 5953SOL     OW29889   4.800   6.269   3.326
 5953SOL    HW129890   4.720   6.208   3.329
 5953SOL    HW229891   4.881   6.216   3.302
 5954SOL     OW29892   4.756   6.135   1.878
 5954SOL    HW129893   4.715   6.217   1.839
 5954SOL    HW229894   4.820   6.161   1.951
 5955SOL     OW29895   3.802   6.142   3.248
 5955SOL    HW129896   3.894   6.141   3.207
 5955SOL    HW229897   3.796   6.216   3.315
 5956SOL     OW29898   4.285   5.808   3.009
 5956SOL    HW129899   4.323   5.724   3.046
 5956SOL    HW229900   4.197   5.827   3.053
 5957SOL     OW29901   4.590   6.040   2.504
 5957SOL    HW129902   4.558   6.112   2.442
 5957SOL    HW229903   4.614   5.959   2.451
 5958SOL     OW29904   5.153   6.759   2.729
 5958SOL    HW129905   5.098   6.675   2.722
 5958SOL    HW229906   5.179   6.788   2.637
 5959SOL     OW29907   5.190   6.176   2.854
 5959SOL    HW129908   5.160   6.081   2.861
 5959SOL    HW229909   5.263   6.192   2.920
 5960SOL     OW29910   4.251   5.842   2.190
 5960SOL    HW129911   4.278   5.783   2.115
 5960SOL    HW229912   4.251   5.937   2.159
 5961SOL     OW29913   5.362   6.685   2.941
 5961SOL    HW129914   5.367   6.766   3.000
 5961SOL    HW229915   5.276   6.687   2.890
 5962SOL     OW29916   4.639   5.675   3.264
 5962SOL    HW129917   4.664   5.655   3.169
 5962SOL    HW229918   4.711   5.731   3.306
 5963SOL     OW29919   4.429   6.636   2.230
 5963SOL    HW129920   4.415   6.643   2.329
 5963SOL    HW229921   4.513   6.585   2.212
 5964SOL     OW29922   4.134   6.399   3.113
 5964SOL    HW129923   4.220   6.411   3.163
 5964SOL    HW229924   4.092   6.312   3.140
 5965SOL     OW29925   5.306   6.225   2.334
 5965SOL    HW129926   5.275   6.286   2.407
 5965SOL    HW229927   5.356   6.277   2.265
 5966SOL     OW29928   4.126   6.337   3.460
 5966SOL    HW129929   4.194   6.392   3.413
 5966SOL    HW229930   4.166   6.249   3.487
 5967SOL     OW29931   4.933   6.111   2.137
 5967SOL    HW129932   4.946   6.027   2.191
 5967SOL    HW229933   4.904   6.185   2.197
 5968SOL     OW29934   4.031   5.799   3.093
 5968SOL    HW129935   4.008   5.836   3.183
 5968SOL    HW229936   4.001   5.704   3.087
 5969SOL     OW29937   4.747   6.352   2.828
 5969SOL    HW129938   4.762   6.373   2.924
 5969SOL    HW229939   4.717   6.257   2.819
 5970SOL     OW29940   5.583   7.104   3.467
 5970SOL    HW129941   5.597   7.131   3.372
 5970SOL    HW229942   5.666   7.126   3.520
 5971SOL     OW29943   4.074   6.484   3.666
 5971SOL    HW129944   4.150   6.528   3.714
 5971SOL    HW229945   4.109   6.437   3.584
 5972SOL     OW29946   3.812   7.387   2.789
 5972SOL    HW129947   3.770   7.301   2.762
 5972SOL    HW229948   3.906   7.390   2.755
 5973SOL     OW29949   5.093   6.536   3.522
 5973SOL    HW129950   5.132   6.625   3.542
 5973SOL    HW229951   5.103   6.516   3.425
 5974SOL     OW29952   4.539   6.158   2.187
 5974SOL    HW129953   4.546   6.069   2.141
 5974SOL    HW229954   4.445   6.192   2.179
 5975SOL     OW29955   5.381   6.190   3.068
 5975SOL    HW129956   5.343   6.121   3.130
 5975SOL    HW229957   5.463   6.154   3.024
 5976SOL     OW29958   4.395   6.050   3.131
 5976SOL    HW129959   4.361   5.961   3.101
 5976SOL    HW229960   4.421   6.104   3.051
 5977SOL     OW29961   4.197   6.086   2.053
 5977SOL    HW129962   4.258   6.166   2.057
 5977SOL    HW229963   4.102   6.117   2.060
 5978SOL     OW29964   5.026   6.441   2.171
 5978SOL    HW129965   4.940   6.410   2.213
 5978SOL    HW229966   5.022   6.427   2.072
 5979SOL     OW29967   4.412   7.248   3.578
 5979SOL    HW129968   4.356   7.329   3.587
 5979SOL    HW229969   4.464   7.252   3.492
 5980SOL     OW29970   5.450   5.721   2.385
 5980SOL    HW129971   5.523   5.704   2.318
 5980SOL    HW229972   5.419   5.634   2.423
 5981SOL     OW29973   4.396   7.202   2.016
 5981SOL    HW129974   4.405   7.212   1.917
 5981SOL    HW229975   4.356   7.113   2.037
 5982SOL     OW29976   3.987   5.912   2.582
 5982SOL    HW129977   3.908   5.963   2.548
 5982SOL    HW229978   3.978   5.897   2.680
 5983SOL     OW29979   4.546   6.588   3.234
 5983SOL    HW129980   4.586   6.587   3.142
 5983SOL    HW229981   4.556   6.680   3.274
 5984SOL     OW29982   5.228   7.193   1.906
 5984SOL    HW129983   5.136   7.230   1.913
 5984SOL    HW229984   5.266   7.213   1.816
 5985SOL     OW29985   4.096   6.874   3.352
 5985SOL    HW129986   4.083   6.967   3.318
 5985SOL    HW229987   4.012   6.822   3.339
 5986SOL     OW29988   5.338   6.878   3.151
 5986SOL    HW129989   5.398   6.881   3.231
 5986SOL    HW229990   5.263   6.942   3.164
 5987SOL     OW29991   4.738   5.822   2.833
 5987SOL    HW129992   4.730   5.786   2.740
 5987SOL    HW229993   4.736   5.746   2.898
 5988SOL     OW29994   4.314   7.073   2.353
 5988SOL    HW129995   4.356   7.015   2.283
 5988SOL    HW229996   4.270   7.152   2.309
 5989SOL     OW29997   5.433   5.971   3.243
 5989SOL    HW129998   5.506   6.040   3.247
 5989SOL    HW229999   5.461   5.896   3.184
 5990SOL     OW30000   4.907   6.921   1.981
 5990SOL    HW130001   4.808   6.910   1.983
 5990SOL    HW230002   4.941   6.936   2.074
 5991SOL     OW30003   4.440   6.151   3.570
 5991SOL    HW130004   4.459   6.216   3.644
 5991SOL    HW230005   4.500   6.071   3.579
 5992SOL     OW30006   5.454   6.520   3.379
 5992SOL    HW130007   5.492   6.611   3.394
 5992SOL    HW230008   5.446   6.503   3.280
 5993SOL     OW30009   4.583   6.960   1.878
 5993SOL    HW130010   4.537   6.975   1.966
 5993SOL    HW230011   4.627   7.045   1.848
 5994SOL     OW30012   5.585   7.155   2.713
 5994SOL    HW130013   5.514   7.143   2.643
 5994SOL    HW230014   5.586   7.076   2.773
 5995SOL     OW30015   5.548   5.778   3.089
 5995SOL    HW130016   5.544   5.688   3.133
 5995SOL    HW230017   5.551   5.767   2.990
 5996SOL     OW30018   4.152   6.010   2.382
 5996SOL    HW130019   4.182   5.938   2.320
 5996SOL    HW230020   4.113   5.970   2.465
 5997SOL     OW30021   5.429   7.073   2.966
 5997SOL    HW130022   5.336   7.048   2.939
 5997SOL    HW230023   5.455   7.023   3.048
 5998SOL     OW30024   4.041   6.133   3.142
 5998SOL    HW130025   4.079   6.074   3.214
 5998SOL    HW230026   4.081   6.107   3.054
 5999SOL     OW30027   4.494   6.916   2.163
 5999SOL    HW130028   4.448   6.829   2.180
 5999SOL    HW230029   4.585   6.913   2.204
 6000SOL     OW30030   4.293   6.861   4.889
 6000SOL    HW130031   4.200   6.854   4.852
 6000SOL    HW230032   4.304   6.950   4.933
 6001SOL     OW30033   4.859   6.289   4.441
 6001SOL    HW130034   4.916   6.367   4.416
 6001SOL    HW230035   4.799   6.315   4.517
 6002SOL     OW30036   5.479   6.193   3.955
 6002SOL    HW130037   5.467   6.180   3.856
 6002SOL    HW230038   5.449   6.112   4.004
 6003SOL     OW30039   4.574   6.384   5.547
 6003SOL    HW130040   4.570   6.460   5.612
 6003SOL    HW230041   4.596   6.420   5.456
 6004SOL     OW30042   4.409   6.598   4.389
 6004SOL    HW130043   4.478   6.582   4.459
 6004SOL    HW230044   4.336   6.655   4.427
 6005SOL     OW30045   4.410   6.747   5.527
 6005SOL    HW130046   4.470   6.826   5.541
 6005SOL    HW230047   4.324   6.778   5.486
 6006SOL     OW30048   4.059   7.021   4.785
 6006SOL    HW130049   3.981   6.990   4.732
 6006SOL    HW230050   4.117   7.079   4.728
 6007SOL     OW30051   3.955   7.299   4.207
 6007SOL    HW130052   3.989   7.376   4.261
 6007SOL    HW230053   3.999   7.299   4.117
 6008SOL     OW30054   4.851   6.927   5.414
 6008SOL    HW130055   4.898   6.927   5.502
 6008SOL    HW230056   4.803   6.840   5.403
 6009SOL     OW30057   5.318   5.700   5.204
 6009SOL    HW130058   5.300   5.767   5.132
 6009SOL    HW230059   5.315   5.746   5.293
 6010SOL     OW30060   5.413   6.508   4.336
 6010SOL    HW130061   5.508   6.479   4.344
 6010SOL    HW230062   5.405   6.573   4.261
 6011SOL     OW30063   5.017   6.814   5.147
 6011SOL    HW130064   5.054   6.741   5.089
 6011SOL    HW230065   5.069   6.819   5.232
 6012SOL     OW30066   4.533   5.590   4.226
 6012SOL    HW130067   4.573   5.681   4.217
 6012SOL    HW230068   4.433   5.598   4.232
 6013SOL     OW30069   4.911   7.378   5.340
 6013SOL    HW130070   4.935   7.438   5.264
 6013SOL    HW230071   4.918   7.283   5.310
 6014SOL     OW30072   5.118   6.055   5.398
 6014SOL    HW130073   5.098   6.098   5.486
 6014SOL    HW230074   5.196   5.993   5.407
 6015SOL     OW30075   3.854   7.407   5.295
 6015SOL    HW130076   3.844   7.392   5.394
 6015SOL    HW230077   3.768   7.443   5.259
 6016SOL     OW30078   5.519   6.652   4.597
 6016SOL    HW130079   5.457   6.637   4.521
 6016SOL    HW230080   5.467   6.663   4.682
 6017SOL     OW30081   4.951   7.136   5.230
 6017SOL    HW130082   4.957   7.059   5.294
 6017SOL    HW230083   4.899   7.110   5.150
 6018SOL     OW30084   5.182   6.321   4.452
 6018SOL    HW130085   5.177   6.256   4.527
 6018SOL    HW230086   5.262   6.380   4.465
 6019SOL     OW30087   4.185   6.852   5.451
 6019SOL    HW130088   4.135   6.853   5.365
 6019SOL    HW230089   4.122   6.834   5.527
 6020SOL     OW30090   3.926   5.871   5.222
 6020SOL    HW130091   3.846   5.931   5.209
 6020SOL    HW230092   3.916   5.822   5.308
 6021SOL     OW30093   5.271   5.808   5.453
 6021SOL    HW130094   5.266   5.845   5.545
 6021SOL    HW230095   5.199   5.739   5.441
 6022SOL     OW30096   5.075   6.176   5.157
 6022SOL    HW130097   5.103   6.133   5.242
 6022SOL    HW230098   5.100   6.272   5.158
 6023SOL     OW30099   4.995   7.383   4.315
 6023SOL    HW130100   5.039   7.447   4.251
 6023SOL    HW230101   4.945   7.435   4.385
 6024SOL     OW30102   5.190   6.176   4.716
 6024SOL    HW130103   5.160   6.081   4.723
 6024SOL    HW230104   5.263   6.192   4.782
 6025SOL     OW30105   5.114   6.161   3.802
 6025SOL    HW130106   5.060   6.140   3.883
 6025SOL    HW230107   5.205   6.120   3.811
 6026SOL     OW30108   4.788   6.933   5.064
 6026SOL    HW130109   4.708   6.910   5.119
 6026SOL    HW230110   4.871   6.907   5.113
 6027SOL     OW30111   4.835   6.781   4.824
 6027SOL    HW130112   4.795   6.825   4.905
 6027SOL    HW230113   4.794   6.818   4.741
 6028SOL     OW30114   4.704   6.702   5.443
 6028SOL    HW130115   4.605   6.708   5.453
 6028SOL    HW230116   4.727   6.622   5.387
 6029SOL     OW30117   4.290   6.123   4.589
 6029SOL    HW130118   4.302   6.189   4.515
 6029SOL    HW230119   4.336   6.157   4.672
 6030SOL     OW30120   4.078   7.096   5.053
 6030SOL    HW130121   4.057   7.052   4.966
 6030SOL    HW230122   4.175   7.122   5.056
 6031SOL     OW30123   5.311   6.365   5.394
 6031SOL    HW130124   5.219   6.403   5.389
 6031SOL    HW230125   5.371   6.412   5.329
 6032SOL     OW30126   4.737   5.691   5.494
 6032SOL    HW130127   4.743   5.776   5.442
 6032SOL    HW230128   4.769   5.615   5.437
 6033SOL     OW30129   4.228   5.636   5.464
 6033SOL    HW130130   4.186   5.579   5.394
 6033SOL    HW230131   4.162   5.705   5.496
 6034SOL     OW30132   4.933   6.111   3.999
 6034SOL    HW130133   4.946   6.027   4.053
 6034SOL    HW230134   4.904   6.185   4.059
 6035SOL     OW30135   5.452   6.521   5.578
 6035SOL    HW130136   5.406   6.514   5.489
 6035SOL    HW230137   5.390   6.565   5.644
 6036SOL     OW30138   4.704   7.159   5.424
 6036SOL    HW130139   4.684   7.203   5.336
 6036SOL    HW230140   4.743   7.068   5.408
 6037SOL     OW30141   4.074   6.484   5.528
 6037SOL    HW130142   4.150   6.528   5.576
 6037SOL    HW230143   4.109   6.437   5.446
 6038SOL     OW30144   5.027   6.424   3.766
 6038SOL    HW130145   5.061   6.331   3.781
 6038SOL    HW230146   5.045   6.451   3.671
 6039SOL     OW30147   4.063   6.095   4.730
 6039SOL    HW130148   4.011   6.012   4.713
 6039SOL    HW230149   4.140   6.100   4.666
 6040SOL     OW30150   4.862   5.966   5.402
 6040SOL    HW130151   4.817   6.029   5.466
 6040SOL    HW230152   4.955   5.997   5.385
 6041SOL     OW30153   4.884   5.793   5.201
 6041SOL    HW130154   4.884   5.857   5.278
 6041SOL    HW230155   4.912   5.841   5.118
 6042SOL     OW30156   3.732   6.912   3.924
 6042SOL    HW130157   3.639   6.933   3.893
 6042SOL    HW230158   3.742   6.813   3.937
 6043SOL     OW30159   3.764   6.130   4.838
 6043SOL    HW130160   3.849   6.097   4.797
 6043SOL    HW230161   3.777   6.145   4.936
 6044SOL     OW30162   5.093   6.536   5.384
 6044SOL    HW130163   5.132   6.625   5.404
 6044SOL    HW230164   5.103   6.516   5.287
 6045SOL     OW30165   3.976   7.150   5.468
 6045SOL    HW130166   3.946   7.207   5.544
 6045SOL    HW230167   3.969   7.053   5.494
 6046SOL     OW30168   4.654   7.264   5.189
 6046SOL    HW130169   4.630   7.246   5.094
 6046SOL    HW230170   4.684   7.358   5.199
 6047SOL     OW30171   3.883   6.723   5.190
 6047SOL    HW130172   3.905   6.662   5.266
 6047SOL    HW230173   3.893   6.674   5.104
 6048SOL     OW30174   3.807   6.844   4.746
 6048SOL    HW130175   3.802   6.843   4.846
 6048SOL    HW230176   3.724   6.803   4.708
 6049SOL     OW30177   5.112   7.159   4.201
 6049SOL    HW130178   5.179   7.171   4.127
 6049SOL    HW230179   5.072   7.248   4.224
 6050SOL     OW30180   3.854   7.380   5.575
 6050SOL    HW130181   3.813   7.306   5.628
 6050SOL    HW230182   3.918   7.431   5.633
 6051SOL     OW30183   4.096   6.874   5.214
 6051SOL    HW130184   4.083   6.967   5.180
 6051SOL    HW230185   4.012   6.822   5.201
 6052SOL     OW30186   4.763   6.684   4.420
 6052SOL    HW130187   4.693   6.637   4.474
 6052SOL    HW230188   4.822   6.616   4.377
 6053SOL     OW30189   3.829   6.599   5.450
 6053SOL    HW130190   3.752   6.566   5.504
 6053SOL    HW230191   3.914   6.569   5.492
 6054SOL     OW30192   5.174   6.806   5.357
 6054SOL    HW130193   5.165   6.796   5.456
 6054SOL    HW230194   5.270   6.799   5.331
 6055SOL     OW30195   4.114   7.327   5.284
 6055SOL    HW130196   4.023   7.368   5.282
 6055SOL    HW230197   4.107   7.233   5.316
 6056SOL     OW30198   4.949   5.911   4.173
 6056SOL    HW130199   5.014   5.837   4.162
 6056SOL    HW230200   4.969   5.961   4.257
 6057SOL     OW30201   4.318   6.331   4.376
 6057SOL    HW130202   4.368   6.416   4.357
 6057SOL    HW230203   4.230   6.333   4.328
 6058SOL     OW30204   5.454   6.520   5.241
 6058SOL    HW130205   5.492   6.611   5.256
 6058SOL    HW230206   5.446   6.503   5.142
 6059SOL     OW30207   3.945   6.900   5.568
 6059SOL    HW130208   3.880   6.827   5.547
 6059SOL    HW230209   3.949   6.914   5.666
 6060SOL     OW30210   3.803   6.826   4.377
 6060SOL    HW130211   3.802   6.779   4.465
 6060SOL    HW230212   3.885   6.798   4.326
 6061SOL     OW30213   4.536   7.172   4.411
 6061SOL    HW130214   4.568   7.182   4.317
 6061SOL    HW230215   4.457   7.110   4.413
 6062SOL     OW30216   5.148   5.800   4.836
 6062SOL    HW130217   5.200   5.735   4.891
 6062SOL    HW230218   5.099   5.863   4.897
 6063SOL     OW30219   4.494   6.916   4.025
 6063SOL    HW130220   4.448   6.829   4.042
 6063SOL    HW230221   4.585   6.913   4.066
 6064SOL     OW30222   3.954   6.214   5.699
 6064SOL    HW130223   3.861   6.212   5.736
 6064SOL    HW230224   3.955   6.175   5.607
 6065SOL     OW30225   3.949   5.861   6.582
 6065SOL    HW130226   3.984   5.844   6.674
 6065SOL    HW230227   3.861   5.816   6.570
 6066SOL     OW30228   3.743   5.954   6.233
 6066SOL    HW130229   3.661   5.997   6.272
 6066SOL    HW230230   3.715   5.881   6.170
 6067SOL     OW30231   4.293   6.861   6.751
 6067SOL    HW130232   4.200   6.854   6.714
 6067SOL    HW230233   4.304   6.950   6.795
 6068SOL     OW30234   5.279   7.097   6.289
 6068SOL    HW130235   5.222   7.081   6.370
 6068SOL    HW230236   5.220   7.107   6.209
 6069SOL     OW30237   4.859   6.289   6.303
 6069SOL    HW130238   4.916   6.367   6.278
 6069SOL    HW230239   4.799   6.315   6.379
 6070SOL     OW30240   5.479   6.193   5.817
 6070SOL    HW130241   5.467   6.180   5.718
 6070SOL    HW230242   5.449   6.112   5.866
 6071SOL     OW30243   4.492   6.730   6.609
 6071SOL    HW130244   4.414   6.747   6.669
 6071SOL    HW230245   4.526   6.817   6.573
 6072SOL     OW30246   4.409   6.598   6.251
 6072SOL    HW130247   4.478   6.582   6.321
 6072SOL    HW230248   4.336   6.655   6.289
 6073SOL     OW30249   4.059   7.021   6.647
 6073SOL    HW130250   3.981   6.990   6.594
 6073SOL    HW230251   4.117   7.079   6.590
 6074SOL     OW30252   5.327   6.033   6.323
 6074SOL    HW130253   5.253   6.079   6.273
 6074SOL    HW230254   5.378   6.101   6.376
 6075SOL     OW30255   3.955   7.299   6.069
 6075SOL    HW130256   3.989   7.376   6.123
 6075SOL    HW230257   3.999   7.299   5.979
 6076SOL     OW30258   3.954   7.020   6.124
 6076SOL    HW130259   3.928   7.116   6.124
 6076SOL    HW230260   3.883   6.966   6.169
 6077SOL     OW30261   3.964   6.677   6.472
 6077SOL    HW130262   3.978   6.593   6.524
 6077SOL    HW230263   3.909   6.741   6.527
 6078SOL     OW30264   4.330   6.550   5.709
 6078SOL    HW130265   4.337   6.634   5.655
 6078SOL    HW230266   4.376   6.563   5.797
 6079SOL     OW30267   3.846   6.229   6.149
 6079SOL    HW130268   3.801   6.141   6.166
 6079SOL    HW230269   3.845   6.283   6.233
 6080SOL     OW30270   5.566   7.353   5.945
 6080SOL    HW130271   5.620   7.324   6.025
 6080SOL    HW230272   5.596   7.443   5.916
 6081SOL     OW30273   3.751   7.182   5.703
 6081SOL    HW130274   3.732   7.086   5.724
 6081SOL    HW230275   3.718   7.240   5.778
 6082SOL     OW30276   5.413   6.508   6.198
 6082SOL    HW130277   5.508   6.479   6.206
 6082SOL    HW230278   5.405   6.573   6.123
 6083SOL     OW30279   5.365   6.694   6.018
 6083SOL    HW130280   5.451   6.696   5.966
 6083SOL    HW230281   5.379   6.741   6.106
 6084SOL     OW30282   4.337   6.951   6.312
 6084SOL    HW130283   4.288   6.864   6.321
 6084SOL    HW230284   4.314   6.994   6.225
 6085SOL     OW30285   4.533   5.590   6.088
 6085SOL    HW130286   4.573   5.681   6.079
 6085SOL    HW230287   4.433   5.598   6.094
 6086SOL     OW30288   3.921   6.562   6.850
 6086SOL    HW130289   4.010   6.517   6.836
 6086SOL    HW230290   3.848   6.497   6.831
 6087SOL     OW30291   5.249   6.585   5.776
 6087SOL    HW130292   5.186   6.509   5.789
 6087SOL    HW230293   5.297   6.603   5.862
 6088SOL     OW30294   5.190   7.003   6.539
 6088SOL    HW130295   5.131   7.009   6.619
 6088SOL    HW230296   5.175   6.915   6.493
 6089SOL     OW30297   5.391   7.300   6.158
 6089SOL    HW130298   5.350   7.277   6.070
 6089SOL    HW230299   5.373   7.226   6.223
 6090SOL     OW30300   4.322   6.315   5.856
 6090SOL    HW130301   4.346   6.384   5.788
 6090SOL    HW230302   4.244   6.348   5.910
 6091SOL     OW30303   5.005   5.931   6.530
 6091SOL    HW130304   4.919   5.881   6.517
 6091SOL    HW230305   5.067   5.877   6.586
 6092SOL     OW30306   5.300   7.248   5.893
 6092SOL    HW130307   5.389   7.294   5.896
 6092SOL    HW230308   5.279   7.224   5.798
 6093SOL     OW30309   4.715   5.996   6.828
 6093SOL    HW130310   4.638   6.030   6.882
 6093SOL    HW230311   4.681   5.945   6.749
 6094SOL     OW30312   4.765   6.287   6.015
 6094SOL    HW130313   4.791   6.283   6.111
 6094SOL    HW230314   4.680   6.236   6.001
 6095SOL     OW30315   3.800   6.397   6.375
 6095SOL    HW130316   3.899   6.385   6.384
 6095SOL    HW230317   3.776   6.492   6.396
 6096SOL     OW30318   5.086   6.730   6.131
 6096SOL    HW130319   5.169   6.701   6.083
 6096SOL    HW230320   5.037   6.797   6.075
 6097SOL     OW30321   4.274   5.782   6.471
 6097SOL    HW130322   4.269   5.777   6.571
 6097SOL    HW230323   4.276   5.878   6.442
 6098SOL     OW30324   4.732   7.042   6.063
 6098SOL    HW130325   4.686   7.114   6.011
 6098SOL    HW230326   4.728   7.062   6.161
 6099SOL     OW30327   4.075   7.387   6.439
 6099SOL    HW130328   4.125   7.301   6.445
 6099SOL    HW230329   4.140   7.464   6.436
 6100SOL     OW30330   5.519   6.652   6.459
 6100SOL    HW130331   5.457   6.637   6.383
 6100SOL    HW230332   5.467   6.663   6.544
 6101SOL     OW30333   4.045   6.529   5.828
 6101SOL    HW130334   4.127   6.568   5.786
 6101SOL    HW230335   4.018   6.447   5.779
 6102SOL     OW30336   5.182   6.321   6.314
 6102SOL    HW130337   5.177   6.256   6.389
 6102SOL    HW230338   5.262   6.380   6.327
 6103SOL     OW30339   4.835   7.362   5.823
 6103SOL    HW130340   4.775   7.300   5.873
 6103SOL    HW230341   4.866   7.318   5.738
 6104SOL     OW30342   5.356   6.963   5.667
 6104SOL    HW130343   5.324   7.057   5.657
 6104SOL    HW230344   5.280   6.900   5.655
 6105SOL     OW30345   4.188   7.329   5.909
 6105SOL    HW130346   4.221   7.368   5.995
 6105SOL    HW230347   4.264   7.322   5.844
 6106SOL     OW30348   3.973   7.371   6.827
 6106SOL    HW130349   4.030   7.306   6.877
 6106SOL    HW230350   3.957   7.338   6.734
 6107SOL     OW30351   4.664   7.284   6.490
 6107SOL    HW130352   4.744   7.227   6.511
 6107SOL    HW230353   4.615   7.244   6.413
 6108SOL     OW30354   4.106   6.286   6.066
 6108SOL    HW130355   4.151   6.196   6.063
 6108SOL    HW230356   4.012   6.275   6.099
 6109SOL     OW30357   4.527   6.988   6.510
 6109SOL    HW130358   4.617   7.002   6.468
 6109SOL    HW230359   4.456   6.990   6.439
 6110SOL     OW30360   4.646   6.089   6.485
 6110SOL    HW130361   4.621   6.080   6.389
 6110SOL    HW230362   4.694   6.007   6.516
 6111SOL     OW30363   4.263   5.650   6.098
 6111SOL    HW130364   4.182   5.651   6.156
 6111SOL    HW230365   4.266   5.733   6.043
 6112SOL     OW30366   5.158   6.774   5.627
 6112SOL    HW130367   5.190   6.698   5.684
 6112SOL    HW230368   5.066   6.801   5.657
 6113SOL     OW30369   4.021   5.621   5.757
 6113SOL    HW130370   4.070   5.705   5.736
 6113SOL    HW230371   4.083   5.556   5.802
 6114SOL     OW30372   4.659   5.822   6.066
 6114SOL    HW130373   4.611   5.863   5.988
 6114SOL    HW230374   4.758   5.820   6.047
 6115SOL     OW30375   4.951   7.156   6.379
 6115SOL    HW130376   4.972   7.230   6.314
 6115SOL    HW230377   5.019   7.156   6.452
 6116SOL     OW30378   4.183   6.738   6.327
 6116SOL    HW130379   4.112   6.711   6.392
 6116SOL    HW230380   4.157   6.710   6.234
 6117SOL     OW30381   4.995   7.383   6.177
 6117SOL    HW130382   5.039   7.447   6.113
 6117SOL    HW230383   4.945   7.435   6.247
 6118SOL     OW30384   4.756   6.135   5.602
 6118SOL    HW130385   4.715   6.217   5.563
 6118SOL    HW230386   4.820   6.161   5.675
 6119SOL     OW30387   4.285   5.808   6.733
 6119SOL    HW130388   4.323   5.724   6.770
 6119SOL    HW230389   4.197   5.827   6.777
 6120SOL     OW30390   4.590   6.040   6.228
 6120SOL    HW130391   4.558   6.112   6.166
 6120SOL    HW230392   4.614   5.959   6.175
 6121SOL     OW30393   4.741   5.625   6.339
 6121SOL    HW130394   4.669   5.630   6.270
 6121SOL    HW230395   4.717   5.556   6.408
 6122SOL     OW30396   5.153   6.759   6.453
 6122SOL    HW130397   5.098   6.675   6.446
 6122SOL    HW230398   5.179   6.788   6.361
 6123SOL     OW30399   5.190   6.176   6.578
 6123SOL    HW130400   5.160   6.081   6.585
 6123SOL    HW230401   5.263   6.192   6.644
 6124SOL     OW30402   5.581   6.419   5.963
 6124SOL    HW130403   5.623   6.355   6.027
 6124SOL    HW230404   5.543   6.368   5.885
 6125SOL     OW30405   4.212   6.971   5.760
 6125SOL    HW130406   4.125   6.956   5.807
 6125SOL    HW230407   4.195   6.997   5.665
 6126SOL     OW30408   5.388   6.866   6.243
 6126SOL    HW130409   5.487   6.874   6.257
 6126SOL    HW230410   5.343   6.950   6.274
 6127SOL     OW30411   5.114   6.161   5.664
 6127SOL    HW130412   5.060   6.140   5.745
 6127SOL    HW230413   5.205   6.120   5.673
 6128SOL     OW30414   4.251   5.842   5.914
 6128SOL    HW130415   4.278   5.783   5.839
 6128SOL    HW230416   4.251   5.937   5.883
 6129SOL     OW30417   4.835   6.781   6.686
 6129SOL    HW130418   4.795   6.825   6.767
 6129SOL    HW230419   4.794   6.818   6.603
 6130SOL     OW30420   5.362   6.685   6.665
 6130SOL    HW130421   5.367   6.766   6.724
 6130SOL    HW230422   5.276   6.687   6.614
 6131SOL     OW30423   4.429   6.636   5.954
 6131SOL    HW130424   4.415   6.643   6.053
 6131SOL    HW230425   4.513   6.585   5.936
 6132SOL     OW30426   4.134   6.399   6.837
 6132SOL    HW130427   4.220   6.411   6.887
 6132SOL    HW230428   4.092   6.312   6.864
 6133SOL     OW30429   4.998   5.972   6.848
 6133SOL    HW130430   5.019   6.046   6.912
 6133SOL    HW230431   4.909   5.989   6.805
 6134SOL     OW30432   4.091   6.686   6.087
 6134SOL    HW130433   4.084   6.769   6.031
 6134SOL    HW230434   4.095   6.606   6.027
 6135SOL     OW30435   4.290   6.123   6.451
 6135SOL    HW130436   4.302   6.189   6.377
 6135SOL    HW230437   4.336   6.157   6.534
 6136SOL     OW30438   4.976   6.934   5.974
 6136SOL    HW130439   5.026   7.011   6.014
 6136SOL    HW230440   4.881   6.936   6.006
 6137SOL     OW30441   4.996   7.031   6.728
 6137SOL    HW130442   5.043   7.044   6.815
 6137SOL    HW230443   4.930   6.957   6.737
 6138SOL     OW30444   5.306   6.225   6.058
 6138SOL    HW130445   5.275   6.286   6.131
 6138SOL    HW230446   5.356   6.277   5.989
 6139SOL     OW30447   4.078   7.096   6.915
 6139SOL    HW130448   4.057   7.052   6.828
 6139SOL    HW230449   4.175   7.122   6.918
 6140SOL     OW30450   4.297   6.456   6.615
 6140SOL    HW130451   4.341   6.545   6.606
 6140SOL    HW230452   4.234   6.456   6.692
 6141SOL     OW30453   5.084   6.448   6.631
 6141SOL    HW130454   5.009   6.448   6.565
 6141SOL    HW230455   5.121   6.356   6.640
 6142SOL     OW30456   4.933   6.111   5.861
 6142SOL    HW130457   4.946   6.027   5.915
 6142SOL    HW230458   4.904   6.185   5.921
 6143SOL     OW30459   4.031   5.799   6.817
 6143SOL    HW130460   4.008   5.836   6.907
 6143SOL    HW230461   4.001   5.704   6.811
 6144SOL     OW30462   3.761   6.896   6.868
 6144SOL    HW130463   3.814   6.847   6.936
 6144SOL    HW230464   3.783   6.994   6.873
 6145SOL     OW30465   4.456   6.220   6.650
 6145SOL    HW130466   4.515   6.194   6.574
 6145SOL    HW230467   4.428   6.316   6.639
 6146SOL     OW30468   4.031   5.649   6.204
 6146SOL    HW130469   4.020   5.743   6.237
 6146SOL    HW230470   4.026   5.586   6.281
 6147SOL     OW30471   4.747   6.352   6.552
 6147SOL    HW130472   4.762   6.373   6.648
 6147SOL    HW230473   4.717   6.257   6.543
 6148SOL     OW30474   5.264   5.860   5.711
 6148SOL    HW130475   5.203   5.785   5.734
 6148SOL    HW230476   5.286   5.912   5.794
 6149SOL     OW30477   5.027   6.424   5.628
 6149SOL    HW130478   5.061   6.331   5.643
 6149SOL    HW230479   5.045   6.451   5.533
 6150SOL     OW30480   4.792   6.919   6.435
 6150SOL    HW130481   4.799   6.835   6.380
 6150SOL    HW230482   4.854   6.988   6.399
 6151SOL     OW30483   4.043   6.396   6.535
 6151SOL    HW130484   4.136   6.432   6.540
 6151SOL    HW230485   4.037   6.311   6.587
 6152SOL     OW30486   4.063   6.095   6.592
 6152SOL    HW130487   4.011   6.012   6.575
 6152SOL    HW230488   4.140   6.100   6.528
 6153SOL     OW30489   4.884   5.793   7.063
 6153SOL    HW130490   4.884   5.857   7.140
 6153SOL    HW230491   4.912   5.841   6.980
 6154SOL     OW30492   3.732   6.912   5.786
 6154SOL    HW130493   3.639   6.933   5.755
 6154SOL    HW230494   3.742   6.813   5.799
 6155SOL     OW30495   3.812   7.387   6.513
 6155SOL    HW130496   3.770   7.301   6.486
 6155SOL    HW230497   3.906   7.390   6.479
 6156SOL     OW30498   4.228   7.154   6.496
 6156SOL    HW130499   4.294   7.228   6.505
 6156SOL    HW230500   4.272   7.075   6.454
 6157SOL     OW30501   4.726   6.382   6.824
 6157SOL    HW130502   4.767   6.350   6.910
 6157SOL    HW230503   4.630   6.355   6.821
 6158SOL     OW30504   3.764   6.130   6.700
 6158SOL    HW130505   3.849   6.097   6.659
 6158SOL    HW230506   3.777   6.145   6.798
 6159SOL     OW30507   4.539   6.158   5.911
 6159SOL    HW130508   4.546   6.069   5.865
 6159SOL    HW230509   4.445   6.192   5.903
 6160SOL     OW30510   5.381   6.190   6.792
 6160SOL    HW130511   5.343   6.121   6.854
 6160SOL    HW230512   5.463   6.154   6.748
 6161SOL     OW30513   4.395   6.050   6.855
 6161SOL    HW130514   4.361   5.961   6.825
 6161SOL    HW230515   4.421   6.104   6.775
 6162SOL     OW30516   4.654   7.264   7.051
 6162SOL    HW130517   4.630   7.246   6.956
 6162SOL    HW230518   4.684   7.358   7.061
 6163SOL     OW30519   4.197   6.086   5.777
 6163SOL    HW130520   4.258   6.166   5.781
 6163SOL    HW230521   4.102   6.117   5.784
 6164SOL     OW30522   5.071   6.645   6.820
 6164SOL    HW130523   5.095   6.582   6.746
 6164SOL    HW230524   4.981   6.685   6.802
 6165SOL     OW30525   5.026   6.441   5.895
 6165SOL    HW130526   4.940   6.410   5.937
 6165SOL    HW230527   5.022   6.427   5.796
 6166SOL     OW30528   5.483   7.333   6.740
 6166SOL    HW130529   5.544   7.363   6.667
 6166SOL    HW230530   5.445   7.244   6.718
 6167SOL     OW30531   4.976   7.317   6.714
 6167SOL    HW130532   5.060   7.322   6.660
 6167SOL    HW230533   4.953   7.221   6.732
 6168SOL     OW30534   3.807   6.844   6.608
 6168SOL    HW130535   3.802   6.843   6.708
 6168SOL    HW230536   3.724   6.803   6.570
 6169SOL     OW30537   5.112   7.159   6.063
 6169SOL    HW130538   5.179   7.171   5.989
 6169SOL    HW230539   5.072   7.248   6.086
 6170SOL     OW30540   5.004   6.513   6.258
 6170SOL    HW130541   5.064   6.432   6.260
 6170SOL    HW230542   5.044   6.582   6.198
 6171SOL     OW30543   5.374   7.306   6.980
 6171SOL    HW130544   5.427   7.316   6.896
 6171SOL    HW230545   5.347   7.396   7.014
 6172SOL     OW30546   5.565   5.761   6.549
 6172SOL    HW130547   5.604   5.676   6.513
 6172SOL    HW230548   5.467   5.763   6.530
 6173SOL     OW30549   3.987   5.912   6.306
 6173SOL    HW130550   3.908   5.963   6.272
 6173SOL    HW230551   3.978   5.897   6.404
 6174SOL     OW30552   4.918   7.198   5.617
 6174SOL    HW130553   4.924   7.105   5.654
 6174SOL    HW230554   4.859   7.198   5.537
 6175SOL     OW30555   4.546   6.588   6.958
 6175SOL    HW130556   4.586   6.587   6.866
 6175SOL    HW230557   4.556   6.680   6.998
 6176SOL     OW30558   4.640   6.496   5.877
 6176SOL    HW130559   4.703   6.534   5.809
 6176SOL    HW230560   4.680   6.413   5.916
 6177SOL     OW30561   4.763   6.684   6.282
 6177SOL    HW130562   4.693   6.637   6.336
 6177SOL    HW230563   4.822   6.616   6.239
 6178SOL     OW30564   4.738   5.822   6.557
 6178SOL    HW130565   4.730   5.786   6.464
 6178SOL    HW230566   4.736   5.746   6.622
 6179SOL     OW30567   4.314   7.073   6.077
 6179SOL    HW130568   4.356   7.015   6.007
 6179SOL    HW230569   4.270   7.152   6.033
 6180SOL     OW30570   5.433   5.971   6.967
 6180SOL    HW130571   5.506   6.040   6.971
 6180SOL    HW230572   5.461   5.896   6.908
 6181SOL     OW30573   3.979   6.934   5.876
 6181SOL    HW130574   3.883   6.935   5.849
 6181SOL    HW230575   3.991   6.987   5.960
 6182SOL     OW30576   3.799   5.931   5.619
 6182SOL    HW130577   3.707   5.903   5.590
 6182SOL    HW230578   3.830   6.008   5.563
 6183SOL     OW30579   3.796   5.752   5.904
 6183SOL    HW130580   3.779   5.835   5.850
 6183SOL    HW230581   3.886   5.715   5.882
 6184SOL     OW30582   4.907   6.921   5.705
 6184SOL    HW130583   4.808   6.910   5.707
 6184SOL    HW230584   4.941   6.936   5.798
 6185SOL     OW30585   5.217   7.353   6.545
 6185SOL    HW130586   5.250   7.417   6.476
 6185SOL    HW230587   5.283   7.347   6.620
 6186SOL     OW30588   5.174   6.806   7.219
 6186SOL    HW130589   5.165   6.796   7.318
 6186SOL    HW230590   5.270   6.799   7.193
 6187SOL     OW30591   5.398   6.469   6.840
 6187SOL    HW130592   5.371   6.380   6.803
 6187SOL    HW230593   5.399   6.537   6.767
 6188SOL     OW30594   4.949   5.911   6.035
 6188SOL    HW130595   5.014   5.837   6.024
 6188SOL    HW230596   4.969   5.961   6.119
 6189SOL     OW30597   4.318   6.331   6.238
 6189SOL    HW130598   4.368   6.416   6.219
 6189SOL    HW230599   4.230   6.333   6.190
 6190SOL     OW30600   5.454   6.520   7.103
 6190SOL    HW130601   5.492   6.611   7.118
 6190SOL    HW230602   5.446   6.503   7.004
 6191SOL     OW30603   4.583   6.960   5.602
 6191SOL    HW130604   4.537   6.975   5.690
 6191SOL    HW230605   4.627   7.045   5.572
 6192SOL     OW30606   4.385   7.376   6.539
 6192SOL    HW130607   4.339   7.464   6.526
 6192SOL    HW230608   4.484   7.388   6.532
 6193SOL     OW30609   4.583   6.542   6.447
 6193SOL    HW130610   4.637   6.473   6.495
 6193SOL    HW230611   4.551   6.611   6.513
 6194SOL     OW30612   4.807   6.570   5.673
 6194SOL    HW130613   4.784   6.623   5.591
 6194SOL    HW230614   4.888   6.514   5.654
 6195SOL     OW30615   5.585   7.155   6.437
 6195SOL    HW130616   5.514   7.143   6.367
 6195SOL    HW230617   5.586   7.076   6.497
 6196SOL     OW30618   3.803   6.826   6.239
 6196SOL    HW130619   3.802   6.779   6.327
 6196SOL    HW230620   3.885   6.798   6.188
 6197SOL     OW30621   5.548   5.778   6.813
 6197SOL    HW130622   5.544   5.688   6.857
 6197SOL    HW230623   5.551   5.767   6.714
 6198SOL     OW30624   4.152   6.010   6.106
 6198SOL    HW130625   4.182   5.938   6.044
 6198SOL    HW230626   4.113   5.970   6.189
 6199SOL     OW30627   5.429   7.073   6.690
 6199SOL    HW130628   5.336   7.048   6.663
 6199SOL    HW230629   5.455   7.023   6.772
 6200SOL     OW30630   4.536   7.172   6.273
 6200SOL    HW130631   4.568   7.182   6.179
 6200SOL    HW230632   4.457   7.110   6.275
 6201SOL     OW30633   5.148   5.800   6.698
 6201SOL    HW130634   5.200   5.735   6.753
 6201SOL    HW230635   5.099   5.863   6.759
 6202SOL     OW30636   4.725   5.620   6.740
 6202SOL    HW130637   4.662   5.548   6.709
 6202SOL    HW230638   4.818   5.584   6.740
 6203SOL     OW30639   4.494   6.916   5.887
 6203SOL    HW130640   4.448   6.829   5.904
 6203SOL    HW230641   4.585   6.913   5.928
 6204SOL     OW30642   5.076   5.638   5.754
 6204SOL    HW130643   5.111   5.597   5.670
 6204SOL    HW230644   4.986   5.600   5.774
 6205SOL     OW30645   5.024   6.039   6.277
 6205SOL    HW130646   4.965   6.119   6.281
 6205SOL    HW230647   5.039   6.004   6.370
 6206SOL     OW30648   5.317   5.807   6.468
 6206SOL    HW130649   5.233   5.806   6.522
 6206SOL    HW230650   5.319   5.890   6.412
 6207SOL     OW30651   3.763   6.663   5.886
 6207SOL    HW130652   3.862   6.652   5.877
 6207SOL    HW230653   3.723   6.577   5.918
 6208SOL     OW30654   4.599   7.232   5.923
 6208SOL    HW130655   4.522   7.197   5.869
 6208SOL    HW230656   4.567   7.303   5.985
 6209SOL     OW30657   3.954   8.076   0.113
 6209SOL    HW130658   3.861   8.074   0.150
 6209SOL    HW230659   3.955   8.037   0.021
 6210SOL     OW30660   3.949   7.723   0.996
 6210SOL    HW130661   3.984   7.706   1.088
 6210SOL    HW230662   3.861   7.678   0.984
 6211SOL     OW30663   3.743   7.816   0.647
 6211SOL    HW130664   3.661   7.859   0.686
 6211SOL    HW230665   3.715   7.743   0.584
 6212SOL     OW30666   4.859   8.151   0.717
 6212SOL    HW130667   4.916   8.229   0.692
 6212SOL    HW230668   4.799   8.177   0.793
 6213SOL     OW30669   5.479   8.055   0.231
 6213SOL    HW130670   5.467   8.042   0.132
 6213SOL    HW230671   5.449   7.974   0.280
 6214SOL     OW30672   4.492   8.592   1.023
 6214SOL    HW130673   4.414   8.609   1.083
 6214SOL    HW230674   4.526   8.679   0.987
 6215SOL     OW30675   4.409   8.460   0.665
 6215SOL    HW130676   4.478   8.444   0.735
 6215SOL    HW230677   4.336   8.517   0.703
 6216SOL     OW30678   4.162   7.840   1.499
 6216SOL    HW130679   4.244   7.784   1.508
 6216SOL    HW230680   4.081   7.782   1.503
 6217SOL     OW30681   5.327   7.895   0.737
 6217SOL    HW130682   5.253   7.941   0.687
 6217SOL    HW230683   5.378   7.963   0.790
 6218SOL     OW30684   3.964   8.539   0.886
 6218SOL    HW130685   3.978   8.455   0.938
 6218SOL    HW230686   3.909   8.603   0.941
 6219SOL     OW30687   5.318   7.562   1.480
 6219SOL    HW130688   5.300   7.629   1.408
 6219SOL    HW230689   5.315   7.608   1.569
 6220SOL     OW30690   3.846   8.091   0.563
 6220SOL    HW130691   3.801   8.003   0.580
 6220SOL    HW230692   3.845   8.145   0.647
 6221SOL     OW30693   4.533   7.452   0.502
 6221SOL    HW130694   4.573   7.543   0.493
 6221SOL    HW230695   4.433   7.460   0.508
 6222SOL     OW30696   3.921   8.424   1.264
 6222SOL    HW130697   4.010   8.379   1.250
 6222SOL    HW230698   3.848   8.359   1.245
 6223SOL     OW30699   5.249   8.447   0.190
 6223SOL    HW130700   5.186   8.371   0.203
 6223SOL    HW230701   5.297   8.465   0.276
 6224SOL     OW30702   4.322   8.177   0.270
 6224SOL    HW130703   4.346   8.246   0.202
 6224SOL    HW230704   4.244   8.210   0.324
 6225SOL     OW30705   5.005   7.793   0.944
 6225SOL    HW130706   4.919   7.743   0.931
 6225SOL    HW230707   5.067   7.739   1.000
 6226SOL     OW30708   4.531   8.053   1.465
 6226SOL    HW130709   4.484   8.050   1.554
 6226SOL    HW230710   4.480   7.998   1.399
 6227SOL     OW30711   5.118   7.917   1.674
 6227SOL    HW130712   5.098   7.960   1.762
 6227SOL    HW230713   5.196   7.855   1.683
 6228SOL     OW30714   4.715   7.858   1.242
 6228SOL    HW130715   4.638   7.892   1.296
 6228SOL    HW230716   4.681   7.807   1.163
 6229SOL     OW30717   4.765   8.149   0.429
 6229SOL    HW130718   4.791   8.145   0.525
 6229SOL    HW230719   4.680   8.098   0.415
 6230SOL     OW30720   3.800   8.259   0.789
 6230SOL    HW130721   3.899   8.247   0.798
 6230SOL    HW230722   3.776   8.354   0.810
 6231SOL     OW30723   4.589   7.796   0.195
 6231SOL    HW130724   4.648   7.859   0.146
 6231SOL    HW230725   4.608   7.702   0.166
 6232SOL     OW30726   5.443   8.033   1.831
 6232SOL    HW130727   5.417   8.122   1.795
 6232SOL    HW230728   5.441   7.965   1.758
 6233SOL     OW30729   4.274   7.644   0.885
 6233SOL    HW130730   4.269   7.639   0.985
 6233SOL    HW230731   4.276   7.740   0.856
 6234SOL     OW30732   5.182   8.183   0.728
 6234SOL    HW130733   5.177   8.118   0.803
 6234SOL    HW230734   5.262   8.242   0.741
 6235SOL     OW30735   3.926   7.733   1.498
 6235SOL    HW130736   3.846   7.793   1.485
 6235SOL    HW230737   3.916   7.684   1.584
 6236SOL     OW30738   5.124   7.555   0.426
 6236SOL    HW130739   5.100   7.518   0.336
 6236SOL    HW230740   5.223   7.571   0.430
 6237SOL     OW30741   4.106   8.148   0.480
 6237SOL    HW130742   4.151   8.058   0.477
 6237SOL    HW230743   4.012   8.137   0.513
 6238SOL     OW30744   4.338   7.570   0.117
 6238SOL    HW130745   4.436   7.548   0.124
 6238SOL    HW230746   4.307   7.553   0.024
 6239SOL     OW30747   5.075   8.038   1.433
 6239SOL    HW130748   5.103   7.995   1.518
 6239SOL    HW230749   5.100   8.134   1.434
 6240SOL     OW30750   4.646   7.951   0.899
 6240SOL    HW130751   4.621   7.942   0.803
 6240SOL    HW230752   4.694   7.869   0.930
 6241SOL     OW30753   4.263   7.512   0.512
 6241SOL    HW130754   4.182   7.513   0.570
 6241SOL    HW230755   4.266   7.595   0.457
 6242SOL     OW30756   4.021   7.483   0.171
 6242SOL    HW130757   4.070   7.567   0.150
 6242SOL    HW230758   4.083   7.418   0.216
 6243SOL     OW30759   4.659   7.684   0.480
 6243SOL    HW130760   4.611   7.725   0.402
 6243SOL    HW230761   4.758   7.682   0.461
 6244SOL     OW30762   4.800   8.131   1.464
 6244SOL    HW130763   4.720   8.070   1.467
 6244SOL    HW230764   4.881   8.078   1.440
 6245SOL     OW30765   4.756   7.997   0.016
 6245SOL    HW130766   4.715   8.079  -0.023
 6245SOL    HW230767   4.820   8.023   0.089
 6246SOL     OW30768   3.802   8.004   1.386
 6246SOL    HW130769   3.894   8.003   1.345
 6246SOL    HW230770   3.796   8.078   1.453
 6247SOL     OW30771   4.285   7.670   1.147
 6247SOL    HW130772   4.323   7.586   1.184
 6247SOL    HW230773   4.197   7.689   1.191
 6248SOL     OW30774   4.590   7.902   0.642
 6248SOL    HW130775   4.558   7.974   0.580
 6248SOL    HW230776   4.614   7.821   0.589
 6249SOL     OW30777   4.741   7.487   0.753
 6249SOL    HW130778   4.669   7.492   0.684
 6249SOL    HW230779   4.717   7.418   0.822
 6250SOL     OW30780   5.190   8.038   0.992
 6250SOL    HW130781   5.160   7.943   0.999
 6250SOL    HW230782   5.263   8.054   1.058
 6251SOL     OW30783   5.581   8.281   0.377
 6251SOL    HW130784   5.623   8.217   0.441
 6251SOL    HW230785   5.543   8.230   0.299
 6252SOL     OW30786   5.114   8.023   0.078
 6252SOL    HW130787   5.060   8.002   0.159
 6252SOL    HW230788   5.205   7.982   0.087
 6253SOL     OW30789   4.251   7.704   0.328
 6253SOL    HW130790   4.278   7.645   0.253
 6253SOL    HW230791   4.251   7.799   0.297
 6254SOL     OW30792   5.362   8.547   1.079
 6254SOL    HW130793   5.367   8.628   1.138
 6254SOL    HW230794   5.276   8.549   1.028
 6255SOL     OW30795   4.639   7.537   1.402
 6255SOL    HW130796   4.664   7.517   1.307
 6255SOL    HW230797   4.711   7.593   1.444
 6256SOL     OW30798   4.134   8.261   1.251
 6256SOL    HW130799   4.220   8.273   1.301
 6256SOL    HW230800   4.092   8.174   1.278
 6257SOL     OW30801   4.998   7.834   1.262
 6257SOL    HW130802   5.019   7.908   1.326
 6257SOL    HW230803   4.909   7.851   1.219
 6258SOL     OW30804   4.290   7.985   0.865
 6258SOL    HW130805   4.302   8.051   0.791
 6258SOL    HW230806   4.336   8.019   0.948
 6259SOL     OW30807   5.306   8.087   0.472
 6259SOL    HW130808   5.275   8.148   0.545
 6259SOL    HW230809   5.356   8.139   0.403
 6260SOL     OW30810   5.311   8.227   1.670
 6260SOL    HW130811   5.219   8.265   1.665
 6260SOL    HW230812   5.371   8.274   1.605
 6261SOL     OW30813   4.228   7.498   1.740
 6261SOL    HW130814   4.186   7.441   1.670
 6261SOL    HW230815   4.162   7.567   1.772
 6262SOL     OW30816   4.297   8.318   1.029
 6262SOL    HW130817   4.341   8.407   1.020
 6262SOL    HW230818   4.234   8.318   1.106
 6263SOL     OW30819   5.084   8.310   1.045
 6263SOL    HW130820   5.009   8.310   0.979
 6263SOL    HW230821   5.121   8.218   1.054
 6264SOL     OW30822   4.933   7.973   0.275
 6264SOL    HW130823   4.946   7.889   0.329
 6264SOL    HW230824   4.904   8.047   0.335
 6265SOL     OW30825   4.031   7.661   1.231
 6265SOL    HW130826   4.008   7.698   1.321
 6265SOL    HW230827   4.001   7.566   1.225
 6266SOL     OW30828   4.456   8.082   1.064
 6266SOL    HW130829   4.515   8.056   0.988
 6266SOL    HW230830   4.428   8.178   1.053
 6267SOL     OW30831   5.452   8.383   1.854
 6267SOL    HW130832   5.406   8.376   1.765
 6267SOL    HW230833   5.390   8.427   1.920
 6268SOL     OW30834   4.031   7.511   0.618
 6268SOL    HW130835   4.020   7.605   0.651
 6268SOL    HW230836   4.026   7.448   0.695
 6269SOL     OW30837   5.346   7.815   0.374
 6269SOL    HW130838   5.348   7.739   0.438
 6269SOL    HW230839   5.298   7.892   0.414
 6270SOL     OW30840   4.747   8.214   0.966
 6270SOL    HW130841   4.762   8.235   1.062
 6270SOL    HW230842   4.717   8.119   0.957
 6271SOL     OW30843   4.074   8.346   1.804
 6271SOL    HW130844   4.150   8.390   1.852
 6271SOL    HW230845   4.109   8.299   1.722
 6272SOL     OW30846   5.264   7.722   0.125
 6272SOL    HW130847   5.203   7.647   0.148
 6272SOL    HW230848   5.286   7.774   0.208
 6273SOL     OW30849   5.027   8.286   0.042
 6273SOL    HW130850   5.061   8.193   0.057
 6273SOL    HW230851   5.045   8.313  -0.053
 6274SOL     OW30852   4.043   8.258   0.949
 6274SOL    HW130853   4.136   8.294   0.954
 6274SOL    HW230854   4.037   8.173   1.001
 6275SOL     OW30855   4.063   7.957   1.006
 6275SOL    HW130856   4.011   7.874   0.989
 6275SOL    HW230857   4.140   7.962   0.942
 6276SOL     OW30858   4.884   7.655   1.477
 6276SOL    HW130859   4.884   7.719   1.554
 6276SOL    HW230860   4.912   7.703   1.394
 6277SOL     OW30861   4.726   8.244   1.238
 6277SOL    HW130862   4.767   8.212   1.324
 6277SOL    HW230863   4.630   8.217   1.235
 6278SOL     OW30864   3.764   7.992   1.114
 6278SOL    HW130865   3.849   7.959   1.073
 6278SOL    HW230866   3.777   8.007   1.212
 6279SOL     OW30867   5.093   8.398   1.660
 6279SOL    HW130868   5.132   8.487   1.680
 6279SOL    HW230869   5.103   8.378   1.563
 6280SOL     OW30870   4.539   8.020   0.325
 6280SOL    HW130871   4.546   7.931   0.279
 6280SOL    HW230872   4.445   8.054   0.317
 6281SOL     OW30873   5.381   8.052   1.206
 6281SOL    HW130874   5.343   7.983   1.268
 6281SOL    HW230875   5.463   8.016   1.162
 6282SOL     OW30876   4.395   7.912   1.269
 6282SOL    HW130877   4.361   7.823   1.239
 6282SOL    HW230878   4.421   7.966   1.189
 6283SOL     OW30879   4.197   7.948   0.191
 6283SOL    HW130880   4.258   8.028   0.195
 6283SOL    HW230881   4.102   7.979   0.198
 6284SOL     OW30882   3.883   8.585   1.466
 6284SOL    HW130883   3.905   8.524   1.542
 6284SOL    HW230884   3.893   8.536   1.380
 6285SOL     OW30885   5.071   8.507   1.234
 6285SOL    HW130886   5.095   8.444   1.160
 6285SOL    HW230887   4.981   8.547   1.216
 6286SOL     OW30888   5.026   8.303   0.309
 6286SOL    HW130889   4.940   8.272   0.351
 6286SOL    HW230890   5.022   8.289   0.210
 6287SOL     OW30891   4.627   7.534   0.133
 6287SOL    HW130892   4.678   7.535   0.047
 6287SOL    HW230893   4.683   7.492   0.204
 6288SOL     OW30894   5.450   7.583   0.523
 6288SOL    HW130895   5.523   7.566   0.456
 6288SOL    HW230896   5.419   7.496   0.561
 6289SOL     OW30897   5.004   8.375   0.672
 6289SOL    HW130898   5.064   8.294   0.674
 6289SOL    HW230899   5.044   8.444   0.612
 6290SOL     OW30900   5.565   7.623   0.963
 6290SOL    HW130901   5.604   7.538   0.927
 6290SOL    HW230902   5.467   7.625   0.944
 6291SOL     OW30903   3.987   7.774   0.720
 6291SOL    HW130904   3.908   7.825   0.686
 6291SOL    HW230905   3.978   7.759   0.818
 6292SOL     OW30906   4.640   8.358   0.291
 6292SOL    HW130907   4.703   8.396   0.223
 6292SOL    HW230908   4.680   8.275   0.330
 6293SOL     OW30909   4.738   7.684   0.971
 6293SOL    HW130910   4.730   7.648   0.878
 6293SOL    HW230911   4.736   7.608   1.036
 6294SOL     OW30912   5.433   7.833   1.381
 6294SOL    HW130913   5.506   7.902   1.385
 6294SOL    HW230914   5.461   7.758   1.322
 6295SOL     OW30915   4.396   7.651   1.489
 6295SOL    HW130916   4.486   7.635   1.449
 6295SOL    HW230917   4.404   7.656   1.588
 6296SOL     OW30918   5.164   8.304   1.398
 6296SOL    HW130919   5.107   8.356   1.335
 6296SOL    HW230920   5.260   8.316   1.374
 6297SOL     OW30921   3.796   7.614   0.318
 6297SOL    HW130922   3.779   7.697   0.264
 6297SOL    HW230923   3.886   7.577   0.296
 6298SOL     OW30924   4.337   8.290   1.431
 6298SOL    HW130925   4.393   8.371   1.414
 6298SOL    HW230926   4.396   8.210   1.434
 6299SOL     OW30927   5.398   8.331   1.254
 6299SOL    HW130928   5.371   8.242   1.217
 6299SOL    HW230929   5.399   8.399   1.181
 6300SOL     OW30930   4.949   7.773   0.449
 6300SOL    HW130931   5.014   7.699   0.438
 6300SOL    HW230932   4.969   7.823   0.533
 6301SOL     OW30933   4.318   8.193   0.652
 6301SOL    HW130934   4.368   8.278   0.633
 6301SOL    HW230935   4.230   8.195   0.604
 6302SOL     OW30936   5.501   7.790   1.642
 6302SOL    HW130937   5.484   7.821   1.548
 6302SOL    HW230938   5.417   7.753   1.680
 6303SOL     OW30939   5.454   8.382   1.517
 6303SOL    HW130940   5.492   8.473   1.532
 6303SOL    HW230941   5.446   8.365   1.418
 6304SOL     OW30942   4.807   8.432   0.087
 6304SOL    HW130943   4.784   8.485   0.005
 6304SOL    HW230944   4.888   8.376   0.068
 6305SOL     OW30945   5.548   7.640   1.227
 6305SOL    HW130946   5.544   7.550   1.271
 6305SOL    HW230947   5.551   7.629   1.128
 6306SOL     OW30948   4.152   7.872   0.520
 6306SOL    HW130949   4.182   7.800   0.458
 6306SOL    HW230950   4.113   7.832   0.603
 6307SOL     OW30951   4.041   7.995   1.280
 6307SOL    HW130952   4.079   7.936   1.352
 6307SOL    HW230953   4.081   7.969   1.192
 6308SOL     OW30954   5.148   7.662   1.112
 6308SOL    HW130955   5.200   7.597   1.167
 6308SOL    HW230956   5.099   7.725   1.173
 6309SOL     OW30957   4.725   7.482   1.154
 6309SOL    HW130958   4.662   7.410   1.123
 6309SOL    HW230959   4.818   7.446   1.154
 6310SOL     OW30960   5.076   7.500   0.168
 6310SOL    HW130961   5.111   7.459   0.084
 6310SOL    HW230962   4.986   7.462   0.188
 6311SOL     OW30963   5.024   7.901   0.691
 6311SOL    HW130964   4.965   7.981   0.695
 6311SOL    HW230965   5.039   7.866   0.784
 6312SOL     OW30966   5.317   7.669   0.882
 6312SOL    HW130967   5.233   7.668   0.936
 6312SOL    HW230968   5.319   7.752   0.826
 6313SOL     OW30969   3.763   8.525   0.300
 6313SOL    HW130970   3.862   8.514   0.291
 6313SOL    HW230971   3.723   8.439   0.332
 6314SOL     OW30972   3.949   7.723   2.858
 6314SOL    HW130973   3.984   7.706   2.950
 6314SOL    HW230974   3.861   7.678   2.846
 6315SOL     OW30975   4.409   8.460   2.527
 6315SOL    HW130976   4.478   8.444   2.597
 6315SOL    HW230977   4.336   8.517   2.565
 6316SOL     OW30978   5.249   8.447   2.052
 6316SOL    HW130979   5.186   8.371   2.065
 6316SOL    HW230980   5.297   8.465   2.138
 6317SOL     OW30981   4.041   7.699   3.663
 6317SOL    HW130982   4.112   7.770   3.669
 6317SOL    HW230983   3.953   7.738   3.691
 6318SOL     OW30984   4.322   8.177   2.132
 6318SOL    HW130985   4.346   8.246   2.064
 6318SOL    HW230986   4.244   8.210   2.186
 6319SOL     OW30987   5.005   7.793   2.806
 6319SOL    HW130988   4.919   7.743   2.793
 6319SOL    HW230989   5.067   7.739   2.862
 6320SOL     OW30990   4.697   8.338   3.434
 6320SOL    HW130991   4.743   8.254   3.405
 6320SOL    HW230992   4.641   8.372   3.359
 6321SOL     OW30993   3.926   7.733   3.360
 6321SOL    HW130994   3.846   7.793   3.347
 6321SOL    HW230995   3.916   7.684   3.446
 6322SOL     OW30996   4.106   8.148   2.342
 6322SOL    HW130997   4.151   8.058   2.339
 6322SOL    HW230998   4.012   8.137   2.375
 6323SOL     OW30999   4.338   7.570   1.979
 6323SOL    HW131000   4.436   7.548   1.986
 6323SOL    HW231001   4.307   7.553   1.886
 6324SOL     OW31002   4.021   7.483   2.033
 6324SOL    HW131003   4.070   7.567   2.012
 6324SOL    HW231004   4.083   7.418   2.078
 6325SOL     OW31005   4.800   8.131   3.326
 6325SOL    HW131006   4.720   8.070   3.329
 6325SOL    HW231007   4.881   8.078   3.302
 6326SOL     OW31008   3.802   8.004   3.248
 6326SOL    HW131009   3.894   8.003   3.207
 6326SOL    HW231010   3.796   8.078   3.315
 6327SOL     OW31011   4.590   7.902   2.504
 6327SOL    HW131012   4.558   7.974   2.442
 6327SOL    HW231013   4.614   7.821   2.451
 6328SOL     OW31014   4.741   7.487   2.615
 6328SOL    HW131015   4.669   7.492   2.546
 6328SOL    HW231016   4.717   7.418   2.684
 6329SOL     OW31017   5.581   8.281   2.239
 6329SOL    HW131018   5.623   8.217   2.303
 6329SOL    HW231019   5.543   8.230   2.161
 6330SOL     OW31020   5.362   8.547   2.941
 6330SOL    HW131021   5.367   8.628   3.000
 6330SOL    HW231022   5.276   8.549   2.890
 6331SOL     OW31023   4.998   7.834   3.124
 6331SOL    HW131024   5.019   7.908   3.188
 6331SOL    HW231025   4.909   7.851   3.081
 6332SOL     OW31026   5.306   8.087   2.334
 6332SOL    HW131027   5.275   8.148   2.407
 6332SOL    HW231028   5.356   8.139   2.265
 6333SOL     OW31029   4.126   8.199   3.460
 6333SOL    HW131030   4.194   8.254   3.413
 6333SOL    HW231031   4.166   8.111   3.487
 6334SOL     OW31032   4.737   7.553   3.632
 6334SOL    HW131033   4.743   7.638   3.580
 6334SOL    HW231034   4.769   7.477   3.575
 6335SOL     OW31035   4.297   8.318   2.891
 6335SOL    HW131036   4.341   8.407   2.882
 6335SOL    HW231037   4.234   8.318   2.968
 6336SOL     OW31038   5.084   8.310   2.907
 6336SOL    HW131039   5.009   8.310   2.841
 6336SOL    HW231040   5.121   8.218   2.916
 6337SOL     OW31041   4.933   7.973   2.137
 6337SOL    HW131042   4.946   7.889   2.191
 6337SOL    HW231043   4.904   8.047   2.197
 6338SOL     OW31044   4.031   7.661   3.093
 6338SOL    HW131045   4.008   7.698   3.183
 6338SOL    HW231046   4.001   7.566   3.087
 6339SOL     OW31047   5.452   8.383   3.716
 6339SOL    HW131048   5.406   8.376   3.627
 6339SOL    HW231049   5.390   8.427   3.782
 6340SOL     OW31050   4.074   8.346   3.666
 6340SOL    HW131051   4.150   8.390   3.714
 6340SOL    HW231052   4.109   8.299   3.584
 6341SOL     OW31053   4.043   8.258   2.811
 6341SOL    HW131054   4.136   8.294   2.816
 6341SOL    HW231055   4.037   8.173   2.863
 6342SOL     OW31056   4.884   7.655   3.339
 6342SOL    HW131057   4.884   7.719   3.416
 6342SOL    HW231058   4.912   7.703   3.256
 6343SOL     OW31059   4.726   8.244   3.100
 6343SOL    HW131060   4.767   8.212   3.186
 6343SOL    HW231061   4.630   8.217   3.097
 6344SOL     OW31062   3.913   7.968   3.584
 6344SOL    HW131063   3.972   7.928   3.514
 6344SOL    HW231064   3.855   8.039   3.543
 6345SOL     OW31065   5.093   8.398   3.522
 6345SOL    HW131066   5.132   8.487   3.542
 6345SOL    HW231067   5.103   8.378   3.425
 6346SOL     OW31068   4.539   8.020   2.187
 6346SOL    HW131069   4.546   7.931   2.141
 6346SOL    HW231070   4.445   8.054   2.179
 6347SOL     OW31071   3.883   8.585   3.328
 6347SOL    HW131072   3.905   8.524   3.404
 6347SOL    HW231073   3.893   8.536   3.242
 6348SOL     OW31074   5.026   8.303   2.171
 6348SOL    HW131075   4.940   8.272   2.213
 6348SOL    HW231076   5.022   8.289   2.072
 6349SOL     OW31077   3.829   8.461   3.588
 6349SOL    HW131078   3.752   8.428   3.642
 6349SOL    HW231079   3.914   8.431   3.630
 6350SOL     OW31080   4.396   7.651   3.351
 6350SOL    HW131081   4.486   7.635   3.311
 6350SOL    HW231082   4.404   7.656   3.450
 6351SOL     OW31083   4.318   8.193   2.514
 6351SOL    HW131084   4.368   8.278   2.495
 6351SOL    HW231085   4.230   8.195   2.466
 6352SOL     OW31086   5.548   7.640   3.089
 6352SOL    HW131087   5.544   7.550   3.133
 6352SOL    HW231088   5.551   7.629   2.990
 6353SOL     OW31089   4.152   7.872   2.382
 6353SOL    HW131090   4.182   7.800   2.320
 6353SOL    HW231091   4.113   7.832   2.465
 6354SOL     OW31092   5.148   7.662   2.974
 6354SOL    HW131093   5.200   7.597   3.029
 6354SOL    HW231094   5.099   7.725   3.035
 6355SOL     OW31095   5.024   7.901   2.553
 6355SOL    HW131096   4.965   7.981   2.557
 6355SOL    HW231097   5.039   7.866   2.646
 6356SOL     OW31098   5.317   7.669   2.744
 6356SOL    HW131099   5.233   7.668   2.798
 6356SOL    HW231100   5.319   7.752   2.688
 6357SOL     OW31101   3.949   7.723   4.720
 6357SOL    HW131102   3.984   7.706   4.812
 6357SOL    HW231103   3.861   7.678   4.708
 6358SOL     OW31104   4.859   8.151   4.441
 6358SOL    HW131105   4.916   8.229   4.416
 6358SOL    HW231106   4.799   8.177   4.517
 6359SOL     OW31107   3.846   8.091   4.287
 6359SOL    HW131108   3.801   8.003   4.304
 6359SOL    HW231109   3.845   8.145   4.371
 6360SOL     OW31110   4.041   7.699   5.525
 6360SOL    HW131111   4.112   7.770   5.531
 6360SOL    HW231112   3.953   7.738   5.553
 6361SOL     OW31113   4.531   8.053   5.189
 6361SOL    HW131114   4.484   8.050   5.278
 6361SOL    HW231115   4.480   7.998   5.123
 6362SOL     OW31116   5.118   7.917   5.398
 6362SOL    HW131117   5.098   7.960   5.486
 6362SOL    HW231118   5.196   7.855   5.407
 6363SOL     OW31119   4.715   7.858   4.966
 6363SOL    HW131120   4.638   7.892   5.020
 6363SOL    HW231121   4.681   7.807   4.887
 6364SOL     OW31122   4.765   8.149   4.153
 6364SOL    HW131123   4.791   8.145   4.249
 6364SOL    HW231124   4.680   8.098   4.139
 6365SOL     OW31125   3.926   7.733   5.222
 6365SOL    HW131126   3.846   7.793   5.209
 6365SOL    HW231127   3.916   7.684   5.308
 6366SOL     OW31128   5.124   7.555   4.150
 6366SOL    HW131129   5.100   7.518   4.060
 6366SOL    HW231130   5.223   7.571   4.154
 6367SOL     OW31131   5.271   7.670   5.453
 6367SOL    HW131132   5.266   7.707   5.545
 6367SOL    HW231133   5.199   7.601   5.441
 6368SOL     OW31134   4.505   7.712   5.473
 6368SOL    HW131135   4.572   7.651   5.516
 6368SOL    HW231136   4.432   7.731   5.538
 6369SOL     OW31137   5.075   8.038   5.157
 6369SOL    HW131138   5.103   7.995   5.242
 6369SOL    HW231139   5.100   8.134   5.158
 6370SOL     OW31140   4.800   8.131   5.188
 6370SOL    HW131141   4.720   8.070   5.191
 6370SOL    HW231142   4.881   8.078   5.164
 6371SOL     OW31143   4.639   7.537   5.126
 6371SOL    HW131144   4.664   7.517   5.031
 6371SOL    HW231145   4.711   7.593   5.168
 6372SOL     OW31146   4.126   8.199   5.322
 6372SOL    HW131147   4.194   8.254   5.275
 6372SOL    HW231148   4.166   8.111   5.349
 6373SOL     OW31149   4.737   7.553   5.494
 6373SOL    HW131150   4.743   7.638   5.442
 6373SOL    HW231151   4.769   7.477   5.437
 6374SOL     OW31152   4.228   7.498   5.464
 6374SOL    HW131153   4.186   7.441   5.394
 6374SOL    HW231154   4.162   7.567   5.496
 6375SOL     OW31155   5.084   8.310   4.769
 6375SOL    HW131156   5.009   8.310   4.703
 6375SOL    HW231157   5.121   8.218   4.778
 6376SOL     OW31158   4.031   7.661   4.955
 6376SOL    HW131159   4.008   7.698   5.045
 6376SOL    HW231160   4.001   7.566   4.949
 6377SOL     OW31161   5.452   8.383   5.578
 6377SOL    HW131162   5.406   8.376   5.489
 6377SOL    HW231163   5.390   8.427   5.644
 6378SOL     OW31164   4.031   7.511   4.342
 6378SOL    HW131165   4.020   7.605   4.375
 6378SOL    HW231166   4.026   7.448   4.419
 6379SOL     OW31167   4.074   8.346   5.528
 6379SOL    HW131168   4.150   8.390   5.576
 6379SOL    HW231169   4.109   8.299   5.446
 6380SOL     OW31170   5.027   8.286   3.766
 6380SOL    HW131171   5.061   8.193   3.781
 6380SOL    HW231172   5.045   8.313   3.671
 6381SOL     OW31173   4.862   7.828   5.402
 6381SOL    HW131174   4.817   7.891   5.466
 6381SOL    HW231175   4.955   7.859   5.385
 6382SOL     OW31176   4.884   7.655   5.201
 6382SOL    HW131177   4.884   7.719   5.278
 6382SOL    HW231178   4.912   7.703   5.118
 6383SOL     OW31179   3.764   7.992   4.838
 6383SOL    HW131180   3.849   7.959   4.797
 6383SOL    HW231181   3.777   8.007   4.936
 6384SOL     OW31182   5.093   8.398   5.384
 6384SOL    HW131183   5.132   8.487   5.404
 6384SOL    HW231184   5.103   8.378   5.287
 6385SOL     OW31185   4.395   7.912   4.993
 6385SOL    HW131186   4.361   7.823   4.963
 6385SOL    HW231187   4.421   7.966   4.913
 6386SOL     OW31188   5.004   8.375   4.396
 6386SOL    HW131189   5.064   8.294   4.398
 6386SOL    HW231190   5.044   8.444   4.336
 6387SOL     OW31191   4.640   8.358   4.015
 6387SOL    HW131192   4.703   8.396   3.947
 6387SOL    HW231193   4.680   8.275   4.054
 6388SOL     OW31194   3.829   8.461   5.450
 6388SOL    HW131195   3.752   8.428   5.504
 6388SOL    HW231196   3.914   8.431   5.492
 6389SOL     OW31197   4.396   7.651   5.213
 6389SOL    HW131198   4.486   7.635   5.173
 6389SOL    HW231199   4.404   7.656   5.312
 6390SOL     OW31200   4.337   8.290   5.155
 6390SOL    HW131201   4.393   8.371   5.138
 6390SOL    HW231202   4.396   8.210   5.158
 6391SOL     OW31203   4.440   8.013   5.432
 6391SOL    HW131204   4.459   8.078   5.506
 6391SOL    HW231205   4.500   7.933   5.441
 6392SOL     OW31206   3.954   8.076   5.699
 6392SOL    HW131207   3.861   8.074   5.736
 6392SOL    HW231208   3.955   8.037   5.607
 6393SOL     OW31209   3.949   7.723   6.582
 6393SOL    HW131210   3.984   7.706   6.674
 6393SOL    HW231211   3.861   7.678   6.570
 6394SOL     OW31212   3.743   7.816   6.233
 6394SOL    HW131213   3.661   7.859   6.272
 6394SOL    HW231214   3.715   7.743   6.170
 6395SOL     OW31215   4.859   8.151   6.303
 6395SOL    HW131216   4.916   8.229   6.278
 6395SOL    HW231217   4.799   8.177   6.379
 6396SOL     OW31218   5.479   8.055   5.817
 6396SOL    HW131219   5.467   8.042   5.718
 6396SOL    HW231220   5.449   7.974   5.866
 6397SOL     OW31221   4.492   8.592   6.609
 6397SOL    HW131222   4.414   8.609   6.669
 6397SOL    HW231223   4.526   8.679   6.573
 6398SOL     OW31224   4.409   8.460   6.251
 6398SOL    HW131225   4.478   8.444   6.321
 6398SOL    HW231226   4.336   8.517   6.289
 6399SOL     OW31227   5.327   7.895   6.323
 6399SOL    HW131228   5.253   7.941   6.273
 6399SOL    HW231229   5.378   7.963   6.376
 6400SOL     OW31230   3.964   8.539   6.472
 6400SOL    HW131231   3.978   8.455   6.524
 6400SOL    HW231232   3.909   8.603   6.527
 6401SOL     OW31233   3.846   8.091   6.149
 6401SOL    HW131234   3.801   8.003   6.166
 6401SOL    HW231235   3.845   8.145   6.233
 6402SOL     OW31236   4.533   7.452   6.088
 6402SOL    HW131237   4.573   7.543   6.079
 6402SOL    HW231238   4.433   7.460   6.094
 6403SOL     OW31239   3.921   8.424   6.850
 6403SOL    HW131240   4.010   8.379   6.836
 6403SOL    HW231241   3.848   8.359   6.831
 6404SOL     OW31242   5.249   8.447   5.776
 6404SOL    HW131243   5.186   8.371   5.789
 6404SOL    HW231244   5.297   8.465   5.862
 6405SOL     OW31245   4.322   8.177   5.856
 6405SOL    HW131246   4.346   8.246   5.788
 6405SOL    HW231247   4.244   8.210   5.910
 6406SOL     OW31248   5.005   7.793   6.530
 6406SOL    HW131249   4.919   7.743   6.517
 6406SOL    HW231250   5.067   7.739   6.586
 6407SOL     OW31251   4.715   7.858   6.828
 6407SOL    HW131252   4.638   7.892   6.882
 6407SOL    HW231253   4.681   7.807   6.749
 6408SOL     OW31254   4.765   8.149   6.015
 6408SOL    HW131255   4.791   8.145   6.111
 6408SOL    HW231256   4.680   8.098   6.001
 6409SOL     OW31257   3.800   8.259   6.375
 6409SOL    HW131258   3.899   8.247   6.384
 6409SOL    HW231259   3.776   8.354   6.396
 6410SOL     OW31260   4.589   7.796   5.781
 6410SOL    HW131261   4.648   7.859   5.732
 6410SOL    HW231262   4.608   7.702   5.752
 6411SOL     OW31263   4.274   7.644   6.471
 6411SOL    HW131264   4.269   7.639   6.571
 6411SOL    HW231265   4.276   7.740   6.442
 6412SOL     OW31266   5.182   8.183   6.314
 6412SOL    HW131267   5.177   8.118   6.389
 6412SOL    HW231268   5.262   8.242   6.327
 6413SOL     OW31269   5.124   7.555   6.012
 6413SOL    HW131270   5.100   7.518   5.922
 6413SOL    HW231271   5.223   7.571   6.016
 6414SOL     OW31272   4.106   8.148   6.066
 6414SOL    HW131273   4.151   8.058   6.063
 6414SOL    HW231274   4.012   8.137   6.099
 6415SOL     OW31275   4.338   7.570   5.703
 6415SOL    HW131276   4.436   7.548   5.710
 6415SOL    HW231277   4.307   7.553   5.610
 6416SOL     OW31278   4.646   7.951   6.485
 6416SOL    HW131279   4.621   7.942   6.389
 6416SOL    HW231280   4.694   7.869   6.516
 6417SOL     OW31281   4.263   7.512   6.098
 6417SOL    HW131282   4.182   7.513   6.156
 6417SOL    HW231283   4.266   7.595   6.043
 6418SOL     OW31284   4.021   7.483   5.757
 6418SOL    HW131285   4.070   7.567   5.736
 6418SOL    HW231286   4.083   7.418   5.802
 6419SOL     OW31287   4.659   7.684   6.066
 6419SOL    HW131288   4.611   7.725   5.988
 6419SOL    HW231289   4.758   7.682   6.047
 6420SOL     OW31290   4.756   7.997   5.602
 6420SOL    HW131291   4.715   8.079   5.563
 6420SOL    HW231292   4.820   8.023   5.675
 6421SOL     OW31293   4.285   7.670   6.733
 6421SOL    HW131294   4.323   7.586   6.770
 6421SOL    HW231295   4.197   7.689   6.777
 6422SOL     OW31296   4.590   7.902   6.228
 6422SOL    HW131297   4.558   7.974   6.166
 6422SOL    HW231298   4.614   7.821   6.175
 6423SOL     OW31299   4.741   7.487   6.339
 6423SOL    HW131300   4.669   7.492   6.270
 6423SOL    HW231301   4.717   7.418   6.408
 6424SOL     OW31302   5.190   8.038   6.578
 6424SOL    HW131303   5.160   7.943   6.585
 6424SOL    HW231304   5.263   8.054   6.644
 6425SOL     OW31305   5.581   8.281   5.963
 6425SOL    HW131306   5.623   8.217   6.027
 6425SOL    HW231307   5.543   8.230   5.885
 6426SOL     OW31308   5.114   8.023   5.664
 6426SOL    HW131309   5.060   8.002   5.745
 6426SOL    HW231310   5.205   7.982   5.673
 6427SOL     OW31311   4.251   7.704   5.914
 6427SOL    HW131312   4.278   7.645   5.839
 6427SOL    HW231313   4.251   7.799   5.883
 6428SOL     OW31314   5.362   8.547   6.665
 6428SOL    HW131315   5.367   8.628   6.724
 6428SOL    HW231316   5.276   8.549   6.614
 6429SOL     OW31317   4.134   8.261   6.837
 6429SOL    HW131318   4.220   8.273   6.887
 6429SOL    HW231319   4.092   8.174   6.864
 6430SOL     OW31320   4.998   7.834   6.848
 6430SOL    HW131321   5.019   7.908   6.912
 6430SOL    HW231322   4.909   7.851   6.805
 6431SOL     OW31323   4.290   7.985   6.451
 6431SOL    HW131324   4.302   8.051   6.377
 6431SOL    HW231325   4.336   8.019   6.534
 6432SOL     OW31326   5.306   8.087   6.058
 6432SOL    HW131327   5.275   8.148   6.131
 6432SOL    HW231328   5.356   8.139   5.989
 6433SOL     OW31329   4.297   8.318   6.615
 6433SOL    HW131330   4.341   8.407   6.606
 6433SOL    HW231331   4.234   8.318   6.692
 6434SOL     OW31332   5.084   8.310   6.631
 6434SOL    HW131333   5.009   8.310   6.565
 6434SOL    HW231334   5.121   8.218   6.640
 6435SOL     OW31335   4.933   7.973   5.861
 6435SOL    HW131336   4.946   7.889   5.915
 6435SOL    HW231337   4.904   8.047   5.921
 6436SOL     OW31338   4.031   7.661   6.817
 6436SOL    HW131339   4.008   7.698   6.907
 6436SOL    HW231340   4.001   7.566   6.811
 6437SOL     OW31341   4.456   8.082   6.650
 6437SOL    HW131342   4.515   8.056   6.574
 6437SOL    HW231343   4.428   8.178   6.639
 6438SOL     OW31344   4.031   7.511   6.204
 6438SOL    HW131345   4.020   7.605   6.237
 6438SOL    HW231346   4.026   7.448   6.281
 6439SOL     OW31347   5.346   7.815   5.960
 6439SOL    HW131348   5.348   7.739   6.024
 6439SOL    HW231349   5.298   7.892   6.000
 6440SOL     OW31350   4.747   8.214   6.552
 6440SOL    HW131351   4.762   8.235   6.648
 6440SOL    HW231352   4.717   8.119   6.543
 6441SOL     OW31353   5.264   7.722   5.711
 6441SOL    HW131354   5.203   7.647   5.734
 6441SOL    HW231355   5.286   7.774   5.794
 6442SOL     OW31356   5.027   8.286   5.628
 6442SOL    HW131357   5.061   8.193   5.643
 6442SOL    HW231358   5.045   8.313   5.533
 6443SOL     OW31359   4.043   8.258   6.535
 6443SOL    HW131360   4.136   8.294   6.540
 6443SOL    HW231361   4.037   8.173   6.587
 6444SOL     OW31362   4.063   7.957   6.592
 6444SOL    HW131363   4.011   7.874   6.575
 6444SOL    HW231364   4.140   7.962   6.528
 6445SOL     OW31365   4.884   7.655   7.063
 6445SOL    HW131366   4.884   7.719   7.140
 6445SOL    HW231367   4.912   7.703   6.980
 6446SOL     OW31368   4.726   8.244   6.824
 6446SOL    HW131369   4.767   8.212   6.910
 6446SOL    HW231370   4.630   8.217   6.821
 6447SOL     OW31371   3.764   7.992   6.700
 6447SOL    HW131372   3.849   7.959   6.659
 6447SOL    HW231373   3.777   8.007   6.798
 6448SOL     OW31374   4.539   8.020   5.911
 6448SOL    HW131375   4.546   7.931   5.865
 6448SOL    HW231376   4.445   8.054   5.903
 6449SOL     OW31377   5.381   8.052   6.792
 6449SOL    HW131378   5.343   7.983   6.854
 6449SOL    HW231379   5.463   8.016   6.748
 6450SOL     OW31380   4.395   7.912   6.855
 6450SOL    HW131381   4.361   7.823   6.825
 6450SOL    HW231382   4.421   7.966   6.775
 6451SOL     OW31383   4.197   7.948   5.777
 6451SOL    HW131384   4.258   8.028   5.781
 6451SOL    HW231385   4.102   7.979   5.784
 6452SOL     OW31386   5.071   8.507   6.820
 6452SOL    HW131387   5.095   8.444   6.746
 6452SOL    HW231388   4.981   8.547   6.802
 6453SOL     OW31389   5.026   8.303   5.895
 6453SOL    HW131390   4.940   8.272   5.937
 6453SOL    HW231391   5.022   8.289   5.796
 6454SOL     OW31392   5.450   7.583   6.109
 6454SOL    HW131393   5.523   7.566   6.042
 6454SOL    HW231394   5.419   7.496   6.147
 6455SOL     OW31395   5.004   8.375   6.258
 6455SOL    HW131396   5.064   8.294   6.260
 6455SOL    HW231397   5.044   8.444   6.198
 6456SOL     OW31398   5.565   7.623   6.549
 6456SOL    HW131399   5.604   7.538   6.513
 6456SOL    HW231400   5.467   7.625   6.530
 6457SOL     OW31401   3.987   7.774   6.306
 6457SOL    HW131402   3.908   7.825   6.272
 6457SOL    HW231403   3.978   7.759   6.404
 6458SOL     OW31404   4.640   8.358   5.877
 6458SOL    HW131405   4.703   8.396   5.809
 6458SOL    HW231406   4.680   8.275   5.916
 6459SOL     OW31407   4.738   7.684   6.557
 6459SOL    HW131408   4.730   7.648   6.464
 6459SOL    HW231409   4.736   7.608   6.622
 6460SOL     OW31410   5.433   7.833   6.967
 6460SOL    HW131411   5.506   7.902   6.971
 6460SOL    HW231412   5.461   7.758   6.908
 6461SOL     OW31413   3.796   7.614   5.904
 6461SOL    HW131414   3.779   7.697   5.850
 6461SOL    HW231415   3.886   7.577   5.882
 6462SOL     OW31416   5.398   8.331   6.840
 6462SOL    HW131417   5.371   8.242   6.803
 6462SOL    HW231418   5.399   8.399   6.767
 6463SOL     OW31419   4.949   7.773   6.035
 6463SOL    HW131420   5.014   7.699   6.024
 6463SOL    HW231421   4.969   7.823   6.119
 6464SOL     OW31422   4.318   8.193   6.238
 6464SOL    HW131423   4.368   8.278   6.219
 6464SOL    HW231424   4.230   8.195   6.190
 6465SOL     OW31425   5.454   8.382   7.103
 6465SOL    HW131426   5.492   8.473   7.118
 6465SOL    HW231427   5.446   8.365   7.004
 6466SOL     OW31428   5.548   7.640   6.813
 6466SOL    HW131429   5.544   7.550   6.857
 6466SOL    HW231430   5.551   7.629   6.714
 6467SOL     OW31431   4.152   7.872   6.106
 6467SOL    HW131432   4.182   7.800   6.044
 6467SOL    HW231433   4.113   7.832   6.189
 6468SOL     OW31434   5.148   7.662   6.698
 6468SOL    HW131435   5.200   7.597   6.753
 6468SOL    HW231436   5.099   7.725   6.759
 6469SOL     OW31437   4.725   7.482   6.740
 6469SOL    HW131438   4.662   7.410   6.709
 6469SOL    HW231439   4.818   7.446   6.740
 6470SOL     OW31440   5.024   7.901   6.277
 6470SOL    HW131441   4.965   7.981   6.281
 6470SOL    HW231442   5.039   7.866   6.370
 6471SOL     OW31443   5.317   7.669   6.468
 6471SOL    HW131444   5.233   7.668   6.522
 6471SOL    HW231445   5.319   7.752   6.412
 6472SOL     OW31446   5.816   0.628   0.113
 6472SOL    HW131447   5.723   0.626   0.150
 6472SOL    HW231448   5.817   0.589   0.021
 6473SOL     OW31449   5.811   0.275   0.996
 6473SOL    HW131450   5.846   0.258   1.088
 6473SOL    HW231451   5.723   0.230   0.984
 6474SOL     OW31452   5.605   0.368   0.647
 6474SOL    HW131453   5.523   0.411   0.686
 6474SOL    HW231454   5.577   0.295   0.584
 6475SOL     OW31455   6.155   1.275   1.165
 6475SOL    HW131456   6.062   1.268   1.128
 6475SOL    HW231457   6.166   1.364   1.209
 6476SOL     OW31458   7.141   1.511   0.703
 6476SOL    HW131459   7.084   1.495   0.784
 6476SOL    HW231460   7.082   1.521   0.623
 6477SOL     OW31461   6.721   0.703   0.717
 6477SOL    HW131462   6.778   0.781   0.692
 6477SOL    HW231463   6.661   0.729   0.793
 6478SOL     OW31464   7.341   0.607   0.231
 6478SOL    HW131465   7.329   0.594   0.132
 6478SOL    HW231466   7.311   0.526   0.280
 6479SOL     OW31467   6.354   1.144   1.023
 6479SOL    HW131468   6.276   1.161   1.083
 6479SOL    HW231469   6.388   1.231   0.987
 6480SOL     OW31470   6.436   0.798   1.823
 6480SOL    HW131471   6.432   0.874   1.888
 6480SOL    HW231472   6.458   0.834   1.732
 6481SOL     OW31473   6.271   1.012   0.665
 6481SOL    HW131474   6.340   0.996   0.735
 6481SOL    HW231475   6.198   1.069   0.703
 6482SOL     OW31476   5.921   1.435   1.061
 6482SOL    HW131477   5.843   1.404   1.008
 6482SOL    HW231478   5.979   1.493   1.004
 6483SOL     OW31479   7.046   1.505   1.339
 6483SOL    HW131480   7.070   1.599   1.365
 6483SOL    HW231481   7.030   1.451   1.421
 6484SOL     OW31482   7.189   0.447   0.737
 6484SOL    HW131483   7.115   0.493   0.687
 6484SOL    HW231484   7.240   0.515   0.790
 6485SOL     OW31485   5.817   1.713   0.483
 6485SOL    HW131486   5.851   1.790   0.537
 6485SOL    HW231487   5.861   1.713   0.393
 6486SOL     OW31488   6.713   1.341   1.690
 6486SOL    HW131489   6.760   1.341   1.778
 6486SOL    HW231490   6.665   1.254   1.679
 6487SOL     OW31491   5.816   1.434   0.538
 6487SOL    HW131492   5.790   1.530   0.538
 6487SOL    HW231493   5.745   1.380   0.583
 6488SOL     OW31494   5.826   1.091   0.886
 6488SOL    HW131495   5.840   1.007   0.938
 6488SOL    HW231496   5.771   1.155   0.941
 6489SOL     OW31497   6.206   1.786   1.439
 6489SOL    HW131498   6.114   1.769   1.474
 6489SOL    HW231499   6.234   1.878   1.465
 6490SOL     OW31500   6.192   0.964   0.123
 6490SOL    HW131501   6.199   1.048   0.069
 6490SOL    HW231502   6.238   0.977   0.211
 6491SOL     OW31503   7.180   0.114   1.480
 6491SOL    HW131504   7.162   0.181   1.408
 6491SOL    HW231505   7.177   0.160   1.569
 6492SOL     OW31506   5.708   0.643   0.563
 6492SOL    HW131507   5.663   0.555   0.580
 6492SOL    HW231508   5.707   0.697   0.647
 6493SOL     OW31509   7.428   1.767   0.359
 6493SOL    HW131510   7.482   1.738   0.439
 6493SOL    HW231511   7.458   1.857   0.330
 6494SOL     OW31512   5.613   1.596   0.117
 6494SOL    HW131513   5.594   1.500   0.138
 6494SOL    HW231514   5.580   1.654   0.192
 6495SOL     OW31515   7.275   0.922   0.612
 6495SOL    HW131516   7.370   0.893   0.620
 6495SOL    HW231517   7.267   0.987   0.537
 6496SOL     OW31518   7.227   1.108   0.432
 6496SOL    HW131519   7.313   1.110   0.380
 6496SOL    HW231520   7.241   1.155   0.520
 6497SOL     OW31521   5.699   0.737   1.597
 6497SOL    HW131522   5.787   0.724   1.642
 6497SOL    HW231523   5.686   0.834   1.575
 6498SOL     OW31524   6.199   1.365   0.726
 6498SOL    HW131525   6.150   1.278   0.735
 6498SOL    HW231526   6.176   1.408   0.639
 6499SOL     OW31527   6.879   1.228   1.423
 6499SOL    HW131528   6.916   1.155   1.365
 6499SOL    HW231529   6.931   1.233   1.508
 6500SOL     OW31530   6.395   0.004   0.502
 6500SOL    HW131531   6.435   0.095   0.493
 6500SOL    HW231532   6.295   0.012   0.508
 6501SOL     OW31533   5.783   0.976   1.264
 6501SOL    HW131534   5.872   0.931   1.250
 6501SOL    HW231535   5.710   0.911   1.245
 6502SOL     OW31536   7.111   0.999   0.190
 6502SOL    HW131537   7.048   0.923   0.203
 6502SOL    HW231538   7.159   1.017   0.276
 6503SOL     OW31539   6.773   1.792   1.616
 6503SOL    HW131540   6.797   1.852   1.540
 6503SOL    HW231541   6.780   1.697   1.586
 6504SOL     OW31542   5.903   0.251   1.801
 6504SOL    HW131543   5.974   0.322   1.807
 6504SOL    HW231544   5.815   0.290   1.829
 6505SOL     OW31545   7.253   1.714   0.572
 6505SOL    HW131546   7.212   1.691   0.484
 6505SOL    HW231547   7.235   1.640   0.637
 6506SOL     OW31548   6.184   0.729   0.270
 6506SOL    HW131549   6.208   0.798   0.202
 6506SOL    HW231550   6.106   0.762   0.324
 6507SOL     OW31551   6.867   0.345   0.944
 6507SOL    HW131552   6.781   0.295   0.931
 6507SOL    HW231553   6.929   0.291   1.000
 6508SOL     OW31554   7.162   1.662   0.307
 6508SOL    HW131555   7.251   1.708   0.310
 6508SOL    HW231556   7.141   1.638   0.212
 6509SOL     OW31557   6.393   0.605   1.465
 6509SOL    HW131558   6.346   0.602   1.554
 6509SOL    HW231559   6.342   0.550   1.399
 6510SOL     OW31560   6.559   0.890   1.572
 6510SOL    HW131561   6.605   0.806   1.543
 6510SOL    HW231562   6.503   0.924   1.497
 6511SOL     OW31563   6.577   0.410   1.242
 6511SOL    HW131564   6.500   0.444   1.296
 6511SOL    HW231565   6.543   0.359   1.163
 6512SOL     OW31566   6.627   0.701   0.429
 6512SOL    HW131567   6.653   0.697   0.525
 6512SOL    HW231568   6.542   0.650   0.415
 6513SOL     OW31569   5.662   0.811   0.789
 6513SOL    HW131570   5.761   0.799   0.798
 6513SOL    HW231571   5.638   0.906   0.810
 6514SOL     OW31572   6.451   0.348   0.195
 6514SOL    HW131573   6.510   0.411   0.146
 6514SOL    HW231574   6.470   0.254   0.166
 6515SOL     OW31575   6.948   1.144   0.545
 6515SOL    HW131576   7.031   1.115   0.497
 6515SOL    HW231577   6.899   1.211   0.489
 6516SOL     OW31578   6.136   0.196   0.885
 6516SOL    HW131579   6.131   0.191   0.985
 6516SOL    HW231580   6.138   0.292   0.856
 6517SOL     OW31581   6.594   1.456   0.477
 6517SOL    HW131582   6.548   1.528   0.425
 6517SOL    HW231583   6.590   1.476   0.575
 6518SOL     OW31584   5.937   1.801   0.853
 6518SOL    HW131585   5.987   1.715   0.859
 6518SOL    HW231586   6.002   1.878   0.850
 6519SOL     OW31587   6.813   1.550   1.506
 6519SOL    HW131588   6.819   1.473   1.570
 6519SOL    HW231589   6.761   1.524   1.426
 6520SOL     OW31590   5.907   0.943   0.242
 6520SOL    HW131591   5.989   0.982   0.200
 6520SOL    HW231592   5.880   0.861   0.193
 6521SOL     OW31593   6.047   1.266   1.727
 6521SOL    HW131594   5.997   1.267   1.641
 6521SOL    HW231595   5.984   1.248   1.803
 6522SOL     OW31596   6.697   1.776   0.237
 6522SOL    HW131597   6.637   1.714   0.287
 6522SOL    HW231598   6.728   1.732   0.152
 6523SOL     OW31599   5.788   0.285   1.498
 6523SOL    HW131600   5.708   0.345   1.485
 6523SOL    HW231601   5.778   0.236   1.584
 6524SOL     OW31602   7.218   1.377   0.081
 6524SOL    HW131603   7.186   1.471   0.071
 6524SOL    HW231604   7.142   1.314   0.069
 6525SOL     OW31605   6.050   1.743   0.323
 6525SOL    HW131606   6.083   1.782   0.409
 6525SOL    HW231607   6.126   1.736   0.258
 6526SOL     OW31608   6.986   0.107   0.426
 6526SOL    HW131609   6.962   0.070   0.336
 6526SOL    HW231610   7.085   0.123   0.430
 6527SOL     OW31611   6.526   1.698   0.904
 6527SOL    HW131612   6.606   1.641   0.925
 6527SOL    HW231613   6.477   1.658   0.827
 6528SOL     OW31614   5.968   0.700   0.480
 6528SOL    HW131615   6.013   0.610   0.477
 6528SOL    HW231616   5.874   0.689   0.513
 6529SOL     OW31617   7.133   0.222   1.729
 6529SOL    HW131618   7.128   0.259   1.821
 6529SOL    HW231619   7.061   0.153   1.717
 6530SOL     OW31620   6.200   0.122   0.117
 6530SOL    HW131621   6.298   0.100   0.124
 6530SOL    HW231622   6.169   0.105   0.024
 6531SOL     OW31623   6.474   1.514   1.195
 6531SOL    HW131624   6.451   1.489   1.101
 6531SOL    HW231625   6.535   1.445   1.234
 6532SOL     OW31626   6.389   1.402   0.924
 6532SOL    HW131627   6.479   1.416   0.882
 6532SOL    HW231628   6.318   1.404   0.853
 6533SOL     OW31629   6.508   0.503   0.899
 6533SOL    HW131630   6.483   0.494   0.803
 6533SOL    HW231631   6.556   0.421   0.930
 6534SOL     OW31632   6.125   0.064   0.512
 6534SOL    HW131633   6.044   0.065   0.570
 6534SOL    HW231634   6.128   0.147   0.457
 6535SOL     OW31635   7.020   1.188   0.041
 6535SOL    HW131636   7.052   1.112   0.098
 6535SOL    HW231637   6.928   1.215   0.071
 6536SOL     OW31638   5.883   0.035   0.171
 6536SOL    HW131639   5.932   0.119   0.150
 6536SOL    HW231640   5.945  -0.030   0.216
 6537SOL     OW31641   6.521   0.236   0.480
 6537SOL    HW131642   6.473   0.277   0.402
 6537SOL    HW231643   6.620   0.234   0.461
 6538SOL     OW31644   6.662   0.683   1.464
 6538SOL    HW131645   6.582   0.622   1.467
 6538SOL    HW231646   6.743   0.630   1.440
 6539SOL     OW31647   6.813   1.570   0.793
 6539SOL    HW131648   6.834   1.644   0.728
 6539SOL    HW231649   6.881   1.570   0.866
 6540SOL     OW31650   6.045   1.152   0.741
 6540SOL    HW131651   5.974   1.125   0.806
 6540SOL    HW231652   6.019   1.124   0.648
 6541SOL     OW31653   6.857   1.797   0.591
 6541SOL    HW131654   6.901   1.861   0.527
 6541SOL    HW231655   6.807   1.849   0.661
 6542SOL     OW31656   6.618   0.549   0.016
 6542SOL    HW131657   6.577   0.631  -0.023
 6542SOL    HW231658   6.682   0.575   0.089
 6543SOL     OW31659   5.664   0.556   1.386
 6543SOL    HW131660   5.756   0.555   1.345
 6543SOL    HW231661   5.658   0.630   1.453
 6544SOL     OW31662   6.147   0.222   1.147
 6544SOL    HW131663   6.185   0.138   1.184
 6544SOL    HW231664   6.059   0.241   1.191
 6545SOL     OW31665   6.452   0.454   0.642
 6545SOL    HW131666   6.420   0.526   0.580
 6545SOL    HW231667   6.476   0.373   0.589
 6546SOL     OW31668   6.603   0.039   0.753
 6546SOL    HW131669   6.531   0.044   0.684
 6546SOL    HW231670   6.579  -0.030   0.822
 6547SOL     OW31671   7.443   0.833   0.377
 6547SOL    HW131672   7.485   0.769   0.441
 6547SOL    HW231673   7.405   0.782   0.299
 6548SOL     OW31674   6.074   1.385   0.174
 6548SOL    HW131675   5.987   1.370   0.221
 6548SOL    HW231676   6.057   1.411   0.079
 6549SOL     OW31677   7.250   1.280   0.657
 6549SOL    HW131678   7.349   1.288   0.671
 6549SOL    HW231679   7.205   1.364   0.688
 6550SOL     OW31680   6.976   0.575   0.078
 6550SOL    HW131681   6.922   0.554   0.159
 6550SOL    HW231682   7.067   0.534   0.087
 6551SOL     OW31683   6.113   0.256   0.328
 6551SOL    HW131684   6.140   0.197   0.253
 6551SOL    HW231685   6.113   0.351   0.297
 6552SOL     OW31686   6.650   1.347   1.340
 6552SOL    HW131687   6.570   1.324   1.395
 6552SOL    HW231688   6.733   1.321   1.389
 6553SOL     OW31689   7.178   1.629   1.625
 6553SOL    HW131690   7.205   1.663   1.535
 6553SOL    HW231691   7.257   1.591   1.671
 6554SOL     OW31692   6.697   1.195   1.100
 6554SOL    HW131693   6.657   1.239   1.181
 6554SOL    HW231694   6.656   1.232   1.017
 6555SOL     OW31695   6.501   0.089   1.402
 6555SOL    HW131696   6.526   0.069   1.307
 6555SOL    HW231697   6.573   0.145   1.444
 6556SOL     OW31698   6.566   1.116   1.719
 6556SOL    HW131699   6.467   1.122   1.729
 6556SOL    HW231700   6.589   1.036   1.663
 6557SOL     OW31701   6.291   1.050   0.368
 6557SOL    HW131702   6.277   1.057   0.467
 6557SOL    HW231703   6.375   0.999   0.350
 6558SOL     OW31704   5.996   0.813   1.251
 6558SOL    HW131705   6.082   0.825   1.301
 6558SOL    HW231706   5.954   0.726   1.278
 6559SOL     OW31707   5.953   1.100   0.501
 6559SOL    HW131708   5.946   1.183   0.445
 6559SOL    HW231709   5.957   1.020   0.441
 6560SOL     OW31710   6.152   0.537   0.865
 6560SOL    HW131711   6.164   0.603   0.791
 6560SOL    HW231712   6.198   0.571   0.948
 6561SOL     OW31713   6.838   1.348   0.388
 6561SOL    HW131714   6.888   1.425   0.428
 6561SOL    HW231715   6.743   1.350   0.420
 6562SOL     OW31716   6.858   1.445   1.142
 6562SOL    HW131717   6.905   1.458   1.229
 6562SOL    HW231718   6.792   1.371   1.151
 6563SOL     OW31719   7.168   0.639   0.472
 6563SOL    HW131720   7.137   0.700   0.545
 6563SOL    HW231721   7.218   0.691   0.403
 6564SOL     OW31722   5.940   1.510   1.329
 6564SOL    HW131723   5.919   1.466   1.242
 6564SOL    HW231724   6.037   1.536   1.332
 6565SOL     OW31725   5.988   0.751   1.598
 6565SOL    HW131726   6.056   0.806   1.551
 6565SOL    HW231727   6.028   0.663   1.625
 6566SOL     OW31728   6.090   0.050   1.740
 6566SOL    HW131729   6.048  -0.007   1.670
 6566SOL    HW231730   6.024   0.119   1.772
 6567SOL     OW31731   6.159   0.870   1.029
 6567SOL    HW131732   6.203   0.959   1.020
 6567SOL    HW231733   6.096   0.870   1.106
 6568SOL     OW31734   6.795   0.525   0.275
 6568SOL    HW131735   6.808   0.441   0.329
 6568SOL    HW231736   6.766   0.599   0.335
 6569SOL     OW31737   5.893   0.213   1.231
 6569SOL    HW131738   5.870   0.250   1.321
 6569SOL    HW231739   5.863   0.118   1.225
 6570SOL     OW31740   5.623   1.310   1.282
 6570SOL    HW131741   5.676   1.261   1.350
 6570SOL    HW231742   5.645   1.408   1.287
 6571SOL     OW31743   6.318   0.634   1.064
 6571SOL    HW131744   6.377   0.608   0.988
 6571SOL    HW231745   6.290   0.730   1.053
 6572SOL     OW31746   5.893   0.063   0.618
 6572SOL    HW131747   5.882   0.157   0.651
 6572SOL    HW231748   5.888   0.000   0.695
 6573SOL     OW31749   7.208   0.367   0.374
 6573SOL    HW131750   7.210   0.291   0.438
 6573SOL    HW231751   7.160   0.444   0.414
 6574SOL     OW31752   6.609   0.766   0.966
 6574SOL    HW131753   6.624   0.787   1.062
 6574SOL    HW231754   6.579   0.671   0.957
 6575SOL     OW31755   6.566   1.573   1.700
 6575SOL    HW131756   6.546   1.617   1.612
 6575SOL    HW231757   6.605   1.482   1.684
 6576SOL     OW31758   7.126   0.274   0.125
 6576SOL    HW131759   7.065   0.199   0.148
 6576SOL    HW231760   7.148   0.326   0.208
 6577SOL     OW31761   6.889   0.838   0.042
 6577SOL    HW131762   6.923   0.745   0.057
 6577SOL    HW231763   6.907   0.865  -0.053
 6578SOL     OW31764   6.654   1.333   0.849
 6578SOL    HW131765   6.661   1.249   0.794
 6578SOL    HW231766   6.716   1.402   0.813
 6579SOL     OW31767   5.905   0.810   0.949
 6579SOL    HW131768   5.998   0.846   0.954
 6579SOL    HW231769   5.899   0.725   1.001
 6580SOL     OW31770   5.925   0.509   1.006
 6580SOL    HW131771   5.873   0.426   0.989
 6580SOL    HW231772   6.002   0.514   0.942
 6581SOL     OW31773   5.674   1.801   0.927
 6581SOL    HW131774   5.632   1.715   0.900
 6581SOL    HW231775   5.768   1.804   0.893
 6582SOL     OW31776   6.090   1.568   0.910
 6582SOL    HW131777   6.156   1.642   0.919
 6582SOL    HW231778   6.134   1.489   0.868
 6583SOL     OW31779   6.588   0.796   1.238
 6583SOL    HW131780   6.629   0.764   1.324
 6583SOL    HW231781   6.492   0.769   1.235
 6584SOL     OW31782   5.626   0.544   1.114
 6584SOL    HW131783   5.711   0.511   1.073
 6584SOL    HW231784   5.639   0.559   1.212
 6585SOL     OW31785   6.955   0.950   1.660
 6585SOL    HW131786   6.994   1.039   1.680
 6585SOL    HW231787   6.965   0.930   1.563
 6586SOL     OW31788   6.401   0.572   0.325
 6586SOL    HW131789   6.408   0.483   0.279
 6586SOL    HW231790   6.307   0.606   0.317
 6587SOL     OW31791   5.838   1.564   1.744
 6587SOL    HW131792   5.808   1.621   1.820
 6587SOL    HW231793   5.831   1.467   1.770
 6588SOL     OW31794   6.257   0.464   1.269
 6588SOL    HW131795   6.223   0.375   1.239
 6588SOL    HW231796   6.283   0.518   1.189
 6589SOL     OW31797   6.516   1.678   1.465
 6589SOL    HW131798   6.492   1.660   1.370
 6589SOL    HW231799   6.546   1.772   1.475
 6590SOL     OW31800   6.059   0.500   0.191
 6590SOL    HW131801   6.120   0.580   0.195
 6590SOL    HW231802   5.964   0.531   0.198
 6591SOL     OW31803   5.745   1.137   1.466
 6591SOL    HW131804   5.767   1.076   1.542
 6591SOL    HW231805   5.755   1.088   1.380
 6592SOL     OW31806   6.933   1.059   1.234
 6592SOL    HW131807   6.957   0.996   1.160
 6592SOL    HW231808   6.843   1.099   1.216
 6593SOL     OW31809   6.888   0.855   0.309
 6593SOL    HW131810   6.802   0.824   0.351
 6593SOL    HW231811   6.884   0.841   0.210
 6594SOL     OW31812   7.345   1.747   1.154
 6594SOL    HW131813   7.406   1.777   1.081
 6594SOL    HW231814   7.307   1.658   1.132
 6595SOL     OW31815   6.838   1.731   1.128
 6595SOL    HW131816   6.922   1.736   1.074
 6595SOL    HW231817   6.815   1.635   1.146
 6596SOL     OW31818   5.669   1.258   1.022
 6596SOL    HW131819   5.664   1.257   1.122
 6596SOL    HW231820   5.586   1.217   0.984
 6597SOL     OW31821   6.274   1.662   1.716
 6597SOL    HW131822   6.218   1.743   1.725
 6597SOL    HW231823   6.326   1.666   1.630
 6598SOL     OW31824   6.489   0.086   0.133
 6598SOL    HW131825   6.540   0.087   0.047
 6598SOL    HW231826   6.545   0.044   0.204
 6599SOL     OW31827   7.312   0.135   0.523
 6599SOL    HW131828   7.385   0.118   0.456
 6599SOL    HW231829   7.281   0.048   0.561
 6600SOL     OW31830   6.974   1.573   0.477
 6600SOL    HW131831   7.041   1.585   0.403
 6600SOL    HW231832   6.934   1.662   0.500
 6601SOL     OW31833   5.716   1.794   1.851
 6601SOL    HW131834   5.675   1.720   1.904
 6601SOL    HW231835   5.780   1.845   1.909
 6602SOL     OW31836   6.866   0.927   0.672
 6602SOL    HW131837   6.926   0.846   0.674
 6602SOL    HW231838   6.906   0.996   0.612
 6603SOL     OW31839   6.416   1.273   1.422
 6603SOL    HW131840   6.411   1.306   1.517
 6603SOL    HW231841   6.330   1.292   1.376
 6604SOL     OW31842   6.258   1.616   0.154
 6604SOL    HW131843   6.267   1.626   0.055
 6604SOL    HW231844   6.218   1.527   0.175
 6605SOL     OW31845   7.236   1.720   1.394
 6605SOL    HW131846   7.289   1.730   1.310
 6605SOL    HW231847   7.209   1.810   1.428
 6606SOL     OW31848   7.427   0.175   0.963
 6606SOL    HW131849   7.466   0.090   0.927
 6606SOL    HW231850   7.329   0.177   0.944
 6607SOL     OW31851   5.849   0.326   0.720
 6607SOL    HW131852   5.770   0.377   0.686
 6607SOL    HW231853   5.840   0.311   0.818
 6608SOL     OW31854   6.780   1.612   0.031
 6608SOL    HW131855   6.786   1.519   0.068
 6608SOL    HW231856   6.721   1.612  -0.049
 6609SOL     OW31857   6.408   1.002   1.372
 6609SOL    HW131858   6.448   1.001   1.280
 6609SOL    HW231859   6.418   1.094   1.412
 6610SOL     OW31860   6.502   0.910   0.291
 6610SOL    HW131861   6.565   0.948   0.223
 6610SOL    HW231862   6.542   0.827   0.330
 6611SOL     OW31863   7.090   1.607   0.044
 6611SOL    HW131864   6.998   1.644   0.051
 6611SOL    HW231865   7.128   1.627  -0.046
 6612SOL     OW31866   5.958   1.288   1.490
 6612SOL    HW131867   5.945   1.381   1.456
 6612SOL    HW231868   5.874   1.236   1.477
 6613SOL     OW31869   7.200   1.292   1.289
 6613SOL    HW131870   7.260   1.295   1.369
 6613SOL    HW231871   7.125   1.356   1.302
 6614SOL     OW31872   6.625   1.098   0.696
 6614SOL    HW131873   6.555   1.051   0.750
 6614SOL    HW231874   6.684   1.030   0.653
 6615SOL     OW31875   6.600   0.236   0.971
 6615SOL    HW131876   6.592   0.200   0.878
 6615SOL    HW231877   6.598   0.160   1.036
 6616SOL     OW31878   6.176   1.487   0.491
 6616SOL    HW131879   6.218   1.429   0.421
 6616SOL    HW231880   6.132   1.566   0.447
 6617SOL     OW31881   7.295   0.385   1.381
 6617SOL    HW131882   7.368   0.454   1.385
 6617SOL    HW231883   7.323   0.310   1.322
 6618SOL     OW31884   5.841   1.348   0.290
 6618SOL    HW131885   5.745   1.349   0.263
 6618SOL    HW231886   5.853   1.401   0.374
 6619SOL     OW31887   5.691   1.013   1.726
 6619SOL    HW131888   5.614   0.980   1.780
 6619SOL    HW231889   5.776   0.983   1.768
 6620SOL     OW31890   7.026   0.856   1.398
 6620SOL    HW131891   6.969   0.908   1.335
 6620SOL    HW231892   7.122   0.868   1.374
 6621SOL     OW31893   6.769   1.335   0.119
 6621SOL    HW131894   6.670   1.324   0.121
 6621SOL    HW231895   6.803   1.350   0.212
 6622SOL     OW31896   6.199   0.842   1.431
 6622SOL    HW131897   6.255   0.923   1.414
 6622SOL    HW231898   6.258   0.762   1.434
 6623SOL     OW31899   7.079   1.767   0.959
 6623SOL    HW131900   7.112   1.831   0.890
 6623SOL    HW231901   7.145   1.761   1.034
 6624SOL     OW31902   6.302   0.565   1.708
 6624SOL    HW131903   6.321   0.630   1.782
 6624SOL    HW231904   6.362   0.485   1.717
 6625SOL     OW31905   7.036   1.220   1.633
 6625SOL    HW131906   7.027   1.210   1.732
 6625SOL    HW231907   7.132   1.213   1.607
 6626SOL     OW31908   5.976   1.741   1.560
 6626SOL    HW131909   5.885   1.782   1.558
 6626SOL    HW231910   5.969   1.647   1.592
 6627SOL     OW31911   6.811   0.325   0.449
 6627SOL    HW131912   6.876   0.251   0.438
 6627SOL    HW231913   6.831   0.375   0.533
 6628SOL     OW31914   6.180   0.745   0.652
 6628SOL    HW131915   6.230   0.830   0.633
 6628SOL    HW231916   6.092   0.747   0.604
 6629SOL     OW31917   7.316   0.934   1.517
 6629SOL    HW131918   7.354   1.025   1.532
 6629SOL    HW231919   7.308   0.917   1.418
 6630SOL     OW31920   6.445   1.374   0.016
 6630SOL    HW131921   6.399   1.389   0.104
 6630SOL    HW231922   6.489   1.459  -0.014
 6631SOL     OW31923   6.247   1.790   0.953
 6631SOL    HW131924   6.201   1.878   0.940
 6631SOL    HW231925   6.346   1.802   0.946
 6632SOL     OW31926   6.445   0.956   0.861
 6632SOL    HW131927   6.499   0.887   0.909
 6632SOL    HW231928   6.413   1.025   0.927
 6633SOL     OW31929   6.669   0.984   0.087
 6633SOL    HW131930   6.646   1.037   0.005
 6633SOL    HW231931   6.750   0.928   0.068
 6634SOL     OW31932   7.447   1.569   0.851
 6634SOL    HW131933   7.376   1.557   0.781
 6634SOL    HW231934   7.448   1.490   0.911
 6635SOL     OW31935   5.665   1.240   0.653
 6635SOL    HW131936   5.664   1.193   0.741
 6635SOL    HW231937   5.747   1.212   0.602
 6636SOL     OW31938   7.410   0.192   1.227
 6636SOL    HW131939   7.406   0.102   1.271
 6636SOL    HW231940   7.413   0.181   1.128
 6637SOL     OW31941   6.014   0.424   0.520
 6637SOL    HW131942   6.044   0.352   0.458
 6637SOL    HW231943   5.975   0.384   0.603
 6638SOL     OW31944   7.291   1.487   1.104
 6638SOL    HW131945   7.198   1.462   1.077
 6638SOL    HW231946   7.317   1.437   1.186
 6639SOL     OW31947   5.903   0.547   1.280
 6639SOL    HW131948   5.941   0.488   1.352
 6639SOL    HW231949   5.943   0.521   1.192
 6640SOL     OW31950   6.398   1.586   0.687
 6640SOL    HW131951   6.430   1.596   0.593
 6640SOL    HW231952   6.319   1.524   0.689
 6641SOL     OW31953   7.010   0.214   1.112
 6641SOL    HW131954   7.062   0.149   1.167
 6641SOL    HW231955   6.961   0.277   1.173
 6642SOL     OW31956   6.587   0.034   1.154
 6642SOL    HW131957   6.524  -0.038   1.123
 6642SOL    HW231958   6.680  -0.002   1.154
 6643SOL     OW31959   6.356   1.330   0.301
 6643SOL    HW131960   6.310   1.243   0.318
 6643SOL    HW231961   6.447   1.327   0.342
 6644SOL     OW31962   6.204   1.567   1.284
 6644SOL    HW131963   6.199   1.649   1.341
 6644SOL    HW231964   6.293   1.564   1.239
 6645SOL     OW31965   6.938   0.052   0.168
 6645SOL    HW131966   6.973   0.011   0.084
 6645SOL    HW231967   6.848   0.014   0.188
 6646SOL     OW31968   6.886   0.453   0.691
 6646SOL    HW131969   6.827   0.533   0.695
 6646SOL    HW231970   6.901   0.418   0.784
 6647SOL     OW31971   7.179   0.221   0.882
 6647SOL    HW131972   7.095   0.220   0.936
 6647SOL    HW231973   7.181   0.304   0.826
 6648SOL     OW31974   5.625   1.077   0.300
 6648SOL    HW131975   5.724   1.066   0.291
 6648SOL    HW231976   5.585   0.991   0.332
 6649SOL     OW31977   6.461   1.646   0.337
 6649SOL    HW131978   6.384   1.611   0.283
 6649SOL    HW231979   6.429   1.717   0.399
 6650SOL     OW31980   5.816   0.628   1.975
 6650SOL    HW131981   5.723   0.626   2.012
 6650SOL    HW231982   5.817   0.589   1.883
 6651SOL     OW31983   5.811   0.275   2.858
 6651SOL    HW131984   5.846   0.258   2.950
 6651SOL    HW231985   5.723   0.230   2.846
 6652SOL     OW31986   6.155   1.275   3.027
 6652SOL    HW131987   6.062   1.268   2.990
 6652SOL    HW231988   6.166   1.364   3.071
 6653SOL     OW31989   6.271   1.012   2.527
 6653SOL    HW131990   6.340   0.996   2.597
 6653SOL    HW231991   6.198   1.069   2.565
 6654SOL     OW31992   5.921   1.435   2.923
 6654SOL    HW131993   5.843   1.404   2.870
 6654SOL    HW231994   5.979   1.493   2.866
 6655SOL     OW31995   5.817   1.713   2.345
 6655SOL    HW131996   5.851   1.790   2.399
 6655SOL    HW231997   5.861   1.713   2.255
 6656SOL     OW31998   5.708   0.643   2.425
 6656SOL    HW131999   5.663   0.555   2.442
 6656SOL    HW232000   5.707   0.697   2.509
 6657SOL     OW32001   6.199   1.365   2.588
 6657SOL    HW132002   6.150   1.278   2.597
 6657SOL    HW232003   6.176   1.408   2.501
 6658SOL     OW32004   6.184   0.729   2.132
 6658SOL    HW132005   6.208   0.798   2.064
 6658SOL    HW232006   6.106   0.762   2.186
 6659SOL     OW32007   6.867   0.345   2.806
 6659SOL    HW132008   6.781   0.295   2.793
 6659SOL    HW232009   6.929   0.291   2.862
 6660SOL     OW32010   6.559   0.890   3.434
 6660SOL    HW132011   6.605   0.806   3.405
 6660SOL    HW232012   6.503   0.924   3.359
 6661SOL     OW32013   6.594   1.456   2.339
 6661SOL    HW132014   6.548   1.528   2.287
 6661SOL    HW232015   6.590   1.476   2.437
 6662SOL     OW32016   6.813   1.550   3.368
 6662SOL    HW132017   6.819   1.473   3.432
 6662SOL    HW232018   6.761   1.524   3.288
 6663SOL     OW32019   6.047   1.266   3.589
 6663SOL    HW132020   5.997   1.267   3.503
 6663SOL    HW232021   5.984   1.248   3.665
 6664SOL     OW32022   6.697   1.776   2.099
 6664SOL    HW132023   6.637   1.714   2.149
 6664SOL    HW232024   6.728   1.732   2.014
 6665SOL     OW32025   5.788   0.285   3.360
 6665SOL    HW132026   5.708   0.345   3.347
 6665SOL    HW232027   5.778   0.236   3.446
 6666SOL     OW32028   6.050   1.743   2.185
 6666SOL    HW132029   6.083   1.782   2.271
 6666SOL    HW232030   6.126   1.736   2.120
 6667SOL     OW32031   6.526   1.698   2.766
 6667SOL    HW132032   6.606   1.641   2.787
 6667SOL    HW232033   6.477   1.658   2.689
 6668SOL     OW32034   5.968   0.700   2.342
 6668SOL    HW132035   6.013   0.610   2.339
 6668SOL    HW232036   5.874   0.689   2.375
 6669SOL     OW32037   7.133   0.222   3.591
 6669SOL    HW132038   7.128   0.259   3.683
 6669SOL    HW232039   7.061   0.153   3.579
 6670SOL     OW32040   6.367   0.264   3.611
 6670SOL    HW132041   6.434   0.203   3.654
 6670SOL    HW232042   6.294   0.283   3.676
 6671SOL     OW32043   6.474   1.514   3.057
 6671SOL    HW132044   6.451   1.489   2.963
 6671SOL    HW232045   6.535   1.445   3.096
 6672SOL     OW32046   5.883   0.035   2.033
 6672SOL    HW132047   5.932   0.119   2.012
 6672SOL    HW232048   5.945  -0.030   2.078
 6673SOL     OW32049   6.813   1.570   2.655
 6673SOL    HW132050   6.834   1.644   2.590
 6673SOL    HW232051   6.881   1.570   2.728
 6674SOL     OW32052   6.045   1.152   2.603
 6674SOL    HW132053   5.974   1.125   2.668
 6674SOL    HW232054   6.019   1.124   2.510
 6675SOL     OW32055   7.340   1.223   3.450
 6675SOL    HW132056   7.431   1.184   3.437
 6675SOL    HW232057   7.348   1.319   3.474
 6676SOL     OW32058   7.178   1.629   3.487
 6676SOL    HW132059   7.205   1.663   3.397
 6676SOL    HW232060   7.257   1.591   3.533
 6677SOL     OW32061   7.224   1.099   2.941
 6677SOL    HW132062   7.229   1.180   3.000
 6677SOL    HW232063   7.138   1.101   2.890
 6678SOL     OW32064   6.566   1.116   3.581
 6678SOL    HW132065   6.467   1.122   3.591
 6678SOL    HW232066   6.589   1.036   3.525
 6679SOL     OW32067   5.996   0.813   3.113
 6679SOL    HW132068   6.082   0.825   3.163
 6679SOL    HW232069   5.954   0.726   3.140
 6680SOL     OW32070   6.838   1.348   2.250
 6680SOL    HW132071   6.888   1.425   2.290
 6680SOL    HW232072   6.743   1.350   2.282
 6681SOL     OW32073   7.173   0.779   3.532
 6681SOL    HW132074   7.081   0.817   3.527
 6681SOL    HW232075   7.233   0.826   3.467
 6682SOL     OW32076   5.893   0.213   3.093
 6682SOL    HW132077   5.870   0.250   3.183
 6682SOL    HW232078   5.863   0.118   3.087
 6683SOL     OW32079   7.208   0.367   2.236
 6683SOL    HW132080   7.210   0.291   2.300
 6683SOL    HW232081   7.160   0.444   2.276
 6684SOL     OW32082   7.445   1.518   3.467
 6684SOL    HW132083   7.459   1.545   3.372
 6684SOL    HW232084   7.528   1.540   3.520
 6685SOL     OW32085   5.936   0.898   3.666
 6685SOL    HW132086   6.012   0.942   3.714
 6685SOL    HW232087   5.971   0.851   3.584
 6686SOL     OW32088   7.126   0.274   1.987
 6686SOL    HW132089   7.065   0.199   2.010
 6686SOL    HW232090   7.148   0.326   2.070
 6687SOL     OW32091   5.594   1.326   2.062
 6687SOL    HW132092   5.501   1.347   2.031
 6687SOL    HW232093   5.604   1.227   2.075
 6688SOL     OW32094   6.516   1.678   3.327
 6688SOL    HW132095   6.492   1.660   3.232
 6688SOL    HW232096   6.546   1.772   3.337
 6689SOL     OW32097   6.059   0.500   2.053
 6689SOL    HW132098   6.120   0.580   2.057
 6689SOL    HW232099   5.964   0.531   2.060
 6690SOL     OW32100   6.888   0.855   2.171
 6690SOL    HW132101   6.802   0.824   2.213
 6690SOL    HW232102   6.884   0.841   2.072
 6691SOL     OW32103   7.345   1.747   3.016
 6691SOL    HW132104   7.406   1.777   2.943
 6691SOL    HW232105   7.307   1.658   2.994
 6692SOL     OW32106   5.669   1.258   2.884
 6692SOL    HW132107   5.664   1.257   2.984
 6692SOL    HW232108   5.586   1.217   2.846
 6693SOL     OW32109   6.274   1.662   3.578
 6693SOL    HW132110   6.218   1.743   3.587
 6693SOL    HW232111   6.326   1.666   3.492
 6694SOL     OW32112   5.716   1.794   3.713
 6694SOL    HW132113   5.675   1.720   3.766
 6694SOL    HW232114   5.780   1.845   3.771
 6695SOL     OW32115   6.416   1.273   3.284
 6695SOL    HW132116   6.411   1.306   3.379
 6695SOL    HW232117   6.330   1.292   3.238
 6696SOL     OW32118   6.258   1.616   2.016
 6696SOL    HW132119   6.267   1.626   1.917
 6696SOL    HW232120   6.218   1.527   2.037
 6697SOL     OW32121   7.236   1.720   3.256
 6697SOL    HW132122   7.289   1.730   3.172
 6697SOL    HW232123   7.209   1.810   3.290
 6698SOL     OW32124   5.849   0.326   2.582
 6698SOL    HW132125   5.770   0.377   2.548
 6698SOL    HW232126   5.840   0.311   2.680
 6699SOL     OW32127   6.780   1.612   1.893
 6699SOL    HW132128   6.786   1.519   1.930
 6699SOL    HW232129   6.721   1.612   1.813
 6700SOL     OW32130   6.408   1.002   3.234
 6700SOL    HW132131   6.448   1.001   3.142
 6700SOL    HW232132   6.418   1.094   3.274
 6701SOL     OW32133   6.176   1.487   2.353
 6701SOL    HW132134   6.218   1.429   2.283
 6701SOL    HW232135   6.132   1.566   2.309
 6702SOL     OW32136   5.841   1.348   2.152
 6702SOL    HW132137   5.745   1.349   2.125
 6702SOL    HW232138   5.853   1.401   2.236
 6703SOL     OW32139   5.658   0.166   2.180
 6703SOL    HW132140   5.641   0.249   2.126
 6703SOL    HW232141   5.748   0.129   2.158
 6704SOL     OW32142   6.769   1.335   1.981
 6704SOL    HW132143   6.670   1.324   1.983
 6704SOL    HW232144   6.803   1.350   2.074
 6705SOL     OW32145   6.302   0.565   3.570
 6705SOL    HW132146   6.321   0.630   3.644
 6705SOL    HW232147   6.362   0.485   3.579
 6706SOL     OW32148   5.976   1.741   3.422
 6706SOL    HW132149   5.885   1.782   3.420
 6706SOL    HW232150   5.969   1.647   3.454
 6707SOL     OW32151   7.260   0.883   3.116
 6707SOL    HW132152   7.233   0.794   3.079
 6707SOL    HW232153   7.261   0.951   3.043
 6708SOL     OW32154   6.180   0.745   2.514
 6708SOL    HW132155   6.230   0.830   2.495
 6708SOL    HW232156   6.092   0.747   2.466
 6709SOL     OW32157   7.363   0.342   3.504
 6709SOL    HW132158   7.346   0.373   3.410
 6709SOL    HW232159   7.279   0.305   3.542
 6710SOL     OW32160   6.445   0.956   2.723
 6710SOL    HW132161   6.499   0.887   2.771
 6710SOL    HW232162   6.413   1.025   2.789
 6711SOL     OW32163   6.669   0.984   1.949
 6711SOL    HW132164   6.646   1.037   1.867
 6711SOL    HW232165   6.750   0.928   1.930
 6712SOL     OW32166   7.447   1.569   2.713
 6712SOL    HW132167   7.376   1.557   2.643
 6712SOL    HW232168   7.448   1.490   2.773
 6713SOL     OW32169   5.665   1.240   2.515
 6713SOL    HW132170   5.664   1.193   2.603
 6713SOL    HW232171   5.747   1.212   2.464
 6714SOL     OW32172   6.258   1.391   3.486
 6714SOL    HW132173   6.180   1.341   3.524
 6714SOL    HW232174   6.255   1.486   3.517
 6715SOL     OW32175   7.010   0.214   2.974
 6715SOL    HW132176   7.062   0.149   3.029
 6715SOL    HW232177   6.961   0.277   3.035
 6716SOL     OW32178   6.356   1.330   2.163
 6716SOL    HW132179   6.310   1.243   2.180
 6716SOL    HW232180   6.447   1.327   2.204
 6717SOL     OW32181   7.179   0.221   2.744
 6717SOL    HW132182   7.095   0.220   2.798
 6717SOL    HW232183   7.181   0.304   2.688
 6718SOL     OW32184   5.816   0.628   3.837
 6718SOL    HW132185   5.723   0.626   3.874
 6718SOL    HW232186   5.817   0.589   3.745
 6719SOL     OW32187   6.354   1.144   4.747
 6719SOL    HW132188   6.276   1.161   4.807
 6719SOL    HW232189   6.388   1.231   4.711
 6720SOL     OW32190   6.272   1.161   5.527
 6720SOL    HW132191   6.332   1.240   5.541
 6720SOL    HW232192   6.186   1.192   5.486
 6721SOL     OW32193   6.192   0.964   3.847
 6721SOL    HW132194   6.199   1.048   3.793
 6721SOL    HW232195   6.238   0.977   3.935
 6722SOL     OW32196   5.613   1.596   3.841
 6722SOL    HW132197   5.594   1.500   3.862
 6722SOL    HW232198   5.580   1.654   3.916
 6723SOL     OW32199   7.275   0.922   4.336
 6723SOL    HW132200   7.370   0.893   4.344
 6723SOL    HW232201   7.267   0.987   4.261
 6724SOL     OW32202   7.227   1.108   4.156
 6724SOL    HW132203   7.313   1.110   4.104
 6724SOL    HW232204   7.241   1.155   4.244
 6725SOL     OW32205   5.903   0.251   5.525
 6725SOL    HW132206   5.974   0.322   5.531
 6725SOL    HW232207   5.815   0.290   5.553
 6726SOL     OW32208   7.253   1.714   4.296
 6726SOL    HW132209   7.212   1.691   4.208
 6726SOL    HW232210   7.235   1.640   4.361
 6727SOL     OW32211   7.162   1.662   4.031
 6727SOL    HW132212   7.251   1.708   4.034
 6727SOL    HW232213   7.141   1.638   3.936
 6728SOL     OW32214   5.662   0.811   4.513
 6728SOL    HW132215   5.761   0.799   4.522
 6728SOL    HW232216   5.638   0.906   4.534
 6729SOL     OW32217   6.451   0.348   3.919
 6729SOL    HW132218   6.510   0.411   3.870
 6729SOL    HW232219   6.470   0.254   3.890
 6730SOL     OW32220   6.813   1.550   5.230
 6730SOL    HW132221   6.819   1.473   5.294
 6730SOL    HW232222   6.761   1.524   5.150
 6731SOL     OW32223   5.907   0.943   3.966
 6731SOL    HW132224   5.989   0.982   3.924
 6731SOL    HW232225   5.880   0.861   3.917
 6732SOL     OW32226   6.697   1.776   3.961
 6732SOL    HW132227   6.637   1.714   4.011
 6732SOL    HW232228   6.728   1.732   3.876
 6733SOL     OW32229   6.050   1.743   4.047
 6733SOL    HW132230   6.083   1.782   4.133
 6733SOL    HW232231   6.126   1.736   3.982
 6734SOL     OW32232   6.526   1.698   4.628
 6734SOL    HW132233   6.606   1.641   4.649
 6734SOL    HW232234   6.477   1.658   4.551
 6735SOL     OW32235   6.367   0.264   5.473
 6735SOL    HW132236   6.434   0.203   5.516
 6735SOL    HW232237   6.294   0.283   5.538
 6736SOL     OW32238   6.389   1.402   4.648
 6736SOL    HW132239   6.479   1.416   4.606
 6736SOL    HW232240   6.318   1.404   4.577
 6737SOL     OW32241   6.125   0.064   4.236
 6737SOL    HW132242   6.044   0.065   4.294
 6737SOL    HW232243   6.128   0.147   4.181
 6738SOL     OW32244   6.521   0.236   4.204
 6738SOL    HW132245   6.473   0.277   4.126
 6738SOL    HW232246   6.620   0.234   4.185
 6739SOL     OW32247   6.045   1.152   4.465
 6739SOL    HW132248   5.974   1.125   4.530
 6739SOL    HW232249   6.019   1.124   4.372
 6740SOL     OW32250   6.618   0.549   3.740
 6740SOL    HW132251   6.577   0.631   3.701
 6740SOL    HW232252   6.682   0.575   3.813
 6741SOL     OW32253   6.147   0.222   4.871
 6741SOL    HW132254   6.185   0.138   4.908
 6741SOL    HW232255   6.059   0.241   4.915
 6742SOL     OW32256   7.443   0.833   4.101
 6742SOL    HW132257   7.485   0.769   4.165
 6742SOL    HW232258   7.405   0.782   4.023
 6743SOL     OW32259   6.152   0.537   4.589
 6743SOL    HW132260   6.164   0.603   4.515
 6743SOL    HW232261   6.198   0.571   4.672
 6744SOL     OW32262   6.838   1.348   4.112
 6744SOL    HW132263   6.888   1.425   4.152
 6744SOL    HW232264   6.743   1.350   4.144
 6745SOL     OW32265   5.940   1.510   5.053
 6745SOL    HW132266   5.919   1.466   4.966
 6745SOL    HW232267   6.037   1.536   5.056
 6746SOL     OW32268   7.173   0.779   5.394
 6746SOL    HW132269   7.081   0.817   5.389
 6746SOL    HW232270   7.233   0.826   5.329
 6747SOL     OW32271   6.599   0.105   5.494
 6747SOL    HW132272   6.605   0.190   5.442
 6747SOL    HW232273   6.631   0.029   5.437
 6748SOL     OW32274   6.090   0.050   5.464
 6748SOL    HW132275   6.048  -0.007   5.394
 6748SOL    HW232276   6.024   0.119   5.496
 6749SOL     OW32277   7.314   0.935   5.578
 6749SOL    HW132278   7.268   0.928   5.489
 6749SOL    HW232279   7.252   0.979   5.644
 6750SOL     OW32280   7.208   0.367   4.098
 6750SOL    HW132281   7.210   0.291   4.162
 6750SOL    HW232282   7.160   0.444   4.138
 6751SOL     OW32283   6.609   0.766   4.690
 6751SOL    HW132284   6.624   0.787   4.786
 6751SOL    HW232285   6.579   0.671   4.681
 6752SOL     OW32286   5.936   0.898   5.528
 6752SOL    HW132287   6.012   0.942   5.576
 6752SOL    HW232288   5.971   0.851   5.446
 6753SOL     OW32289   7.126   0.274   3.849
 6753SOL    HW132290   7.065   0.199   3.872
 6753SOL    HW232291   7.148   0.326   3.932
 6754SOL     OW32292   6.889   0.838   3.766
 6754SOL    HW132293   6.923   0.745   3.781
 6754SOL    HW232294   6.907   0.865   3.671
 6755SOL     OW32295   5.905   0.810   4.673
 6755SOL    HW132296   5.998   0.846   4.678
 6755SOL    HW232297   5.899   0.725   4.725
 6756SOL     OW32298   5.925   0.509   4.730
 6756SOL    HW132299   5.873   0.426   4.713
 6756SOL    HW232300   6.002   0.514   4.666
 6757SOL     OW32301   6.724   0.380   5.402
 6757SOL    HW132302   6.679   0.443   5.466
 6757SOL    HW232303   6.817   0.411   5.385
 6758SOL     OW32304   5.594   1.326   3.924
 6758SOL    HW132305   5.501   1.347   3.893
 6758SOL    HW232306   5.604   1.227   3.937
 6759SOL     OW32307   5.626   0.544   4.838
 6759SOL    HW132308   5.711   0.511   4.797
 6759SOL    HW232309   5.639   0.559   4.936
 6760SOL     OW32310   5.775   0.520   5.446
 6760SOL    HW132311   5.834   0.480   5.376
 6760SOL    HW232312   5.717   0.591   5.405
 6761SOL     OW32313   6.401   0.572   4.049
 6761SOL    HW132314   6.408   0.483   4.003
 6761SOL    HW232315   6.307   0.606   4.041
 6762SOL     OW32316   6.257   0.464   4.993
 6762SOL    HW132317   6.223   0.375   4.963
 6762SOL    HW232318   6.283   0.518   4.913
 6763SOL     OW32319   6.933   1.059   4.958
 6763SOL    HW132320   6.957   0.996   4.884
 6763SOL    HW232321   6.843   1.099   4.940
 6764SOL     OW32322   6.838   1.731   4.852
 6764SOL    HW132323   6.922   1.736   4.798
 6764SOL    HW232324   6.815   1.635   4.870
 6765SOL     OW32325   7.312   0.135   4.247
 6765SOL    HW132326   7.385   0.118   4.180
 6765SOL    HW232327   7.281   0.048   4.285
 6766SOL     OW32328   5.716   1.794   5.575
 6766SOL    HW132329   5.675   1.720   5.628
 6766SOL    HW232330   5.780   1.845   5.633
 6767SOL     OW32331   6.866   0.927   4.396
 6767SOL    HW132332   6.926   0.846   4.398
 6767SOL    HW232333   6.906   0.996   4.336
 6768SOL     OW32334   6.258   1.616   3.878
 6768SOL    HW132335   6.267   1.626   3.779
 6768SOL    HW232336   6.218   1.527   3.899
 6769SOL     OW32337   7.236   1.720   5.118
 6769SOL    HW132338   7.289   1.730   5.034
 6769SOL    HW232339   7.209   1.810   5.152
 6770SOL     OW32340   7.427   0.175   4.687
 6770SOL    HW132341   7.466   0.090   4.651
 6770SOL    HW232342   7.329   0.177   4.668
 6771SOL     OW32343   6.600   0.236   4.695
 6771SOL    HW132344   6.592   0.200   4.602
 6771SOL    HW232345   6.598   0.160   4.760
 6772SOL     OW32346   5.976   1.741   5.284
 6772SOL    HW132347   5.885   1.782   5.282
 6772SOL    HW232348   5.969   1.647   5.316
 6773SOL     OW32349   6.180   0.745   4.376
 6773SOL    HW132350   6.230   0.830   4.357
 6773SOL    HW232351   6.092   0.747   4.328
 6774SOL     OW32352   6.445   0.956   4.585
 6774SOL    HW132353   6.499   0.887   4.633
 6774SOL    HW232354   6.413   1.025   4.651
 6775SOL     OW32355   5.665   1.240   4.377
 6775SOL    HW132356   5.664   1.193   4.465
 6775SOL    HW232357   5.747   1.212   4.326
 6776SOL     OW32358   7.410   0.192   4.951
 6776SOL    HW132359   7.406   0.102   4.995
 6776SOL    HW232360   7.413   0.181   4.852
 6777SOL     OW32361   5.903   0.547   5.004
 6777SOL    HW132362   5.941   0.488   5.076
 6777SOL    HW232363   5.943   0.521   4.916
 6778SOL     OW32364   6.587   0.034   4.878
 6778SOL    HW132365   6.524  -0.038   4.847
 6778SOL    HW232366   6.680  -0.002   4.878
 6779SOL     OW32367   6.938   0.052   3.892
 6779SOL    HW132368   6.973   0.011   3.808
 6779SOL    HW232369   6.848   0.014   3.912
 6780SOL     OW32370   7.179   0.221   4.606
 6780SOL    HW132371   7.095   0.220   4.660
 6780SOL    HW232372   7.181   0.304   4.550
 6781SOL     OW32373   5.816   0.628   5.699
 6781SOL    HW132374   5.723   0.626   5.736
 6781SOL    HW232375   5.817   0.589   5.607
 6782SOL     OW32376   5.811   0.275   6.582
 6782SOL    HW132377   5.846   0.258   6.674
 6782SOL    HW232378   5.723   0.230   6.570
 6783SOL     OW32379   5.605   0.368   6.233
 6783SOL    HW132380   5.523   0.411   6.272
 6783SOL    HW232381   5.577   0.295   6.170
 6784SOL     OW32382   6.155   1.275   6.751
 6784SOL    HW132383   6.062   1.268   6.714
 6784SOL    HW232384   6.166   1.364   6.795
 6785SOL     OW32385   7.141   1.511   6.289
 6785SOL    HW132386   7.084   1.495   6.370
 6785SOL    HW232387   7.082   1.521   6.209
 6786SOL     OW32388   6.721   0.703   6.303
 6786SOL    HW132389   6.778   0.781   6.278
 6786SOL    HW232390   6.661   0.729   6.379
 6787SOL     OW32391   7.341   0.607   5.817
 6787SOL    HW132392   7.329   0.594   5.718
 6787SOL    HW232393   7.311   0.526   5.866
 6788SOL     OW32394   6.354   1.144   6.609
 6788SOL    HW132395   6.276   1.161   6.669
 6788SOL    HW232396   6.388   1.231   6.573
 6789SOL     OW32397   6.271   1.012   6.251
 6789SOL    HW132398   6.340   0.996   6.321
 6789SOL    HW232399   6.198   1.069   6.289
 6790SOL     OW32400   5.921   1.435   6.647
 6790SOL    HW132401   5.843   1.404   6.594
 6790SOL    HW232402   5.979   1.493   6.590
 6791SOL     OW32403   7.189   0.447   6.323
 6791SOL    HW132404   7.115   0.493   6.273
 6791SOL    HW232405   7.240   0.515   6.376
 6792SOL     OW32406   5.816   1.434   6.124
 6792SOL    HW132407   5.790   1.530   6.124
 6792SOL    HW232408   5.745   1.380   6.169
 6793SOL     OW32409   5.826   1.091   6.472
 6793SOL    HW132410   5.840   1.007   6.524
 6793SOL    HW232411   5.771   1.155   6.527
 6794SOL     OW32412   6.206   1.786   7.025
 6794SOL    HW132413   6.114   1.769   7.060
 6794SOL    HW232414   6.234   1.878   7.051
 6795SOL     OW32415   6.192   0.964   5.709
 6795SOL    HW132416   6.199   1.048   5.655
 6795SOL    HW232417   6.238   0.977   5.797
 6796SOL     OW32418   5.708   0.643   6.149
 6796SOL    HW132419   5.663   0.555   6.166
 6796SOL    HW232420   5.707   0.697   6.233
 6797SOL     OW32421   7.428   1.767   5.945
 6797SOL    HW132422   7.482   1.738   6.025
 6797SOL    HW232423   7.458   1.857   5.916
 6798SOL     OW32424   7.275   0.922   6.198
 6798SOL    HW132425   7.370   0.893   6.206
 6798SOL    HW232426   7.267   0.987   6.123
 6799SOL     OW32427   7.227   1.108   6.018
 6799SOL    HW132428   7.313   1.110   5.966
 6799SOL    HW232429   7.241   1.155   6.106
 6800SOL     OW32430   6.199   1.365   6.312
 6800SOL    HW132431   6.150   1.278   6.321
 6800SOL    HW232432   6.176   1.408   6.225
 6801SOL     OW32433   6.395   0.004   6.088
 6801SOL    HW132434   6.435   0.095   6.079
 6801SOL    HW232435   6.295   0.012   6.094
 6802SOL     OW32436   5.783   0.976   6.850
 6802SOL    HW132437   5.872   0.931   6.836
 6802SOL    HW232438   5.710   0.911   6.831
 6803SOL     OW32439   7.111   0.999   5.776
 6803SOL    HW132440   7.048   0.923   5.789
 6803SOL    HW232441   7.159   1.017   5.862
 6804SOL     OW32442   7.052   1.417   6.539
 6804SOL    HW132443   6.993   1.423   6.619
 6804SOL    HW232444   7.037   1.329   6.493
 6805SOL     OW32445   7.253   1.714   6.158
 6805SOL    HW132446   7.212   1.691   6.070
 6805SOL    HW232447   7.235   1.640   6.223
 6806SOL     OW32448   6.184   0.729   5.856
 6806SOL    HW132449   6.208   0.798   5.788
 6806SOL    HW232450   6.106   0.762   5.910
 6807SOL     OW32451   6.867   0.345   6.530
 6807SOL    HW132452   6.781   0.295   6.517
 6807SOL    HW232453   6.929   0.291   6.586
 6808SOL     OW32454   6.577   0.410   6.828
 6808SOL    HW132455   6.500   0.444   6.882
 6808SOL    HW232456   6.543   0.359   6.749
 6809SOL     OW32457   6.627   0.701   6.015
 6809SOL    HW132458   6.653   0.697   6.111
 6809SOL    HW232459   6.542   0.650   6.001
 6810SOL     OW32460   5.662   0.811   6.375
 6810SOL    HW132461   5.761   0.799   6.384
 6810SOL    HW232462   5.638   0.906   6.396
 6811SOL     OW32463   6.948   1.144   6.131
 6811SOL    HW132464   7.031   1.115   6.083
 6811SOL    HW232465   6.899   1.211   6.075
 6812SOL     OW32466   6.136   0.196   6.471
 6812SOL    HW132467   6.131   0.191   6.571
 6812SOL    HW232468   6.138   0.292   6.442
 6813SOL     OW32469   6.594   1.456   6.063
 6813SOL    HW132470   6.548   1.528   6.011
 6813SOL    HW232471   6.590   1.476   6.161
 6814SOL     OW32472   5.937   1.801   6.439
 6814SOL    HW132473   5.987   1.715   6.445
 6814SOL    HW232474   6.002   1.878   6.436
 6815SOL     OW32475   7.381   1.066   6.459
 6815SOL    HW132476   7.319   1.051   6.383
 6815SOL    HW232477   7.329   1.077   6.544
 6816SOL     OW32478   5.907   0.943   5.828
 6816SOL    HW132479   5.989   0.982   5.786
 6816SOL    HW232480   5.880   0.861   5.779
 6817SOL     OW32481   7.044   0.735   6.314
 6817SOL    HW132482   7.039   0.670   6.389
 6817SOL    HW232483   7.124   0.794   6.327
 6818SOL     OW32484   6.697   1.776   5.823
 6818SOL    HW132485   6.637   1.714   5.873
 6818SOL    HW232486   6.728   1.732   5.738
 6819SOL     OW32487   5.788   0.285   7.084
 6819SOL    HW132488   5.708   0.345   7.071
 6819SOL    HW232489   5.778   0.236   7.170
 6820SOL     OW32490   7.218   1.377   5.667
 6820SOL    HW132491   7.186   1.471   5.657
 6820SOL    HW232492   7.142   1.314   5.655
 6821SOL     OW32493   6.050   1.743   5.909
 6821SOL    HW132494   6.083   1.782   5.995
 6821SOL    HW232495   6.126   1.736   5.844
 6822SOL     OW32496   6.986   0.107   6.012
 6822SOL    HW132497   6.962   0.070   5.922
 6822SOL    HW232498   7.085   0.123   6.016
 6823SOL     OW32499   5.835   1.785   6.827
 6823SOL    HW132500   5.892   1.720   6.877
 6823SOL    HW232501   5.819   1.752   6.734
 6824SOL     OW32502   6.526   1.698   6.490
 6824SOL    HW132503   6.606   1.641   6.511
 6824SOL    HW232504   6.477   1.658   6.413
 6825SOL     OW32505   5.968   0.700   6.066
 6825SOL    HW132506   6.013   0.610   6.063
 6825SOL    HW232507   5.874   0.689   6.099
 6826SOL     OW32508   6.200   0.122   5.703
 6826SOL    HW132509   6.298   0.100   5.710
 6826SOL    HW232510   6.169   0.105   5.610
 6827SOL     OW32511   6.389   1.402   6.510
 6827SOL    HW132512   6.479   1.416   6.468
 6827SOL    HW232513   6.318   1.404   6.439
 6828SOL     OW32514   6.508   0.503   6.485
 6828SOL    HW132515   6.483   0.494   6.389
 6828SOL    HW232516   6.556   0.421   6.516
 6829SOL     OW32517   6.125   0.064   6.098
 6829SOL    HW132518   6.044   0.065   6.156
 6829SOL    HW232519   6.128   0.147   6.043
 6830SOL     OW32520   5.883   0.035   5.757
 6830SOL    HW132521   5.932   0.119   5.736
 6830SOL    HW232522   5.945  -0.030   5.802
 6831SOL     OW32523   6.813   1.570   6.379
 6831SOL    HW132524   6.834   1.644   6.314
 6831SOL    HW232525   6.881   1.570   6.452
 6832SOL     OW32526   6.045   1.152   6.327
 6832SOL    HW132527   5.974   1.125   6.392
 6832SOL    HW232528   6.019   1.124   6.234
 6833SOL     OW32529   6.857   1.797   6.177
 6833SOL    HW132530   6.901   1.861   6.113
 6833SOL    HW232531   6.807   1.849   6.247
 6834SOL     OW32532   6.618   0.549   5.602
 6834SOL    HW132533   6.577   0.631   5.563
 6834SOL    HW232534   6.682   0.575   5.675
 6835SOL     OW32535   6.147   0.222   6.733
 6835SOL    HW132536   6.185   0.138   6.770
 6835SOL    HW232537   6.059   0.241   6.777
 6836SOL     OW32538   6.452   0.454   6.228
 6836SOL    HW132539   6.420   0.526   6.166
 6836SOL    HW232540   6.476   0.373   6.175
 6837SOL     OW32541   6.603   0.039   6.339
 6837SOL    HW132542   6.531   0.044   6.270
 6837SOL    HW232543   6.579  -0.030   6.408
 6838SOL     OW32544   7.015   1.173   6.453
 6838SOL    HW132545   6.960   1.089   6.446
 6838SOL    HW232546   7.041   1.202   6.361
 6839SOL     OW32547   7.052   0.590   6.578
 6839SOL    HW132548   7.022   0.495   6.585
 6839SOL    HW232549   7.125   0.606   6.644
 6840SOL     OW32550   7.443   0.833   5.963
 6840SOL    HW132551   7.485   0.769   6.027
 6840SOL    HW232552   7.405   0.782   5.885
 6841SOL     OW32553   6.074   1.385   5.760
 6841SOL    HW132554   5.987   1.370   5.807
 6841SOL    HW232555   6.057   1.411   5.665
 6842SOL     OW32556   7.250   1.280   6.243
 6842SOL    HW132557   7.349   1.288   6.257
 6842SOL    HW232558   7.205   1.364   6.274
 6843SOL     OW32559   6.976   0.575   5.664
 6843SOL    HW132560   6.922   0.554   5.745
 6843SOL    HW232561   7.067   0.534   5.673
 6844SOL     OW32562   6.113   0.256   5.914
 6844SOL    HW132563   6.140   0.197   5.839
 6844SOL    HW232564   6.113   0.351   5.883
 6845SOL     OW32565   6.697   1.195   6.686
 6845SOL    HW132566   6.657   1.239   6.767
 6845SOL    HW232567   6.656   1.232   6.603
 6846SOL     OW32568   7.224   1.099   6.665
 6846SOL    HW132569   7.229   1.180   6.724
 6846SOL    HW232570   7.138   1.101   6.614
 6847SOL     OW32571   6.291   1.050   5.954
 6847SOL    HW132572   6.277   1.057   6.053
 6847SOL    HW232573   6.375   0.999   5.936
 6848SOL     OW32574   5.996   0.813   6.837
 6848SOL    HW132575   6.082   0.825   6.887
 6848SOL    HW232576   5.954   0.726   6.864
 6849SOL     OW32577   6.860   0.386   6.848
 6849SOL    HW132578   6.881   0.460   6.912
 6849SOL    HW232579   6.771   0.403   6.805
 6850SOL     OW32580   5.953   1.100   6.087
 6850SOL    HW132581   5.946   1.183   6.031
 6850SOL    HW232582   5.957   1.020   6.027
 6851SOL     OW32583   6.152   0.537   6.451
 6851SOL    HW132584   6.164   0.603   6.377
 6851SOL    HW232585   6.198   0.571   6.534
 6852SOL     OW32586   6.838   1.348   5.974
 6852SOL    HW132587   6.888   1.425   6.014
 6852SOL    HW232588   6.743   1.350   6.006
 6853SOL     OW32589   6.858   1.445   6.728
 6853SOL    HW132590   6.905   1.458   6.815
 6853SOL    HW232591   6.792   1.371   6.737
 6854SOL     OW32592   7.168   0.639   6.058
 6854SOL    HW132593   7.137   0.700   6.131
 6854SOL    HW232594   7.218   0.691   5.989
 6855SOL     OW32595   5.940   1.510   6.915
 6855SOL    HW132596   5.919   1.466   6.828
 6855SOL    HW232597   6.037   1.536   6.918
 6856SOL     OW32598   6.159   0.870   6.615
 6856SOL    HW132599   6.203   0.959   6.606
 6856SOL    HW232600   6.096   0.870   6.692
 6857SOL     OW32601   6.946   0.862   6.631
 6857SOL    HW132602   6.871   0.862   6.565
 6857SOL    HW232603   6.983   0.770   6.640
 6858SOL     OW32604   6.795   0.525   5.861
 6858SOL    HW132605   6.808   0.441   5.915
 6858SOL    HW232606   6.766   0.599   5.921
 6859SOL     OW32607   5.893   0.213   6.817
 6859SOL    HW132608   5.870   0.250   6.907
 6859SOL    HW232609   5.863   0.118   6.811
 6860SOL     OW32610   5.623   1.310   6.868
 6860SOL    HW132611   5.676   1.261   6.936
 6860SOL    HW232612   5.645   1.408   6.873
 6861SOL     OW32613   6.318   0.634   6.650
 6861SOL    HW132614   6.377   0.608   6.574
 6861SOL    HW232615   6.290   0.730   6.639
 6862SOL     OW32616   5.893   0.063   6.204
 6862SOL    HW132617   5.882   0.157   6.237
 6862SOL    HW232618   5.888   0.000   6.281
 6863SOL     OW32619   7.208   0.367   5.960
 6863SOL    HW132620   7.210   0.291   6.024
 6863SOL    HW232621   7.160   0.444   6.000
 6864SOL     OW32622   6.609   0.766   6.552
 6864SOL    HW132623   6.624   0.787   6.648
 6864SOL    HW232624   6.579   0.671   6.543
 6865SOL     OW32625   7.126   0.274   5.711
 6865SOL    HW132626   7.065   0.199   5.734
 6865SOL    HW232627   7.148   0.326   5.794
 6866SOL     OW32628   6.654   1.333   6.435
 6866SOL    HW132629   6.661   1.249   6.380
 6866SOL    HW232630   6.716   1.402   6.399
 6867SOL     OW32631   5.905   0.810   6.535
 6867SOL    HW132632   5.998   0.846   6.540
 6867SOL    HW232633   5.899   0.725   6.587
 6868SOL     OW32634   5.925   0.509   6.592
 6868SOL    HW132635   5.873   0.426   6.575
 6868SOL    HW232636   6.002   0.514   6.528
 6869SOL     OW32637   6.746   0.207   7.063
 6869SOL    HW132638   6.746   0.271   7.140
 6869SOL    HW232639   6.774   0.255   6.980
 6870SOL     OW32640   5.594   1.326   5.786
 6870SOL    HW132641   5.501   1.347   5.755
 6870SOL    HW232642   5.604   1.227   5.799
 6871SOL     OW32643   5.674   1.801   6.513
 6871SOL    HW132644   5.632   1.715   6.486
 6871SOL    HW232645   5.768   1.804   6.479
 6872SOL     OW32646   6.090   1.568   6.496
 6872SOL    HW132647   6.156   1.642   6.505
 6872SOL    HW232648   6.134   1.489   6.454
 6873SOL     OW32649   6.588   0.796   6.824
 6873SOL    HW132650   6.629   0.764   6.910
 6873SOL    HW232651   6.492   0.769   6.821
 6874SOL     OW32652   5.626   0.544   6.700
 6874SOL    HW132653   5.711   0.511   6.659
 6874SOL    HW232654   5.639   0.559   6.798
 6875SOL     OW32655   7.243   0.604   6.792
 6875SOL    HW132656   7.205   0.535   6.854
 6875SOL    HW232657   7.325   0.568   6.748
 6876SOL     OW32658   6.257   0.464   6.855
 6876SOL    HW132659   6.223   0.375   6.825
 6876SOL    HW232660   6.283   0.518   6.775
 6877SOL     OW32661   6.516   1.678   7.051
 6877SOL    HW132662   6.492   1.660   6.956
 6877SOL    HW232663   6.546   1.772   7.061
 6878SOL     OW32664   6.059   0.500   5.777
 6878SOL    HW132665   6.120   0.580   5.781
 6878SOL    HW232666   5.964   0.531   5.784
 6879SOL     OW32667   6.933   1.059   6.820
 6879SOL    HW132668   6.957   0.996   6.746
 6879SOL    HW232669   6.843   1.099   6.802
 6880SOL     OW32670   6.888   0.855   5.895
 6880SOL    HW132671   6.802   0.824   5.937
 6880SOL    HW232672   6.884   0.841   5.796
 6881SOL     OW32673   7.345   1.747   6.740
 6881SOL    HW132674   7.406   1.777   6.667
 6881SOL    HW232675   7.307   1.658   6.718
 6882SOL     OW32676   6.838   1.731   6.714
 6882SOL    HW132677   6.922   1.736   6.660
 6882SOL    HW232678   6.815   1.635   6.732
 6883SOL     OW32679   5.669   1.258   6.608
 6883SOL    HW132680   5.664   1.257   6.708
 6883SOL    HW232681   5.586   1.217   6.570
 6884SOL     OW32682   7.312   0.135   6.109
 6884SOL    HW132683   7.385   0.118   6.042
 6884SOL    HW232684   7.281   0.048   6.147
 6885SOL     OW32685   6.974   1.573   6.063
 6885SOL    HW132686   7.041   1.585   5.989
 6885SOL    HW232687   6.934   1.662   6.086
 6886SOL     OW32688   6.866   0.927   6.258
 6886SOL    HW132689   6.926   0.846   6.260
 6886SOL    HW232690   6.906   0.996   6.198
 6887SOL     OW32691   6.258   1.616   5.740
 6887SOL    HW132692   6.267   1.626   5.641
 6887SOL    HW232693   6.218   1.527   5.761
 6888SOL     OW32694   7.236   1.720   6.980
 6888SOL    HW132695   7.289   1.730   6.896
 6888SOL    HW232696   7.209   1.810   7.014
 6889SOL     OW32697   7.427   0.175   6.549
 6889SOL    HW132698   7.466   0.090   6.513
 6889SOL    HW232699   7.329   0.177   6.530
 6890SOL     OW32700   5.849   0.326   6.306
 6890SOL    HW132701   5.770   0.377   6.272
 6890SOL    HW232702   5.840   0.311   6.404
 6891SOL     OW32703   6.780   1.612   5.617
 6891SOL    HW132704   6.786   1.519   5.654
 6891SOL    HW232705   6.721   1.612   5.537
 6892SOL     OW32706   6.408   1.002   6.958
 6892SOL    HW132707   6.448   1.001   6.866
 6892SOL    HW232708   6.418   1.094   6.998
 6893SOL     OW32709   7.090   1.607   5.630
 6893SOL    HW132710   6.998   1.644   5.637
 6893SOL    HW232711   7.128   1.627   5.540
 6894SOL     OW32712   6.625   1.098   6.282
 6894SOL    HW132713   6.555   1.051   6.336
 6894SOL    HW232714   6.684   1.030   6.239
 6895SOL     OW32715   6.600   0.236   6.557
 6895SOL    HW132716   6.592   0.200   6.464
 6895SOL    HW232717   6.598   0.160   6.622
 6896SOL     OW32718   7.295   0.385   6.967
 6896SOL    HW132719   7.368   0.454   6.971
 6896SOL    HW232720   7.323   0.310   6.908
 6897SOL     OW32721   5.841   1.348   5.876
 6897SOL    HW132722   5.745   1.349   5.849
 6897SOL    HW232723   5.853   1.401   5.960
 6898SOL     OW32724   5.661   0.345   5.619
 6898SOL    HW132725   5.569   0.317   5.590
 6898SOL    HW232726   5.692   0.422   5.563
 6899SOL     OW32727   5.658   0.166   5.904
 6899SOL    HW132728   5.641   0.249   5.850
 6899SOL    HW232729   5.748   0.129   5.882
 6900SOL     OW32730   7.079   1.767   6.545
 6900SOL    HW132731   7.112   1.831   6.476
 6900SOL    HW232732   7.145   1.761   6.620
 6901SOL     OW32733   7.036   1.220   7.219
 6901SOL    HW132734   7.027   1.210   7.318
 6901SOL    HW232735   7.132   1.213   7.193
 6902SOL     OW32736   7.260   0.883   6.840
 6902SOL    HW132737   7.233   0.794   6.803
 6902SOL    HW232738   7.261   0.951   6.767
 6903SOL     OW32739   6.811   0.325   6.035
 6903SOL    HW132740   6.876   0.251   6.024
 6903SOL    HW232741   6.831   0.375   6.119
 6904SOL     OW32742   6.180   0.745   6.238
 6904SOL    HW132743   6.230   0.830   6.219
 6904SOL    HW232744   6.092   0.747   6.190
 6905SOL     OW32745   7.316   0.934   7.103
 6905SOL    HW132746   7.354   1.025   7.118
 6905SOL    HW232747   7.308   0.917   7.004
 6906SOL     OW32748   6.247   1.790   6.539
 6906SOL    HW132749   6.201   1.878   6.526
 6906SOL    HW232750   6.346   1.802   6.532
 6907SOL     OW32751   6.445   0.956   6.447
 6907SOL    HW132752   6.499   0.887   6.495
 6907SOL    HW232753   6.413   1.025   6.513
 6908SOL     OW32754   7.447   1.569   6.437
 6908SOL    HW132755   7.376   1.557   6.367
 6908SOL    HW232756   7.448   1.490   6.497
 6909SOL     OW32757   5.665   1.240   6.239
 6909SOL    HW132758   5.664   1.193   6.327
 6909SOL    HW232759   5.747   1.212   6.188
 6910SOL     OW32760   7.410   0.192   6.813
 6910SOL    HW132761   7.406   0.102   6.857
 6910SOL    HW232762   7.413   0.181   6.714
 6911SOL     OW32763   6.014   0.424   6.106
 6911SOL    HW132764   6.044   0.352   6.044
 6911SOL    HW232765   5.975   0.384   6.189
 6912SOL     OW32766   7.291   1.487   6.690
 6912SOL    HW132767   7.198   1.462   6.663
 6912SOL    HW232768   7.317   1.437   6.772
 6913SOL     OW32769   6.398   1.586   6.273
 6913SOL    HW132770   6.430   1.596   6.179
 6913SOL    HW232771   6.319   1.524   6.275
 6914SOL     OW32772   7.010   0.214   6.698
 6914SOL    HW132773   7.062   0.149   6.753
 6914SOL    HW232774   6.961   0.277   6.759
 6915SOL     OW32775   6.587   0.034   6.740
 6915SOL    HW132776   6.524  -0.038   6.709
 6915SOL    HW232777   6.680  -0.002   6.740
 6916SOL     OW32778   6.938   0.052   5.754
 6916SOL    HW132779   6.973   0.011   5.670
 6916SOL    HW232780   6.848   0.014   5.774
 6917SOL     OW32781   6.886   0.453   6.277
 6917SOL    HW132782   6.827   0.533   6.281
 6917SOL    HW232783   6.901   0.418   6.370
 6918SOL     OW32784   7.179   0.221   6.468
 6918SOL    HW132785   7.095   0.220   6.522
 6918SOL    HW232786   7.181   0.304   6.412
 6919SOL     OW32787   5.625   1.077   5.886
 6919SOL    HW132788   5.724   1.066   5.877
 6919SOL    HW232789   5.585   0.991   5.918
 6920SOL     OW32790   6.461   1.646   5.923
 6920SOL    HW132791   6.384   1.611   5.869
 6920SOL    HW232792   6.429   1.717   5.985
 6921SOL     OW32793   5.816   2.490   0.113
 6921SOL    HW132794   5.723   2.488   0.150
 6921SOL    HW232795   5.817   2.451   0.021
 6922SOL     OW32796   5.811   2.137   0.996
 6922SOL    HW132797   5.846   2.120   1.088
 6922SOL    HW232798   5.723   2.092   0.984
 6923SOL     OW32799   5.605   2.230   0.647
 6923SOL    HW132800   5.523   2.273   0.686
 6923SOL    HW232801   5.577   2.157   0.584
 6924SOL     OW32802   6.155   3.137   1.165
 6924SOL    HW132803   6.062   3.130   1.128
 6924SOL    HW232804   6.166   3.226   1.209
 6925SOL     OW32805   7.141   3.373   0.703
 6925SOL    HW132806   7.084   3.357   0.784
 6925SOL    HW232807   7.082   3.383   0.623
 6926SOL     OW32808   6.721   2.565   0.717
 6926SOL    HW132809   6.778   2.643   0.692
 6926SOL    HW232810   6.661   2.591   0.793
 6927SOL     OW32811   7.341   2.469   0.231
 6927SOL    HW132812   7.329   2.456   0.132
 6927SOL    HW232813   7.311   2.388   0.280
 6928SOL     OW32814   6.354   3.006   1.023
 6928SOL    HW132815   6.276   3.023   1.083
 6928SOL    HW232816   6.388   3.093   0.987
 6929SOL     OW32817   6.271   2.874   0.665
 6929SOL    HW132818   6.340   2.858   0.735
 6929SOL    HW232819   6.198   2.931   0.703
 6930SOL     OW32820   5.921   3.297   1.061
 6930SOL    HW132821   5.843   3.266   1.008
 6930SOL    HW232822   5.979   3.355   1.004
 6931SOL     OW32823   7.046   3.367   1.339
 6931SOL    HW132824   7.070   3.461   1.365
 6931SOL    HW232825   7.030   3.313   1.421
 6932SOL     OW32826   6.024   2.254   1.499
 6932SOL    HW132827   6.106   2.198   1.508
 6932SOL    HW232828   5.943   2.196   1.503
 6933SOL     OW32829   7.189   2.309   0.737
 6933SOL    HW132830   7.115   2.355   0.687
 6933SOL    HW232831   7.240   2.377   0.790
 6934SOL     OW32832   5.817   3.575   0.483
 6934SOL    HW132833   5.851   3.652   0.537
 6934SOL    HW232834   5.861   3.575   0.393
 6935SOL     OW32835   5.816   3.296   0.538
 6935SOL    HW132836   5.790   3.392   0.538
 6935SOL    HW232837   5.745   3.242   0.583
 6936SOL     OW32838   5.826   2.953   0.886
 6936SOL    HW132839   5.840   2.869   0.938
 6936SOL    HW232840   5.771   3.017   0.941
 6937SOL     OW32841   6.192   2.826   0.123
 6937SOL    HW132842   6.199   2.910   0.069
 6937SOL    HW232843   6.238   2.839   0.211
 6938SOL     OW32844   7.180   1.976   1.480
 6938SOL    HW132845   7.162   2.043   1.408
 6938SOL    HW232846   7.177   2.022   1.569
 6939SOL     OW32847   5.708   2.505   0.563
 6939SOL    HW132848   5.663   2.417   0.580
 6939SOL    HW232849   5.707   2.559   0.647
 6940SOL     OW32850   7.428   3.629   0.359
 6940SOL    HW132851   7.482   3.600   0.439
 6940SOL    HW232852   7.458   3.719   0.330
 6941SOL     OW32853   5.613   3.458   0.117
 6941SOL    HW132854   5.594   3.362   0.138
 6941SOL    HW232855   5.580   3.516   0.192
 6942SOL     OW32856   7.275   2.784   0.612
 6942SOL    HW132857   7.370   2.755   0.620
 6942SOL    HW232858   7.267   2.849   0.537
 6943SOL     OW32859   7.227   2.970   0.432
 6943SOL    HW132860   7.313   2.972   0.380
 6943SOL    HW232861   7.241   3.017   0.520
 6944SOL     OW32862   5.699   2.599   1.597
 6944SOL    HW132863   5.787   2.586   1.642
 6944SOL    HW232864   5.686   2.696   1.575
 6945SOL     OW32865   6.199   3.227   0.726
 6945SOL    HW132866   6.150   3.140   0.735
 6945SOL    HW232867   6.176   3.270   0.639
 6946SOL     OW32868   6.395   1.866   0.502
 6946SOL    HW132869   6.435   1.957   0.493
 6946SOL    HW232870   6.295   1.874   0.508
 6947SOL     OW32871   7.111   2.861   0.190
 6947SOL    HW132872   7.048   2.785   0.203
 6947SOL    HW232873   7.159   2.879   0.276
 6948SOL     OW32874   6.773   3.654   1.616
 6948SOL    HW132875   6.797   3.714   1.540
 6948SOL    HW232876   6.780   3.559   1.586
 6949SOL     OW32877   5.903   2.113   1.801
 6949SOL    HW132878   5.974   2.184   1.807
 6949SOL    HW232879   5.815   2.152   1.829
 6950SOL     OW32880   7.052   3.279   0.953
 6950SOL    HW132881   6.993   3.285   1.033
 6950SOL    HW232882   7.037   3.191   0.907
 6951SOL     OW32883   7.253   3.576   0.572
 6951SOL    HW132884   7.212   3.553   0.484
 6951SOL    HW232885   7.235   3.502   0.637
 6952SOL     OW32886   6.184   2.591   0.270
 6952SOL    HW132887   6.208   2.660   0.202
 6952SOL    HW232888   6.106   2.624   0.324
 6953SOL     OW32889   6.867   2.207   0.944
 6953SOL    HW132890   6.781   2.157   0.931
 6953SOL    HW232891   6.929   2.153   1.000
 6954SOL     OW32892   7.162   3.524   0.307
 6954SOL    HW132893   7.251   3.570   0.310
 6954SOL    HW232894   7.141   3.500   0.212
 6955SOL     OW32895   6.393   2.467   1.465
 6955SOL    HW132896   6.346   2.464   1.554
 6955SOL    HW232897   6.342   2.412   1.399
 6956SOL     OW32898   6.980   2.331   1.674
 6956SOL    HW132899   6.960   2.374   1.762
 6956SOL    HW232900   7.058   2.269   1.683
 6957SOL     OW32901   6.559   2.752   1.572
 6957SOL    HW132902   6.605   2.668   1.543
 6957SOL    HW232903   6.503   2.786   1.497
 6958SOL     OW32904   6.577   2.272   1.242
 6958SOL    HW132905   6.500   2.306   1.296
 6958SOL    HW232906   6.543   2.221   1.163
 6959SOL     OW32907   6.627   2.563   0.429
 6959SOL    HW132908   6.653   2.559   0.525
 6959SOL    HW232909   6.542   2.512   0.415
 6960SOL     OW32910   5.662   2.673   0.789
 6960SOL    HW132911   5.761   2.661   0.798
 6960SOL    HW232912   5.638   2.768   0.810
 6961SOL     OW32913   6.451   2.210   0.195
 6961SOL    HW132914   6.510   2.273   0.146
 6961SOL    HW232915   6.470   2.116   0.166
 6962SOL     OW32916   6.948   3.006   0.545
 6962SOL    HW132917   7.031   2.977   0.497
 6962SOL    HW232918   6.899   3.073   0.489
 6963SOL     OW32919   6.136   2.058   0.885
 6963SOL    HW132920   6.131   2.053   0.985
 6963SOL    HW232921   6.138   2.154   0.856
 6964SOL     OW32922   6.594   3.318   0.477
 6964SOL    HW132923   6.548   3.390   0.425
 6964SOL    HW232924   6.590   3.338   0.575
 6965SOL     OW32925   5.937   3.663   0.853
 6965SOL    HW132926   5.987   3.577   0.859
 6965SOL    HW232927   6.002   3.740   0.850
 6966SOL     OW32928   7.381   2.928   0.873
 6966SOL    HW132929   7.319   2.913   0.797
 6966SOL    HW232930   7.329   2.939   0.958
 6967SOL     OW32931   6.813   3.412   1.506
 6967SOL    HW132932   6.819   3.335   1.570
 6967SOL    HW232933   6.761   3.386   1.426
 6968SOL     OW32934   5.907   2.805   0.242
 6968SOL    HW132935   5.989   2.844   0.200
 6968SOL    HW232936   5.880   2.723   0.193
 6969SOL     OW32937   7.044   2.597   0.728
 6969SOL    HW132938   7.039   2.532   0.803
 6969SOL    HW232939   7.124   2.656   0.741
 6970SOL     OW32940   6.697   3.638   0.237
 6970SOL    HW132941   6.637   3.576   0.287
 6970SOL    HW232942   6.728   3.594   0.152
 6971SOL     OW32943   5.788   2.147   1.498
 6971SOL    HW132944   5.708   2.207   1.485
 6971SOL    HW232945   5.778   2.098   1.584
 6972SOL     OW32946   7.218   3.239   0.081
 6972SOL    HW132947   7.186   3.333   0.071
 6972SOL    HW232948   7.142   3.176   0.069
 6973SOL     OW32949   6.050   3.605   0.323
 6973SOL    HW132950   6.083   3.644   0.409
 6973SOL    HW232951   6.126   3.598   0.258
 6974SOL     OW32952   6.986   1.969   0.426
 6974SOL    HW132953   6.962   1.932   0.336
 6974SOL    HW232954   7.085   1.985   0.430
 6975SOL     OW32955   5.835   3.647   1.241
 6975SOL    HW132956   5.892   3.582   1.291
 6975SOL    HW232957   5.819   3.614   1.148
 6976SOL     OW32958   6.526   3.560   0.904
 6976SOL    HW132959   6.606   3.503   0.925
 6976SOL    HW232960   6.477   3.520   0.827
 6977SOL     OW32961   5.968   2.562   0.480
 6977SOL    HW132962   6.013   2.472   0.477
 6977SOL    HW232963   5.874   2.551   0.513
 6978SOL     OW32964   7.133   2.084   1.729
 6978SOL    HW132965   7.128   2.121   1.821
 6978SOL    HW232966   7.061   2.015   1.717
 6979SOL     OW32967   6.474   3.376   1.195
 6979SOL    HW132968   6.451   3.351   1.101
 6979SOL    HW232969   6.535   3.307   1.234
 6980SOL     OW32970   6.937   2.452   1.433
 6980SOL    HW132971   6.965   2.409   1.518
 6980SOL    HW232972   6.962   2.548   1.434
 6981SOL     OW32973   6.389   3.264   0.924
 6981SOL    HW132974   6.479   3.278   0.882
 6981SOL    HW232975   6.318   3.266   0.853
 6982SOL     OW32976   6.508   2.365   0.899
 6982SOL    HW132977   6.483   2.356   0.803
 6982SOL    HW232978   6.556   2.283   0.930
 6983SOL     OW32979   6.125   1.926   0.512
 6983SOL    HW132980   6.044   1.927   0.570
 6983SOL    HW232981   6.128   2.009   0.457
 6984SOL     OW32982   7.020   3.050   0.041
 6984SOL    HW132983   7.052   2.974   0.098
 6984SOL    HW232984   6.928   3.077   0.071
 6985SOL     OW32985   5.883   1.897   0.171
 6985SOL    HW132986   5.932   1.981   0.150
 6985SOL    HW232987   5.945   1.832   0.216
 6986SOL     OW32988   6.521   2.098   0.480
 6986SOL    HW132989   6.473   2.139   0.402
 6986SOL    HW232990   6.620   2.096   0.461
 6987SOL     OW32991   6.662   2.545   1.464
 6987SOL    HW132992   6.582   2.484   1.467
 6987SOL    HW232993   6.743   2.492   1.440
 6988SOL     OW32994   6.813   3.432   0.793
 6988SOL    HW132995   6.834   3.506   0.728
 6988SOL    HW232996   6.881   3.432   0.866
 6989SOL     OW32997   6.045   3.014   0.741
 6989SOL    HW132998   5.974   2.987   0.806
 6989SOL    HW232999   6.019   2.986   0.648
 6990SOL     OW33000   6.857   3.659   0.591
 6990SOL    HW133001   6.901   3.723   0.527
 6990SOL    HW233002   6.807   3.711   0.661
 6991SOL     OW33003   6.618   2.411   0.016
 6991SOL    HW133004   6.577   2.493  -0.023
 6991SOL    HW233005   6.682   2.437   0.089
 6992SOL     OW33006   5.664   2.418   1.386
 6992SOL    HW133007   5.756   2.417   1.345
 6992SOL    HW233008   5.658   2.492   1.453
 6993SOL     OW33009   6.147   2.084   1.147
 6993SOL    HW133010   6.185   2.000   1.184
 6993SOL    HW233011   6.059   2.103   1.191
 6994SOL     OW33012   6.452   2.316   0.642
 6994SOL    HW133013   6.420   2.388   0.580
 6994SOL    HW233014   6.476   2.235   0.589
 6995SOL     OW33015   6.603   1.901   0.753
 6995SOL    HW133016   6.531   1.906   0.684
 6995SOL    HW233017   6.579   1.832   0.822
 6996SOL     OW33018   7.015   3.035   0.867
 6996SOL    HW133019   6.960   2.951   0.860
 6996SOL    HW233020   7.041   3.064   0.775
 6997SOL     OW33021   7.052   2.452   0.992
 6997SOL    HW133022   7.022   2.357   0.999
 6997SOL    HW233023   7.125   2.468   1.058
 6998SOL     OW33024   7.443   2.695   0.377
 6998SOL    HW133025   7.485   2.631   0.441
 6998SOL    HW233026   7.405   2.644   0.299
 6999SOL     OW33027   6.074   3.247   0.174
 6999SOL    HW133028   5.987   3.232   0.221
 6999SOL    HW233029   6.057   3.273   0.079
 7000SOL     OW33030   7.250   3.142   0.657
 7000SOL    HW133031   7.349   3.150   0.671
 7000SOL    HW233032   7.205   3.226   0.688
 7001SOL     OW33033   6.976   2.437   0.078
 7001SOL    HW133034   6.922   2.416   0.159
 7001SOL    HW233035   7.067   2.396   0.087
 7002SOL     OW33036   6.113   2.118   0.328
 7002SOL    HW133037   6.140   2.059   0.253
 7002SOL    HW233038   6.113   2.213   0.297
 7003SOL     OW33039   6.697   3.057   1.100
 7003SOL    HW133040   6.657   3.101   1.181
 7003SOL    HW233041   6.656   3.094   1.017
 7004SOL     OW33042   7.224   2.961   1.079
 7004SOL    HW133043   7.229   3.042   1.138
 7004SOL    HW233044   7.138   2.963   1.028
 7005SOL     OW33045   6.501   1.951   1.402
 7005SOL    HW133046   6.526   1.931   1.307
 7005SOL    HW233047   6.573   2.007   1.444
 7006SOL     OW33048   6.566   2.978   1.719
 7006SOL    HW133049   6.467   2.984   1.729
 7006SOL    HW233050   6.589   2.898   1.663
 7007SOL     OW33051   6.291   2.912   0.368
 7007SOL    HW133052   6.277   2.919   0.467
 7007SOL    HW233053   6.375   2.861   0.350
 7008SOL     OW33054   6.860   2.248   1.262
 7008SOL    HW133055   6.881   2.322   1.326
 7008SOL    HW233056   6.771   2.265   1.219
 7009SOL     OW33057   5.650   3.426   1.331
 7009SOL    HW133058   5.604   3.508   1.297
 7009SOL    HW233059   5.748   3.445   1.340
 7010SOL     OW33060   5.953   2.962   0.501
 7010SOL    HW133061   5.946   3.045   0.445
 7010SOL    HW233062   5.957   2.882   0.441
 7011SOL     OW33063   6.152   2.399   0.865
 7011SOL    HW133064   6.164   2.465   0.791
 7011SOL    HW233065   6.198   2.433   0.948
 7012SOL     OW33066   6.838   3.210   0.388
 7012SOL    HW133067   6.888   3.287   0.428
 7012SOL    HW233068   6.743   3.212   0.420
 7013SOL     OW33069   6.858   3.307   1.142
 7013SOL    HW133070   6.905   3.320   1.229
 7013SOL    HW233071   6.792   3.233   1.151
 7014SOL     OW33072   7.168   2.501   0.472
 7014SOL    HW133073   7.137   2.562   0.545
 7014SOL    HW233074   7.218   2.553   0.403
 7015SOL     OW33075   5.940   3.372   1.329
 7015SOL    HW133076   5.919   3.328   1.242
 7015SOL    HW233077   6.037   3.398   1.332
 7016SOL     OW33078   6.599   1.967   1.770
 7016SOL    HW133079   6.605   2.052   1.718
 7016SOL    HW233080   6.631   1.891   1.713
 7017SOL     OW33081   6.090   1.912   1.740
 7017SOL    HW133082   6.048   1.855   1.670
 7017SOL    HW233083   6.024   1.981   1.772
 7018SOL     OW33084   6.159   2.732   1.029
 7018SOL    HW133085   6.203   2.821   1.020
 7018SOL    HW233086   6.096   2.732   1.106
 7019SOL     OW33087   6.946   2.724   1.045
 7019SOL    HW133088   6.871   2.724   0.979
 7019SOL    HW233089   6.983   2.632   1.054
 7020SOL     OW33090   6.795   2.387   0.275
 7020SOL    HW133091   6.808   2.303   0.329
 7020SOL    HW233092   6.766   2.461   0.335
 7021SOL     OW33093   5.623   3.172   1.282
 7021SOL    HW133094   5.676   3.123   1.350
 7021SOL    HW233095   5.645   3.270   1.287
 7022SOL     OW33096   6.318   2.496   1.064
 7022SOL    HW133097   6.377   2.470   0.988
 7022SOL    HW233098   6.290   2.592   1.053
 7023SOL     OW33099   5.893   1.925   0.618
 7023SOL    HW133100   5.882   2.019   0.651
 7023SOL    HW233101   5.888   1.862   0.695
 7024SOL     OW33102   7.208   2.229   0.374
 7024SOL    HW133103   7.210   2.153   0.438
 7024SOL    HW233104   7.160   2.306   0.414
 7025SOL     OW33105   6.609   2.628   0.966
 7025SOL    HW133106   6.624   2.649   1.062
 7025SOL    HW233107   6.579   2.533   0.957
 7026SOL     OW33108   6.566   3.435   1.700
 7026SOL    HW133109   6.546   3.479   1.612
 7026SOL    HW233110   6.605   3.344   1.684
 7027SOL     OW33111   7.126   2.136   0.125
 7027SOL    HW133112   7.065   2.061   0.148
 7027SOL    HW233113   7.148   2.188   0.208
 7028SOL     OW33114   6.889   2.700   0.042
 7028SOL    HW133115   6.923   2.607   0.057
 7028SOL    HW233116   6.907   2.727  -0.053
 7029SOL     OW33117   6.654   3.195   0.849
 7029SOL    HW133118   6.661   3.111   0.794
 7029SOL    HW233119   6.716   3.264   0.813
 7030SOL     OW33120   5.905   2.672   0.949
 7030SOL    HW133121   5.998   2.708   0.954
 7030SOL    HW233122   5.899   2.587   1.001
 7031SOL     OW33123   5.925   2.371   1.006
 7031SOL    HW133124   5.873   2.288   0.989
 7031SOL    HW233125   6.002   2.376   0.942
 7032SOL     OW33126   6.746   2.069   1.477
 7032SOL    HW133127   6.746   2.133   1.554
 7032SOL    HW233128   6.774   2.117   1.394
 7033SOL     OW33129   5.674   3.663   0.927
 7033SOL    HW133130   5.632   3.577   0.900
 7033SOL    HW233131   5.768   3.666   0.893
 7034SOL     OW33132   6.090   3.430   0.910
 7034SOL    HW133133   6.156   3.504   0.919
 7034SOL    HW233134   6.134   3.351   0.868
 7035SOL     OW33135   6.588   2.658   1.238
 7035SOL    HW133136   6.629   2.626   1.324
 7035SOL    HW233137   6.492   2.631   1.235
 7036SOL     OW33138   5.626   2.406   1.114
 7036SOL    HW133139   5.711   2.373   1.073
 7036SOL    HW233140   5.639   2.421   1.212
 7037SOL     OW33141   5.775   2.382   1.722
 7037SOL    HW133142   5.834   2.342   1.652
 7037SOL    HW233143   5.717   2.453   1.681
 7038SOL     OW33144   6.401   2.434   0.325
 7038SOL    HW133145   6.408   2.345   0.279
 7038SOL    HW233146   6.307   2.468   0.317
 7039SOL     OW33147   7.243   2.466   1.206
 7039SOL    HW133148   7.205   2.397   1.268
 7039SOL    HW233149   7.325   2.430   1.162
 7040SOL     OW33150   5.838   3.426   1.744
 7040SOL    HW133151   5.808   3.483   1.820
 7040SOL    HW233152   5.831   3.329   1.770
 7041SOL     OW33153   6.257   2.326   1.269
 7041SOL    HW133154   6.223   2.237   1.239
 7041SOL    HW233155   6.283   2.380   1.189
 7042SOL     OW33156   6.059   2.362   0.191
 7042SOL    HW133157   6.120   2.442   0.195
 7042SOL    HW233158   5.964   2.393   0.198
 7043SOL     OW33159   5.745   2.999   1.466
 7043SOL    HW133160   5.767   2.938   1.542
 7043SOL    HW233161   5.755   2.950   1.380
 7044SOL     OW33162   6.933   2.921   1.234
 7044SOL    HW133163   6.957   2.858   1.160
 7044SOL    HW233164   6.843   2.961   1.216
 7045SOL     OW33165   6.888   2.717   0.309
 7045SOL    HW133166   6.802   2.686   0.351
 7045SOL    HW233167   6.884   2.703   0.210
 7046SOL     OW33168   7.345   3.609   1.154
 7046SOL    HW133169   7.406   3.639   1.081
 7046SOL    HW233170   7.307   3.520   1.132
 7047SOL     OW33171   6.838   3.593   1.128
 7047SOL    HW133172   6.922   3.598   1.074
 7047SOL    HW233173   6.815   3.497   1.146
 7048SOL     OW33174   5.669   3.120   1.022
 7048SOL    HW133175   5.664   3.119   1.122
 7048SOL    HW233176   5.586   3.079   0.984
 7049SOL     OW33177   6.489   1.948   0.133
 7049SOL    HW133178   6.540   1.949   0.047
 7049SOL    HW233179   6.545   1.906   0.204
 7050SOL     OW33180   7.312   1.997   0.523
 7050SOL    HW133181   7.385   1.980   0.456
 7050SOL    HW233182   7.281   1.910   0.561
 7051SOL     OW33183   6.974   3.435   0.477
 7051SOL    HW133184   7.041   3.447   0.403
 7051SOL    HW233185   6.934   3.524   0.500
 7052SOL     OW33186   6.866   2.789   0.672
 7052SOL    HW133187   6.926   2.708   0.674
 7052SOL    HW233188   6.906   2.858   0.612
 7053SOL     OW33189   6.416   3.135   1.422
 7053SOL    HW133190   6.411   3.168   1.517
 7053SOL    HW233191   6.330   3.154   1.376
 7054SOL     OW33192   6.258   3.478   0.154
 7054SOL    HW133193   6.267   3.488   0.055
 7054SOL    HW233194   6.218   3.389   0.175
 7055SOL     OW33195   7.236   3.582   1.394
 7055SOL    HW133196   7.289   3.592   1.310
 7055SOL    HW233197   7.209   3.672   1.428
 7056SOL     OW33198   7.427   2.037   0.963
 7056SOL    HW133199   7.466   1.952   0.927
 7056SOL    HW233200   7.329   2.039   0.944
 7057SOL     OW33201   5.849   2.188   0.720
 7057SOL    HW133202   5.770   2.239   0.686
 7057SOL    HW233203   5.840   2.173   0.818
 7058SOL     OW33204   6.780   3.474   0.031
 7058SOL    HW133205   6.786   3.381   0.068
 7058SOL    HW233206   6.721   3.474  -0.049
 7059SOL     OW33207   6.408   2.864   1.372
 7059SOL    HW133208   6.448   2.863   1.280
 7059SOL    HW233209   6.418   2.956   1.412
 7060SOL     OW33210   6.502   2.772   0.291
 7060SOL    HW133211   6.565   2.810   0.223
 7060SOL    HW233212   6.542   2.689   0.330
 7061SOL     OW33213   7.090   3.469   0.044
 7061SOL    HW133214   6.998   3.506   0.051
 7061SOL    HW233215   7.128   3.489  -0.046
 7062SOL     OW33216   5.958   3.150   1.490
 7062SOL    HW133217   5.945   3.243   1.456
 7062SOL    HW233218   5.874   3.098   1.477
 7063SOL     OW33219   7.200   3.154   1.289
 7063SOL    HW133220   7.260   3.157   1.369
 7063SOL    HW233221   7.125   3.218   1.302
 7064SOL     OW33222   6.625   2.960   0.696
 7064SOL    HW133223   6.555   2.913   0.750
 7064SOL    HW233224   6.684   2.892   0.653
 7065SOL     OW33225   6.600   2.098   0.971
 7065SOL    HW133226   6.592   2.062   0.878
 7065SOL    HW233227   6.598   2.022   1.036
 7066SOL     OW33228   6.176   3.349   0.491
 7066SOL    HW133229   6.218   3.291   0.421
 7066SOL    HW233230   6.132   3.428   0.447
 7067SOL     OW33231   5.841   3.210   0.290
 7067SOL    HW133232   5.745   3.211   0.263
 7067SOL    HW233233   5.853   3.263   0.374
 7068SOL     OW33234   6.258   2.065   1.489
 7068SOL    HW133235   6.348   2.049   1.449
 7068SOL    HW233236   6.266   2.070   1.588
 7069SOL     OW33237   7.026   2.718   1.398
 7069SOL    HW133238   6.969   2.770   1.335
 7069SOL    HW233239   7.122   2.730   1.374
 7070SOL     OW33240   5.658   2.028   0.318
 7070SOL    HW133241   5.641   2.111   0.264
 7070SOL    HW233242   5.748   1.991   0.296
 7071SOL     OW33243   6.769   3.197   0.119
 7071SOL    HW133244   6.670   3.186   0.121
 7071SOL    HW233245   6.803   3.212   0.212
 7072SOL     OW33246   7.079   3.629   0.959
 7072SOL    HW133247   7.112   3.693   0.890
 7072SOL    HW233248   7.145   3.623   1.034
 7073SOL     OW33249   7.260   2.745   1.254
 7073SOL    HW133250   7.233   2.656   1.217
 7073SOL    HW233251   7.261   2.813   1.181
 7074SOL     OW33252   6.811   2.187   0.449
 7074SOL    HW133253   6.876   2.113   0.438
 7074SOL    HW233254   6.831   2.237   0.533
 7075SOL     OW33255   6.180   2.607   0.652
 7075SOL    HW133256   6.230   2.692   0.633
 7075SOL    HW233257   6.092   2.609   0.604
 7076SOL     OW33258   6.445   3.236   0.016
 7076SOL    HW133259   6.399   3.251   0.104
 7076SOL    HW233260   6.489   3.321  -0.014
 7077SOL     OW33261   6.247   3.652   0.953
 7077SOL    HW133262   6.201   3.740   0.940
 7077SOL    HW233263   6.346   3.664   0.946
 7078SOL     OW33264   6.445   2.818   0.861
 7078SOL    HW133265   6.499   2.749   0.909
 7078SOL    HW233266   6.413   2.887   0.927
 7079SOL     OW33267   6.669   2.846   0.087
 7079SOL    HW133268   6.646   2.899   0.005
 7079SOL    HW233269   6.750   2.790   0.068
 7080SOL     OW33270   7.447   3.431   0.851
 7080SOL    HW133271   7.376   3.419   0.781
 7080SOL    HW233272   7.448   3.352   0.911
 7081SOL     OW33273   5.665   3.102   0.653
 7081SOL    HW133274   5.664   3.055   0.741
 7081SOL    HW233275   5.747   3.074   0.602
 7082SOL     OW33276   6.014   2.286   0.520
 7082SOL    HW133277   6.044   2.214   0.458
 7082SOL    HW233278   5.975   2.246   0.603
 7083SOL     OW33279   7.291   3.349   1.104
 7083SOL    HW133280   7.198   3.324   1.077
 7083SOL    HW233281   7.317   3.299   1.186
 7084SOL     OW33282   5.903   2.409   1.280
 7084SOL    HW133283   5.941   2.350   1.352
 7084SOL    HW233284   5.943   2.383   1.192
 7085SOL     OW33285   6.398   3.448   0.687
 7085SOL    HW133286   6.430   3.458   0.593
 7085SOL    HW233287   6.319   3.386   0.689
 7086SOL     OW33288   7.010   2.076   1.112
 7086SOL    HW133289   7.062   2.011   1.167
 7086SOL    HW233290   6.961   2.139   1.173
 7087SOL     OW33291   6.587   1.896   1.154
 7087SOL    HW133292   6.524   1.824   1.123
 7087SOL    HW233293   6.680   1.860   1.154
 7088SOL     OW33294   6.356   3.192   0.301
 7088SOL    HW133295   6.310   3.105   0.318
 7088SOL    HW233296   6.447   3.189   0.342
 7089SOL     OW33297   6.204   3.429   1.284
 7089SOL    HW133298   6.199   3.511   1.341
 7089SOL    HW233299   6.293   3.426   1.239
 7090SOL     OW33300   6.938   1.914   0.168
 7090SOL    HW133301   6.973   1.873   0.084
 7090SOL    HW233302   6.848   1.876   0.188
 7091SOL     OW33303   6.886   2.315   0.691
 7091SOL    HW133304   6.827   2.395   0.695
 7091SOL    HW233305   6.901   2.280   0.784
 7092SOL     OW33306   7.179   2.083   0.882
 7092SOL    HW133307   7.095   2.082   0.936
 7092SOL    HW233308   7.181   2.166   0.826
 7093SOL     OW33309   5.625   2.939   0.300
 7093SOL    HW133310   5.724   2.928   0.291
 7093SOL    HW233311   5.585   2.853   0.332
 7094SOL     OW33312   6.461   3.508   0.337
 7094SOL    HW133313   6.384   3.473   0.283
 7094SOL    HW233314   6.429   3.579   0.399
 7095SOL     OW33315   5.816   2.490   1.975
 7095SOL    HW133316   5.723   2.488   2.012
 7095SOL    HW233317   5.817   2.451   1.883
 7096SOL     OW33318   6.155   3.137   3.027
 7096SOL    HW133319   6.062   3.130   2.990
 7096SOL    HW233320   6.166   3.226   3.071
 7097SOL     OW33321   6.721   2.565   2.579
 7097SOL    HW133322   6.778   2.643   2.554
 7097SOL    HW233323   6.661   2.591   2.655
 7098SOL     OW33324   6.271   2.874   2.527
 7098SOL    HW133325   6.340   2.858   2.597
 7098SOL    HW233326   6.198   2.931   2.565
 7099SOL     OW33327   6.272   3.023   3.665
 7099SOL    HW133328   6.332   3.102   3.679
 7099SOL    HW233329   6.186   3.054   3.624
 7100SOL     OW33330   7.046   3.367   3.201
 7100SOL    HW133331   7.070   3.461   3.227
 7100SOL    HW233332   7.030   3.313   3.283
 7101SOL     OW33333   7.189   2.309   2.599
 7101SOL    HW133334   7.115   2.355   2.549
 7101SOL    HW233335   7.240   2.377   2.652
 7102SOL     OW33336   6.713   3.203   3.552
 7102SOL    HW133337   6.760   3.203   3.640
 7102SOL    HW233338   6.665   3.116   3.541
 7103SOL     OW33339   5.816   3.296   2.400
 7103SOL    HW133340   5.790   3.392   2.400
 7103SOL    HW233341   5.745   3.242   2.445
 7104SOL     OW33342   7.180   1.976   3.342
 7104SOL    HW133343   7.162   2.043   3.270
 7104SOL    HW233344   7.177   2.022   3.431
 7105SOL     OW33345   7.275   2.784   2.474
 7105SOL    HW133346   7.370   2.755   2.482
 7105SOL    HW233347   7.267   2.849   2.399
 7106SOL     OW33348   5.699   2.599   3.459
 7106SOL    HW133349   5.787   2.586   3.504
 7106SOL    HW233350   5.686   2.696   3.437
 7107SOL     OW33351   6.199   3.227   2.588
 7107SOL    HW133352   6.150   3.140   2.597
 7107SOL    HW233353   6.176   3.270   2.501
 7108SOL     OW33354   5.783   2.838   3.126
 7108SOL    HW133355   5.872   2.793   3.112
 7108SOL    HW233356   5.710   2.773   3.107
 7109SOL     OW33357   6.773   3.654   3.478
 7109SOL    HW133358   6.797   3.714   3.402
 7109SOL    HW233359   6.780   3.559   3.448
 7110SOL     OW33360   5.903   2.113   3.663
 7110SOL    HW133361   5.974   2.184   3.669
 7110SOL    HW233362   5.815   2.152   3.691
 7111SOL     OW33363   6.393   2.467   3.327
 7111SOL    HW133364   6.346   2.464   3.416
 7111SOL    HW233365   6.342   2.412   3.261
 7112SOL     OW33366   6.627   2.563   2.291
 7112SOL    HW133367   6.653   2.559   2.387
 7112SOL    HW233368   6.542   2.512   2.277
 7113SOL     OW33369   5.716   3.683   3.433
 7113SOL    HW133370   5.706   3.668   3.532
 7113SOL    HW233371   5.630   3.719   3.397
 7114SOL     OW33372   7.381   2.928   2.735
 7114SOL    HW133373   7.319   2.913   2.659
 7114SOL    HW233374   7.329   2.939   2.820
 7115SOL     OW33375   5.788   2.147   3.360
 7115SOL    HW133376   5.708   2.207   3.347
 7115SOL    HW233377   5.778   2.098   3.446
 7116SOL     OW33378   6.050   3.605   2.185
 7116SOL    HW133379   6.083   3.644   2.271
 7116SOL    HW233380   6.126   3.598   2.120
 7117SOL     OW33381   7.133   2.084   3.591
 7117SOL    HW133382   7.128   2.121   3.683
 7117SOL    HW233383   7.061   2.015   3.579
 7118SOL     OW33384   6.367   2.126   3.611
 7118SOL    HW133385   6.434   2.065   3.654
 7118SOL    HW233386   6.294   2.145   3.676
 7119SOL     OW33387   7.250   3.142   2.519
 7119SOL    HW133388   7.349   3.150   2.533
 7119SOL    HW233389   7.205   3.226   2.550
 7120SOL     OW33390   6.976   2.437   1.940
 7120SOL    HW133391   6.922   2.416   2.021
 7120SOL    HW233392   7.067   2.396   1.949
 7121SOL     OW33393   7.178   3.491   3.487
 7121SOL    HW133394   7.205   3.525   3.397
 7121SOL    HW233395   7.257   3.453   3.533
 7122SOL     OW33396   6.697   3.057   2.962
 7122SOL    HW133397   6.657   3.101   3.043
 7122SOL    HW233398   6.656   3.094   2.879
 7123SOL     OW33399   6.501   1.951   3.264
 7123SOL    HW133400   6.526   1.931   3.169
 7123SOL    HW233401   6.573   2.007   3.306
 7124SOL     OW33402   6.566   2.978   3.581
 7124SOL    HW133403   6.467   2.984   3.591
 7124SOL    HW233404   6.589   2.898   3.525
 7125SOL     OW33405   5.996   2.675   3.113
 7125SOL    HW133406   6.082   2.687   3.163
 7125SOL    HW233407   5.954   2.588   3.140
 7126SOL     OW33408   5.988   2.613   3.460
 7126SOL    HW133409   6.056   2.668   3.413
 7126SOL    HW233410   6.028   2.525   3.487
 7127SOL     OW33411   6.599   1.967   3.632
 7127SOL    HW133412   6.605   2.052   3.580
 7127SOL    HW233413   6.631   1.891   3.575
 7128SOL     OW33414   6.090   1.912   3.602
 7128SOL    HW133415   6.048   1.855   3.532
 7128SOL    HW233416   6.024   1.981   3.634
 7129SOL     OW33417   6.795   2.387   2.137
 7129SOL    HW133418   6.808   2.303   2.191
 7129SOL    HW233419   6.766   2.461   2.197
 7130SOL     OW33420   5.893   2.075   3.093
 7130SOL    HW133421   5.870   2.112   3.183
 7130SOL    HW233422   5.863   1.980   3.087
 7131SOL     OW33423   5.623   3.172   3.144
 7131SOL    HW133424   5.676   3.123   3.212
 7131SOL    HW233425   5.645   3.270   3.149
 7132SOL     OW33426   7.126   2.136   1.987
 7132SOL    HW133427   7.065   2.061   2.010
 7132SOL    HW233428   7.148   2.188   2.070
 7133SOL     OW33429   6.889   2.700   1.904
 7133SOL    HW133430   6.923   2.607   1.919
 7133SOL    HW233431   6.907   2.727   1.809
 7134SOL     OW33432   5.905   2.672   2.811
 7134SOL    HW133433   5.998   2.708   2.816
 7134SOL    HW233434   5.899   2.587   2.863
 7135SOL     OW33435   5.775   2.382   3.584
 7135SOL    HW133436   5.834   2.342   3.514
 7135SOL    HW233437   5.717   2.453   3.543
 7136SOL     OW33438   6.955   2.812   3.522
 7136SOL    HW133439   6.994   2.901   3.542
 7136SOL    HW233440   6.965   2.792   3.425
 7137SOL     OW33441   5.838   3.426   3.606
 7137SOL    HW133442   5.808   3.483   3.682
 7137SOL    HW233443   5.831   3.329   3.632
 7138SOL     OW33444   6.257   2.326   3.131
 7138SOL    HW133445   6.223   2.237   3.101
 7138SOL    HW233446   6.283   2.380   3.051
 7139SOL     OW33447   5.745   2.999   3.328
 7139SOL    HW133448   5.767   2.938   3.404
 7139SOL    HW233449   5.755   2.950   3.242
 7140SOL     OW33450   6.933   2.921   3.096
 7140SOL    HW133451   6.957   2.858   3.022
 7140SOL    HW233452   6.843   2.961   3.078
 7141SOL     OW33453   7.345   3.609   3.016
 7141SOL    HW133454   7.406   3.639   2.943
 7141SOL    HW233455   7.307   3.520   2.994
 7142SOL     OW33456   5.849   2.188   2.582
 7142SOL    HW133457   5.770   2.239   2.548
 7142SOL    HW233458   5.840   2.173   2.680
 7143SOL     OW33459   6.408   2.864   3.234
 7143SOL    HW133460   6.448   2.863   3.142
 7143SOL    HW233461   6.418   2.956   3.274
 7144SOL     OW33462   6.600   2.098   2.833
 7144SOL    HW133463   6.592   2.062   2.740
 7144SOL    HW233464   6.598   2.022   2.898
 7145SOL     OW33465   7.295   2.247   3.243
 7145SOL    HW133466   7.368   2.316   3.247
 7145SOL    HW233467   7.323   2.172   3.184
 7146SOL     OW33468   5.661   2.207   1.895
 7146SOL    HW133469   5.569   2.179   1.866
 7146SOL    HW233470   5.692   2.284   1.839
 7147SOL     OW33471   7.079   3.629   2.821
 7147SOL    HW133472   7.112   3.693   2.752
 7147SOL    HW233473   7.145   3.623   2.896
 7148SOL     OW33474   7.036   3.082   3.495
 7148SOL    HW133475   7.027   3.072   3.594
 7148SOL    HW233476   7.132   3.075   3.469
 7149SOL     OW33477   5.976   3.603   3.422
 7149SOL    HW133478   5.885   3.644   3.420
 7149SOL    HW233479   5.969   3.509   3.454
 7150SOL     OW33480   6.811   2.187   2.311
 7150SOL    HW133481   6.876   2.113   2.300
 7150SOL    HW233482   6.831   2.237   2.395
 7151SOL     OW33483   6.669   2.846   1.949
 7151SOL    HW133484   6.646   2.899   1.867
 7151SOL    HW233485   6.750   2.790   1.930
 7152SOL     OW33486   6.258   3.253   3.486
 7152SOL    HW133487   6.180   3.203   3.524
 7152SOL    HW233488   6.255   3.348   3.517
 7153SOL     OW33489   6.014   2.286   2.382
 7153SOL    HW133490   6.044   2.214   2.320
 7153SOL    HW233491   5.975   2.246   2.465
 7154SOL     OW33492   5.903   2.409   3.142
 7154SOL    HW133493   5.941   2.350   3.214
 7154SOL    HW233494   5.943   2.383   3.054
 7155SOL     OW33495   6.204   3.429   3.146
 7155SOL    HW133496   6.199   3.511   3.203
 7155SOL    HW233497   6.293   3.426   3.101
 7156SOL     OW33498   6.938   1.914   2.030
 7156SOL    HW133499   6.973   1.873   1.946
 7156SOL    HW233500   6.848   1.876   2.050
 7157SOL     OW33501   7.179   2.083   2.744
 7157SOL    HW133502   7.095   2.082   2.798
 7157SOL    HW233503   7.181   2.166   2.688
 7158SOL     OW33504   5.605   2.230   4.371
 7158SOL    HW133505   5.523   2.273   4.410
 7158SOL    HW233506   5.577   2.157   4.308
 7159SOL     OW33507   6.155   3.137   4.889
 7159SOL    HW133508   6.062   3.130   4.852
 7159SOL    HW233509   6.166   3.226   4.933
 7160SOL     OW33510   6.436   2.660   5.547
 7160SOL    HW133511   6.432   2.736   5.612
 7160SOL    HW233512   6.458   2.696   5.456
 7161SOL     OW33513   5.817   3.575   4.207
 7161SOL    HW133514   5.851   3.652   4.261
 7161SOL    HW233515   5.861   3.575   4.117
 7162SOL     OW33516   7.180   1.976   5.204
 7162SOL    HW133517   7.162   2.043   5.132
 7162SOL    HW233518   7.177   2.022   5.293
 7163SOL     OW33519   7.428   3.629   4.083
 7163SOL    HW133520   7.482   3.600   4.163
 7163SOL    HW233521   7.458   3.719   4.054
 7164SOL     OW33522   5.613   3.458   3.841
 7164SOL    HW133523   5.594   3.362   3.862
 7164SOL    HW233524   5.580   3.516   3.916
 7165SOL     OW33525   6.395   1.866   4.226
 7165SOL    HW133526   6.435   1.957   4.217
 7165SOL    HW233527   6.295   1.874   4.232
 7166SOL     OW33528   7.111   2.861   3.914
 7166SOL    HW133529   7.048   2.785   3.927
 7166SOL    HW233530   7.159   2.879   4.000
 7167SOL     OW33531   5.903   2.113   5.525
 7167SOL    HW133532   5.974   2.184   5.531
 7167SOL    HW233533   5.815   2.152   5.553
 7168SOL     OW33534   7.052   3.279   4.677
 7168SOL    HW133535   6.993   3.285   4.757
 7168SOL    HW233536   7.037   3.191   4.631
 7169SOL     OW33537   6.559   2.752   5.296
 7169SOL    HW133538   6.605   2.668   5.267
 7169SOL    HW233539   6.503   2.786   5.221
 7170SOL     OW33540   6.948   3.006   4.269
 7170SOL    HW133541   7.031   2.977   4.221
 7170SOL    HW233542   6.899   3.073   4.213
 7171SOL     OW33543   6.136   2.058   4.609
 7171SOL    HW133544   6.131   2.053   4.709
 7171SOL    HW233545   6.138   2.154   4.580
 7172SOL     OW33546   5.937   3.663   4.577
 7172SOL    HW133547   5.987   3.577   4.583
 7172SOL    HW233548   6.002   3.740   4.574
 7173SOL     OW33549   6.813   3.412   5.230
 7173SOL    HW133550   6.819   3.335   5.294
 7173SOL    HW233551   6.761   3.386   5.150
 7174SOL     OW33552   5.907   2.805   3.966
 7174SOL    HW133553   5.989   2.844   3.924
 7174SOL    HW233554   5.880   2.723   3.917
 7175SOL     OW33555   6.047   3.128   5.451
 7175SOL    HW133556   5.997   3.129   5.365
 7175SOL    HW233557   5.984   3.110   5.527
 7176SOL     OW33558   7.218   3.239   3.805
 7176SOL    HW133559   7.186   3.333   3.795
 7176SOL    HW233560   7.142   3.176   3.793
 7177SOL     OW33561   6.526   3.560   4.628
 7177SOL    HW133562   6.606   3.503   4.649
 7177SOL    HW233563   6.477   3.520   4.551
 7178SOL     OW33564   6.200   1.984   3.841
 7178SOL    HW133565   6.298   1.962   3.848
 7178SOL    HW233566   6.169   1.967   3.748
 7179SOL     OW33567   6.367   2.126   5.473
 7179SOL    HW133568   6.434   2.065   5.516
 7179SOL    HW233569   6.294   2.145   5.538
 7180SOL     OW33570   6.474   3.376   4.919
 7180SOL    HW133571   6.451   3.351   4.825
 7180SOL    HW233572   6.535   3.307   4.958
 7181SOL     OW33573   6.389   3.264   4.648
 7181SOL    HW133574   6.479   3.278   4.606
 7181SOL    HW233575   6.318   3.266   4.577
 7182SOL     OW33576   6.508   2.365   4.623
 7182SOL    HW133577   6.483   2.356   4.527
 7182SOL    HW233578   6.556   2.283   4.654
 7183SOL     OW33579   7.020   3.050   3.765
 7183SOL    HW133580   7.052   2.974   3.822
 7183SOL    HW233581   6.928   3.077   3.795
 7184SOL     OW33582   6.045   3.014   4.465
 7184SOL    HW133583   5.974   2.987   4.530
 7184SOL    HW233584   6.019   2.986   4.372
 7185SOL     OW33585   6.857   3.659   4.315
 7185SOL    HW133586   6.901   3.723   4.251
 7185SOL    HW233587   6.807   3.711   4.385
 7186SOL     OW33588   5.664   2.418   5.110
 7186SOL    HW133589   5.756   2.417   5.069
 7186SOL    HW233590   5.658   2.492   5.177
 7187SOL     OW33591   6.452   2.316   4.366
 7187SOL    HW133592   6.420   2.388   4.304
 7187SOL    HW233593   6.476   2.235   4.313
 7188SOL     OW33594   6.074   3.247   3.898
 7188SOL    HW133595   5.987   3.232   3.945
 7188SOL    HW233596   6.057   3.273   3.803
 7189SOL     OW33597   6.113   2.118   4.052
 7189SOL    HW133598   6.140   2.059   3.977
 7189SOL    HW233599   6.113   2.213   4.021
 7190SOL     OW33600   6.697   3.057   4.824
 7190SOL    HW133601   6.657   3.101   4.905
 7190SOL    HW233602   6.656   3.094   4.741
 7191SOL     OW33603   7.224   2.961   4.803
 7191SOL    HW133604   7.229   3.042   4.862
 7191SOL    HW233605   7.138   2.963   4.752
 7192SOL     OW33606   6.566   2.978   5.443
 7192SOL    HW133607   6.467   2.984   5.453
 7192SOL    HW233608   6.589   2.898   5.387
 7193SOL     OW33609   6.291   2.912   4.092
 7193SOL    HW133610   6.277   2.919   4.191
 7193SOL    HW233611   6.375   2.861   4.074
 7194SOL     OW33612   5.953   2.962   4.225
 7194SOL    HW133613   5.946   3.045   4.169
 7194SOL    HW233614   5.957   2.882   4.165
 7195SOL     OW33615   6.838   3.210   4.112
 7195SOL    HW133616   6.888   3.287   4.152
 7195SOL    HW233617   6.743   3.212   4.144
 7196SOL     OW33618   5.988   2.613   5.322
 7196SOL    HW133619   6.056   2.668   5.275
 7196SOL    HW233620   6.028   2.525   5.349
 7197SOL     OW33621   6.599   1.967   5.494
 7197SOL    HW133622   6.605   2.052   5.442
 7197SOL    HW233623   6.631   1.891   5.437
 7198SOL     OW33624   6.795   2.387   3.999
 7198SOL    HW133625   6.808   2.303   4.053
 7198SOL    HW233626   6.766   2.461   4.059
 7199SOL     OW33627   5.893   2.075   4.955
 7199SOL    HW133628   5.870   2.112   5.045
 7199SOL    HW233629   5.863   1.980   4.949
 7200SOL     OW33630   7.208   2.229   4.098
 7200SOL    HW133631   7.210   2.153   4.162
 7200SOL    HW233632   7.160   2.306   4.138
 7201SOL     OW33633   6.609   2.628   4.690
 7201SOL    HW133634   6.624   2.649   4.786
 7201SOL    HW233635   6.579   2.533   4.681
 7202SOL     OW33636   6.566   3.435   5.424
 7202SOL    HW133637   6.546   3.479   5.336
 7202SOL    HW233638   6.605   3.344   5.408
 7203SOL     OW33639   5.936   2.760   5.528
 7203SOL    HW133640   6.012   2.804   5.576
 7203SOL    HW233641   5.971   2.713   5.446
 7204SOL     OW33642   7.126   2.136   3.849
 7204SOL    HW133643   7.065   2.061   3.872
 7204SOL    HW233644   7.148   2.188   3.932
 7205SOL     OW33645   5.925   2.371   4.730
 7205SOL    HW133646   5.873   2.288   4.713
 7205SOL    HW233647   6.002   2.376   4.666
 7206SOL     OW33648   6.401   2.434   4.049
 7206SOL    HW133649   6.408   2.345   4.003
 7206SOL    HW233650   6.307   2.468   4.041
 7207SOL     OW33651   6.888   2.717   4.033
 7207SOL    HW133652   6.802   2.686   4.075
 7207SOL    HW233653   6.884   2.703   3.934
 7208SOL     OW33654   6.866   2.789   4.396
 7208SOL    HW133655   6.926   2.708   4.398
 7208SOL    HW233656   6.906   2.858   4.336
 7209SOL     OW33657   6.416   3.135   5.146
 7209SOL    HW133658   6.411   3.168   5.241
 7209SOL    HW233659   6.330   3.154   5.100
 7210SOL     OW33660   7.236   3.582   5.118
 7210SOL    HW133661   7.289   3.592   5.034
 7210SOL    HW233662   7.209   3.672   5.152
 7211SOL     OW33663   6.780   3.474   3.755
 7211SOL    HW133664   6.786   3.381   3.792
 7211SOL    HW233665   6.721   3.474   3.675
 7212SOL     OW33666   6.502   2.772   4.015
 7212SOL    HW133667   6.565   2.810   3.947
 7212SOL    HW233668   6.542   2.689   4.054
 7213SOL     OW33669   5.958   3.150   5.214
 7213SOL    HW133670   5.945   3.243   5.180
 7213SOL    HW233671   5.874   3.098   5.201
 7214SOL     OW33672   6.625   2.960   4.420
 7214SOL    HW133673   6.555   2.913   4.474
 7214SOL    HW233674   6.684   2.892   4.377
 7215SOL     OW33675   6.176   3.349   4.215
 7215SOL    HW133676   6.218   3.291   4.145
 7215SOL    HW233677   6.132   3.428   4.171
 7216SOL     OW33678   7.295   2.247   5.105
 7216SOL    HW133679   7.368   2.316   5.109
 7216SOL    HW233680   7.323   2.172   5.046
 7217SOL     OW33681   5.691   2.875   5.450
 7217SOL    HW133682   5.614   2.842   5.504
 7217SOL    HW233683   5.776   2.845   5.492
 7218SOL     OW33684   5.658   2.028   4.042
 7218SOL    HW133685   5.641   2.111   3.988
 7218SOL    HW233686   5.748   1.991   4.020
 7219SOL     OW33687   6.769   3.197   3.843
 7219SOL    HW133688   6.670   3.186   3.845
 7219SOL    HW233689   6.803   3.212   3.936
 7220SOL     OW33690   6.302   2.427   5.432
 7220SOL    HW133691   6.321   2.492   5.506
 7220SOL    HW233692   6.362   2.347   5.441
 7221SOL     OW33693   7.036   3.082   5.357
 7221SOL    HW133694   7.027   3.072   5.456
 7221SOL    HW233695   7.132   3.075   5.331
 7222SOL     OW33696   6.811   2.187   4.173
 7222SOL    HW133697   6.876   2.113   4.162
 7222SOL    HW233698   6.831   2.237   4.257
 7223SOL     OW33699   6.445   3.236   3.740
 7223SOL    HW133700   6.399   3.251   3.828
 7223SOL    HW233701   6.489   3.321   3.710
 7224SOL     OW33702   5.903   2.409   5.004
 7224SOL    HW133703   5.941   2.350   5.076
 7224SOL    HW233704   5.943   2.383   4.916
 7225SOL     OW33705   6.398   3.448   4.411
 7225SOL    HW133706   6.430   3.458   4.317
 7225SOL    HW233707   6.319   3.386   4.413
 7226SOL     OW33708   7.010   2.076   4.836
 7226SOL    HW133709   7.062   2.011   4.891
 7226SOL    HW233710   6.961   2.139   4.897
 7227SOL     OW33711   6.356   3.192   4.025
 7227SOL    HW133712   6.310   3.105   4.042
 7227SOL    HW233713   6.447   3.189   4.066
 7228SOL     OW33714   5.625   2.939   4.024
 7228SOL    HW133715   5.724   2.928   4.015
 7228SOL    HW233716   5.585   2.853   4.056
 7229SOL     OW33717   6.461   3.508   4.061
 7229SOL    HW133718   6.384   3.473   4.007
 7229SOL    HW233719   6.429   3.579   4.123
 7230SOL     OW33720   5.816   2.490   5.699
 7230SOL    HW133721   5.723   2.488   5.736
 7230SOL    HW233722   5.817   2.451   5.607
 7231SOL     OW33723   5.811   2.137   6.582
 7231SOL    HW133724   5.846   2.120   6.674
 7231SOL    HW233725   5.723   2.092   6.570
 7232SOL     OW33726   5.605   2.230   6.233
 7232SOL    HW133727   5.523   2.273   6.272
 7232SOL    HW233728   5.577   2.157   6.170
 7233SOL     OW33729   6.155   3.137   6.751
 7233SOL    HW133730   6.062   3.130   6.714
 7233SOL    HW233731   6.166   3.226   6.795
 7234SOL     OW33732   7.141   3.373   6.289
 7234SOL    HW133733   7.084   3.357   6.370
 7234SOL    HW233734   7.082   3.383   6.209
 7235SOL     OW33735   6.721   2.565   6.303
 7235SOL    HW133736   6.778   2.643   6.278
 7235SOL    HW233737   6.661   2.591   6.379
 7236SOL     OW33738   6.354   3.006   6.609
 7236SOL    HW133739   6.276   3.023   6.669
 7236SOL    HW233740   6.388   3.093   6.573
 7237SOL     OW33741   6.271   2.874   6.251
 7237SOL    HW133742   6.340   2.858   6.321
 7237SOL    HW233743   6.198   2.931   6.289
 7238SOL     OW33744   5.921   3.297   6.647
 7238SOL    HW133745   5.843   3.266   6.594
 7238SOL    HW233746   5.979   3.355   6.590
 7239SOL     OW33747   7.189   2.309   6.323
 7239SOL    HW133748   7.115   2.355   6.273
 7239SOL    HW233749   7.240   2.377   6.376
 7240SOL     OW33750   5.826   2.953   6.472
 7240SOL    HW133751   5.840   2.869   6.524
 7240SOL    HW233752   5.771   3.017   6.527
 7241SOL     OW33753   6.206   3.648   7.025
 7241SOL    HW133754   6.114   3.631   7.060
 7241SOL    HW233755   6.234   3.740   7.051
 7242SOL     OW33756   6.192   2.826   5.709
 7242SOL    HW133757   6.199   2.910   5.655
 7242SOL    HW233758   6.238   2.839   5.797
 7243SOL     OW33759   5.708   2.505   6.149
 7243SOL    HW133760   5.663   2.417   6.166
 7243SOL    HW233761   5.707   2.559   6.233
 7244SOL     OW33762   7.275   2.784   6.198
 7244SOL    HW133763   7.370   2.755   6.206
 7244SOL    HW233764   7.267   2.849   6.123
 7245SOL     OW33765   6.199   3.227   6.312
 7245SOL    HW133766   6.150   3.140   6.321
 7245SOL    HW233767   6.176   3.270   6.225
 7246SOL     OW33768   6.395   1.866   6.088
 7246SOL    HW133769   6.435   1.957   6.079
 7246SOL    HW233770   6.295   1.874   6.094
 7247SOL     OW33771   5.783   2.838   6.850
 7247SOL    HW133772   5.872   2.793   6.836
 7247SOL    HW233773   5.710   2.773   6.831
 7248SOL     OW33774   7.052   3.279   6.539
 7248SOL    HW133775   6.993   3.285   6.619
 7248SOL    HW233776   7.037   3.191   6.493
 7249SOL     OW33777   7.253   3.576   6.158
 7249SOL    HW133778   7.212   3.553   6.070
 7249SOL    HW233779   7.235   3.502   6.223
 7250SOL     OW33780   6.184   2.591   5.856
 7250SOL    HW133781   6.208   2.660   5.788
 7250SOL    HW233782   6.106   2.624   5.910
 7251SOL     OW33783   6.867   2.207   6.530
 7251SOL    HW133784   6.781   2.157   6.517
 7251SOL    HW233785   6.929   2.153   6.586
 7252SOL     OW33786   6.577   2.272   6.828
 7252SOL    HW133787   6.500   2.306   6.882
 7252SOL    HW233788   6.543   2.221   6.749
 7253SOL     OW33789   5.662   2.673   6.375
 7253SOL    HW133790   5.761   2.661   6.384
 7253SOL    HW233791   5.638   2.768   6.396
 7254SOL     OW33792   6.451   2.210   5.781
 7254SOL    HW133793   6.510   2.273   5.732
 7254SOL    HW233794   6.470   2.116   5.752
 7255SOL     OW33795   6.948   3.006   6.131
 7255SOL    HW133796   7.031   2.977   6.083
 7255SOL    HW233797   6.899   3.073   6.075
 7256SOL     OW33798   6.136   2.058   6.471
 7256SOL    HW133799   6.131   2.053   6.571
 7256SOL    HW233800   6.138   2.154   6.442
 7257SOL     OW33801   6.594   3.318   6.063
 7257SOL    HW133802   6.548   3.390   6.011
 7257SOL    HW233803   6.590   3.338   6.161
 7258SOL     OW33804   5.937   3.663   6.439
 7258SOL    HW133805   5.987   3.577   6.445
 7258SOL    HW233806   6.002   3.740   6.436
 7259SOL     OW33807   7.381   2.928   6.459
 7259SOL    HW133808   7.319   2.913   6.383
 7259SOL    HW233809   7.329   2.939   6.544
 7260SOL     OW33810   5.907   2.805   5.828
 7260SOL    HW133811   5.989   2.844   5.786
 7260SOL    HW233812   5.880   2.723   5.779
 7261SOL     OW33813   7.044   2.597   6.314
 7261SOL    HW133814   7.039   2.532   6.389
 7261SOL    HW233815   7.124   2.656   6.327
 7262SOL     OW33816   5.835   3.647   6.827
 7262SOL    HW133817   5.892   3.582   6.877
 7262SOL    HW233818   5.819   3.614   6.734
 7263SOL     OW33819   6.526   3.560   6.490
 7263SOL    HW133820   6.606   3.503   6.511
 7263SOL    HW233821   6.477   3.520   6.413
 7264SOL     OW33822   5.968   2.562   6.066
 7264SOL    HW133823   6.013   2.472   6.063
 7264SOL    HW233824   5.874   2.551   6.099
 7265SOL     OW33825   6.200   1.984   5.703
 7265SOL    HW133826   6.298   1.962   5.710
 7265SOL    HW233827   6.169   1.967   5.610
 7266SOL     OW33828   6.389   3.264   6.510
 7266SOL    HW133829   6.479   3.278   6.468
 7266SOL    HW233830   6.318   3.266   6.439
 7267SOL     OW33831   6.508   2.365   6.485
 7267SOL    HW133832   6.483   2.356   6.389
 7267SOL    HW233833   6.556   2.283   6.516
 7268SOL     OW33834   6.125   1.926   6.098
 7268SOL    HW133835   6.044   1.927   6.156
 7268SOL    HW233836   6.128   2.009   6.043
 7269SOL     OW33837   7.020   3.050   5.627
 7269SOL    HW133838   7.052   2.974   5.684
 7269SOL    HW233839   6.928   3.077   5.657
 7270SOL     OW33840   5.883   1.897   5.757
 7270SOL    HW133841   5.932   1.981   5.736
 7270SOL    HW233842   5.945   1.832   5.802
 7271SOL     OW33843   6.521   2.098   6.066
 7271SOL    HW133844   6.473   2.139   5.988
 7271SOL    HW233845   6.620   2.096   6.047
 7272SOL     OW33846   6.813   3.432   6.379
 7272SOL    HW133847   6.834   3.506   6.314
 7272SOL    HW233848   6.881   3.432   6.452
 7273SOL     OW33849   6.045   3.014   6.327
 7273SOL    HW133850   5.974   2.987   6.392
 7273SOL    HW233851   6.019   2.986   6.234
 7274SOL     OW33852   6.857   3.659   6.177
 7274SOL    HW133853   6.901   3.723   6.113
 7274SOL    HW233854   6.807   3.711   6.247
 7275SOL     OW33855   6.147   2.084   6.733
 7275SOL    HW133856   6.185   2.000   6.770
 7275SOL    HW233857   6.059   2.103   6.777
 7276SOL     OW33858   6.452   2.316   6.228
 7276SOL    HW133859   6.420   2.388   6.166
 7276SOL    HW233860   6.476   2.235   6.175
 7277SOL     OW33861   6.603   1.901   6.339
 7277SOL    HW133862   6.531   1.906   6.270
 7277SOL    HW233863   6.579   1.832   6.408
 7278SOL     OW33864   7.015   3.035   6.453
 7278SOL    HW133865   6.960   2.951   6.446
 7278SOL    HW233866   7.041   3.064   6.361
 7279SOL     OW33867   7.052   2.452   6.578
 7279SOL    HW133868   7.022   2.357   6.585
 7279SOL    HW233869   7.125   2.468   6.644
 7280SOL     OW33870   7.250   3.142   6.243
 7280SOL    HW133871   7.349   3.150   6.257
 7280SOL    HW233872   7.205   3.226   6.274
 7281SOL     OW33873   6.113   2.118   5.914
 7281SOL    HW133874   6.140   2.059   5.839
 7281SOL    HW233875   6.113   2.213   5.883
 7282SOL     OW33876   6.697   3.057   6.686
 7282SOL    HW133877   6.657   3.101   6.767
 7282SOL    HW233878   6.656   3.094   6.603
 7283SOL     OW33879   7.224   2.961   6.665
 7283SOL    HW133880   7.229   3.042   6.724
 7283SOL    HW233881   7.138   2.963   6.614
 7284SOL     OW33882   6.291   2.912   5.954
 7284SOL    HW133883   6.277   2.919   6.053
 7284SOL    HW233884   6.375   2.861   5.936
 7285SOL     OW33885   5.996   2.675   6.837
 7285SOL    HW133886   6.082   2.687   6.887
 7285SOL    HW233887   5.954   2.588   6.864
 7286SOL     OW33888   6.860   2.248   6.848
 7286SOL    HW133889   6.881   2.322   6.912
 7286SOL    HW233890   6.771   2.265   6.805
 7287SOL     OW33891   6.152   2.399   6.451
 7287SOL    HW133892   6.164   2.465   6.377
 7287SOL    HW233893   6.198   2.433   6.534
 7288SOL     OW33894   6.838   3.210   5.974
 7288SOL    HW133895   6.888   3.287   6.014
 7288SOL    HW233896   6.743   3.212   6.006
 7289SOL     OW33897   6.858   3.307   6.728
 7289SOL    HW133898   6.905   3.320   6.815
 7289SOL    HW233899   6.792   3.233   6.737
 7290SOL     OW33900   5.940   3.372   6.915
 7290SOL    HW133901   5.919   3.328   6.828
 7290SOL    HW233902   6.037   3.398   6.918
 7291SOL     OW33903   6.159   2.732   6.615
 7291SOL    HW133904   6.203   2.821   6.606
 7291SOL    HW233905   6.096   2.732   6.692
 7292SOL     OW33906   6.946   2.724   6.631
 7292SOL    HW133907   6.871   2.724   6.565
 7292SOL    HW233908   6.983   2.632   6.640
 7293SOL     OW33909   5.893   2.075   6.817
 7293SOL    HW133910   5.870   2.112   6.907
 7293SOL    HW233911   5.863   1.980   6.811
 7294SOL     OW33912   5.623   3.172   6.868
 7294SOL    HW133913   5.676   3.123   6.936
 7294SOL    HW233914   5.645   3.270   6.873
 7295SOL     OW33915   6.318   2.496   6.650
 7295SOL    HW133916   6.377   2.470   6.574
 7295SOL    HW233917   6.290   2.592   6.639
 7296SOL     OW33918   6.609   2.628   6.552
 7296SOL    HW133919   6.624   2.649   6.648
 7296SOL    HW233920   6.579   2.533   6.543
 7297SOL     OW33921   6.654   3.195   6.435
 7297SOL    HW133922   6.661   3.111   6.380
 7297SOL    HW233923   6.716   3.264   6.399
 7298SOL     OW33924   5.905   2.672   6.535
 7298SOL    HW133925   5.998   2.708   6.540
 7298SOL    HW233926   5.899   2.587   6.587
 7299SOL     OW33927   5.925   2.371   6.592
 7299SOL    HW133928   5.873   2.288   6.575
 7299SOL    HW233929   6.002   2.376   6.528
 7300SOL     OW33930   6.746   2.069   7.063
 7300SOL    HW133931   6.746   2.133   7.140
 7300SOL    HW233932   6.774   2.117   6.980
 7301SOL     OW33933   5.674   3.663   6.513
 7301SOL    HW133934   5.632   3.577   6.486
 7301SOL    HW233935   5.768   3.666   6.479
 7302SOL     OW33936   6.090   3.430   6.496
 7302SOL    HW133937   6.156   3.504   6.505
 7302SOL    HW233938   6.134   3.351   6.454
 7303SOL     OW33939   6.588   2.658   6.824
 7303SOL    HW133940   6.629   2.626   6.910
 7303SOL    HW233941   6.492   2.631   6.821
 7304SOL     OW33942   5.626   2.406   6.700
 7304SOL    HW133943   5.711   2.373   6.659
 7304SOL    HW233944   5.639   2.421   6.798
 7305SOL     OW33945   6.401   2.434   5.911
 7305SOL    HW133946   6.408   2.345   5.865
 7305SOL    HW233947   6.307   2.468   5.903
 7306SOL     OW33948   7.243   2.466   6.792
 7306SOL    HW133949   7.205   2.397   6.854
 7306SOL    HW233950   7.325   2.430   6.748
 7307SOL     OW33951   6.257   2.326   6.855
 7307SOL    HW133952   6.223   2.237   6.825
 7307SOL    HW233953   6.283   2.380   6.775
 7308SOL     OW33954   6.516   3.540   7.051
 7308SOL    HW133955   6.492   3.522   6.956
 7308SOL    HW233956   6.546   3.634   7.061
 7309SOL     OW33957   6.059   2.362   5.777
 7309SOL    HW133958   6.120   2.442   5.781
 7309SOL    HW233959   5.964   2.393   5.784
 7310SOL     OW33960   6.933   2.921   6.820
 7310SOL    HW133961   6.957   2.858   6.746
 7310SOL    HW233962   6.843   2.961   6.802
 7311SOL     OW33963   7.345   3.609   6.740
 7311SOL    HW133964   7.406   3.639   6.667
 7311SOL    HW233965   7.307   3.520   6.718
 7312SOL     OW33966   6.838   3.593   6.714
 7312SOL    HW133967   6.922   3.598   6.660
 7312SOL    HW233968   6.815   3.497   6.732
 7313SOL     OW33969   5.669   3.120   6.608
 7313SOL    HW133970   5.664   3.119   6.708
 7313SOL    HW233971   5.586   3.079   6.570
 7314SOL     OW33972   7.312   1.997   6.109
 7314SOL    HW133973   7.385   1.980   6.042
 7314SOL    HW233974   7.281   1.910   6.147
 7315SOL     OW33975   6.974   3.435   6.063
 7315SOL    HW133976   7.041   3.447   5.989
 7315SOL    HW233977   6.934   3.524   6.086
 7316SOL     OW33978   6.866   2.789   6.258
 7316SOL    HW133979   6.926   2.708   6.260
 7316SOL    HW233980   6.906   2.858   6.198
 7317SOL     OW33981   7.236   3.582   6.980
 7317SOL    HW133982   7.289   3.592   6.896
 7317SOL    HW233983   7.209   3.672   7.014
 7318SOL     OW33984   7.427   2.037   6.549
 7318SOL    HW133985   7.466   1.952   6.513
 7318SOL    HW233986   7.329   2.039   6.530
 7319SOL     OW33987   5.849   2.188   6.306
 7319SOL    HW133988   5.770   2.239   6.272
 7319SOL    HW233989   5.840   2.173   6.404
 7320SOL     OW33990   6.408   2.864   6.958
 7320SOL    HW133991   6.448   2.863   6.866
 7320SOL    HW233992   6.418   2.956   6.998
 7321SOL     OW33993   6.502   2.772   5.877
 7321SOL    HW133994   6.565   2.810   5.809
 7321SOL    HW233995   6.542   2.689   5.916
 7322SOL     OW33996   7.090   3.469   5.630
 7322SOL    HW133997   6.998   3.506   5.637
 7322SOL    HW233998   7.128   3.489   5.540
 7323SOL     OW33999   6.625   2.960   6.282
 7323SOL    HW134000   6.555   2.913   6.336
 7323SOL    HW234001   6.684   2.892   6.239
 7324SOL     OW34002   6.600   2.098   6.557
 7324SOL    HW134003   6.592   2.062   6.464
 7324SOL    HW234004   6.598   2.022   6.622
 7325SOL     OW34005   7.295   2.247   6.967
 7325SOL    HW134006   7.368   2.316   6.971
 7325SOL    HW234007   7.323   2.172   6.908
 7326SOL     OW34008   6.769   3.197   5.705
 7326SOL    HW134009   6.670   3.186   5.707
 7326SOL    HW234010   6.803   3.212   5.798
 7327SOL     OW34011   7.079   3.629   6.545
 7327SOL    HW134012   7.112   3.693   6.476
 7327SOL    HW234013   7.145   3.623   6.620
 7328SOL     OW34014   7.036   3.082   7.219
 7328SOL    HW134015   7.027   3.072   7.318
 7328SOL    HW234016   7.132   3.075   7.193
 7329SOL     OW34017   7.260   2.745   6.840
 7329SOL    HW134018   7.233   2.656   6.803
 7329SOL    HW234019   7.261   2.813   6.767
 7330SOL     OW34020   6.180   2.607   6.238
 7330SOL    HW134021   6.230   2.692   6.219
 7330SOL    HW234022   6.092   2.609   6.190
 7331SOL     OW34023   7.316   2.796   7.103
 7331SOL    HW134024   7.354   2.887   7.118
 7331SOL    HW234025   7.308   2.779   7.004
 7332SOL     OW34026   6.247   3.652   6.539
 7332SOL    HW134027   6.201   3.740   6.526
 7332SOL    HW234028   6.346   3.664   6.532
 7333SOL     OW34029   6.445   2.818   6.447
 7333SOL    HW134030   6.499   2.749   6.495
 7333SOL    HW234031   6.413   2.887   6.513
 7334SOL     OW34032   6.669   2.846   5.673
 7334SOL    HW134033   6.646   2.899   5.591
 7334SOL    HW234034   6.750   2.790   5.654
 7335SOL     OW34035   7.447   3.431   6.437
 7335SOL    HW134036   7.376   3.419   6.367
 7335SOL    HW234037   7.448   3.352   6.497
 7336SOL     OW34038   5.665   3.102   6.239
 7336SOL    HW134039   5.664   3.055   6.327
 7336SOL    HW234040   5.747   3.074   6.188
 7337SOL     OW34041   7.410   2.054   6.813
 7337SOL    HW134042   7.406   1.964   6.857
 7337SOL    HW234043   7.413   2.043   6.714
 7338SOL     OW34044   6.014   2.286   6.106
 7338SOL    HW134045   6.044   2.214   6.044
 7338SOL    HW234046   5.975   2.246   6.189
 7339SOL     OW34047   7.291   3.349   6.690
 7339SOL    HW134048   7.198   3.324   6.663
 7339SOL    HW234049   7.317   3.299   6.772
 7340SOL     OW34050   6.398   3.448   6.273
 7340SOL    HW134051   6.430   3.458   6.179
 7340SOL    HW234052   6.319   3.386   6.275
 7341SOL     OW34053   7.010   2.076   6.698
 7341SOL    HW134054   7.062   2.011   6.753
 7341SOL    HW234055   6.961   2.139   6.759
 7342SOL     OW34056   6.587   1.896   6.740
 7342SOL    HW134057   6.524   1.824   6.709
 7342SOL    HW234058   6.680   1.860   6.740
 7343SOL     OW34059   6.356   3.192   5.887
 7343SOL    HW134060   6.310   3.105   5.904
 7343SOL    HW234061   6.447   3.189   5.928
 7344SOL     OW34062   6.886   2.315   6.277
 7344SOL    HW134063   6.827   2.395   6.281
 7344SOL    HW234064   6.901   2.280   6.370
 7345SOL     OW34065   7.179   2.083   6.468
 7345SOL    HW134066   7.095   2.082   6.522
 7345SOL    HW234067   7.181   2.166   6.412
 7346SOL     OW34068   5.625   2.939   5.886
 7346SOL    HW134069   5.724   2.928   5.877
 7346SOL    HW234070   5.585   2.853   5.918
 7347SOL     OW34071   6.461   3.508   5.923
 7347SOL    HW134072   6.384   3.473   5.869
 7347SOL    HW234073   6.429   3.579   5.985
 7348SOL     OW34074   5.816   4.352   0.113
 7348SOL    HW134075   5.723   4.350   0.150
 7348SOL    HW234076   5.817   4.313   0.021
 7349SOL     OW34077   5.811   3.999   0.996
 7349SOL    HW134078   5.846   3.982   1.088
 7349SOL    HW234079   5.723   3.954   0.984
 7350SOL     OW34080   5.605   4.092   0.647
 7350SOL    HW134081   5.523   4.135   0.686
 7350SOL    HW234082   5.577   4.019   0.584
 7351SOL     OW34083   7.141   5.235   0.703
 7351SOL    HW134084   7.084   5.219   0.784
 7351SOL    HW234085   7.082   5.245   0.623
 7352SOL     OW34086   6.721   4.427   0.717
 7352SOL    HW134087   6.778   4.505   0.692
 7352SOL    HW234088   6.661   4.453   0.793
 7353SOL     OW34089   7.341   4.331   0.231
 7353SOL    HW134090   7.329   4.318   0.132
 7353SOL    HW234091   7.311   4.250   0.280
 7354SOL     OW34092   6.354   4.868   1.023
 7354SOL    HW134093   6.276   4.885   1.083
 7354SOL    HW234094   6.388   4.955   0.987
 7355SOL     OW34095   6.271   4.736   0.665
 7355SOL    HW134096   6.340   4.720   0.735
 7355SOL    HW234097   6.198   4.793   0.703
 7356SOL     OW34098   5.921   5.159   1.061
 7356SOL    HW134099   5.843   5.128   1.008
 7356SOL    HW234100   5.979   5.217   1.004
 7357SOL     OW34101   7.046   5.229   1.339
 7357SOL    HW134102   7.070   5.323   1.365
 7357SOL    HW234103   7.030   5.175   1.421
 7358SOL     OW34104   6.024   4.116   1.499
 7358SOL    HW134105   6.106   4.060   1.508
 7358SOL    HW234106   5.943   4.058   1.503
 7359SOL     OW34107   7.189   4.171   0.737
 7359SOL    HW134108   7.115   4.217   0.687
 7359SOL    HW234109   7.240   4.239   0.790
 7360SOL     OW34110   5.817   5.437   0.483
 7360SOL    HW134111   5.851   5.514   0.537
 7360SOL    HW234112   5.861   5.437   0.393
 7361SOL     OW34113   5.816   5.158   0.538
 7361SOL    HW134114   5.790   5.254   0.538
 7361SOL    HW234115   5.745   5.104   0.583
 7362SOL     OW34116   5.826   4.815   0.886
 7362SOL    HW134117   5.840   4.731   0.938
 7362SOL    HW234118   5.771   4.879   0.941
 7363SOL     OW34119   6.206   5.510   1.439
 7363SOL    HW134120   6.114   5.493   1.474
 7363SOL    HW234121   6.234   5.602   1.465
 7364SOL     OW34122   6.192   4.688   0.123
 7364SOL    HW134123   6.199   4.772   0.069
 7364SOL    HW234124   6.238   4.701   0.211
 7365SOL     OW34125   7.180   3.838   1.480
 7365SOL    HW134126   7.162   3.905   1.408
 7365SOL    HW234127   7.177   3.884   1.569
 7366SOL     OW34128   5.708   4.367   0.563
 7366SOL    HW134129   5.663   4.279   0.580
 7366SOL    HW234130   5.707   4.421   0.647
 7367SOL     OW34131   7.428   5.491   0.359
 7367SOL    HW134132   7.482   5.462   0.439
 7367SOL    HW234133   7.458   5.581   0.330
 7368SOL     OW34134   5.613   5.320   0.117
 7368SOL    HW134135   5.594   5.224   0.138
 7368SOL    HW234136   5.580   5.378   0.192
 7369SOL     OW34137   7.275   4.646   0.612
 7369SOL    HW134138   7.370   4.617   0.620
 7369SOL    HW234139   7.267   4.711   0.537
 7370SOL     OW34140   7.227   4.832   0.432
 7370SOL    HW134141   7.313   4.834   0.380
 7370SOL    HW234142   7.241   4.879   0.520
 7371SOL     OW34143   6.199   5.089   0.726
 7371SOL    HW134144   6.150   5.002   0.735
 7371SOL    HW234145   6.176   5.132   0.639
 7372SOL     OW34146   6.395   3.728   0.502
 7372SOL    HW134147   6.435   3.819   0.493
 7372SOL    HW234148   6.295   3.736   0.508
 7373SOL     OW34149   5.783   4.700   1.264
 7373SOL    HW134150   5.872   4.655   1.250
 7373SOL    HW234151   5.710   4.635   1.245
 7374SOL     OW34152   7.111   4.723   0.190
 7374SOL    HW134153   7.048   4.647   0.203
 7374SOL    HW234154   7.159   4.741   0.276
 7375SOL     OW34155   7.052   5.141   0.953
 7375SOL    HW134156   6.993   5.147   1.033
 7375SOL    HW234157   7.037   5.053   0.907
 7376SOL     OW34158   7.253   5.438   0.572
 7376SOL    HW134159   7.212   5.415   0.484
 7376SOL    HW234160   7.235   5.364   0.637
 7377SOL     OW34161   6.184   4.453   0.270
 7377SOL    HW134162   6.208   4.522   0.202
 7377SOL    HW234163   6.106   4.486   0.324
 7378SOL     OW34164   6.867   4.069   0.944
 7378SOL    HW134165   6.781   4.019   0.931
 7378SOL    HW234166   6.929   4.015   1.000
 7379SOL     OW34167   7.162   5.386   0.307
 7379SOL    HW134168   7.251   5.432   0.310
 7379SOL    HW234169   7.141   5.362   0.212
 7380SOL     OW34170   6.393   4.329   1.465
 7380SOL    HW134171   6.346   4.326   1.554
 7380SOL    HW234172   6.342   4.274   1.399
 7381SOL     OW34173   6.980   4.193   1.674
 7381SOL    HW134174   6.960   4.236   1.762
 7381SOL    HW234175   7.058   4.131   1.683
 7382SOL     OW34176   6.559   4.614   1.572
 7382SOL    HW134177   6.605   4.530   1.543
 7382SOL    HW234178   6.503   4.648   1.497
 7383SOL     OW34179   6.577   4.134   1.242
 7383SOL    HW134180   6.500   4.168   1.296
 7383SOL    HW234181   6.543   4.083   1.163
 7384SOL     OW34182   6.627   4.425   0.429
 7384SOL    HW134183   6.653   4.421   0.525
 7384SOL    HW234184   6.542   4.374   0.415
 7385SOL     OW34185   5.662   4.535   0.789
 7385SOL    HW134186   5.761   4.523   0.798
 7385SOL    HW234187   5.638   4.630   0.810
 7386SOL     OW34188   6.451   4.072   0.195
 7386SOL    HW134189   6.510   4.135   0.146
 7386SOL    HW234190   6.470   3.978   0.166
 7387SOL     OW34191   7.305   4.309   1.831
 7387SOL    HW134192   7.279   4.398   1.795
 7387SOL    HW234193   7.303   4.241   1.758
 7388SOL     OW34194   6.948   4.868   0.545
 7388SOL    HW134195   7.031   4.839   0.497
 7388SOL    HW234196   6.899   4.935   0.489
 7389SOL     OW34197   6.136   3.920   0.885
 7389SOL    HW134198   6.131   3.915   0.985
 7389SOL    HW234199   6.138   4.016   0.856
 7390SOL     OW34200   6.594   5.180   0.477
 7390SOL    HW134201   6.548   5.252   0.425
 7390SOL    HW234202   6.590   5.200   0.575
 7391SOL     OW34203   5.937   5.525   0.853
 7391SOL    HW134204   5.987   5.439   0.859
 7391SOL    HW234205   6.002   5.602   0.850
 7392SOL     OW34206   7.381   4.790   0.873
 7392SOL    HW134207   7.319   4.775   0.797
 7392SOL    HW234208   7.329   4.801   0.958
 7393SOL     OW34209   5.907   4.667   0.242
 7393SOL    HW134210   5.989   4.706   0.200
 7393SOL    HW234211   5.880   4.585   0.193
 7394SOL     OW34212   7.044   4.459   0.728
 7394SOL    HW134213   7.039   4.394   0.803
 7394SOL    HW234214   7.124   4.518   0.741
 7395SOL     OW34215   6.047   4.990   1.727
 7395SOL    HW134216   5.997   4.991   1.641
 7395SOL    HW234217   5.984   4.972   1.803
 7396SOL     OW34218   6.697   5.500   0.237
 7396SOL    HW134219   6.637   5.438   0.287
 7396SOL    HW234220   6.728   5.456   0.152
 7397SOL     OW34221   7.218   5.101   0.081
 7397SOL    HW134222   7.186   5.195   0.071
 7397SOL    HW234223   7.142   5.038   0.069
 7398SOL     OW34224   6.050   5.467   0.323
 7398SOL    HW134225   6.083   5.506   0.409
 7398SOL    HW234226   6.126   5.460   0.258
 7399SOL     OW34227   6.986   3.831   0.426
 7399SOL    HW134228   6.962   3.794   0.336
 7399SOL    HW234229   7.085   3.847   0.430
 7400SOL     OW34230   5.835   5.509   1.241
 7400SOL    HW134231   5.892   5.444   1.291
 7400SOL    HW234232   5.819   5.476   1.148
 7401SOL     OW34233   6.526   5.422   0.904
 7401SOL    HW134234   6.606   5.365   0.925
 7401SOL    HW234235   6.477   5.382   0.827
 7402SOL     OW34236   5.968   4.424   0.480
 7402SOL    HW134237   6.013   4.334   0.477
 7402SOL    HW234238   5.874   4.413   0.513
 7403SOL     OW34239   7.133   3.946   1.729
 7403SOL    HW134240   7.128   3.983   1.821
 7403SOL    HW234241   7.061   3.877   1.717
 7404SOL     OW34242   6.367   3.988   1.749
 7404SOL    HW134243   6.434   3.927   1.792
 7404SOL    HW234244   6.294   4.007   1.814
 7405SOL     OW34245   6.937   4.314   1.433
 7405SOL    HW134246   6.965   4.271   1.518
 7405SOL    HW234247   6.962   4.410   1.434
 7406SOL     OW34248   6.389   5.126   0.924
 7406SOL    HW134249   6.479   5.140   0.882
 7406SOL    HW234250   6.318   5.128   0.853
 7407SOL     OW34251   6.508   4.227   0.899
 7407SOL    HW134252   6.483   4.218   0.803
 7407SOL    HW234253   6.556   4.145   0.930
 7408SOL     OW34254   6.125   3.788   0.512
 7408SOL    HW134255   6.044   3.789   0.570
 7408SOL    HW234256   6.128   3.871   0.457
 7409SOL     OW34257   7.020   4.912   0.041
 7409SOL    HW134258   7.052   4.836   0.098
 7409SOL    HW234259   6.928   4.939   0.071
 7410SOL     OW34260   5.883   3.759   0.171
 7410SOL    HW134261   5.932   3.843   0.150
 7410SOL    HW234262   5.945   3.694   0.216
 7411SOL     OW34263   6.521   3.960   0.480
 7411SOL    HW134264   6.473   4.001   0.402
 7411SOL    HW234265   6.620   3.958   0.461
 7412SOL     OW34266   6.662   4.407   1.464
 7412SOL    HW134267   6.582   4.346   1.467
 7412SOL    HW234268   6.743   4.354   1.440
 7413SOL     OW34269   6.813   5.294   0.793
 7413SOL    HW134270   6.834   5.368   0.728
 7413SOL    HW234271   6.881   5.294   0.866
 7414SOL     OW34272   6.045   4.876   0.741
 7414SOL    HW134273   5.974   4.849   0.806
 7414SOL    HW234274   6.019   4.848   0.648
 7415SOL     OW34275   6.857   5.521   0.591
 7415SOL    HW134276   6.901   5.585   0.527
 7415SOL    HW234277   6.807   5.573   0.661
 7416SOL     OW34278   6.618   4.273   0.016
 7416SOL    HW134279   6.577   4.355  -0.023
 7416SOL    HW234280   6.682   4.299   0.089
 7417SOL     OW34281   5.664   4.280   1.386
 7417SOL    HW134282   5.756   4.279   1.345
 7417SOL    HW234283   5.658   4.354   1.453
 7418SOL     OW34284   6.147   3.946   1.147
 7418SOL    HW134285   6.185   3.862   1.184
 7418SOL    HW234286   6.059   3.965   1.191
 7419SOL     OW34287   6.452   4.178   0.642
 7419SOL    HW134288   6.420   4.250   0.580
 7419SOL    HW234289   6.476   4.097   0.589
 7420SOL     OW34290   6.603   3.763   0.753
 7420SOL    HW134291   6.531   3.768   0.684
 7420SOL    HW234292   6.579   3.694   0.822
 7421SOL     OW34293   7.015   4.897   0.867
 7421SOL    HW134294   6.960   4.813   0.860
 7421SOL    HW234295   7.041   4.926   0.775
 7422SOL     OW34296   7.052   4.314   0.992
 7422SOL    HW134297   7.022   4.219   0.999
 7422SOL    HW234298   7.125   4.330   1.058
 7423SOL     OW34299   7.443   4.557   0.377
 7423SOL    HW134300   7.485   4.493   0.441
 7423SOL    HW234301   7.405   4.506   0.299
 7424SOL     OW34302   6.074   5.109   0.174
 7424SOL    HW134303   5.987   5.094   0.221
 7424SOL    HW234304   6.057   5.135   0.079
 7425SOL     OW34305   7.250   5.004   0.657
 7425SOL    HW134306   7.349   5.012   0.671
 7425SOL    HW234307   7.205   5.088   0.688
 7426SOL     OW34308   6.976   4.299   0.078
 7426SOL    HW134309   6.922   4.278   0.159
 7426SOL    HW234310   7.067   4.258   0.087
 7427SOL     OW34311   6.113   3.980   0.328
 7427SOL    HW134312   6.140   3.921   0.253
 7427SOL    HW234313   6.113   4.075   0.297
 7428SOL     OW34314   7.178   5.353   1.625
 7428SOL    HW134315   7.205   5.387   1.535
 7428SOL    HW234316   7.257   5.315   1.671
 7429SOL     OW34317   7.224   4.823   1.079
 7429SOL    HW134318   7.229   4.904   1.138
 7429SOL    HW234319   7.138   4.825   1.028
 7430SOL     OW34320   6.566   4.840   1.719
 7430SOL    HW134321   6.467   4.846   1.729
 7430SOL    HW234322   6.589   4.760   1.663
 7431SOL     OW34323   6.291   4.774   0.368
 7431SOL    HW134324   6.277   4.781   0.467
 7431SOL    HW234325   6.375   4.723   0.350
 7432SOL     OW34326   5.996   4.537   1.251
 7432SOL    HW134327   6.082   4.549   1.301
 7432SOL    HW234328   5.954   4.450   1.278
 7433SOL     OW34329   6.860   4.110   1.262
 7433SOL    HW134330   6.881   4.184   1.326
 7433SOL    HW234331   6.771   4.127   1.219
 7434SOL     OW34332   5.650   5.288   1.331
 7434SOL    HW134333   5.604   5.370   1.297
 7434SOL    HW234334   5.748   5.307   1.340
 7435SOL     OW34335   5.953   4.824   0.501
 7435SOL    HW134336   5.946   4.907   0.445
 7435SOL    HW234337   5.957   4.744   0.441
 7436SOL     OW34338   6.152   4.261   0.865
 7436SOL    HW134339   6.164   4.327   0.791
 7436SOL    HW234340   6.198   4.295   0.948
 7437SOL     OW34341   6.838   5.072   0.388
 7437SOL    HW134342   6.888   5.149   0.428
 7437SOL    HW234343   6.743   5.074   0.420
 7438SOL     OW34344   7.168   4.363   0.472
 7438SOL    HW134345   7.137   4.424   0.545
 7438SOL    HW234346   7.218   4.415   0.403
 7439SOL     OW34347   5.940   5.234   1.329
 7439SOL    HW134348   5.919   5.190   1.242
 7439SOL    HW234349   6.037   5.260   1.332
 7440SOL     OW34350   6.159   4.594   1.029
 7440SOL    HW134351   6.203   4.683   1.020
 7440SOL    HW234352   6.096   4.594   1.106
 7441SOL     OW34353   6.946   4.586   1.045
 7441SOL    HW134354   6.871   4.586   0.979
 7441SOL    HW234355   6.983   4.494   1.054
 7442SOL     OW34356   6.795   4.249   0.275
 7442SOL    HW134357   6.808   4.165   0.329
 7442SOL    HW234358   6.766   4.323   0.335
 7443SOL     OW34359   5.893   3.937   1.231
 7443SOL    HW134360   5.870   3.974   1.321
 7443SOL    HW234361   5.863   3.842   1.225
 7444SOL     OW34362   5.623   5.034   1.282
 7444SOL    HW134363   5.676   4.985   1.350
 7444SOL    HW234364   5.645   5.132   1.287
 7445SOL     OW34365   6.318   4.358   1.064
 7445SOL    HW134366   6.377   4.332   0.988
 7445SOL    HW234367   6.290   4.454   1.053
 7446SOL     OW34368   5.893   3.787   0.618
 7446SOL    HW134369   5.882   3.881   0.651
 7446SOL    HW234370   5.888   3.724   0.695
 7447SOL     OW34371   7.208   4.091   0.374
 7447SOL    HW134372   7.210   4.015   0.438
 7447SOL    HW234373   7.160   4.168   0.414
 7448SOL     OW34374   6.609   4.490   0.966
 7448SOL    HW134375   6.624   4.511   1.062
 7448SOL    HW234376   6.579   4.395   0.957
 7449SOL     OW34377   7.126   3.998   0.125
 7449SOL    HW134378   7.065   3.923   0.148
 7449SOL    HW234379   7.148   4.050   0.208
 7450SOL     OW34380   6.889   4.562   0.042
 7450SOL    HW134381   6.923   4.469   0.057
 7450SOL    HW234382   6.907   4.589  -0.053
 7451SOL     OW34383   6.654   5.057   0.849
 7451SOL    HW134384   6.661   4.973   0.794
 7451SOL    HW234385   6.716   5.126   0.813
 7452SOL     OW34386   5.905   4.534   0.949
 7452SOL    HW134387   5.998   4.570   0.954
 7452SOL    HW234388   5.899   4.449   1.001
 7453SOL     OW34389   5.925   4.233   1.006
 7453SOL    HW134390   5.873   4.150   0.989
 7453SOL    HW234391   6.002   4.238   0.942
 7454SOL     OW34392   6.746   3.931   1.477
 7454SOL    HW134393   6.746   3.995   1.554
 7454SOL    HW234394   6.774   3.979   1.394
 7455SOL     OW34395   5.674   5.525   0.927
 7455SOL    HW134396   5.632   5.439   0.900
 7455SOL    HW234397   5.768   5.528   0.893
 7456SOL     OW34398   6.090   5.292   0.910
 7456SOL    HW134399   6.156   5.366   0.919
 7456SOL    HW234400   6.134   5.213   0.868
 7457SOL     OW34401   6.588   4.520   1.238
 7457SOL    HW134402   6.629   4.488   1.324
 7457SOL    HW234403   6.492   4.493   1.235
 7458SOL     OW34404   5.626   4.268   1.114
 7458SOL    HW134405   5.711   4.235   1.073
 7458SOL    HW234406   5.639   4.283   1.212
 7459SOL     OW34407   5.775   4.244   1.722
 7459SOL    HW134408   5.834   4.204   1.652
 7459SOL    HW234409   5.717   4.315   1.681
 7460SOL     OW34410   6.401   4.296   0.325
 7460SOL    HW134411   6.408   4.207   0.279
 7460SOL    HW234412   6.307   4.330   0.317
 7461SOL     OW34413   7.243   4.328   1.206
 7461SOL    HW134414   7.205   4.259   1.268
 7461SOL    HW234415   7.325   4.292   1.162
 7462SOL     OW34416   6.257   4.188   1.269
 7462SOL    HW134417   6.223   4.099   1.239
 7462SOL    HW234418   6.283   4.242   1.189
 7463SOL     OW34419   6.059   4.224   0.191
 7463SOL    HW134420   6.120   4.304   0.195
 7463SOL    HW234421   5.964   4.255   0.198
 7464SOL     OW34422   5.745   4.861   1.466
 7464SOL    HW134423   5.767   4.800   1.542
 7464SOL    HW234424   5.755   4.812   1.380
 7465SOL     OW34425   6.888   4.579   0.309
 7465SOL    HW134426   6.802   4.548   0.351
 7465SOL    HW234427   6.884   4.565   0.210
 7466SOL     OW34428   7.345   5.471   1.154
 7466SOL    HW134429   7.406   5.501   1.081
 7466SOL    HW234430   7.307   5.382   1.132
 7467SOL     OW34431   6.838   5.455   1.128
 7467SOL    HW134432   6.922   5.460   1.074
 7467SOL    HW234433   6.815   5.359   1.146
 7468SOL     OW34434   5.669   4.982   1.022
 7468SOL    HW134435   5.664   4.981   1.122
 7468SOL    HW234436   5.586   4.941   0.984
 7469SOL     OW34437   6.274   5.386   1.716
 7469SOL    HW134438   6.218   5.467   1.725
 7469SOL    HW234439   6.326   5.390   1.630
 7470SOL     OW34440   6.489   3.810   0.133
 7470SOL    HW134441   6.540   3.811   0.047
 7470SOL    HW234442   6.545   3.768   0.204
 7471SOL     OW34443   7.312   3.859   0.523
 7471SOL    HW134444   7.385   3.842   0.456
 7471SOL    HW234445   7.281   3.772   0.561
 7472SOL     OW34446   6.974   5.297   0.477
 7472SOL    HW134447   7.041   5.309   0.403
 7472SOL    HW234448   6.934   5.386   0.500
 7473SOL     OW34449   6.866   4.651   0.672
 7473SOL    HW134450   6.926   4.570   0.674
 7473SOL    HW234451   6.906   4.720   0.612
 7474SOL     OW34452   6.258   5.340   0.154
 7474SOL    HW134453   6.267   5.350   0.055
 7474SOL    HW234454   6.218   5.251   0.175
 7475SOL     OW34455   7.236   5.444   1.394
 7475SOL    HW134456   7.289   5.454   1.310
 7475SOL    HW234457   7.209   5.534   1.428
 7476SOL     OW34458   7.427   3.899   0.963
 7476SOL    HW134459   7.466   3.814   0.927
 7476SOL    HW234460   7.329   3.901   0.944
 7477SOL     OW34461   5.849   4.050   0.720
 7477SOL    HW134462   5.770   4.101   0.686
 7477SOL    HW234463   5.840   4.035   0.818
 7478SOL     OW34464   6.780   5.336   0.031
 7478SOL    HW134465   6.786   5.243   0.068
 7478SOL    HW234466   6.721   5.336  -0.049
 7479SOL     OW34467   6.408   4.726   1.372
 7479SOL    HW134468   6.448   4.725   1.280
 7479SOL    HW234469   6.418   4.818   1.412
 7480SOL     OW34470   6.502   4.634   0.291
 7480SOL    HW134471   6.565   4.672   0.223
 7480SOL    HW234472   6.542   4.551   0.330
 7481SOL     OW34473   7.090   5.331   0.044
 7481SOL    HW134474   6.998   5.368   0.051
 7481SOL    HW234475   7.128   5.351  -0.046
 7482SOL     OW34476   7.200   5.016   1.289
 7482SOL    HW134477   7.260   5.019   1.369
 7482SOL    HW234478   7.125   5.080   1.302
 7483SOL     OW34479   6.625   4.822   0.696
 7483SOL    HW134480   6.555   4.775   0.750
 7483SOL    HW234481   6.684   4.754   0.653
 7484SOL     OW34482   6.600   3.960   0.971
 7484SOL    HW134483   6.592   3.924   0.878
 7484SOL    HW234484   6.598   3.884   1.036
 7485SOL     OW34485   6.176   5.211   0.491
 7485SOL    HW134486   6.218   5.153   0.421
 7485SOL    HW234487   6.132   5.290   0.447
 7486SOL     OW34488   7.295   4.109   1.381
 7486SOL    HW134489   7.368   4.178   1.385
 7486SOL    HW234490   7.323   4.034   1.322
 7487SOL     OW34491   5.841   5.072   0.290
 7487SOL    HW134492   5.745   5.073   0.263
 7487SOL    HW234493   5.853   5.125   0.374
 7488SOL     OW34494   7.026   4.580   1.398
 7488SOL    HW134495   6.969   4.632   1.335
 7488SOL    HW234496   7.122   4.592   1.374
 7489SOL     OW34497   5.658   3.890   0.318
 7489SOL    HW134498   5.641   3.973   0.264
 7489SOL    HW234499   5.748   3.853   0.296
 7490SOL     OW34500   6.769   5.059   0.119
 7490SOL    HW134501   6.670   5.048   0.121
 7490SOL    HW234502   6.803   5.074   0.212
 7491SOL     OW34503   6.199   4.566   1.431
 7491SOL    HW134504   6.255   4.647   1.414
 7491SOL    HW234505   6.258   4.486   1.434
 7492SOL     OW34506   7.079   5.491   0.959
 7492SOL    HW134507   7.112   5.555   0.890
 7492SOL    HW234508   7.145   5.485   1.034
 7493SOL     OW34509   5.976   5.465   1.560
 7493SOL    HW134510   5.885   5.506   1.558
 7493SOL    HW234511   5.969   5.371   1.592
 7494SOL     OW34512   6.811   4.049   0.449
 7494SOL    HW134513   6.876   3.975   0.438
 7494SOL    HW234514   6.831   4.099   0.533
 7495SOL     OW34515   6.180   4.469   0.652
 7495SOL    HW134516   6.230   4.554   0.633
 7495SOL    HW234517   6.092   4.471   0.604
 7496SOL     OW34518   7.363   4.066   1.642
 7496SOL    HW134519   7.346   4.097   1.548
 7496SOL    HW234520   7.279   4.029   1.680
 7497SOL     OW34521   6.445   5.098   0.016
 7497SOL    HW134522   6.399   5.113   0.104
 7497SOL    HW234523   6.489   5.183  -0.014
 7498SOL     OW34524   6.247   5.514   0.953
 7498SOL    HW134525   6.201   5.602   0.940
 7498SOL    HW234526   6.346   5.526   0.946
 7499SOL     OW34527   6.445   4.680   0.861
 7499SOL    HW134528   6.499   4.611   0.909
 7499SOL    HW234529   6.413   4.749   0.927
 7500SOL     OW34530   6.669   4.708   0.087
 7500SOL    HW134531   6.646   4.761   0.005
 7500SOL    HW234532   6.750   4.652   0.068
 7501SOL     OW34533   7.447   5.293   0.851
 7501SOL    HW134534   7.376   5.281   0.781
 7501SOL    HW234535   7.448   5.214   0.911
 7502SOL     OW34536   5.807   5.038   1.844
 7502SOL    HW134537   5.742   4.965   1.823
 7502SOL    HW234538   5.811   5.052   1.942
 7503SOL     OW34539   5.665   4.964   0.653
 7503SOL    HW134540   5.664   4.917   0.741
 7503SOL    HW234541   5.747   4.936   0.602
 7504SOL     OW34542   6.258   5.115   1.624
 7504SOL    HW134543   6.180   5.065   1.662
 7504SOL    HW234544   6.255   5.210   1.655
 7505SOL     OW34545   7.410   3.916   1.227
 7505SOL    HW134546   7.406   3.826   1.271
 7505SOL    HW234547   7.413   3.905   1.128
 7506SOL     OW34548   6.014   4.148   0.520
 7506SOL    HW134549   6.044   4.076   0.458
 7506SOL    HW234550   5.975   4.108   0.603
 7507SOL     OW34551   7.291   5.211   1.104
 7507SOL    HW134552   7.198   5.186   1.077
 7507SOL    HW234553   7.317   5.161   1.186
 7508SOL     OW34554   5.903   4.271   1.280
 7508SOL    HW134555   5.941   4.212   1.352
 7508SOL    HW234556   5.943   4.245   1.192
 7509SOL     OW34557   6.398   5.310   0.687
 7509SOL    HW134558   6.430   5.320   0.593
 7509SOL    HW234559   6.319   5.248   0.689
 7510SOL     OW34560   7.010   3.938   1.112
 7510SOL    HW134561   7.062   3.873   1.167
 7510SOL    HW234562   6.961   4.001   1.173
 7511SOL     OW34563   6.587   3.758   1.154
 7511SOL    HW134564   6.524   3.686   1.123
 7511SOL    HW234565   6.680   3.722   1.154
 7512SOL     OW34566   6.356   5.054   0.301
 7512SOL    HW134567   6.310   4.967   0.318
 7512SOL    HW234568   6.447   5.051   0.342
 7513SOL     OW34569   6.204   5.291   1.284
 7513SOL    HW134570   6.199   5.373   1.341
 7513SOL    HW234571   6.293   5.288   1.239
 7514SOL     OW34572   6.938   3.776   0.168
 7514SOL    HW134573   6.973   3.735   0.084
 7514SOL    HW234574   6.848   3.738   0.188
 7515SOL     OW34575   6.886   4.177   0.691
 7515SOL    HW134576   6.827   4.257   0.695
 7515SOL    HW234577   6.901   4.142   0.784
 7516SOL     OW34578   7.179   3.945   0.882
 7516SOL    HW134579   7.095   3.944   0.936
 7516SOL    HW234580   7.181   4.028   0.826
 7517SOL     OW34581   5.625   4.801   0.300
 7517SOL    HW134582   5.724   4.790   0.291
 7517SOL    HW234583   5.585   4.715   0.332
 7518SOL     OW34584   6.461   5.370   0.337
 7518SOL    HW134585   6.384   5.335   0.283
 7518SOL    HW234586   6.429   5.441   0.399
 7519SOL     OW34587   6.155   4.999   3.027
 7519SOL    HW134588   6.062   4.992   2.990
 7519SOL    HW234589   6.166   5.088   3.071
 7520SOL     OW34590   6.721   4.427   2.579
 7520SOL    HW134591   6.778   4.505   2.554
 7520SOL    HW234592   6.661   4.453   2.655
 7521SOL     OW34593   7.341   4.331   2.093
 7521SOL    HW134594   7.329   4.318   1.994
 7521SOL    HW234595   7.311   4.250   2.142
 7522SOL     OW34596   6.354   4.868   2.885
 7522SOL    HW134597   6.276   4.885   2.945
 7522SOL    HW234598   6.388   4.955   2.849
 7523SOL     OW34599   5.921   5.159   2.923
 7523SOL    HW134600   5.843   5.128   2.870
 7523SOL    HW234601   5.979   5.217   2.866
 7524SOL     OW34602   7.189   4.171   2.599
 7524SOL    HW134603   7.115   4.217   2.549
 7524SOL    HW234604   7.240   4.239   2.652
 7525SOL     OW34605   6.713   5.065   3.552
 7525SOL    HW134606   6.760   5.065   3.640
 7525SOL    HW234607   6.665   4.978   3.541
 7526SOL     OW34608   7.428   5.491   2.221
 7526SOL    HW134609   7.482   5.462   2.301
 7526SOL    HW234610   7.458   5.581   2.192
 7527SOL     OW34611   7.275   4.646   2.474
 7527SOL    HW134612   7.370   4.617   2.482
 7527SOL    HW234613   7.267   4.711   2.399
 7528SOL     OW34614   6.879   4.952   3.285
 7528SOL    HW134615   6.916   4.879   3.227
 7528SOL    HW234616   6.931   4.957   3.370
 7529SOL     OW34617   7.111   4.723   2.052
 7529SOL    HW134618   7.048   4.647   2.065
 7529SOL    HW234619   7.159   4.741   2.138
 7530SOL     OW34620   5.903   3.975   3.663
 7530SOL    HW134621   5.974   4.046   3.669
 7530SOL    HW234622   5.815   4.014   3.691
 7531SOL     OW34623   7.052   5.141   2.815
 7531SOL    HW134624   6.993   5.147   2.895
 7531SOL    HW234625   7.037   5.053   2.769
 7532SOL     OW34626   6.980   4.193   3.536
 7532SOL    HW134627   6.960   4.236   3.624
 7532SOL    HW234628   7.058   4.131   3.545
 7533SOL     OW34629   6.559   4.614   3.434
 7533SOL    HW134630   6.605   4.530   3.405
 7533SOL    HW234631   6.503   4.648   3.359
 7534SOL     OW34632   6.813   5.274   3.368
 7534SOL    HW134633   6.819   5.197   3.432
 7534SOL    HW234634   6.761   5.248   3.288
 7535SOL     OW34635   6.047   4.990   3.589
 7535SOL    HW134636   5.997   4.991   3.503
 7535SOL    HW234637   5.984   4.972   3.665
 7536SOL     OW34638   5.835   5.509   3.103
 7536SOL    HW134639   5.892   5.444   3.153
 7536SOL    HW234640   5.819   5.476   3.010
 7537SOL     OW34641   7.133   3.946   3.591
 7537SOL    HW134642   7.128   3.983   3.683
 7537SOL    HW234643   7.061   3.877   3.579
 7538SOL     OW34644   6.367   3.988   3.611
 7538SOL    HW134645   6.434   3.927   3.654
 7538SOL    HW234646   6.294   4.007   3.676
 7539SOL     OW34647   6.937   4.314   3.295
 7539SOL    HW134648   6.965   4.271   3.380
 7539SOL    HW234649   6.962   4.410   3.296
 7540SOL     OW34650   6.521   3.960   2.342
 7540SOL    HW134651   6.473   4.001   2.264
 7540SOL    HW234652   6.620   3.958   2.323
 7541SOL     OW34653   6.813   5.294   2.655
 7541SOL    HW134654   6.834   5.368   2.590
 7541SOL    HW234655   6.881   5.294   2.728
 7542SOL     OW34656   6.147   3.946   3.009
 7542SOL    HW134657   6.185   3.862   3.046
 7542SOL    HW234658   6.059   3.965   3.053
 7543SOL     OW34659   6.452   4.178   2.504
 7543SOL    HW134660   6.420   4.250   2.442
 7543SOL    HW234661   6.476   4.097   2.451
 7544SOL     OW34662   6.603   3.763   2.615
 7544SOL    HW134663   6.531   3.768   2.546
 7544SOL    HW234664   6.579   3.694   2.684
 7545SOL     OW34665   6.976   4.299   1.940
 7545SOL    HW134666   6.922   4.278   2.021
 7545SOL    HW234667   7.067   4.258   1.949
 7546SOL     OW34668   7.340   4.947   3.450
 7546SOL    HW134669   7.431   4.908   3.437
 7546SOL    HW234670   7.348   5.043   3.474
 7547SOL     OW34671   6.650   5.071   3.202
 7547SOL    HW134672   6.570   5.048   3.257
 7547SOL    HW234673   6.733   5.045   3.251
 7548SOL     OW34674   7.178   5.353   3.487
 7548SOL    HW134675   7.205   5.387   3.397
 7548SOL    HW234676   7.257   5.315   3.533
 7549SOL     OW34677   6.501   3.813   3.264
 7549SOL    HW134678   6.526   3.793   3.169
 7549SOL    HW234679   6.573   3.869   3.306
 7550SOL     OW34680   6.291   4.774   2.230
 7550SOL    HW134681   6.277   4.781   2.329
 7550SOL    HW234682   6.375   4.723   2.212
 7551SOL     OW34683   6.838   5.072   2.250
 7551SOL    HW134684   6.888   5.149   2.290
 7551SOL    HW234685   6.743   5.074   2.282
 7552SOL     OW34686   6.858   5.169   3.004
 7552SOL    HW134687   6.905   5.182   3.091
 7552SOL    HW234688   6.792   5.095   3.013
 7553SOL     OW34689   5.988   4.475   3.460
 7553SOL    HW134690   6.056   4.530   3.413
 7553SOL    HW234691   6.028   4.387   3.487
 7554SOL     OW34692   6.599   3.829   3.632
 7554SOL    HW134693   6.605   3.914   3.580
 7554SOL    HW234694   6.631   3.753   3.575
 7555SOL     OW34695   6.090   3.774   3.602
 7555SOL    HW134696   6.048   3.717   3.532
 7555SOL    HW234697   6.024   3.843   3.634
 7556SOL     OW34698   6.946   4.586   2.907
 7556SOL    HW134699   6.871   4.586   2.841
 7556SOL    HW234700   6.983   4.494   2.916
 7557SOL     OW34701   5.623   5.034   3.144
 7557SOL    HW134702   5.676   4.985   3.212
 7557SOL    HW234703   5.645   5.132   3.149
 7558SOL     OW34704   5.936   4.622   3.666
 7558SOL    HW134705   6.012   4.666   3.714
 7558SOL    HW234706   5.971   4.575   3.584
 7559SOL     OW34707   6.724   4.104   3.540
 7559SOL    HW134708   6.679   4.167   3.604
 7559SOL    HW234709   6.817   4.135   3.523
 7560SOL     OW34710   6.746   3.931   3.339
 7560SOL    HW134711   6.746   3.995   3.416
 7560SOL    HW234712   6.774   3.979   3.256
 7561SOL     OW34713   5.775   4.244   3.584
 7561SOL    HW134714   5.834   4.204   3.514
 7561SOL    HW234715   5.717   4.315   3.543
 7562SOL     OW34716   6.933   4.783   3.096
 7562SOL    HW134717   6.957   4.720   3.022
 7562SOL    HW234718   6.843   4.823   3.078
 7563SOL     OW34719   6.888   4.579   2.171
 7563SOL    HW134720   6.802   4.548   2.213
 7563SOL    HW234721   6.884   4.565   2.072
 7564SOL     OW34722   6.838   5.455   2.990
 7564SOL    HW134723   6.922   5.460   2.936
 7564SOL    HW234724   6.815   5.359   3.008
 7565SOL     OW34725   5.669   4.982   2.884
 7565SOL    HW134726   5.664   4.981   2.984
 7565SOL    HW234727   5.586   4.941   2.846
 7566SOL     OW34728   6.274   5.386   3.578
 7566SOL    HW134729   6.218   5.467   3.587
 7566SOL    HW234730   6.326   5.390   3.492
 7567SOL     OW34731   5.716   5.518   3.713
 7567SOL    HW134732   5.675   5.444   3.766
 7567SOL    HW234733   5.780   5.569   3.771
 7568SOL     OW34734   6.866   4.651   2.534
 7568SOL    HW134735   6.926   4.570   2.536
 7568SOL    HW234736   6.906   4.720   2.474
 7569SOL     OW34737   6.258   5.340   2.016
 7569SOL    HW134738   6.267   5.350   1.917
 7569SOL    HW234739   6.218   5.251   2.037
 7570SOL     OW34740   7.236   5.444   3.256
 7570SOL    HW134741   7.289   5.454   3.172
 7570SOL    HW234742   7.209   5.534   3.290
 7571SOL     OW34743   6.408   4.726   3.234
 7571SOL    HW134744   6.448   4.725   3.142
 7571SOL    HW234745   6.418   4.818   3.274
 7572SOL     OW34746   5.958   5.012   3.352
 7572SOL    HW134747   5.945   5.105   3.318
 7572SOL    HW234748   5.874   4.960   3.339
 7573SOL     OW34749   7.200   5.016   3.151
 7573SOL    HW134750   7.260   5.019   3.231
 7573SOL    HW234751   7.125   5.080   3.164
 7574SOL     OW34752   5.691   4.737   3.588
 7574SOL    HW134753   5.614   4.704   3.642
 7574SOL    HW234754   5.776   4.707   3.630
 7575SOL     OW34755   7.026   4.580   3.260
 7575SOL    HW134756   6.969   4.632   3.197
 7575SOL    HW234757   7.122   4.592   3.236
 7576SOL     OW34758   7.079   5.491   2.821
 7576SOL    HW134759   7.112   5.555   2.752
 7576SOL    HW234760   7.145   5.485   2.896
 7577SOL     OW34761   5.976   5.465   3.422
 7577SOL    HW134762   5.885   5.506   3.420
 7577SOL    HW234763   5.969   5.371   3.454
 7578SOL     OW34764   7.260   4.607   3.116
 7578SOL    HW134765   7.233   4.518   3.079
 7578SOL    HW234766   7.261   4.675   3.043
 7579SOL     OW34767   6.180   4.469   2.514
 7579SOL    HW134768   6.230   4.554   2.495
 7579SOL    HW234769   6.092   4.471   2.466
 7580SOL     OW34770   6.247   5.514   2.815
 7580SOL    HW134771   6.201   5.602   2.802
 7580SOL    HW234772   6.346   5.526   2.808
 7581SOL     OW34773   5.665   4.964   2.515
 7581SOL    HW134774   5.664   4.917   2.603
 7581SOL    HW234775   5.747   4.936   2.464
 7582SOL     OW34776   6.258   5.115   3.486
 7582SOL    HW134777   6.180   5.065   3.524
 7582SOL    HW234778   6.255   5.210   3.517
 7583SOL     OW34779   5.903   4.271   3.142
 7583SOL    HW134780   5.941   4.212   3.214
 7583SOL    HW234781   5.943   4.245   3.054
 7584SOL     OW34782   6.587   3.758   3.016
 7584SOL    HW134783   6.524   3.686   2.985
 7584SOL    HW234784   6.680   3.722   3.016
 7585SOL     OW34785   5.625   4.801   2.162
 7585SOL    HW134786   5.724   4.790   2.153
 7585SOL    HW234787   5.585   4.715   2.194
 7586SOL     OW34788   5.811   3.999   4.720
 7586SOL    HW134789   5.846   3.982   4.812
 7586SOL    HW234790   5.723   3.954   4.708
 7587SOL     OW34791   5.605   4.092   4.371
 7587SOL    HW134792   5.523   4.135   4.410
 7587SOL    HW234793   5.577   4.019   4.308
 7588SOL     OW34794   6.272   4.885   5.527
 7588SOL    HW134795   6.332   4.964   5.541
 7588SOL    HW234796   6.186   4.916   5.486
 7589SOL     OW34797   7.046   5.229   5.063
 7589SOL    HW134798   7.070   5.323   5.089
 7589SOL    HW234799   7.030   5.175   5.145
 7590SOL     OW34800   5.817   5.437   4.207
 7590SOL    HW134801   5.851   5.514   4.261
 7590SOL    HW234802   5.861   5.437   4.117
 7591SOL     OW34803   6.192   4.688   3.847
 7591SOL    HW134804   6.199   4.772   3.793
 7591SOL    HW234805   6.238   4.701   3.935
 7592SOL     OW34806   7.428   5.491   4.083
 7592SOL    HW134807   7.482   5.462   4.163
 7592SOL    HW234808   7.458   5.581   4.054
 7593SOL     OW34809   7.111   4.723   3.914
 7593SOL    HW134810   7.048   4.647   3.927
 7593SOL    HW234811   7.159   4.741   4.000
 7594SOL     OW34812   6.773   5.516   5.340
 7594SOL    HW134813   6.797   5.576   5.264
 7594SOL    HW234814   6.780   5.421   5.310
 7595SOL     OW34815   5.903   3.975   5.525
 7595SOL    HW134816   5.974   4.046   5.531
 7595SOL    HW234817   5.815   4.014   5.553
 7596SOL     OW34818   7.052   5.141   4.677
 7596SOL    HW134819   6.993   5.147   4.757
 7596SOL    HW234820   7.037   5.053   4.631
 7597SOL     OW34821   6.184   4.453   3.994
 7597SOL    HW134822   6.208   4.522   3.926
 7597SOL    HW234823   6.106   4.486   4.048
 7598SOL     OW34824   7.162   5.386   4.031
 7598SOL    HW134825   7.251   5.432   4.034
 7598SOL    HW234826   7.141   5.362   3.936
 7599SOL     OW34827   6.980   4.193   5.398
 7599SOL    HW134828   6.960   4.236   5.486
 7599SOL    HW234829   7.058   4.131   5.407
 7600SOL     OW34830   6.577   4.134   4.966
 7600SOL    HW134831   6.500   4.168   5.020
 7600SOL    HW234832   6.543   4.083   4.887
 7601SOL     OW34833   6.813   5.274   5.230
 7601SOL    HW134834   6.819   5.197   5.294
 7601SOL    HW234835   6.761   5.248   5.150
 7602SOL     OW34836   7.044   4.459   4.452
 7602SOL    HW134837   7.039   4.394   4.527
 7602SOL    HW234838   7.124   4.518   4.465
 7603SOL     OW34839   5.788   4.009   5.222
 7603SOL    HW134840   5.708   4.069   5.209
 7603SOL    HW234841   5.778   3.960   5.308
 7604SOL     OW34842   6.986   3.831   4.150
 7604SOL    HW134843   6.962   3.794   4.060
 7604SOL    HW234844   7.085   3.847   4.154
 7605SOL     OW34845   5.835   5.509   4.965
 7605SOL    HW134846   5.892   5.444   5.015
 7605SOL    HW234847   5.819   5.476   4.872
 7606SOL     OW34848   5.968   4.424   4.204
 7606SOL    HW134849   6.013   4.334   4.201
 7606SOL    HW234850   5.874   4.413   4.237
 7607SOL     OW34851   7.133   3.946   5.453
 7607SOL    HW134852   7.128   3.983   5.545
 7607SOL    HW234853   7.061   3.877   5.441
 7608SOL     OW34854   6.474   5.238   4.919
 7608SOL    HW134855   6.451   5.213   4.825
 7608SOL    HW234856   6.535   5.169   4.958
 7609SOL     OW34857   6.389   5.126   4.648
 7609SOL    HW134858   6.479   5.140   4.606
 7609SOL    HW234859   6.318   5.128   4.577
 7610SOL     OW34860   6.508   4.227   4.623
 7610SOL    HW134861   6.483   4.218   4.527
 7610SOL    HW234862   6.556   4.145   4.654
 7611SOL     OW34863   6.857   5.521   4.315
 7611SOL    HW134864   6.901   5.585   4.251
 7611SOL    HW234865   6.807   5.573   4.385
 7612SOL     OW34866   6.618   4.273   3.740
 7612SOL    HW134867   6.577   4.355   3.701
 7612SOL    HW234868   6.682   4.299   3.813
 7613SOL     OW34869   5.664   4.280   5.110
 7613SOL    HW134870   5.756   4.279   5.069
 7613SOL    HW234871   5.658   4.354   5.177
 7614SOL     OW34872   6.074   5.109   3.898
 7614SOL    HW134873   5.987   5.094   3.945
 7614SOL    HW234874   6.057   5.135   3.803
 7615SOL     OW34875   7.250   5.004   4.381
 7615SOL    HW134876   7.349   5.012   4.395
 7615SOL    HW234877   7.205   5.088   4.412
 7616SOL     OW34878   6.113   3.980   4.052
 7616SOL    HW134879   6.140   3.921   3.977
 7616SOL    HW234880   6.113   4.075   4.021
 7617SOL     OW34881   7.340   4.947   5.312
 7617SOL    HW134882   7.431   4.908   5.299
 7617SOL    HW234883   7.348   5.043   5.336
 7618SOL     OW34884   7.178   5.353   5.349
 7618SOL    HW134885   7.205   5.387   5.259
 7618SOL    HW234886   7.257   5.315   5.395
 7619SOL     OW34887   6.291   4.774   4.092
 7619SOL    HW134888   6.277   4.781   4.191
 7619SOL    HW234889   6.375   4.723   4.074
 7620SOL     OW34890   5.996   4.537   4.975
 7620SOL    HW134891   6.082   4.549   5.025
 7620SOL    HW234892   5.954   4.450   5.002
 7621SOL     OW34893   6.860   4.110   4.986
 7621SOL    HW134894   6.881   4.184   5.050
 7621SOL    HW234895   6.771   4.127   4.943
 7622SOL     OW34896   6.152   4.261   4.589
 7622SOL    HW134897   6.164   4.327   4.515
 7622SOL    HW234898   6.198   4.295   4.672
 7623SOL     OW34899   6.599   3.829   5.494
 7623SOL    HW134900   6.605   3.914   5.442
 7623SOL    HW234901   6.631   3.753   5.437
 7624SOL     OW34902   6.090   3.774   5.464
 7624SOL    HW134903   6.048   3.717   5.394
 7624SOL    HW234904   6.024   3.843   5.496
 7625SOL     OW34905   6.159   4.594   4.753
 7625SOL    HW134906   6.203   4.683   4.744
 7625SOL    HW234907   6.096   4.594   4.830
 7626SOL     OW34908   6.795   4.249   3.999
 7626SOL    HW134909   6.808   4.165   4.053
 7626SOL    HW234910   6.766   4.323   4.059
 7627SOL     OW34911   5.893   3.937   4.955
 7627SOL    HW134912   5.870   3.974   5.045
 7627SOL    HW234913   5.863   3.842   4.949
 7628SOL     OW34914   5.623   5.034   5.006
 7628SOL    HW134915   5.676   4.985   5.074
 7628SOL    HW234916   5.645   5.132   5.011
 7629SOL     OW34917   6.318   4.358   4.788
 7629SOL    HW134918   6.377   4.332   4.712
 7629SOL    HW234919   6.290   4.454   4.777
 7630SOL     OW34920   7.314   4.659   5.578
 7630SOL    HW134921   7.268   4.652   5.489
 7630SOL    HW234922   7.252   4.703   5.644
 7631SOL     OW34923   5.893   3.787   4.342
 7631SOL    HW134924   5.882   3.881   4.375
 7631SOL    HW234925   5.888   3.724   4.419
 7632SOL     OW34926   7.208   4.091   4.098
 7632SOL    HW134927   7.210   4.015   4.162
 7632SOL    HW234928   7.160   4.168   4.138
 7633SOL     OW34929   6.566   5.297   5.424
 7633SOL    HW134930   6.546   5.341   5.336
 7633SOL    HW234931   6.605   5.206   5.408
 7634SOL     OW34932   7.445   5.242   5.329
 7634SOL    HW134933   7.459   5.269   5.234
 7634SOL    HW234934   7.528   5.264   5.382
 7635SOL     OW34935   5.936   4.622   5.528
 7635SOL    HW134936   6.012   4.666   5.576
 7635SOL    HW234937   5.971   4.575   5.446
 7636SOL     OW34938   7.126   3.998   3.849
 7636SOL    HW134939   7.065   3.923   3.872
 7636SOL    HW234940   7.148   4.050   3.932
 7637SOL     OW34941   6.724   4.104   5.402
 7637SOL    HW134942   6.679   4.167   5.466
 7637SOL    HW234943   6.817   4.135   5.385
 7638SOL     OW34944   6.746   3.931   5.201
 7638SOL    HW134945   6.746   3.995   5.278
 7638SOL    HW234946   6.774   3.979   5.118
 7639SOL     OW34947   5.674   5.525   4.651
 7639SOL    HW134948   5.632   5.439   4.624
 7639SOL    HW234949   5.768   5.528   4.617
 7640SOL     OW34950   6.588   4.520   4.962
 7640SOL    HW134951   6.629   4.488   5.048
 7640SOL    HW234952   6.492   4.493   4.959
 7641SOL     OW34953   6.955   4.674   5.384
 7641SOL    HW134954   6.994   4.763   5.404
 7641SOL    HW234955   6.965   4.654   5.287
 7642SOL     OW34956   5.838   5.288   5.468
 7642SOL    HW134957   5.808   5.345   5.544
 7642SOL    HW234958   5.831   5.191   5.494
 7643SOL     OW34959   6.257   4.188   4.993
 7643SOL    HW134960   6.223   4.099   4.963
 7643SOL    HW234961   6.283   4.242   4.913
 7644SOL     OW34962   6.274   5.386   5.440
 7644SOL    HW134963   6.218   5.467   5.449
 7644SOL    HW234964   6.326   5.390   5.354
 7645SOL     OW34965   6.866   4.651   4.396
 7645SOL    HW134966   6.926   4.570   4.398
 7645SOL    HW234967   6.906   4.720   4.336
 7646SOL     OW34968   6.258   5.340   3.878
 7646SOL    HW134969   6.267   5.350   3.779
 7646SOL    HW234970   6.218   5.251   3.899
 7647SOL     OW34971   7.236   5.444   5.118
 7647SOL    HW134972   7.289   5.454   5.034
 7647SOL    HW234973   7.209   5.534   5.152
 7648SOL     OW34974   6.408   4.726   5.096
 7648SOL    HW134975   6.448   4.725   5.004
 7648SOL    HW234976   6.418   4.818   5.136
 7649SOL     OW34977   6.502   4.634   4.015
 7649SOL    HW134978   6.565   4.672   3.947
 7649SOL    HW234979   6.542   4.551   4.054
 7650SOL     OW34980   7.090   5.331   3.768
 7650SOL    HW134981   6.998   5.368   3.775
 7650SOL    HW234982   7.128   5.351   3.678
 7651SOL     OW34983   5.958   5.012   5.214
 7651SOL    HW134984   5.945   5.105   5.180
 7651SOL    HW234985   5.874   4.960   5.201
 7652SOL     OW34986   7.200   5.016   5.013
 7652SOL    HW134987   7.260   5.019   5.093
 7652SOL    HW234988   7.125   5.080   5.026
 7653SOL     OW34989   6.176   5.211   4.215
 7653SOL    HW134990   6.218   5.153   4.145
 7653SOL    HW234991   6.132   5.290   4.171
 7654SOL     OW34992   7.295   4.109   5.105
 7654SOL    HW134993   7.368   4.178   5.109
 7654SOL    HW234994   7.323   4.034   5.046
 7655SOL     OW34995   5.661   4.069   3.757
 7655SOL    HW134996   5.569   4.041   3.728
 7655SOL    HW234997   5.692   4.146   3.701
 7656SOL     OW34998   7.026   4.580   5.122
 7656SOL    HW134999   6.969   4.632   5.059
 7656SOL    HW235000   7.122   4.592   5.098
 7657SOL     OW35001   5.658   3.890   4.042
 7657SOL    HW135002   5.641   3.973   3.988
 7657SOL    HW235003   5.748   3.853   4.020
 7658SOL     OW35004   6.302   4.289   5.432
 7658SOL    HW135005   6.321   4.354   5.506
 7658SOL    HW235006   6.362   4.209   5.441
 7659SOL     OW35007   7.036   4.944   5.357
 7659SOL    HW135008   7.027   4.934   5.456
 7659SOL    HW235009   7.132   4.937   5.331
 7660SOL     OW35010   5.976   5.465   5.284
 7660SOL    HW135011   5.885   5.506   5.282
 7660SOL    HW235012   5.969   5.371   5.316
 7661SOL     OW35013   6.811   4.049   4.173
 7661SOL    HW135014   6.876   3.975   4.162
 7661SOL    HW235015   6.831   4.099   4.257
 7662SOL     OW35016   7.363   4.066   5.366
 7662SOL    HW135017   7.346   4.097   5.272
 7662SOL    HW235018   7.279   4.029   5.404
 7663SOL     OW35019   6.247   5.514   4.677
 7663SOL    HW135020   6.201   5.602   4.664
 7663SOL    HW235021   6.346   5.526   4.670
 7664SOL     OW35022   6.258   5.115   5.348
 7664SOL    HW135023   6.180   5.065   5.386
 7664SOL    HW235024   6.255   5.210   5.379
 7665SOL     OW35025   6.014   4.148   4.244
 7665SOL    HW135026   6.044   4.076   4.182
 7665SOL    HW235027   5.975   4.108   4.327
 7666SOL     OW35028   7.291   5.211   4.828
 7666SOL    HW135029   7.198   5.186   4.801
 7666SOL    HW235030   7.317   5.161   4.910
 7667SOL     OW35031   7.010   3.938   4.836
 7667SOL    HW135032   7.062   3.873   4.891
 7667SOL    HW235033   6.961   4.001   4.897
 7668SOL     OW35034   6.587   3.758   4.878
 7668SOL    HW135035   6.524   3.686   4.847
 7668SOL    HW235036   6.680   3.722   4.878
 7669SOL     OW35037   6.938   3.776   3.892
 7669SOL    HW135038   6.973   3.735   3.808
 7669SOL    HW235039   6.848   3.738   3.912
 7670SOL     OW35040   6.886   4.177   4.415
 7670SOL    HW135041   6.827   4.257   4.419
 7670SOL    HW235042   6.901   4.142   4.508
 7671SOL     OW35043   7.179   3.945   4.606
 7671SOL    HW135044   7.095   3.944   4.660
 7671SOL    HW235045   7.181   4.028   4.550
 7672SOL     OW35046   5.811   3.999   6.582
 7672SOL    HW135047   5.846   3.982   6.674
 7672SOL    HW235048   5.723   3.954   6.570
 7673SOL     OW35049   6.155   4.999   6.751
 7673SOL    HW135050   6.062   4.992   6.714
 7673SOL    HW235051   6.166   5.088   6.795
 7674SOL     OW35052   7.141   5.235   6.289
 7674SOL    HW135053   7.084   5.219   6.370
 7674SOL    HW235054   7.082   5.245   6.209
 7675SOL     OW35055   6.721   4.427   6.303
 7675SOL    HW135056   6.778   4.505   6.278
 7675SOL    HW235057   6.661   4.453   6.379
 7676SOL     OW35058   6.354   4.868   6.609
 7676SOL    HW135059   6.276   4.885   6.669
 7676SOL    HW235060   6.388   4.955   6.573
 7677SOL     OW35061   6.271   4.736   6.251
 7677SOL    HW135062   6.340   4.720   6.321
 7677SOL    HW235063   6.198   4.793   6.289
 7678SOL     OW35064   5.921   5.159   6.647
 7678SOL    HW135065   5.843   5.128   6.594
 7678SOL    HW235066   5.979   5.217   6.590
 7679SOL     OW35067   7.189   4.171   6.323
 7679SOL    HW135068   7.115   4.217   6.273
 7679SOL    HW235069   7.240   4.239   6.376
 7680SOL     OW35070   5.817   5.437   6.069
 7680SOL    HW135071   5.851   5.514   6.123
 7680SOL    HW235072   5.861   5.437   5.979
 7681SOL     OW35073   5.816   5.158   6.124
 7681SOL    HW135074   5.790   5.254   6.124
 7681SOL    HW235075   5.745   5.104   6.169
 7682SOL     OW35076   5.826   4.815   6.472
 7682SOL    HW135077   5.840   4.731   6.524
 7682SOL    HW235078   5.771   4.879   6.527
 7683SOL     OW35079   6.206   5.510   7.025
 7683SOL    HW135080   6.114   5.493   7.060
 7683SOL    HW235081   6.234   5.602   7.051
 7684SOL     OW35082   6.192   4.688   5.709
 7684SOL    HW135083   6.199   4.772   5.655
 7684SOL    HW235084   6.238   4.701   5.797
 7685SOL     OW35085   5.708   4.367   6.149
 7685SOL    HW135086   5.663   4.279   6.166
 7685SOL    HW235087   5.707   4.421   6.233
 7686SOL     OW35088   7.428   5.491   5.945
 7686SOL    HW135089   7.482   5.462   6.025
 7686SOL    HW235090   7.458   5.581   5.916
 7687SOL     OW35091   7.275   4.646   6.198
 7687SOL    HW135092   7.370   4.617   6.206
 7687SOL    HW235093   7.267   4.711   6.123
 7688SOL     OW35094   7.227   4.832   6.018
 7688SOL    HW135095   7.313   4.834   5.966
 7688SOL    HW235096   7.241   4.879   6.106
 7689SOL     OW35097   6.199   5.089   6.312
 7689SOL    HW135098   6.150   5.002   6.321
 7689SOL    HW235099   6.176   5.132   6.225
 7690SOL     OW35100   6.395   3.728   6.088
 7690SOL    HW135101   6.435   3.819   6.079
 7690SOL    HW235102   6.295   3.736   6.094
 7691SOL     OW35103   5.783   4.700   6.850
 7691SOL    HW135104   5.872   4.655   6.836
 7691SOL    HW235105   5.710   4.635   6.831
 7692SOL     OW35106   7.111   4.723   5.776
 7692SOL    HW135107   7.048   4.647   5.789
 7692SOL    HW235108   7.159   4.741   5.862
 7693SOL     OW35109   7.052   5.141   6.539
 7693SOL    HW135110   6.993   5.147   6.619
 7693SOL    HW235111   7.037   5.053   6.493
 7694SOL     OW35112   7.253   5.438   6.158
 7694SOL    HW135113   7.212   5.415   6.070
 7694SOL    HW235114   7.235   5.364   6.223
 7695SOL     OW35115   6.184   4.453   5.856
 7695SOL    HW135116   6.208   4.522   5.788
 7695SOL    HW235117   6.106   4.486   5.910
 7696SOL     OW35118   6.867   4.069   6.530
 7696SOL    HW135119   6.781   4.019   6.517
 7696SOL    HW235120   6.929   4.015   6.586
 7697SOL     OW35121   7.162   5.386   5.893
 7697SOL    HW135122   7.251   5.432   5.896
 7697SOL    HW235123   7.141   5.362   5.798
 7698SOL     OW35124   6.577   4.134   6.828
 7698SOL    HW135125   6.500   4.168   6.882
 7698SOL    HW235126   6.543   4.083   6.749
 7699SOL     OW35127   6.627   4.425   6.015
 7699SOL    HW135128   6.653   4.421   6.111
 7699SOL    HW235129   6.542   4.374   6.001
 7700SOL     OW35130   5.662   4.535   6.375
 7700SOL    HW135131   5.761   4.523   6.384
 7700SOL    HW235132   5.638   4.630   6.396
 7701SOL     OW35133   6.451   4.072   5.781
 7701SOL    HW135134   6.510   4.135   5.732
 7701SOL    HW235135   6.470   3.978   5.752
 7702SOL     OW35136   6.948   4.868   6.131
 7702SOL    HW135137   7.031   4.839   6.083
 7702SOL    HW235138   6.899   4.935   6.075
 7703SOL     OW35139   6.136   3.920   6.471
 7703SOL    HW135140   6.131   3.915   6.571
 7703SOL    HW235141   6.138   4.016   6.442
 7704SOL     OW35142   6.594   5.180   6.063
 7704SOL    HW135143   6.548   5.252   6.011
 7704SOL    HW235144   6.590   5.200   6.161
 7705SOL     OW35145   5.937   5.525   6.439
 7705SOL    HW135146   5.987   5.439   6.445
 7705SOL    HW235147   6.002   5.602   6.436
 7706SOL     OW35148   7.381   4.790   6.459
 7706SOL    HW135149   7.319   4.775   6.383
 7706SOL    HW235150   7.329   4.801   6.544
 7707SOL     OW35151   5.907   4.667   5.828
 7707SOL    HW135152   5.989   4.706   5.786
 7707SOL    HW235153   5.880   4.585   5.779
 7708SOL     OW35154   7.044   4.459   6.314
 7708SOL    HW135155   7.039   4.394   6.389
 7708SOL    HW235156   7.124   4.518   6.327
 7709SOL     OW35157   6.697   5.500   5.823
 7709SOL    HW135158   6.637   5.438   5.873
 7709SOL    HW235159   6.728   5.456   5.738
 7710SOL     OW35160   7.218   5.101   5.667
 7710SOL    HW135161   7.186   5.195   5.657
 7710SOL    HW235162   7.142   5.038   5.655
 7711SOL     OW35163   6.050   5.467   5.909
 7711SOL    HW135164   6.083   5.506   5.995
 7711SOL    HW235165   6.126   5.460   5.844
 7712SOL     OW35166   6.986   3.831   6.012
 7712SOL    HW135167   6.962   3.794   5.922
 7712SOL    HW235168   7.085   3.847   6.016
 7713SOL     OW35169   5.835   5.509   6.827
 7713SOL    HW135170   5.892   5.444   6.877
 7713SOL    HW235171   5.819   5.476   6.734
 7714SOL     OW35172   6.526   5.422   6.490
 7714SOL    HW135173   6.606   5.365   6.511
 7714SOL    HW235174   6.477   5.382   6.413
 7715SOL     OW35175   5.968   4.424   6.066
 7715SOL    HW135176   6.013   4.334   6.063
 7715SOL    HW235177   5.874   4.413   6.099
 7716SOL     OW35178   6.389   5.126   6.510
 7716SOL    HW135179   6.479   5.140   6.468
 7716SOL    HW235180   6.318   5.128   6.439
 7717SOL     OW35181   6.508   4.227   6.485
 7717SOL    HW135182   6.483   4.218   6.389
 7717SOL    HW235183   6.556   4.145   6.516
 7718SOL     OW35184   7.020   4.912   5.627
 7718SOL    HW135185   7.052   4.836   5.684
 7718SOL    HW235186   6.928   4.939   5.657
 7719SOL     OW35187   6.521   3.960   6.066
 7719SOL    HW135188   6.473   4.001   5.988
 7719SOL    HW235189   6.620   3.958   6.047
 7720SOL     OW35190   6.813   5.294   6.379
 7720SOL    HW135191   6.834   5.368   6.314
 7720SOL    HW235192   6.881   5.294   6.452
 7721SOL     OW35193   6.045   4.876   6.327
 7721SOL    HW135194   5.974   4.849   6.392
 7721SOL    HW235195   6.019   4.848   6.234
 7722SOL     OW35196   6.857   5.521   6.177
 7722SOL    HW135197   6.901   5.585   6.113
 7722SOL    HW235198   6.807   5.573   6.247
 7723SOL     OW35199   6.618   4.273   5.602
 7723SOL    HW135200   6.577   4.355   5.563
 7723SOL    HW235201   6.682   4.299   5.675
 7724SOL     OW35202   6.147   3.946   6.733
 7724SOL    HW135203   6.185   3.862   6.770
 7724SOL    HW235204   6.059   3.965   6.777
 7725SOL     OW35205   6.452   4.178   6.228
 7725SOL    HW135206   6.420   4.250   6.166
 7725SOL    HW235207   6.476   4.097   6.175
 7726SOL     OW35208   6.603   3.763   6.339
 7726SOL    HW135209   6.531   3.768   6.270
 7726SOL    HW235210   6.579   3.694   6.408
 7727SOL     OW35211   7.015   4.897   6.453
 7727SOL    HW135212   6.960   4.813   6.446
 7727SOL    HW235213   7.041   4.926   6.361
 7728SOL     OW35214   7.052   4.314   6.578
 7728SOL    HW135215   7.022   4.219   6.585
 7728SOL    HW235216   7.125   4.330   6.644
 7729SOL     OW35217   7.443   4.557   5.963
 7729SOL    HW135218   7.485   4.493   6.027
 7729SOL    HW235219   7.405   4.506   5.885
 7730SOL     OW35220   6.074   5.109   5.760
 7730SOL    HW135221   5.987   5.094   5.807
 7730SOL    HW235222   6.057   5.135   5.665
 7731SOL     OW35223   7.250   5.004   6.243
 7731SOL    HW135224   7.349   5.012   6.257
 7731SOL    HW235225   7.205   5.088   6.274
 7732SOL     OW35226   6.113   3.980   5.914
 7732SOL    HW135227   6.140   3.921   5.839
 7732SOL    HW235228   6.113   4.075   5.883
 7733SOL     OW35229   6.697   4.919   6.686
 7733SOL    HW135230   6.657   4.963   6.767
 7733SOL    HW235231   6.656   4.956   6.603
 7734SOL     OW35232   7.224   4.823   6.665
 7734SOL    HW135233   7.229   4.904   6.724
 7734SOL    HW235234   7.138   4.825   6.614
 7735SOL     OW35235   6.291   4.774   5.954
 7735SOL    HW135236   6.277   4.781   6.053
 7735SOL    HW235237   6.375   4.723   5.936
 7736SOL     OW35238   5.996   4.537   6.837
 7736SOL    HW135239   6.082   4.549   6.887
 7736SOL    HW235240   5.954   4.450   6.864
 7737SOL     OW35241   6.860   4.110   6.848
 7737SOL    HW135242   6.881   4.184   6.912
 7737SOL    HW235243   6.771   4.127   6.805
 7738SOL     OW35244   5.953   4.824   6.087
 7738SOL    HW135245   5.946   4.907   6.031
 7738SOL    HW235246   5.957   4.744   6.027
 7739SOL     OW35247   6.152   4.261   6.451
 7739SOL    HW135248   6.164   4.327   6.377
 7739SOL    HW235249   6.198   4.295   6.534
 7740SOL     OW35250   6.838   5.072   5.974
 7740SOL    HW135251   6.888   5.149   6.014
 7740SOL    HW235252   6.743   5.074   6.006
 7741SOL     OW35253   6.858   5.169   6.728
 7741SOL    HW135254   6.905   5.182   6.815
 7741SOL    HW235255   6.792   5.095   6.737
 7742SOL     OW35256   7.168   4.363   6.058
 7742SOL    HW135257   7.137   4.424   6.131
 7742SOL    HW235258   7.218   4.415   5.989
 7743SOL     OW35259   5.940   5.234   6.915
 7743SOL    HW135260   5.919   5.190   6.828
 7743SOL    HW235261   6.037   5.260   6.918
 7744SOL     OW35262   6.159   4.594   6.615
 7744SOL    HW135263   6.203   4.683   6.606
 7744SOL    HW235264   6.096   4.594   6.692
 7745SOL     OW35265   6.946   4.586   6.631
 7745SOL    HW135266   6.871   4.586   6.565
 7745SOL    HW235267   6.983   4.494   6.640
 7746SOL     OW35268   5.893   3.937   6.817
 7746SOL    HW135269   5.870   3.974   6.907
 7746SOL    HW235270   5.863   3.842   6.811
 7747SOL     OW35271   5.623   5.034   6.868
 7747SOL    HW135272   5.676   4.985   6.936
 7747SOL    HW235273   5.645   5.132   6.873
 7748SOL     OW35274   6.318   4.358   6.650
 7748SOL    HW135275   6.377   4.332   6.574
 7748SOL    HW235276   6.290   4.454   6.639
 7749SOL     OW35277   6.609   4.490   6.552
 7749SOL    HW135278   6.624   4.511   6.648
 7749SOL    HW235279   6.579   4.395   6.543
 7750SOL     OW35280   6.889   4.562   5.628
 7750SOL    HW135281   6.923   4.469   5.643
 7750SOL    HW235282   6.907   4.589   5.533
 7751SOL     OW35283   6.654   5.057   6.435
 7751SOL    HW135284   6.661   4.973   6.380
 7751SOL    HW235285   6.716   5.126   6.399
 7752SOL     OW35286   5.905   4.534   6.535
 7752SOL    HW135287   5.998   4.570   6.540
 7752SOL    HW235288   5.899   4.449   6.587
 7753SOL     OW35289   5.925   4.233   6.592
 7753SOL    HW135290   5.873   4.150   6.575
 7753SOL    HW235291   6.002   4.238   6.528
 7754SOL     OW35292   6.746   3.931   7.063
 7754SOL    HW135293   6.746   3.995   7.140
 7754SOL    HW235294   6.774   3.979   6.980
 7755SOL     OW35295   5.594   5.050   5.786
 7755SOL    HW135296   5.501   5.071   5.755
 7755SOL    HW235297   5.604   4.951   5.799
 7756SOL     OW35298   5.674   5.525   6.513
 7756SOL    HW135299   5.632   5.439   6.486
 7756SOL    HW235300   5.768   5.528   6.479
 7757SOL     OW35301   6.090   5.292   6.496
 7757SOL    HW135302   6.156   5.366   6.505
 7757SOL    HW235303   6.134   5.213   6.454
 7758SOL     OW35304   6.588   4.520   6.824
 7758SOL    HW135305   6.629   4.488   6.910
 7758SOL    HW235306   6.492   4.493   6.821
 7759SOL     OW35307   5.626   4.268   6.700
 7759SOL    HW135308   5.711   4.235   6.659
 7759SOL    HW235309   5.639   4.283   6.798
 7760SOL     OW35310   6.401   4.296   5.911
 7760SOL    HW135311   6.408   4.207   5.865
 7760SOL    HW235312   6.307   4.330   5.903
 7761SOL     OW35313   7.243   4.328   6.792
 7761SOL    HW135314   7.205   4.259   6.854
 7761SOL    HW235315   7.325   4.292   6.748
 7762SOL     OW35316   6.257   4.188   6.855
 7762SOL    HW135317   6.223   4.099   6.825
 7762SOL    HW235318   6.283   4.242   6.775
 7763SOL     OW35319   6.516   5.402   7.051
 7763SOL    HW135320   6.492   5.384   6.956
 7763SOL    HW235321   6.546   5.496   7.061
 7764SOL     OW35322   6.059   4.224   5.777
 7764SOL    HW135323   6.120   4.304   5.781
 7764SOL    HW235324   5.964   4.255   5.784
 7765SOL     OW35325   6.933   4.783   6.820
 7765SOL    HW135326   6.957   4.720   6.746
 7765SOL    HW235327   6.843   4.823   6.802
 7766SOL     OW35328   6.888   4.579   5.895
 7766SOL    HW135329   6.802   4.548   5.937
 7766SOL    HW235330   6.884   4.565   5.796
 7767SOL     OW35331   7.345   5.471   6.740
 7767SOL    HW135332   7.406   5.501   6.667
 7767SOL    HW235333   7.307   5.382   6.718
 7768SOL     OW35334   6.838   5.455   6.714
 7768SOL    HW135335   6.922   5.460   6.660
 7768SOL    HW235336   6.815   5.359   6.732
 7769SOL     OW35337   5.669   4.982   6.608
 7769SOL    HW135338   5.664   4.981   6.708
 7769SOL    HW235339   5.586   4.941   6.570
 7770SOL     OW35340   7.312   3.859   6.109
 7770SOL    HW135341   7.385   3.842   6.042
 7770SOL    HW235342   7.281   3.772   6.147
 7771SOL     OW35343   6.974   5.297   6.063
 7771SOL    HW135344   7.041   5.309   5.989
 7771SOL    HW235345   6.934   5.386   6.086
 7772SOL     OW35346   6.866   4.651   6.258
 7772SOL    HW135347   6.926   4.570   6.260
 7772SOL    HW235348   6.906   4.720   6.198
 7773SOL     OW35349   6.258   5.340   5.740
 7773SOL    HW135350   6.267   5.350   5.641
 7773SOL    HW235351   6.218   5.251   5.761
 7774SOL     OW35352   7.236   5.444   6.980
 7774SOL    HW135353   7.289   5.454   6.896
 7774SOL    HW235354   7.209   5.534   7.014
 7775SOL     OW35355   7.427   3.899   6.549
 7775SOL    HW135356   7.466   3.814   6.513
 7775SOL    HW235357   7.329   3.901   6.530
 7776SOL     OW35358   6.780   5.336   5.617
 7776SOL    HW135359   6.786   5.243   5.654
 7776SOL    HW235360   6.721   5.336   5.537
 7777SOL     OW35361   6.408   4.726   6.958
 7777SOL    HW135362   6.448   4.725   6.866
 7777SOL    HW235363   6.418   4.818   6.998
 7778SOL     OW35364   6.502   4.634   5.877
 7778SOL    HW135365   6.565   4.672   5.809
 7778SOL    HW235366   6.542   4.551   5.916
 7779SOL     OW35367   7.090   5.331   5.630
 7779SOL    HW135368   6.998   5.368   5.637
 7779SOL    HW235369   7.128   5.351   5.540
 7780SOL     OW35370   6.625   4.822   6.282
 7780SOL    HW135371   6.555   4.775   6.336
 7780SOL    HW235372   6.684   4.754   6.239
 7781SOL     OW35373   6.600   3.960   6.557
 7781SOL    HW135374   6.592   3.924   6.464
 7781SOL    HW235375   6.598   3.884   6.622
 7782SOL     OW35376   6.176   5.211   6.077
 7782SOL    HW135377   6.218   5.153   6.007
 7782SOL    HW235378   6.132   5.290   6.033
 7783SOL     OW35379   7.295   4.109   6.967
 7783SOL    HW135380   7.368   4.178   6.971
 7783SOL    HW235381   7.323   4.034   6.908
 7784SOL     OW35382   5.841   5.072   5.876
 7784SOL    HW135383   5.745   5.073   5.849
 7784SOL    HW235384   5.853   5.125   5.960
 7785SOL     OW35385   5.658   3.890   5.904
 7785SOL    HW135386   5.641   3.973   5.850
 7785SOL    HW235387   5.748   3.853   5.882
 7786SOL     OW35388   6.769   5.059   5.705
 7786SOL    HW135389   6.670   5.048   5.707
 7786SOL    HW235390   6.803   5.074   5.798
 7787SOL     OW35391   7.079   5.491   6.545
 7787SOL    HW135392   7.112   5.555   6.476
 7787SOL    HW235393   7.145   5.485   6.620
 7788SOL     OW35394   7.036   4.944   7.219
 7788SOL    HW135395   7.027   4.934   7.318
 7788SOL    HW235396   7.132   4.937   7.193
 7789SOL     OW35397   7.260   4.607   6.840
 7789SOL    HW135398   7.233   4.518   6.803
 7789SOL    HW235399   7.261   4.675   6.767
 7790SOL     OW35400   6.180   4.469   6.238
 7790SOL    HW135401   6.230   4.554   6.219
 7790SOL    HW235402   6.092   4.471   6.190
 7791SOL     OW35403   7.316   4.658   7.103
 7791SOL    HW135404   7.354   4.749   7.118
 7791SOL    HW235405   7.308   4.641   7.004
 7792SOL     OW35406   6.445   5.098   5.602
 7792SOL    HW135407   6.399   5.113   5.690
 7792SOL    HW235408   6.489   5.183   5.572
 7793SOL     OW35409   6.247   5.514   6.539
 7793SOL    HW135410   6.201   5.602   6.526
 7793SOL    HW235411   6.346   5.526   6.532
 7794SOL     OW35412   6.445   4.680   6.447
 7794SOL    HW135413   6.499   4.611   6.495
 7794SOL    HW235414   6.413   4.749   6.513
 7795SOL     OW35415   6.669   4.708   5.673
 7795SOL    HW135416   6.646   4.761   5.591
 7795SOL    HW235417   6.750   4.652   5.654
 7796SOL     OW35418   7.447   5.293   6.437
 7796SOL    HW135419   7.376   5.281   6.367
 7796SOL    HW235420   7.448   5.214   6.497
 7797SOL     OW35421   5.665   4.964   6.239
 7797SOL    HW135422   5.664   4.917   6.327
 7797SOL    HW235423   5.747   4.936   6.188
 7798SOL     OW35424   7.410   3.916   6.813
 7798SOL    HW135425   7.406   3.826   6.857
 7798SOL    HW235426   7.413   3.905   6.714
 7799SOL     OW35427   6.014   4.148   6.106
 7799SOL    HW135428   6.044   4.076   6.044
 7799SOL    HW235429   5.975   4.108   6.189
 7800SOL     OW35430   7.291   5.211   6.690
 7800SOL    HW135431   7.198   5.186   6.663
 7800SOL    HW235432   7.317   5.161   6.772
 7801SOL     OW35433   6.398   5.310   6.273
 7801SOL    HW135434   6.430   5.320   6.179
 7801SOL    HW235435   6.319   5.248   6.275
 7802SOL     OW35436   7.010   3.938   6.698
 7802SOL    HW135437   7.062   3.873   6.753
 7802SOL    HW235438   6.961   4.001   6.759
 7803SOL     OW35439   6.587   3.758   6.740
 7803SOL    HW135440   6.524   3.686   6.709
 7803SOL    HW235441   6.680   3.722   6.740
 7804SOL     OW35442   6.356   5.054   5.887
 7804SOL    HW135443   6.310   4.967   5.904
 7804SOL    HW235444   6.447   5.051   5.928
 7805SOL     OW35445   6.886   4.177   6.277
 7805SOL    HW135446   6.827   4.257   6.281
 7805SOL    HW235447   6.901   4.142   6.370
 7806SOL     OW35448   7.179   3.945   6.468
 7806SOL    HW135449   7.095   3.944   6.522
 7806SOL    HW235450   7.181   4.028   6.412
 7807SOL     OW35451   5.625   4.801   5.886
 7807SOL    HW135452   5.724   4.790   5.877
 7807SOL    HW235453   5.585   4.715   5.918
 7808SOL     OW35454   6.461   5.370   5.923
 7808SOL    HW135455   6.384   5.335   5.869
 7808SOL    HW235456   6.429   5.441   5.985
 7809SOL     OW35457   5.816   6.214   0.113
 7809SOL    HW135458   5.723   6.212   0.150
 7809SOL    HW235459   5.817   6.175   0.021
 7810SOL     OW35460   5.811   5.861   0.996
 7810SOL    HW135461   5.846   5.844   1.088
 7810SOL    HW235462   5.723   5.816   0.984
 7811SOL     OW35463   5.605   5.954   0.647
 7811SOL    HW135464   5.523   5.997   0.686
 7811SOL    HW235465   5.577   5.881   0.584
 7812SOL     OW35466   6.155   6.861   1.165
 7812SOL    HW135467   6.062   6.854   1.128
 7812SOL    HW235468   6.166   6.950   1.209
 7813SOL     OW35469   7.141   7.097   0.703
 7813SOL    HW135470   7.084   7.081   0.784
 7813SOL    HW235471   7.082   7.107   0.623
 7814SOL     OW35472   6.721   6.289   0.717
 7814SOL    HW135473   6.778   6.367   0.692
 7814SOL    HW235474   6.661   6.315   0.793
 7815SOL     OW35475   7.341   6.193   0.231
 7815SOL    HW135476   7.329   6.180   0.132
 7815SOL    HW235477   7.311   6.112   0.280
 7816SOL     OW35478   6.354   6.730   1.023
 7816SOL    HW135479   6.276   6.747   1.083
 7816SOL    HW235480   6.388   6.817   0.987
 7817SOL     OW35481   6.271   6.598   0.665
 7817SOL    HW135482   6.340   6.582   0.735
 7817SOL    HW235483   6.198   6.655   0.703
 7818SOL     OW35484   5.921   7.021   1.061
 7818SOL    HW135485   5.843   6.990   1.008
 7818SOL    HW235486   5.979   7.079   1.004
 7819SOL     OW35487   7.046   7.091   1.339
 7819SOL    HW135488   7.070   7.185   1.365
 7819SOL    HW235489   7.030   7.037   1.421
 7820SOL     OW35490   6.024   5.978   1.499
 7820SOL    HW135491   6.106   5.922   1.508
 7820SOL    HW235492   5.943   5.920   1.503
 7821SOL     OW35493   7.189   6.033   0.737
 7821SOL    HW135494   7.115   6.079   0.687
 7821SOL    HW235495   7.240   6.101   0.790
 7822SOL     OW35496   5.817   7.299   0.483
 7822SOL    HW135497   5.851   7.376   0.537
 7822SOL    HW235498   5.861   7.299   0.393
 7823SOL     OW35499   5.816   7.020   0.538
 7823SOL    HW135500   5.790   7.116   0.538
 7823SOL    HW235501   5.745   6.966   0.583
 7824SOL     OW35502   5.826   6.677   0.886
 7824SOL    HW135503   5.840   6.593   0.938
 7824SOL    HW235504   5.771   6.741   0.941
 7825SOL     OW35505   6.206   7.372   1.439
 7825SOL    HW135506   6.114   7.355   1.474
 7825SOL    HW235507   6.234   7.464   1.465
 7826SOL     OW35508   6.192   6.550   0.123
 7826SOL    HW135509   6.199   6.634   0.069
 7826SOL    HW235510   6.238   6.563   0.211
 7827SOL     OW35511   7.180   5.700   1.480
 7827SOL    HW135512   7.162   5.767   1.408
 7827SOL    HW235513   7.177   5.746   1.569
 7828SOL     OW35514   5.708   6.229   0.563
 7828SOL    HW135515   5.663   6.141   0.580
 7828SOL    HW235516   5.707   6.283   0.647
 7829SOL     OW35517   7.428   7.353   0.359
 7829SOL    HW135518   7.482   7.324   0.439
 7829SOL    HW235519   7.458   7.443   0.330
 7830SOL     OW35520   5.613   7.182   0.117
 7830SOL    HW135521   5.594   7.086   0.138
 7830SOL    HW235522   5.580   7.240   0.192
 7831SOL     OW35523   7.275   6.508   0.612
 7831SOL    HW135524   7.370   6.479   0.620
 7831SOL    HW235525   7.267   6.573   0.537
 7832SOL     OW35526   7.227   6.694   0.432
 7832SOL    HW135527   7.313   6.696   0.380
 7832SOL    HW235528   7.241   6.741   0.520
 7833SOL     OW35529   5.699   6.323   1.597
 7833SOL    HW135530   5.787   6.310   1.642
 7833SOL    HW235531   5.686   6.420   1.575
 7834SOL     OW35532   6.199   6.951   0.726
 7834SOL    HW135533   6.150   6.864   0.735
 7834SOL    HW235534   6.176   6.994   0.639
 7835SOL     OW35535   6.395   5.590   0.502
 7835SOL    HW135536   6.435   5.681   0.493
 7835SOL    HW235537   6.295   5.598   0.508
 7836SOL     OW35538   5.783   6.562   1.264
 7836SOL    HW135539   5.872   6.517   1.250
 7836SOL    HW235540   5.710   6.497   1.245
 7837SOL     OW35541   7.111   6.585   0.190
 7837SOL    HW135542   7.048   6.509   0.203
 7837SOL    HW235543   7.159   6.603   0.276
 7838SOL     OW35544   6.773   7.378   1.616
 7838SOL    HW135545   6.797   7.438   1.540
 7838SOL    HW235546   6.780   7.283   1.586
 7839SOL     OW35547   5.903   5.837   1.801
 7839SOL    HW135548   5.974   5.908   1.807
 7839SOL    HW235549   5.815   5.876   1.829
 7840SOL     OW35550   7.052   7.003   0.953
 7840SOL    HW135551   6.993   7.009   1.033
 7840SOL    HW235552   7.037   6.915   0.907
 7841SOL     OW35553   7.253   7.300   0.572
 7841SOL    HW135554   7.212   7.277   0.484
 7841SOL    HW235555   7.235   7.226   0.637
 7842SOL     OW35556   6.184   6.315   0.270
 7842SOL    HW135557   6.208   6.384   0.202
 7842SOL    HW235558   6.106   6.348   0.324
 7843SOL     OW35559   6.867   5.931   0.944
 7843SOL    HW135560   6.781   5.881   0.931
 7843SOL    HW235561   6.929   5.877   1.000
 7844SOL     OW35562   7.162   7.248   0.307
 7844SOL    HW135563   7.251   7.294   0.310
 7844SOL    HW235564   7.141   7.224   0.212
 7845SOL     OW35565   6.980   6.055   1.674
 7845SOL    HW135566   6.960   6.098   1.762
 7845SOL    HW235567   7.058   5.993   1.683
 7846SOL     OW35568   6.559   6.476   1.572
 7846SOL    HW135569   6.605   6.392   1.543
 7846SOL    HW235570   6.503   6.510   1.497
 7847SOL     OW35571   6.627   6.287   0.429
 7847SOL    HW135572   6.653   6.283   0.525
 7847SOL    HW235573   6.542   6.236   0.415
 7848SOL     OW35574   5.662   6.397   0.789
 7848SOL    HW135575   5.761   6.385   0.798
 7848SOL    HW235576   5.638   6.492   0.810
 7849SOL     OW35577   6.451   5.934   0.195
 7849SOL    HW135578   6.510   5.997   0.146
 7849SOL    HW235579   6.470   5.840   0.166
 7850SOL     OW35580   7.305   6.171   1.831
 7850SOL    HW135581   7.279   6.260   1.795
 7850SOL    HW235582   7.303   6.103   1.758
 7851SOL     OW35583   6.948   6.730   0.545
 7851SOL    HW135584   7.031   6.701   0.497
 7851SOL    HW235585   6.899   6.797   0.489
 7852SOL     OW35586   6.136   5.782   0.885
 7852SOL    HW135587   6.131   5.777   0.985
 7852SOL    HW235588   6.138   5.878   0.856
 7853SOL     OW35589   6.594   7.042   0.477
 7853SOL    HW135590   6.548   7.114   0.425
 7853SOL    HW235591   6.590   7.062   0.575
 7854SOL     OW35592   5.937   7.387   0.853
 7854SOL    HW135593   5.987   7.301   0.859
 7854SOL    HW235594   6.002   7.464   0.850
 7855SOL     OW35595   7.381   6.652   0.873
 7855SOL    HW135596   7.319   6.637   0.797
 7855SOL    HW235597   7.329   6.663   0.958
 7856SOL     OW35598   6.813   7.136   1.506
 7856SOL    HW135599   6.819   7.059   1.570
 7856SOL    HW235600   6.761   7.110   1.426
 7857SOL     OW35601   5.907   6.529   0.242
 7857SOL    HW135602   5.989   6.568   0.200
 7857SOL    HW235603   5.880   6.447   0.193
 7858SOL     OW35604   7.044   6.321   0.728
 7858SOL    HW135605   7.039   6.256   0.803
 7858SOL    HW235606   7.124   6.380   0.741
 7859SOL     OW35607   6.697   7.362   0.237
 7859SOL    HW135608   6.637   7.300   0.287
 7859SOL    HW235609   6.728   7.318   0.152
 7860SOL     OW35610   7.218   6.963   0.081
 7860SOL    HW135611   7.186   7.057   0.071
 7860SOL    HW235612   7.142   6.900   0.069
 7861SOL     OW35613   6.050   7.329   0.323
 7861SOL    HW135614   6.083   7.368   0.409
 7861SOL    HW235615   6.126   7.322   0.258
 7862SOL     OW35616   6.986   5.693   0.426
 7862SOL    HW135617   6.962   5.656   0.336
 7862SOL    HW235618   7.085   5.709   0.430
 7863SOL     OW35619   6.526   7.284   0.904
 7863SOL    HW135620   6.606   7.227   0.925
 7863SOL    HW235621   6.477   7.244   0.827
 7864SOL     OW35622   5.968   6.286   0.480
 7864SOL    HW135623   6.013   6.196   0.477
 7864SOL    HW235624   5.874   6.275   0.513
 7865SOL     OW35625   7.133   5.808   1.729
 7865SOL    HW135626   7.128   5.845   1.821
 7865SOL    HW235627   7.061   5.739   1.717
 7866SOL     OW35628   6.367   5.850   1.749
 7866SOL    HW135629   6.434   5.789   1.792
 7866SOL    HW235630   6.294   5.869   1.814
 7867SOL     OW35631   6.474   7.100   1.195
 7867SOL    HW135632   6.451   7.075   1.101
 7867SOL    HW235633   6.535   7.031   1.234
 7868SOL     OW35634   6.937   6.176   1.433
 7868SOL    HW135635   6.965   6.133   1.518
 7868SOL    HW235636   6.962   6.272   1.434
 7869SOL     OW35637   6.389   6.988   0.924
 7869SOL    HW135638   6.479   7.002   0.882
 7869SOL    HW235639   6.318   6.990   0.853
 7870SOL     OW35640   6.508   6.089   0.899
 7870SOL    HW135641   6.483   6.080   0.803
 7870SOL    HW235642   6.556   6.007   0.930
 7871SOL     OW35643   6.125   5.650   0.512
 7871SOL    HW135644   6.044   5.651   0.570
 7871SOL    HW235645   6.128   5.733   0.457
 7872SOL     OW35646   7.020   6.774   0.041
 7872SOL    HW135647   7.052   6.698   0.098
 7872SOL    HW235648   6.928   6.801   0.071
 7873SOL     OW35649   5.883   5.621   0.171
 7873SOL    HW135650   5.932   5.705   0.150
 7873SOL    HW235651   5.945   5.556   0.216
 7874SOL     OW35652   6.521   5.822   0.480
 7874SOL    HW135653   6.473   5.863   0.402
 7874SOL    HW235654   6.620   5.820   0.461
 7875SOL     OW35655   6.662   6.269   1.464
 7875SOL    HW135656   6.582   6.208   1.467
 7875SOL    HW235657   6.743   6.216   1.440
 7876SOL     OW35658   6.813   7.156   0.793
 7876SOL    HW135659   6.834   7.230   0.728
 7876SOL    HW235660   6.881   7.156   0.866
 7877SOL     OW35661   6.045   6.738   0.741
 7877SOL    HW135662   5.974   6.711   0.806
 7877SOL    HW235663   6.019   6.710   0.648
 7878SOL     OW35664   6.857   7.383   0.591
 7878SOL    HW135665   6.901   7.447   0.527
 7878SOL    HW235666   6.807   7.435   0.661
 7879SOL     OW35667   6.618   6.135   0.016
 7879SOL    HW135668   6.577   6.217  -0.023
 7879SOL    HW235669   6.682   6.161   0.089
 7880SOL     OW35670   5.664   6.142   1.386
 7880SOL    HW135671   5.756   6.141   1.345
 7880SOL    HW235672   5.658   6.216   1.453
 7881SOL     OW35673   6.147   5.808   1.147
 7881SOL    HW135674   6.185   5.724   1.184
 7881SOL    HW235675   6.059   5.827   1.191
 7882SOL     OW35676   6.452   6.040   0.642
 7882SOL    HW135677   6.420   6.112   0.580
 7882SOL    HW235678   6.476   5.959   0.589
 7883SOL     OW35679   6.603   5.625   0.753
 7883SOL    HW135680   6.531   5.630   0.684
 7883SOL    HW235681   6.579   5.556   0.822
 7884SOL     OW35682   7.015   6.759   0.867
 7884SOL    HW135683   6.960   6.675   0.860
 7884SOL    HW235684   7.041   6.788   0.775
 7885SOL     OW35685   7.052   6.176   0.992
 7885SOL    HW135686   7.022   6.081   0.999
 7885SOL    HW235687   7.125   6.192   1.058
 7886SOL     OW35688   7.443   6.419   0.377
 7886SOL    HW135689   7.485   6.355   0.441
 7886SOL    HW235690   7.405   6.368   0.299
 7887SOL     OW35691   6.074   6.971   0.174
 7887SOL    HW135692   5.987   6.956   0.221
 7887SOL    HW235693   6.057   6.997   0.079
 7888SOL     OW35694   7.250   6.866   0.657
 7888SOL    HW135695   7.349   6.874   0.671
 7888SOL    HW235696   7.205   6.950   0.688
 7889SOL     OW35697   6.976   6.161   0.078
 7889SOL    HW135698   6.922   6.140   0.159
 7889SOL    HW235699   7.067   6.120   0.087
 7890SOL     OW35700   6.113   5.842   0.328
 7890SOL    HW135701   6.140   5.783   0.253
 7890SOL    HW235702   6.113   5.937   0.297
 7891SOL     OW35703   6.650   6.933   1.340
 7891SOL    HW135704   6.570   6.910   1.395
 7891SOL    HW235705   6.733   6.907   1.389
 7892SOL     OW35706   6.697   6.781   1.100
 7892SOL    HW135707   6.657   6.825   1.181
 7892SOL    HW235708   6.656   6.818   1.017
 7893SOL     OW35709   7.224   6.685   1.079
 7893SOL    HW135710   7.229   6.766   1.138
 7893SOL    HW235711   7.138   6.687   1.028
 7894SOL     OW35712   6.291   6.636   0.368
 7894SOL    HW135713   6.277   6.643   0.467
 7894SOL    HW235714   6.375   6.585   0.350
 7895SOL     OW35715   5.996   6.399   1.251
 7895SOL    HW135716   6.082   6.411   1.301
 7895SOL    HW235717   5.954   6.312   1.278
 7896SOL     OW35718   6.860   5.972   1.262
 7896SOL    HW135719   6.881   6.046   1.326
 7896SOL    HW235720   6.771   5.989   1.219
 7897SOL     OW35721   5.953   6.686   0.501
 7897SOL    HW135722   5.946   6.769   0.445
 7897SOL    HW235723   5.957   6.606   0.441
 7898SOL     OW35724   6.152   6.123   0.865
 7898SOL    HW135725   6.164   6.189   0.791
 7898SOL    HW235726   6.198   6.157   0.948
 7899SOL     OW35727   6.838   6.934   0.388
 7899SOL    HW135728   6.888   7.011   0.428
 7899SOL    HW235729   6.743   6.936   0.420
 7900SOL     OW35730   6.858   7.031   1.142
 7900SOL    HW135731   6.905   7.044   1.229
 7900SOL    HW235732   6.792   6.957   1.151
 7901SOL     OW35733   7.168   6.225   0.472
 7901SOL    HW135734   7.137   6.286   0.545
 7901SOL    HW235735   7.218   6.277   0.403
 7902SOL     OW35736   5.988   6.337   1.598
 7902SOL    HW135737   6.056   6.392   1.551
 7902SOL    HW235738   6.028   6.249   1.625
 7903SOL     OW35739   7.173   6.365   1.670
 7903SOL    HW135740   7.081   6.403   1.665
 7903SOL    HW235741   7.233   6.412   1.605
 7904SOL     OW35742   6.090   5.636   1.740
 7904SOL    HW135743   6.048   5.579   1.670
 7904SOL    HW235744   6.024   5.705   1.772
 7905SOL     OW35745   6.159   6.456   1.029
 7905SOL    HW135746   6.203   6.545   1.020
 7905SOL    HW235747   6.096   6.456   1.106
 7906SOL     OW35748   6.946   6.448   1.045
 7906SOL    HW135749   6.871   6.448   0.979
 7906SOL    HW235750   6.983   6.356   1.054
 7907SOL     OW35751   6.795   6.111   0.275
 7907SOL    HW135752   6.808   6.027   0.329
 7907SOL    HW235753   6.766   6.185   0.335
 7908SOL     OW35754   5.893   5.799   1.231
 7908SOL    HW135755   5.870   5.836   1.321
 7908SOL    HW235756   5.863   5.704   1.225
 7909SOL     OW35757   5.623   6.896   1.282
 7909SOL    HW135758   5.676   6.847   1.350
 7909SOL    HW235759   5.645   6.994   1.287
 7910SOL     OW35760   6.318   6.220   1.064
 7910SOL    HW135761   6.377   6.194   0.988
 7910SOL    HW235762   6.290   6.316   1.053
 7911SOL     OW35763   7.314   6.521   1.854
 7911SOL    HW135764   7.268   6.514   1.765
 7911SOL    HW235765   7.252   6.565   1.920
 7912SOL     OW35766   5.893   5.649   0.618
 7912SOL    HW135767   5.882   5.743   0.651
 7912SOL    HW235768   5.888   5.586   0.695
 7913SOL     OW35769   7.208   5.953   0.374
 7913SOL    HW135770   7.210   5.877   0.438
 7913SOL    HW235771   7.160   6.030   0.414
 7914SOL     OW35772   6.609   6.352   0.966
 7914SOL    HW135773   6.624   6.373   1.062
 7914SOL    HW235774   6.579   6.257   0.957
 7915SOL     OW35775   7.445   7.104   1.605
 7915SOL    HW135776   7.459   7.131   1.510
 7915SOL    HW235777   7.528   7.126   1.658
 7916SOL     OW35778   7.126   5.860   0.125
 7916SOL    HW135779   7.065   5.785   0.148
 7916SOL    HW235780   7.148   5.912   0.208
 7917SOL     OW35781   6.889   6.424   0.042
 7917SOL    HW135782   6.923   6.331   0.057
 7917SOL    HW235783   6.907   6.451  -0.053
 7918SOL     OW35784   6.654   6.919   0.849
 7918SOL    HW135785   6.661   6.835   0.794
 7918SOL    HW235786   6.716   6.988   0.813
 7919SOL     OW35787   5.905   6.396   0.949
 7919SOL    HW135788   5.998   6.432   0.954
 7919SOL    HW235789   5.899   6.311   1.001
 7920SOL     OW35790   5.925   6.095   1.006
 7920SOL    HW135791   5.873   6.012   0.989
 7920SOL    HW235792   6.002   6.100   0.942
 7921SOL     OW35793   6.724   5.966   1.678
 7921SOL    HW135794   6.679   6.029   1.742
 7921SOL    HW235795   6.817   5.997   1.661
 7922SOL     OW35796   5.674   7.387   0.927
 7922SOL    HW135797   5.632   7.301   0.900
 7922SOL    HW235798   5.768   7.390   0.893
 7923SOL     OW35799   6.090   7.154   0.910
 7923SOL    HW135800   6.156   7.228   0.919
 7923SOL    HW235801   6.134   7.075   0.868
 7924SOL     OW35802   6.588   6.382   1.238
 7924SOL    HW135803   6.629   6.350   1.324
 7924SOL    HW235804   6.492   6.355   1.235
 7925SOL     OW35805   5.626   6.130   1.114
 7925SOL    HW135806   5.711   6.097   1.073
 7925SOL    HW235807   5.639   6.145   1.212
 7926SOL     OW35808   5.775   6.106   1.722
 7926SOL    HW135809   5.834   6.066   1.652
 7926SOL    HW235810   5.717   6.177   1.681
 7927SOL     OW35811   6.401   6.158   0.325
 7927SOL    HW135812   6.408   6.069   0.279
 7927SOL    HW235813   6.307   6.192   0.317
 7928SOL     OW35814   7.243   6.190   1.206
 7928SOL    HW135815   7.205   6.121   1.268
 7928SOL    HW235816   7.325   6.154   1.162
 7929SOL     OW35817   5.838   7.150   1.744
 7929SOL    HW135818   5.808   7.207   1.820
 7929SOL    HW235819   5.831   7.053   1.770
 7930SOL     OW35820   6.257   6.050   1.269
 7930SOL    HW135821   6.223   5.961   1.239
 7930SOL    HW235822   6.283   6.104   1.189
 7931SOL     OW35823   6.059   6.086   0.191
 7931SOL    HW135824   6.120   6.166   0.195
 7931SOL    HW235825   5.964   6.117   0.198
 7932SOL     OW35826   5.745   6.723   1.466
 7932SOL    HW135827   5.767   6.662   1.542
 7932SOL    HW235828   5.755   6.674   1.380
 7933SOL     OW35829   6.888   6.441   0.309
 7933SOL    HW135830   6.802   6.410   0.351
 7933SOL    HW235831   6.884   6.427   0.210
 7934SOL     OW35832   7.345   7.333   1.154
 7934SOL    HW135833   7.406   7.363   1.081
 7934SOL    HW235834   7.307   7.244   1.132
 7935SOL     OW35835   6.838   7.317   1.128
 7935SOL    HW135836   6.922   7.322   1.074
 7935SOL    HW235837   6.815   7.221   1.146
 7936SOL     OW35838   5.669   6.844   1.022
 7936SOL    HW135839   5.664   6.843   1.122
 7936SOL    HW235840   5.586   6.803   0.984
 7937SOL     OW35841   6.489   5.672   0.133
 7937SOL    HW135842   6.540   5.673   0.047
 7937SOL    HW235843   6.545   5.630   0.204
 7938SOL     OW35844   7.312   5.721   0.523
 7938SOL    HW135845   7.385   5.704   0.456
 7938SOL    HW235846   7.281   5.634   0.561
 7939SOL     OW35847   6.974   7.159   0.477
 7939SOL    HW135848   7.041   7.171   0.403
 7939SOL    HW235849   6.934   7.248   0.500
 7940SOL     OW35850   6.866   6.513   0.672
 7940SOL    HW135851   6.926   6.432   0.674
 7940SOL    HW235852   6.906   6.582   0.612
 7941SOL     OW35853   6.416   6.859   1.422
 7941SOL    HW135854   6.411   6.892   1.517
 7941SOL    HW235855   6.330   6.878   1.376
 7942SOL     OW35856   6.258   7.202   0.154
 7942SOL    HW135857   6.267   7.212   0.055
 7942SOL    HW235858   6.218   7.113   0.175
 7943SOL     OW35859   7.236   7.306   1.394
 7943SOL    HW135860   7.289   7.316   1.310
 7943SOL    HW235861   7.209   7.396   1.428
 7944SOL     OW35862   7.427   5.761   0.963
 7944SOL    HW135863   7.466   5.676   0.927
 7944SOL    HW235864   7.329   5.763   0.944
 7945SOL     OW35865   5.849   5.912   0.720
 7945SOL    HW135866   5.770   5.963   0.686
 7945SOL    HW235867   5.840   5.897   0.818
 7946SOL     OW35868   6.780   7.198   0.031
 7946SOL    HW135869   6.786   7.105   0.068
 7946SOL    HW235870   6.721   7.198  -0.049
 7947SOL     OW35871   6.408   6.588   1.372
 7947SOL    HW135872   6.448   6.587   1.280
 7947SOL    HW235873   6.418   6.680   1.412
 7948SOL     OW35874   6.502   6.496   0.291
 7948SOL    HW135875   6.565   6.534   0.223
 7948SOL    HW235876   6.542   6.413   0.330
 7949SOL     OW35877   7.090   7.193   0.044
 7949SOL    HW135878   6.998   7.230   0.051
 7949SOL    HW235879   7.128   7.213  -0.046
 7950SOL     OW35880   5.958   6.874   1.490
 7950SOL    HW135881   5.945   6.967   1.456
 7950SOL    HW235882   5.874   6.822   1.477
 7951SOL     OW35883   7.200   6.878   1.289
 7951SOL    HW135884   7.260   6.881   1.369
 7951SOL    HW235885   7.125   6.942   1.302
 7952SOL     OW35886   6.625   6.684   0.696
 7952SOL    HW135887   6.555   6.637   0.750
 7952SOL    HW235888   6.684   6.616   0.653
 7953SOL     OW35889   6.600   5.822   0.971
 7953SOL    HW135890   6.592   5.786   0.878
 7953SOL    HW235891   6.598   5.746   1.036
 7954SOL     OW35892   6.176   7.073   0.491
 7954SOL    HW135893   6.218   7.015   0.421
 7954SOL    HW235894   6.132   7.152   0.447
 7955SOL     OW35895   7.295   5.971   1.381
 7955SOL    HW135896   7.368   6.040   1.385
 7955SOL    HW235897   7.323   5.896   1.322
 7956SOL     OW35898   5.841   6.934   0.290
 7956SOL    HW135899   5.745   6.935   0.263
 7956SOL    HW235900   5.853   6.987   0.374
 7957SOL     OW35901   6.258   5.789   1.489
 7957SOL    HW135902   6.348   5.773   1.449
 7957SOL    HW235903   6.266   5.794   1.588
 7958SOL     OW35904   7.026   6.442   1.398
 7958SOL    HW135905   6.969   6.494   1.335
 7958SOL    HW235906   7.122   6.454   1.374
 7959SOL     OW35907   5.658   5.752   0.318
 7959SOL    HW135908   5.641   5.835   0.264
 7959SOL    HW235909   5.748   5.715   0.296
 7960SOL     OW35910   6.769   6.921   0.119
 7960SOL    HW135911   6.670   6.910   0.121
 7960SOL    HW235912   6.803   6.936   0.212
 7961SOL     OW35913   6.199   6.428   1.431
 7961SOL    HW135914   6.255   6.509   1.414
 7961SOL    HW235915   6.258   6.348   1.434
 7962SOL     OW35916   7.079   7.353   0.959
 7962SOL    HW135917   7.112   7.417   0.890
 7962SOL    HW235918   7.145   7.347   1.034
 7963SOL     OW35919   5.976   7.327   1.560
 7963SOL    HW135920   5.885   7.368   1.558
 7963SOL    HW235921   5.969   7.233   1.592
 7964SOL     OW35922   7.260   6.469   1.254
 7964SOL    HW135923   7.233   6.380   1.217
 7964SOL    HW235924   7.261   6.537   1.181
 7965SOL     OW35925   6.811   5.911   0.449
 7965SOL    HW135926   6.876   5.837   0.438
 7965SOL    HW235927   6.831   5.961   0.533
 7966SOL     OW35928   6.180   6.331   0.652
 7966SOL    HW135929   6.230   6.416   0.633
 7966SOL    HW235930   6.092   6.333   0.604
 7967SOL     OW35931   7.363   5.928   1.642
 7967SOL    HW135932   7.346   5.959   1.548
 7967SOL    HW235933   7.279   5.891   1.680
 7968SOL     OW35934   7.316   6.520   1.517
 7968SOL    HW135935   7.354   6.611   1.532
 7968SOL    HW235936   7.308   6.503   1.418
 7969SOL     OW35937   6.445   6.960   0.016
 7969SOL    HW135938   6.399   6.975   0.104
 7969SOL    HW235939   6.489   7.045  -0.014
 7970SOL     OW35940   6.247   7.376   0.953
 7970SOL    HW135941   6.201   7.464   0.940
 7970SOL    HW235942   6.346   7.388   0.946
 7971SOL     OW35943   6.445   6.542   0.861
 7971SOL    HW135944   6.499   6.473   0.909
 7971SOL    HW235945   6.413   6.611   0.927
 7972SOL     OW35946   6.669   6.570   0.087
 7972SOL    HW135947   6.646   6.623   0.005
 7972SOL    HW235948   6.750   6.514   0.068
 7973SOL     OW35949   7.447   7.155   0.851
 7973SOL    HW135950   7.376   7.143   0.781
 7973SOL    HW235951   7.448   7.076   0.911
 7974SOL     OW35952   5.665   6.826   0.653
 7974SOL    HW135953   5.664   6.779   0.741
 7974SOL    HW235954   5.747   6.798   0.602
 7975SOL     OW35955   7.410   5.778   1.227
 7975SOL    HW135956   7.406   5.688   1.271
 7975SOL    HW235957   7.413   5.767   1.128
 7976SOL     OW35958   6.014   6.010   0.520
 7976SOL    HW135959   6.044   5.938   0.458
 7976SOL    HW235960   5.975   5.970   0.603
 7977SOL     OW35961   7.291   7.073   1.104
 7977SOL    HW135962   7.198   7.048   1.077
 7977SOL    HW235963   7.317   7.023   1.186
 7978SOL     OW35964   5.903   6.133   1.280
 7978SOL    HW135965   5.941   6.074   1.352
 7978SOL    HW235966   5.943   6.107   1.192
 7979SOL     OW35967   6.398   7.172   0.687
 7979SOL    HW135968   6.430   7.182   0.593
 7979SOL    HW235969   6.319   7.110   0.689
 7980SOL     OW35970   7.010   5.800   1.112
 7980SOL    HW135971   7.062   5.735   1.167
 7980SOL    HW235972   6.961   5.863   1.173
 7981SOL     OW35973   6.587   5.620   1.154
 7981SOL    HW135974   6.524   5.548   1.123
 7981SOL    HW235975   6.680   5.584   1.154
 7982SOL     OW35976   6.356   6.916   0.301
 7982SOL    HW135977   6.310   6.829   0.318
 7982SOL    HW235978   6.447   6.913   0.342
 7983SOL     OW35979   6.204   7.153   1.284
 7983SOL    HW135980   6.199   7.235   1.341
 7983SOL    HW235981   6.293   7.150   1.239
 7984SOL     OW35982   6.938   5.638   0.168
 7984SOL    HW135983   6.973   5.597   0.084
 7984SOL    HW235984   6.848   5.600   0.188
 7985SOL     OW35985   6.886   6.039   0.691
 7985SOL    HW135986   6.827   6.119   0.695
 7985SOL    HW235987   6.901   6.004   0.784
 7986SOL     OW35988   7.179   5.807   0.882
 7986SOL    HW135989   7.095   5.806   0.936
 7986SOL    HW235990   7.181   5.890   0.826
 7987SOL     OW35991   5.625   6.663   0.300
 7987SOL    HW135992   5.724   6.652   0.291
 7987SOL    HW235993   5.585   6.577   0.332
 7988SOL     OW35994   6.461   7.232   0.337
 7988SOL    HW135995   6.384   7.197   0.283
 7988SOL    HW235996   6.429   7.303   0.399
 7989SOL     OW35997   5.816   6.214   1.975
 7989SOL    HW135998   5.723   6.212   2.012
 7989SOL    HW235999   5.817   6.175   1.883
 7990SOL     OW36000   6.721   6.289   2.579
 7990SOL    HW136001   6.778   6.367   2.554
 7990SOL    HW236002   6.661   6.315   2.655
 7991SOL     OW36003   7.341   6.193   2.093
 7991SOL    HW136004   7.329   6.180   1.994
 7991SOL    HW236005   7.311   6.112   2.142
 7992SOL     OW36006   6.271   6.598   2.527
 7992SOL    HW136007   6.340   6.582   2.597
 7992SOL    HW236008   6.198   6.655   2.565
 7993SOL     OW36009   6.024   5.978   3.361
 7993SOL    HW136010   6.106   5.922   3.370
 7993SOL    HW236011   5.943   5.920   3.365
 7994SOL     OW36012   5.817   7.299   2.345
 7994SOL    HW136013   5.851   7.376   2.399
 7994SOL    HW236014   5.861   7.299   2.255
 7995SOL     OW36015   6.395   5.590   2.364
 7995SOL    HW136016   6.435   5.681   2.355
 7995SOL    HW236017   6.295   5.598   2.370
 7996SOL     OW36018   7.253   7.300   2.434
 7996SOL    HW136019   7.212   7.277   2.346
 7996SOL    HW236020   7.235   7.226   2.499
 7997SOL     OW36021   6.184   6.315   2.132
 7997SOL    HW136022   6.208   6.384   2.064
 7997SOL    HW236023   6.106   6.348   2.186
 7998SOL     OW36024   7.162   7.248   2.169
 7998SOL    HW136025   7.251   7.294   2.172
 7998SOL    HW236026   7.141   7.224   2.074
 7999SOL     OW36027   6.980   6.055   3.536
 7999SOL    HW136028   6.960   6.098   3.624
 7999SOL    HW236029   7.058   5.993   3.545
 8000SOL     OW36030   5.716   7.407   3.433
 8000SOL    HW136031   5.706   7.392   3.532
 8000SOL    HW236032   5.630   7.443   3.397
 8001SOL     OW36033   6.136   5.782   2.747
 8001SOL    HW136034   6.131   5.777   2.847
 8001SOL    HW236035   6.138   5.878   2.718
 8002SOL     OW36036   6.047   6.852   3.589
 8002SOL    HW136037   5.997   6.853   3.503
 8002SOL    HW236038   5.984   6.834   3.665
 8003SOL     OW36039   6.697   7.362   2.099
 8003SOL    HW136040   6.637   7.300   2.149
 8003SOL    HW236041   6.728   7.318   2.014
 8004SOL     OW36042   6.937   6.176   3.295
 8004SOL    HW136043   6.965   6.133   3.380
 8004SOL    HW236044   6.962   6.272   3.296
 8005SOL     OW36045   6.508   6.089   2.761
 8005SOL    HW136046   6.483   6.080   2.665
 8005SOL    HW236047   6.556   6.007   2.792
 8006SOL     OW36048   6.125   5.650   2.374
 8006SOL    HW136049   6.044   5.651   2.432
 8006SOL    HW236050   6.128   5.733   2.319
 8007SOL     OW36051   7.020   6.774   1.903
 8007SOL    HW136052   7.052   6.698   1.960
 8007SOL    HW236053   6.928   6.801   1.933
 8008SOL     OW36054   6.045   6.738   2.603
 8008SOL    HW136055   5.974   6.711   2.668
 8008SOL    HW236056   6.019   6.710   2.510
 8009SOL     OW36057   6.857   7.383   2.453
 8009SOL    HW136058   6.901   7.447   2.389
 8009SOL    HW236059   6.807   7.435   2.523
 8010SOL     OW36060   6.147   5.808   3.009
 8010SOL    HW136061   6.185   5.724   3.046
 8010SOL    HW236062   6.059   5.827   3.053
 8011SOL     OW36063   6.452   6.040   2.504
 8011SOL    HW136064   6.420   6.112   2.442
 8011SOL    HW236065   6.476   5.959   2.451
 8012SOL     OW36066   7.052   6.176   2.854
 8012SOL    HW136067   7.022   6.081   2.861
 8012SOL    HW236068   7.125   6.192   2.920
 8013SOL     OW36069   7.250   6.866   2.519
 8013SOL    HW136070   7.349   6.874   2.533
 8013SOL    HW236071   7.205   6.950   2.550
 8014SOL     OW36072   6.976   6.161   1.940
 8014SOL    HW136073   6.922   6.140   2.021
 8014SOL    HW236074   7.067   6.120   1.949
 8015SOL     OW36075   7.340   6.809   3.450
 8015SOL    HW136076   7.431   6.770   3.437
 8015SOL    HW236077   7.348   6.905   3.474
 8016SOL     OW36078   6.697   6.781   2.962
 8016SOL    HW136079   6.657   6.825   3.043
 8016SOL    HW236080   6.656   6.818   2.879
 8017SOL     OW36081   7.224   6.685   2.941
 8017SOL    HW136082   7.229   6.766   3.000
 8017SOL    HW236083   7.138   6.687   2.890
 8018SOL     OW36084   6.566   6.702   3.581
 8018SOL    HW136085   6.467   6.708   3.591
 8018SOL    HW236086   6.589   6.622   3.525
 8019SOL     OW36087   6.860   5.972   3.124
 8019SOL    HW136088   6.881   6.046   3.188
 8019SOL    HW236089   6.771   5.989   3.081
 8020SOL     OW36090   5.650   7.150   3.193
 8020SOL    HW136091   5.604   7.232   3.159
 8020SOL    HW236092   5.748   7.169   3.202
 8021SOL     OW36093   6.858   7.031   3.004
 8021SOL    HW136094   6.905   7.044   3.091
 8021SOL    HW236095   6.792   6.957   3.013
 8022SOL     OW36096   7.173   6.365   3.532
 8022SOL    HW136097   7.081   6.403   3.527
 8022SOL    HW236098   7.233   6.412   3.467
 8023SOL     OW36099   6.599   5.691   3.632
 8023SOL    HW136100   6.605   5.776   3.580
 8023SOL    HW236101   6.631   5.615   3.575
 8024SOL     OW36102   6.946   6.448   2.907
 8024SOL    HW136103   6.871   6.448   2.841
 8024SOL    HW236104   6.983   6.356   2.916
 8025SOL     OW36105   6.795   6.111   2.137
 8025SOL    HW136106   6.808   6.027   2.191
 8025SOL    HW236107   6.766   6.185   2.197
 8026SOL     OW36108   6.318   6.220   2.926
 8026SOL    HW136109   6.377   6.194   2.850
 8026SOL    HW236110   6.290   6.316   2.915
 8027SOL     OW36111   7.314   6.521   3.716
 8027SOL    HW136112   7.268   6.514   3.627
 8027SOL    HW236113   7.252   6.565   3.782
 8028SOL     OW36114   7.445   7.104   3.467
 8028SOL    HW136115   7.459   7.131   3.372
 8028SOL    HW236116   7.528   7.126   3.520
 8029SOL     OW36117   7.126   5.860   1.987
 8029SOL    HW136118   7.065   5.785   2.010
 8029SOL    HW236119   7.148   5.912   2.070
 8030SOL     OW36120   6.654   6.919   2.711
 8030SOL    HW136121   6.661   6.835   2.656
 8030SOL    HW236122   6.716   6.988   2.675
 8031SOL     OW36123   5.775   6.106   3.584
 8031SOL    HW136124   5.834   6.066   3.514
 8031SOL    HW236125   5.717   6.177   3.543
 8032SOL     OW36126   6.401   6.158   2.187
 8032SOL    HW136127   6.408   6.069   2.141
 8032SOL    HW236128   6.307   6.192   2.179
 8033SOL     OW36129   7.243   6.190   3.068
 8033SOL    HW136130   7.205   6.121   3.130
 8033SOL    HW236131   7.325   6.154   3.024
 8034SOL     OW36132   6.516   7.264   3.327
 8034SOL    HW136133   6.492   7.246   3.232
 8034SOL    HW236134   6.546   7.358   3.337
 8035SOL     OW36135   6.059   6.086   2.053
 8035SOL    HW136136   6.120   6.166   2.057
 8035SOL    HW236137   5.964   6.117   2.060
 8036SOL     OW36138   5.745   6.723   3.328
 8036SOL    HW136139   5.767   6.662   3.404
 8036SOL    HW236140   5.755   6.674   3.242
 8037SOL     OW36141   6.933   6.645   3.096
 8037SOL    HW136142   6.957   6.582   3.022
 8037SOL    HW236143   6.843   6.685   3.078
 8038SOL     OW36144   6.974   7.159   2.339
 8038SOL    HW136145   7.041   7.171   2.265
 8038SOL    HW236146   6.934   7.248   2.362
 8039SOL     OW36147   6.780   7.198   1.893
 8039SOL    HW136148   6.786   7.105   1.930
 8039SOL    HW236149   6.721   7.198   1.813
 8040SOL     OW36150   5.691   6.599   3.588
 8040SOL    HW136151   5.614   6.566   3.642
 8040SOL    HW236152   5.776   6.569   3.630
 8041SOL     OW36153   6.258   5.789   3.351
 8041SOL    HW136154   6.348   5.773   3.311
 8041SOL    HW236155   6.266   5.794   3.450
 8042SOL     OW36156   5.661   5.931   1.895
 8042SOL    HW136157   5.569   5.903   1.866
 8042SOL    HW236158   5.692   6.008   1.839
 8043SOL     OW36159   7.026   6.442   3.260
 8043SOL    HW136160   6.969   6.494   3.197
 8043SOL    HW236161   7.122   6.454   3.236
 8044SOL     OW36162   6.199   6.428   3.293
 8044SOL    HW136163   6.255   6.509   3.276
 8044SOL    HW236164   6.258   6.348   3.296
 8045SOL     OW36165   7.316   6.520   3.379
 8045SOL    HW136166   7.354   6.611   3.394
 8045SOL    HW236167   7.308   6.503   3.280
 8046SOL     OW36168   7.410   5.778   3.089
 8046SOL    HW136169   7.406   5.688   3.133
 8046SOL    HW236170   7.413   5.767   2.990
 8047SOL     OW36171   5.903   6.133   3.142
 8047SOL    HW136172   5.941   6.074   3.214
 8047SOL    HW236173   5.943   6.107   3.054
 8048SOL     OW36174   7.010   5.800   2.974
 8048SOL    HW136175   7.062   5.735   3.029
 8048SOL    HW236176   6.961   5.863   3.035
 8049SOL     OW36177   6.587   5.620   3.016
 8049SOL    HW136178   6.524   5.548   2.985
 8049SOL    HW236179   6.680   5.584   3.016
 8050SOL     OW36180   6.938   5.638   2.030
 8050SOL    HW136181   6.973   5.597   1.946
 8050SOL    HW236182   6.848   5.600   2.050
 8051SOL     OW36183   6.886   6.039   2.553
 8051SOL    HW136184   6.827   6.119   2.557
 8051SOL    HW236185   6.901   6.004   2.646
 8052SOL     OW36186   5.625   6.663   2.162
 8052SOL    HW136187   5.724   6.652   2.153
 8052SOL    HW236188   5.585   6.577   2.194
 8053SOL     OW36189   5.605   5.954   4.371
 8053SOL    HW136190   5.523   5.997   4.410
 8053SOL    HW236191   5.577   5.881   4.308
 8054SOL     OW36192   6.155   6.861   4.889
 8054SOL    HW136193   6.062   6.854   4.852
 8054SOL    HW236194   6.166   6.950   4.933
 8055SOL     OW36195   6.436   6.384   5.547
 8055SOL    HW136196   6.432   6.460   5.612
 8055SOL    HW236197   6.458   6.420   5.456
 8056SOL     OW36198   6.272   6.747   5.527
 8056SOL    HW136199   6.332   6.826   5.541
 8056SOL    HW236200   6.186   6.778   5.486
 8057SOL     OW36201   7.189   6.033   4.461
 8057SOL    HW136202   7.115   6.079   4.411
 8057SOL    HW236203   7.240   6.101   4.514
 8058SOL     OW36204   5.817   7.299   4.207
 8058SOL    HW136205   5.851   7.376   4.261
 8058SOL    HW236206   5.861   7.299   4.117
 8059SOL     OW36207   6.713   6.927   5.414
 8059SOL    HW136208   6.760   6.927   5.502
 8059SOL    HW236209   6.665   6.840   5.403
 8060SOL     OW36210   6.206   7.372   5.163
 8060SOL    HW136211   6.114   7.355   5.198
 8060SOL    HW236212   6.234   7.464   5.189
 8061SOL     OW36213   7.180   5.700   5.204
 8061SOL    HW136214   7.162   5.767   5.132
 8061SOL    HW236215   7.177   5.746   5.293
 8062SOL     OW36216   5.708   6.229   4.287
 8062SOL    HW136217   5.663   6.141   4.304
 8062SOL    HW236218   5.707   6.283   4.371
 8063SOL     OW36219   5.613   7.182   3.841
 8063SOL    HW136220   5.594   7.086   3.862
 8063SOL    HW236221   5.580   7.240   3.916
 8064SOL     OW36222   7.275   6.508   4.336
 8064SOL    HW136223   7.370   6.479   4.344
 8064SOL    HW236224   7.267   6.573   4.261
 8065SOL     OW36225   5.699   6.323   5.321
 8065SOL    HW136226   5.787   6.310   5.366
 8065SOL    HW236227   5.686   6.420   5.299
 8066SOL     OW36228   6.199   6.951   4.450
 8066SOL    HW136229   6.150   6.864   4.459
 8066SOL    HW236230   6.176   6.994   4.363
 8067SOL     OW36231   6.879   6.814   5.147
 8067SOL    HW136232   6.916   6.741   5.089
 8067SOL    HW236233   6.931   6.819   5.232
 8068SOL     OW36234   6.773   7.378   5.340
 8068SOL    HW136235   6.797   7.438   5.264
 8068SOL    HW236236   6.780   7.283   5.310
 8069SOL     OW36237   5.903   5.837   5.525
 8069SOL    HW136238   5.974   5.908   5.531
 8069SOL    HW236239   5.815   5.876   5.553
 8070SOL     OW36240   6.980   6.055   5.398
 8070SOL    HW136241   6.960   6.098   5.486
 8070SOL    HW236242   7.058   5.993   5.407
 8071SOL     OW36243   6.577   5.996   4.966
 8071SOL    HW136244   6.500   6.030   5.020
 8071SOL    HW236245   6.543   5.945   4.887
 8072SOL     OW36246   5.662   6.397   4.513
 8072SOL    HW136247   5.761   6.385   4.522
 8072SOL    HW236248   5.638   6.492   4.534
 8073SOL     OW36249   5.716   7.407   5.295
 8073SOL    HW136250   5.706   7.392   5.394
 8073SOL    HW236251   5.630   7.443   5.259
 8074SOL     OW36252   7.305   6.171   5.555
 8074SOL    HW136253   7.279   6.260   5.519
 8074SOL    HW236254   7.303   6.103   5.482
 8075SOL     OW36255   6.047   6.852   5.451
 8075SOL    HW136256   5.997   6.853   5.365
 8075SOL    HW236257   5.984   6.834   5.527
 8076SOL     OW36258   6.050   7.329   4.047
 8076SOL    HW136259   6.083   7.368   4.133
 8076SOL    HW236260   6.126   7.322   3.982
 8077SOL     OW36261   5.835   7.371   4.965
 8077SOL    HW136262   5.892   7.306   5.015
 8077SOL    HW236263   5.819   7.338   4.872
 8078SOL     OW36264   7.133   5.808   5.453
 8078SOL    HW136265   7.128   5.845   5.545
 8078SOL    HW236266   7.061   5.739   5.441
 8079SOL     OW36267   6.367   5.850   5.473
 8079SOL    HW136268   6.434   5.789   5.516
 8079SOL    HW236269   6.294   5.869   5.538
 8080SOL     OW36270   6.389   6.988   4.648
 8080SOL    HW136271   6.479   7.002   4.606
 8080SOL    HW236272   6.318   6.990   4.577
 8081SOL     OW36273   5.883   5.621   3.895
 8081SOL    HW136274   5.932   5.705   3.874
 8081SOL    HW236275   5.945   5.556   3.940
 8082SOL     OW36276   6.662   6.269   5.188
 8082SOL    HW136277   6.582   6.208   5.191
 8082SOL    HW236278   6.743   6.216   5.164
 8083SOL     OW36279   6.618   6.135   3.740
 8083SOL    HW136280   6.577   6.217   3.701
 8083SOL    HW236281   6.682   6.161   3.813
 8084SOL     OW36282   5.664   6.142   5.110
 8084SOL    HW136283   5.756   6.141   5.069
 8084SOL    HW236284   5.658   6.216   5.177
 8085SOL     OW36285   6.603   5.625   4.477
 8085SOL    HW136286   6.531   5.630   4.408
 8085SOL    HW236287   6.579   5.556   4.546
 8086SOL     OW36288   7.015   6.759   4.591
 8086SOL    HW136289   6.960   6.675   4.584
 8086SOL    HW236290   7.041   6.788   4.499
 8087SOL     OW36291   6.074   6.971   3.898
 8087SOL    HW136292   5.987   6.956   3.945
 8087SOL    HW236293   6.057   6.997   3.803
 8088SOL     OW36294   6.113   5.842   4.052
 8088SOL    HW136295   6.140   5.783   3.977
 8088SOL    HW236296   6.113   5.937   4.021
 8089SOL     OW36297   5.996   6.399   4.975
 8089SOL    HW136298   6.082   6.411   5.025
 8089SOL    HW236299   5.954   6.312   5.002
 8090SOL     OW36300   5.953   6.686   4.225
 8090SOL    HW136301   5.946   6.769   4.169
 8090SOL    HW236302   5.957   6.606   4.165
 8091SOL     OW36303   6.838   6.934   4.112
 8091SOL    HW136304   6.888   7.011   4.152
 8091SOL    HW236305   6.743   6.936   4.144
 8092SOL     OW36306   6.858   7.031   4.866
 8092SOL    HW136307   6.905   7.044   4.953
 8092SOL    HW236308   6.792   6.957   4.875
 8093SOL     OW36309   5.988   6.337   5.322
 8093SOL    HW136310   6.056   6.392   5.275
 8093SOL    HW236311   6.028   6.249   5.349
 8094SOL     OW36312   7.173   6.365   5.394
 8094SOL    HW136313   7.081   6.403   5.389
 8094SOL    HW236314   7.233   6.412   5.329
 8095SOL     OW36315   6.599   5.691   5.494
 8095SOL    HW136316   6.605   5.776   5.442
 8095SOL    HW236317   6.631   5.615   5.437
 8096SOL     OW36318   6.090   5.636   5.464
 8096SOL    HW136319   6.048   5.579   5.394
 8096SOL    HW236320   6.024   5.705   5.496
 8097SOL     OW36321   6.159   6.456   4.753
 8097SOL    HW136322   6.203   6.545   4.744
 8097SOL    HW236323   6.096   6.456   4.830
 8098SOL     OW36324   6.946   6.448   4.769
 8098SOL    HW136325   6.871   6.448   4.703
 8098SOL    HW236326   6.983   6.356   4.778
 8099SOL     OW36327   5.893   5.799   4.955
 8099SOL    HW136328   5.870   5.836   5.045
 8099SOL    HW236329   5.863   5.704   4.949
 8100SOL     OW36330   7.314   6.521   5.578
 8100SOL    HW136331   7.268   6.514   5.489
 8100SOL    HW236332   7.252   6.565   5.644
 8101SOL     OW36333   6.566   7.159   5.424
 8101SOL    HW136334   6.546   7.203   5.336
 8101SOL    HW236335   6.605   7.068   5.408
 8102SOL     OW36336   5.936   6.484   5.528
 8102SOL    HW136337   6.012   6.528   5.576
 8102SOL    HW236338   5.971   6.437   5.446
 8103SOL     OW36339   7.126   5.860   3.849
 8103SOL    HW136340   7.065   5.785   3.872
 8103SOL    HW236341   7.148   5.912   3.932
 8104SOL     OW36342   5.905   6.396   4.673
 8104SOL    HW136343   5.998   6.432   4.678
 8104SOL    HW236344   5.899   6.311   4.725
 8105SOL     OW36345   5.925   6.095   4.730
 8105SOL    HW136346   5.873   6.012   4.713
 8105SOL    HW236347   6.002   6.100   4.666
 8106SOL     OW36348   6.724   5.966   5.402
 8106SOL    HW136349   6.679   6.029   5.466
 8106SOL    HW236350   6.817   5.997   5.385
 8107SOL     OW36351   6.090   7.154   4.634
 8107SOL    HW136352   6.156   7.228   4.643
 8107SOL    HW236353   6.134   7.075   4.592
 8108SOL     OW36354   5.775   6.106   5.446
 8108SOL    HW136355   5.834   6.066   5.376
 8108SOL    HW236356   5.717   6.177   5.405
 8109SOL     OW36357   6.401   6.158   4.049
 8109SOL    HW136358   6.408   6.069   4.003
 8109SOL    HW236359   6.307   6.192   4.041
 8110SOL     OW36360   5.838   7.150   5.468
 8110SOL    HW136361   5.808   7.207   5.544
 8110SOL    HW236362   5.831   7.053   5.494
 8111SOL     OW36363   6.516   7.264   5.189
 8111SOL    HW136364   6.492   7.246   5.094
 8111SOL    HW236365   6.546   7.358   5.199
 8112SOL     OW36366   6.059   6.086   3.915
 8112SOL    HW136367   6.120   6.166   3.919
 8112SOL    HW236368   5.964   6.117   3.922
 8113SOL     OW36369   6.933   6.645   4.958
 8113SOL    HW136370   6.957   6.582   4.884
 8113SOL    HW236371   6.843   6.685   4.940
 8114SOL     OW36372   6.274   7.248   5.440
 8114SOL    HW136373   6.218   7.329   5.449
 8114SOL    HW236374   6.326   7.252   5.354
 8115SOL     OW36375   6.974   7.159   4.201
 8115SOL    HW136376   7.041   7.171   4.127
 8115SOL    HW236377   6.934   7.248   4.224
 8116SOL     OW36378   5.716   7.380   5.575
 8116SOL    HW136379   5.675   7.306   5.628
 8116SOL    HW236380   5.780   7.431   5.633
 8117SOL     OW36381   7.236   7.306   5.118
 8117SOL    HW136382   7.289   7.316   5.034
 8117SOL    HW236383   7.209   7.396   5.152
 8118SOL     OW36384   7.427   5.761   4.687
 8118SOL    HW136385   7.466   5.676   4.651
 8118SOL    HW236386   7.329   5.763   4.668
 8119SOL     OW36387   5.849   5.912   4.444
 8119SOL    HW136388   5.770   5.963   4.410
 8119SOL    HW236389   5.840   5.897   4.542
 8120SOL     OW36390   6.780   7.198   3.755
 8120SOL    HW136391   6.786   7.105   3.792
 8120SOL    HW236392   6.721   7.198   3.675
 8121SOL     OW36393   6.502   6.496   4.015
 8121SOL    HW136394   6.565   6.534   3.947
 8121SOL    HW236395   6.542   6.413   4.054
 8122SOL     OW36396   7.090   7.193   3.768
 8122SOL    HW136397   6.998   7.230   3.775
 8122SOL    HW236398   7.128   7.213   3.678
 8123SOL     OW36399   6.176   7.073   4.215
 8123SOL    HW136400   6.218   7.015   4.145
 8123SOL    HW236401   6.132   7.152   4.171
 8124SOL     OW36402   7.295   5.971   5.105
 8124SOL    HW136403   7.368   6.040   5.109
 8124SOL    HW236404   7.323   5.896   5.046
 8125SOL     OW36405   5.691   6.599   5.450
 8125SOL    HW136406   5.614   6.566   5.504
 8125SOL    HW236407   5.776   6.569   5.492
 8126SOL     OW36408   7.026   6.442   5.122
 8126SOL    HW136409   6.969   6.494   5.059
 8126SOL    HW236410   7.122   6.454   5.098
 8127SOL     OW36411   5.658   5.752   4.042
 8127SOL    HW136412   5.641   5.835   3.988
 8127SOL    HW236413   5.748   5.715   4.020
 8128SOL     OW36414   7.079   7.353   4.683
 8128SOL    HW136415   7.112   7.417   4.614
 8128SOL    HW236416   7.145   7.347   4.758
 8129SOL     OW36417   5.976   7.327   5.284
 8129SOL    HW136418   5.885   7.368   5.282
 8129SOL    HW236419   5.969   7.233   5.316
 8130SOL     OW36420   7.260   6.469   4.978
 8130SOL    HW136421   7.233   6.380   4.941
 8130SOL    HW236422   7.261   6.537   4.905
 8131SOL     OW36423   7.363   5.928   5.366
 8131SOL    HW136424   7.346   5.959   5.272
 8131SOL    HW236425   7.279   5.891   5.404
 8132SOL     OW36426   7.316   6.520   5.241
 8132SOL    HW136427   7.354   6.611   5.256
 8132SOL    HW236428   7.308   6.503   5.142
 8133SOL     OW36429   7.447   7.155   4.575
 8133SOL    HW136430   7.376   7.143   4.505
 8133SOL    HW236431   7.448   7.076   4.635
 8134SOL     OW36432   5.807   6.900   5.568
 8134SOL    HW136433   5.742   6.827   5.547
 8134SOL    HW236434   5.811   6.914   5.666
 8135SOL     OW36435   5.665   6.826   4.377
 8135SOL    HW136436   5.664   6.779   4.465
 8135SOL    HW236437   5.747   6.798   4.326
 8136SOL     OW36438   6.258   6.977   5.348
 8136SOL    HW136439   6.180   6.927   5.386
 8136SOL    HW236440   6.255   7.072   5.379
 8137SOL     OW36441   7.410   5.778   4.951
 8137SOL    HW136442   7.406   5.688   4.995
 8137SOL    HW236443   7.413   5.767   4.852
 8138SOL     OW36444   5.903   6.133   5.004
 8138SOL    HW136445   5.941   6.074   5.076
 8138SOL    HW236446   5.943   6.107   4.916
 8139SOL     OW36447   6.398   7.172   4.411
 8139SOL    HW136448   6.430   7.182   4.317
 8139SOL    HW236449   6.319   7.110   4.413
 8140SOL     OW36450   6.356   6.916   4.025
 8140SOL    HW136451   6.310   6.829   4.042
 8140SOL    HW236452   6.447   6.913   4.066
 8141SOL     OW36453   6.886   6.039   4.415
 8141SOL    HW136454   6.827   6.119   4.419
 8141SOL    HW236455   6.901   6.004   4.508
 8142SOL     OW36456   7.179   5.807   4.606
 8142SOL    HW136457   7.095   5.806   4.660
 8142SOL    HW236458   7.181   5.890   4.550
 8143SOL     OW36459   5.816   6.214   5.699
 8143SOL    HW136460   5.723   6.212   5.736
 8143SOL    HW236461   5.817   6.175   5.607
 8144SOL     OW36462   5.811   5.861   6.582
 8144SOL    HW136463   5.846   5.844   6.674
 8144SOL    HW236464   5.723   5.816   6.570
 8145SOL     OW36465   5.605   5.954   6.233
 8145SOL    HW136466   5.523   5.997   6.272
 8145SOL    HW236467   5.577   5.881   6.170
 8146SOL     OW36468   6.155   6.861   6.751
 8146SOL    HW136469   6.062   6.854   6.714
 8146SOL    HW236470   6.166   6.950   6.795
 8147SOL     OW36471   7.141   7.097   6.289
 8147SOL    HW136472   7.084   7.081   6.370
 8147SOL    HW236473   7.082   7.107   6.209
 8148SOL     OW36474   6.721   6.289   6.303
 8148SOL    HW136475   6.778   6.367   6.278
 8148SOL    HW236476   6.661   6.315   6.379
 8149SOL     OW36477   7.341   6.193   5.817
 8149SOL    HW136478   7.329   6.180   5.718
 8149SOL    HW236479   7.311   6.112   5.866
 8150SOL     OW36480   6.354   6.730   6.609
 8150SOL    HW136481   6.276   6.747   6.669
 8150SOL    HW236482   6.388   6.817   6.573
 8151SOL     OW36483   6.271   6.598   6.251
 8151SOL    HW136484   6.340   6.582   6.321
 8151SOL    HW236485   6.198   6.655   6.289
 8152SOL     OW36486   5.921   7.021   6.647
 8152SOL    HW136487   5.843   6.990   6.594
 8152SOL    HW236488   5.979   7.079   6.590
 8153SOL     OW36489   7.189   6.033   6.323
 8153SOL    HW136490   7.115   6.079   6.273
 8153SOL    HW236491   7.240   6.101   6.376
 8154SOL     OW36492   5.817   7.299   6.069
 8154SOL    HW136493   5.851   7.376   6.123
 8154SOL    HW236494   5.861   7.299   5.979
 8155SOL     OW36495   5.816   7.020   6.124
 8155SOL    HW136496   5.790   7.116   6.124
 8155SOL    HW236497   5.745   6.966   6.169
 8156SOL     OW36498   5.826   6.677   6.472
 8156SOL    HW136499   5.840   6.593   6.524
 8156SOL    HW236500   5.771   6.741   6.527
 8157SOL     OW36501   6.192   6.550   5.709
 8157SOL    HW136502   6.199   6.634   5.655
 8157SOL    HW236503   6.238   6.563   5.797
 8158SOL     OW36504   5.708   6.229   6.149
 8158SOL    HW136505   5.663   6.141   6.166
 8158SOL    HW236506   5.707   6.283   6.233
 8159SOL     OW36507   7.428   7.353   5.945
 8159SOL    HW136508   7.482   7.324   6.025
 8159SOL    HW236509   7.458   7.443   5.916
 8160SOL     OW36510   5.613   7.182   5.703
 8160SOL    HW136511   5.594   7.086   5.724
 8160SOL    HW236512   5.580   7.240   5.778
 8161SOL     OW36513   7.275   6.508   6.198
 8161SOL    HW136514   7.370   6.479   6.206
 8161SOL    HW236515   7.267   6.573   6.123
 8162SOL     OW36516   7.227   6.694   6.018
 8162SOL    HW136517   7.313   6.696   5.966
 8162SOL    HW236518   7.241   6.741   6.106
 8163SOL     OW36519   6.199   6.951   6.312
 8163SOL    HW136520   6.150   6.864   6.321
 8163SOL    HW236521   6.176   6.994   6.225
 8164SOL     OW36522   6.395   5.590   6.088
 8164SOL    HW136523   6.435   5.681   6.079
 8164SOL    HW236524   6.295   5.598   6.094
 8165SOL     OW36525   5.783   6.562   6.850
 8165SOL    HW136526   5.872   6.517   6.836
 8165SOL    HW236527   5.710   6.497   6.831
 8166SOL     OW36528   7.111   6.585   5.776
 8166SOL    HW136529   7.048   6.509   5.789
 8166SOL    HW236530   7.159   6.603   5.862
 8167SOL     OW36531   7.052   7.003   6.539
 8167SOL    HW136532   6.993   7.009   6.619
 8167SOL    HW236533   7.037   6.915   6.493
 8168SOL     OW36534   7.253   7.300   6.158
 8168SOL    HW136535   7.212   7.277   6.070
 8168SOL    HW236536   7.235   7.226   6.223
 8169SOL     OW36537   6.184   6.315   5.856
 8169SOL    HW136538   6.208   6.384   5.788
 8169SOL    HW236539   6.106   6.348   5.910
 8170SOL     OW36540   6.867   5.931   6.530
 8170SOL    HW136541   6.781   5.881   6.517
 8170SOL    HW236542   6.929   5.877   6.586
 8171SOL     OW36543   7.162   7.248   5.893
 8171SOL    HW136544   7.251   7.294   5.896
 8171SOL    HW236545   7.141   7.224   5.798
 8172SOL     OW36546   6.577   5.996   6.828
 8172SOL    HW136547   6.500   6.030   6.882
 8172SOL    HW236548   6.543   5.945   6.749
 8173SOL     OW36549   6.627   6.287   6.015
 8173SOL    HW136550   6.653   6.283   6.111
 8173SOL    HW236551   6.542   6.236   6.001
 8174SOL     OW36552   5.662   6.397   6.375
 8174SOL    HW136553   5.761   6.385   6.384
 8174SOL    HW236554   5.638   6.492   6.396
 8175SOL     OW36555   6.451   5.934   5.781
 8175SOL    HW136556   6.510   5.997   5.732
 8175SOL    HW236557   6.470   5.840   5.752
 8176SOL     OW36558   6.948   6.730   6.131
 8176SOL    HW136559   7.031   6.701   6.083
 8176SOL    HW236560   6.899   6.797   6.075
 8177SOL     OW36561   6.136   5.782   6.471
 8177SOL    HW136562   6.131   5.777   6.571
 8177SOL    HW236563   6.138   5.878   6.442
 8178SOL     OW36564   6.594   7.042   6.063
 8178SOL    HW136565   6.548   7.114   6.011
 8178SOL    HW236566   6.590   7.062   6.161
 8179SOL     OW36567   5.937   7.387   6.439
 8179SOL    HW136568   5.987   7.301   6.445
 8179SOL    HW236569   6.002   7.464   6.436
 8180SOL     OW36570   7.381   6.652   6.459
 8180SOL    HW136571   7.319   6.637   6.383
 8180SOL    HW236572   7.329   6.663   6.544
 8181SOL     OW36573   5.907   6.529   5.828
 8181SOL    HW136574   5.989   6.568   5.786
 8181SOL    HW236575   5.880   6.447   5.779
 8182SOL     OW36576   7.044   6.321   6.314
 8182SOL    HW136577   7.039   6.256   6.389
 8182SOL    HW236578   7.124   6.380   6.327
 8183SOL     OW36579   6.697   7.362   5.823
 8183SOL    HW136580   6.637   7.300   5.873
 8183SOL    HW236581   6.728   7.318   5.738
 8184SOL     OW36582   6.050   7.329   5.909
 8184SOL    HW136583   6.083   7.368   5.995
 8184SOL    HW236584   6.126   7.322   5.844
 8185SOL     OW36585   6.986   5.693   6.012
 8185SOL    HW136586   6.962   5.656   5.922
 8185SOL    HW236587   7.085   5.709   6.016
 8186SOL     OW36588   5.835   7.371   6.827
 8186SOL    HW136589   5.892   7.306   6.877
 8186SOL    HW236590   5.819   7.338   6.734
 8187SOL     OW36591   6.526   7.284   6.490
 8187SOL    HW136592   6.606   7.227   6.511
 8187SOL    HW236593   6.477   7.244   6.413
 8188SOL     OW36594   5.968   6.286   6.066
 8188SOL    HW136595   6.013   6.196   6.063
 8188SOL    HW236596   5.874   6.275   6.099
 8189SOL     OW36597   6.200   5.708   5.703
 8189SOL    HW136598   6.298   5.686   5.710
 8189SOL    HW236599   6.169   5.691   5.610
 8190SOL     OW36600   6.389   6.988   6.510
 8190SOL    HW136601   6.479   7.002   6.468
 8190SOL    HW236602   6.318   6.990   6.439
 8191SOL     OW36603   6.508   6.089   6.485
 8191SOL    HW136604   6.483   6.080   6.389
 8191SOL    HW236605   6.556   6.007   6.516
 8192SOL     OW36606   6.125   5.650   6.098
 8192SOL    HW136607   6.044   5.651   6.156
 8192SOL    HW236608   6.128   5.733   6.043
 8193SOL     OW36609   5.883   5.621   5.757
 8193SOL    HW136610   5.932   5.705   5.736
 8193SOL    HW236611   5.945   5.556   5.802
 8194SOL     OW36612   6.521   5.822   6.066
 8194SOL    HW136613   6.473   5.863   5.988
 8194SOL    HW236614   6.620   5.820   6.047
 8195SOL     OW36615   6.813   7.156   6.379
 8195SOL    HW136616   6.834   7.230   6.314
 8195SOL    HW236617   6.881   7.156   6.452
 8196SOL     OW36618   6.045   6.738   6.327
 8196SOL    HW136619   5.974   6.711   6.392
 8196SOL    HW236620   6.019   6.710   6.234
 8197SOL     OW36621   6.857   7.383   6.177
 8197SOL    HW136622   6.901   7.447   6.113
 8197SOL    HW236623   6.807   7.435   6.247
 8198SOL     OW36624   6.618   6.135   5.602
 8198SOL    HW136625   6.577   6.217   5.563
 8198SOL    HW236626   6.682   6.161   5.675
 8199SOL     OW36627   6.147   5.808   6.733
 8199SOL    HW136628   6.185   5.724   6.770
 8199SOL    HW236629   6.059   5.827   6.777
 8200SOL     OW36630   6.452   6.040   6.228
 8200SOL    HW136631   6.420   6.112   6.166
 8200SOL    HW236632   6.476   5.959   6.175
 8201SOL     OW36633   6.603   5.625   6.339
 8201SOL    HW136634   6.531   5.630   6.270
 8201SOL    HW236635   6.579   5.556   6.408
 8202SOL     OW36636   7.015   6.759   6.453
 8202SOL    HW136637   6.960   6.675   6.446
 8202SOL    HW236638   7.041   6.788   6.361
 8203SOL     OW36639   7.052   6.176   6.578
 8203SOL    HW136640   7.022   6.081   6.585
 8203SOL    HW236641   7.125   6.192   6.644
 8204SOL     OW36642   7.443   6.419   5.963
 8204SOL    HW136643   7.485   6.355   6.027
 8204SOL    HW236644   7.405   6.368   5.885
 8205SOL     OW36645   6.074   6.971   5.760
 8205SOL    HW136646   5.987   6.956   5.807
 8205SOL    HW236647   6.057   6.997   5.665
 8206SOL     OW36648   7.250   6.866   6.243
 8206SOL    HW136649   7.349   6.874   6.257
 8206SOL    HW236650   7.205   6.950   6.274
 8207SOL     OW36651   6.976   6.161   5.664
 8207SOL    HW136652   6.922   6.140   5.745
 8207SOL    HW236653   7.067   6.120   5.673
 8208SOL     OW36654   6.113   5.842   5.914
 8208SOL    HW136655   6.140   5.783   5.839
 8208SOL    HW236656   6.113   5.937   5.883
 8209SOL     OW36657   6.697   6.781   6.686
 8209SOL    HW136658   6.657   6.825   6.767
 8209SOL    HW236659   6.656   6.818   6.603
 8210SOL     OW36660   7.224   6.685   6.665
 8210SOL    HW136661   7.229   6.766   6.724
 8210SOL    HW236662   7.138   6.687   6.614
 8211SOL     OW36663   6.291   6.636   5.954
 8211SOL    HW136664   6.277   6.643   6.053
 8211SOL    HW236665   6.375   6.585   5.936
 8212SOL     OW36666   5.996   6.399   6.837
 8212SOL    HW136667   6.082   6.411   6.887
 8212SOL    HW236668   5.954   6.312   6.864
 8213SOL     OW36669   6.860   5.972   6.848
 8213SOL    HW136670   6.881   6.046   6.912
 8213SOL    HW236671   6.771   5.989   6.805
 8214SOL     OW36672   5.953   6.686   6.087
 8214SOL    HW136673   5.946   6.769   6.031
 8214SOL    HW236674   5.957   6.606   6.027
 8215SOL     OW36675   6.152   6.123   6.451
 8215SOL    HW136676   6.164   6.189   6.377
 8215SOL    HW236677   6.198   6.157   6.534
 8216SOL     OW36678   6.838   6.934   5.974
 8216SOL    HW136679   6.888   7.011   6.014
 8216SOL    HW236680   6.743   6.936   6.006
 8217SOL     OW36681   6.858   7.031   6.728
 8217SOL    HW136682   6.905   7.044   6.815
 8217SOL    HW236683   6.792   6.957   6.737
 8218SOL     OW36684   7.168   6.225   6.058
 8218SOL    HW136685   7.137   6.286   6.131
 8218SOL    HW236686   7.218   6.277   5.989
 8219SOL     OW36687   5.940   7.096   6.915
 8219SOL    HW136688   5.919   7.052   6.828
 8219SOL    HW236689   6.037   7.122   6.918
 8220SOL     OW36690   6.159   6.456   6.615
 8220SOL    HW136691   6.203   6.545   6.606
 8220SOL    HW236692   6.096   6.456   6.692
 8221SOL     OW36693   6.946   6.448   6.631
 8221SOL    HW136694   6.871   6.448   6.565
 8221SOL    HW236695   6.983   6.356   6.640
 8222SOL     OW36696   6.795   6.111   5.861
 8222SOL    HW136697   6.808   6.027   5.915
 8222SOL    HW236698   6.766   6.185   5.921
 8223SOL     OW36699   5.893   5.799   6.817
 8223SOL    HW136700   5.870   5.836   6.907
 8223SOL    HW236701   5.863   5.704   6.811
 8224SOL     OW36702   5.623   6.896   6.868
 8224SOL    HW136703   5.676   6.847   6.936
 8224SOL    HW236704   5.645   6.994   6.873
 8225SOL     OW36705   6.318   6.220   6.650
 8225SOL    HW136706   6.377   6.194   6.574
 8225SOL    HW236707   6.290   6.316   6.639
 8226SOL     OW36708   5.893   5.649   6.204
 8226SOL    HW136709   5.882   5.743   6.237
 8226SOL    HW236710   5.888   5.586   6.281
 8227SOL     OW36711   7.208   5.953   5.960
 8227SOL    HW136712   7.210   5.877   6.024
 8227SOL    HW236713   7.160   6.030   6.000
 8228SOL     OW36714   6.609   6.352   6.552
 8228SOL    HW136715   6.624   6.373   6.648
 8228SOL    HW236716   6.579   6.257   6.543
 8229SOL     OW36717   7.126   5.860   5.711
 8229SOL    HW136718   7.065   5.785   5.734
 8229SOL    HW236719   7.148   5.912   5.794
 8230SOL     OW36720   6.889   6.424   5.628
 8230SOL    HW136721   6.923   6.331   5.643
 8230SOL    HW236722   6.907   6.451   5.533
 8231SOL     OW36723   6.654   6.919   6.435
 8231SOL    HW136724   6.661   6.835   6.380
 8231SOL    HW236725   6.716   6.988   6.399
 8232SOL     OW36726   5.905   6.396   6.535
 8232SOL    HW136727   5.998   6.432   6.540
 8232SOL    HW236728   5.899   6.311   6.587
 8233SOL     OW36729   5.925   6.095   6.592
 8233SOL    HW136730   5.873   6.012   6.575
 8233SOL    HW236731   6.002   6.100   6.528
 8234SOL     OW36732   6.746   5.793   7.063
 8234SOL    HW136733   6.746   5.857   7.140
 8234SOL    HW236734   6.774   5.841   6.980
 8235SOL     OW36735   5.594   6.912   5.786
 8235SOL    HW136736   5.501   6.933   5.755
 8235SOL    HW236737   5.604   6.813   5.799
 8236SOL     OW36738   5.674   7.387   6.513
 8236SOL    HW136739   5.632   7.301   6.486
 8236SOL    HW236740   5.768   7.390   6.479
 8237SOL     OW36741   6.090   7.154   6.496
 8237SOL    HW136742   6.156   7.228   6.505
 8237SOL    HW236743   6.134   7.075   6.454
 8238SOL     OW36744   6.588   6.382   6.824
 8238SOL    HW136745   6.629   6.350   6.910
 8238SOL    HW236746   6.492   6.355   6.821
 8239SOL     OW36747   5.626   6.130   6.700
 8239SOL    HW136748   5.711   6.097   6.659
 8239SOL    HW236749   5.639   6.145   6.798
 8240SOL     OW36750   6.401   6.158   5.911
 8240SOL    HW136751   6.408   6.069   5.865
 8240SOL    HW236752   6.307   6.192   5.903
 8241SOL     OW36753   7.243   6.190   6.792
 8241SOL    HW136754   7.205   6.121   6.854
 8241SOL    HW236755   7.325   6.154   6.748
 8242SOL     OW36756   6.257   6.050   6.855
 8242SOL    HW136757   6.223   5.961   6.825
 8242SOL    HW236758   6.283   6.104   6.775
 8243SOL     OW36759   6.516   7.264   7.051
 8243SOL    HW136760   6.492   7.246   6.956
 8243SOL    HW236761   6.546   7.358   7.061
 8244SOL     OW36762   6.059   6.086   5.777
 8244SOL    HW136763   6.120   6.166   5.781
 8244SOL    HW236764   5.964   6.117   5.784
 8245SOL     OW36765   6.933   6.645   6.820
 8245SOL    HW136766   6.957   6.582   6.746
 8245SOL    HW236767   6.843   6.685   6.802
 8246SOL     OW36768   6.888   6.441   5.895
 8246SOL    HW136769   6.802   6.410   5.937
 8246SOL    HW236770   6.884   6.427   5.796
 8247SOL     OW36771   7.345   7.333   6.740
 8247SOL    HW136772   7.406   7.363   6.667
 8247SOL    HW236773   7.307   7.244   6.718
 8248SOL     OW36774   6.838   7.317   6.714
 8248SOL    HW136775   6.922   7.322   6.660
 8248SOL    HW236776   6.815   7.221   6.732
 8249SOL     OW36777   5.669   6.844   6.608
 8249SOL    HW136778   5.664   6.843   6.708
 8249SOL    HW236779   5.586   6.803   6.570
 8250SOL     OW36780   7.312   5.721   6.109
 8250SOL    HW136781   7.385   5.704   6.042
 8250SOL    HW236782   7.281   5.634   6.147
 8251SOL     OW36783   6.974   7.159   6.063
 8251SOL    HW136784   7.041   7.171   5.989
 8251SOL    HW236785   6.934   7.248   6.086
 8252SOL     OW36786   6.866   6.513   6.258
 8252SOL    HW136787   6.926   6.432   6.260
 8252SOL    HW236788   6.906   6.582   6.198
 8253SOL     OW36789   6.258   7.202   5.740
 8253SOL    HW136790   6.267   7.212   5.641
 8253SOL    HW236791   6.218   7.113   5.761
 8254SOL     OW36792   7.236   7.306   6.980
 8254SOL    HW136793   7.289   7.316   6.896
 8254SOL    HW236794   7.209   7.396   7.014
 8255SOL     OW36795   7.427   5.761   6.549
 8255SOL    HW136796   7.466   5.676   6.513
 8255SOL    HW236797   7.329   5.763   6.530
 8256SOL     OW36798   5.849   5.912   6.306
 8256SOL    HW136799   5.770   5.963   6.272
 8256SOL    HW236800   5.840   5.897   6.404
 8257SOL     OW36801   6.780   7.198   5.617
 8257SOL    HW136802   6.786   7.105   5.654
 8257SOL    HW236803   6.721   7.198   5.537
 8258SOL     OW36804   6.408   6.588   6.958
 8258SOL    HW136805   6.448   6.587   6.866
 8258SOL    HW236806   6.418   6.680   6.998
 8259SOL     OW36807   6.502   6.496   5.877
 8259SOL    HW136808   6.565   6.534   5.809
 8259SOL    HW236809   6.542   6.413   5.916
 8260SOL     OW36810   6.625   6.684   6.282
 8260SOL    HW136811   6.555   6.637   6.336
 8260SOL    HW236812   6.684   6.616   6.239
 8261SOL     OW36813   6.600   5.822   6.557
 8261SOL    HW136814   6.592   5.786   6.464
 8261SOL    HW236815   6.598   5.746   6.622
 8262SOL     OW36816   6.176   7.073   6.077
 8262SOL    HW136817   6.218   7.015   6.007
 8262SOL    HW236818   6.132   7.152   6.033
 8263SOL     OW36819   7.295   5.971   6.967
 8263SOL    HW136820   7.368   6.040   6.971
 8263SOL    HW236821   7.323   5.896   6.908
 8264SOL     OW36822   5.841   6.934   5.876
 8264SOL    HW136823   5.745   6.935   5.849
 8264SOL    HW236824   5.853   6.987   5.960
 8265SOL     OW36825   5.661   5.931   5.619
 8265SOL    HW136826   5.569   5.903   5.590
 8265SOL    HW236827   5.692   6.008   5.563
 8266SOL     OW36828   5.658   5.752   5.904
 8266SOL    HW136829   5.641   5.835   5.850
 8266SOL    HW236830   5.748   5.715   5.882
 8267SOL     OW36831   6.769   6.921   5.705
 8267SOL    HW136832   6.670   6.910   5.707
 8267SOL    HW236833   6.803   6.936   5.798
 8268SOL     OW36834   7.079   7.353   6.545
 8268SOL    HW136835   7.112   7.417   6.476
 8268SOL    HW236836   7.145   7.347   6.620
 8269SOL     OW36837   7.036   6.806   7.219
 8269SOL    HW136838   7.027   6.796   7.318
 8269SOL    HW236839   7.132   6.799   7.193
 8270SOL     OW36840   7.260   6.469   6.840
 8270SOL    HW136841   7.233   6.380   6.803
 8270SOL    HW236842   7.261   6.537   6.767
 8271SOL     OW36843   6.811   5.911   6.035
 8271SOL    HW136844   6.876   5.837   6.024
 8271SOL    HW236845   6.831   5.961   6.119
 8272SOL     OW36846   6.180   6.331   6.238
 8272SOL    HW136847   6.230   6.416   6.219
 8272SOL    HW236848   6.092   6.333   6.190
 8273SOL     OW36849   7.316   6.520   7.103
 8273SOL    HW136850   7.354   6.611   7.118
 8273SOL    HW236851   7.308   6.503   7.004
 8274SOL     OW36852   6.445   6.960   5.602
 8274SOL    HW136853   6.399   6.975   5.690
 8274SOL    HW236854   6.489   7.045   5.572
 8275SOL     OW36855   6.247   7.376   6.539
 8275SOL    HW136856   6.201   7.464   6.526
 8275SOL    HW236857   6.346   7.388   6.532
 8276SOL     OW36858   6.445   6.542   6.447
 8276SOL    HW136859   6.499   6.473   6.495
 8276SOL    HW236860   6.413   6.611   6.513
 8277SOL     OW36861   6.669   6.570   5.673
 8277SOL    HW136862   6.646   6.623   5.591
 8277SOL    HW236863   6.750   6.514   5.654
 8278SOL     OW36864   7.447   7.155   6.437
 8278SOL    HW136865   7.376   7.143   6.367
 8278SOL    HW236866   7.448   7.076   6.497
 8279SOL     OW36867   5.665   6.826   6.239
 8279SOL    HW136868   5.664   6.779   6.327
 8279SOL    HW236869   5.747   6.798   6.188
 8280SOL     OW36870   7.410   5.778   6.813
 8280SOL    HW136871   7.406   5.688   6.857
 8280SOL    HW236872   7.413   5.767   6.714
 8281SOL     OW36873   6.014   6.010   6.106
 8281SOL    HW136874   6.044   5.938   6.044
 8281SOL    HW236875   5.975   5.970   6.189
 8282SOL     OW36876   7.291   7.073   6.690
 8282SOL    HW136877   7.198   7.048   6.663
 8282SOL    HW236878   7.317   7.023   6.772
 8283SOL     OW36879   6.398   7.172   6.273
 8283SOL    HW136880   6.430   7.182   6.179
 8283SOL    HW236881   6.319   7.110   6.275
 8284SOL     OW36882   7.010   5.800   6.698
 8284SOL    HW136883   7.062   5.735   6.753
 8284SOL    HW236884   6.961   5.863   6.759
 8285SOL     OW36885   6.587   5.620   6.740
 8285SOL    HW136886   6.524   5.548   6.709
 8285SOL    HW236887   6.680   5.584   6.740
 8286SOL     OW36888   6.356   6.916   5.887
 8286SOL    HW136889   6.310   6.829   5.904
 8286SOL    HW236890   6.447   6.913   5.928
 8287SOL     OW36891   6.938   5.638   5.754
 8287SOL    HW136892   6.973   5.597   5.670
 8287SOL    HW236893   6.848   5.600   5.774
 8288SOL     OW36894   6.886   6.039   6.277
 8288SOL    HW136895   6.827   6.119   6.281
 8288SOL    HW236896   6.901   6.004   6.370
 8289SOL     OW36897   7.179   5.807   6.468
 8289SOL    HW136898   7.095   5.806   6.522
 8289SOL    HW236899   7.181   5.890   6.412
 8290SOL     OW36900   5.625   6.663   5.886
 8290SOL    HW136901   5.724   6.652   5.877
 8290SOL    HW236902   5.585   6.577   5.918
 8291SOL     OW36903   6.461   7.232   5.923
 8291SOL    HW136904   6.384   7.197   5.869
 8291SOL    HW236905   6.429   7.303   5.985
 8292SOL     OW36906   5.816   8.076   0.113
 8292SOL    HW136907   5.723   8.074   0.150
 8292SOL    HW236908   5.817   8.037   0.021
 8293SOL     OW36909   5.811   7.723   0.996
 8293SOL    HW136910   5.846   7.706   1.088
 8293SOL    HW236911   5.723   7.678   0.984
 8294SOL     OW36912   5.605   7.816   0.647
 8294SOL    HW136913   5.523   7.859   0.686
 8294SOL    HW236914   5.577   7.743   0.584
 8295SOL     OW36915   6.721   8.151   0.717
 8295SOL    HW136916   6.778   8.229   0.692
 8295SOL    HW236917   6.661   8.177   0.793
 8296SOL     OW36918   7.341   8.055   0.231
 8296SOL    HW136919   7.329   8.042   0.132
 8296SOL    HW236920   7.311   7.974   0.280
 8297SOL     OW36921   6.354   8.592   1.023
 8297SOL    HW136922   6.276   8.609   1.083
 8297SOL    HW236923   6.388   8.679   0.987
 8298SOL     OW36924   6.271   8.460   0.665
 8298SOL    HW136925   6.340   8.444   0.735
 8298SOL    HW236926   6.198   8.517   0.703
 8299SOL     OW36927   6.024   7.840   1.499
 8299SOL    HW136928   6.106   7.784   1.508
 8299SOL    HW236929   5.943   7.782   1.503
 8300SOL     OW36930   7.189   7.895   0.737
 8300SOL    HW136931   7.115   7.941   0.687
 8300SOL    HW236932   7.240   7.963   0.790
 8301SOL     OW36933   5.826   8.539   0.886
 8301SOL    HW136934   5.840   8.455   0.938
 8301SOL    HW236935   5.771   8.603   0.941
 8302SOL     OW36936   7.180   7.562   1.480
 8302SOL    HW136937   7.162   7.629   1.408
 8302SOL    HW236938   7.177   7.608   1.569
 8303SOL     OW36939   5.708   8.091   0.563
 8303SOL    HW136940   5.663   8.003   0.580
 8303SOL    HW236941   5.707   8.145   0.647
 8304SOL     OW36942   5.699   8.185   1.597
 8304SOL    HW136943   5.787   8.172   1.642
 8304SOL    HW236944   5.686   8.282   1.575
 8305SOL     OW36945   6.395   7.452   0.502
 8305SOL    HW136946   6.435   7.543   0.493
 8305SOL    HW236947   6.295   7.460   0.508
 8306SOL     OW36948   5.783   8.424   1.264
 8306SOL    HW136949   5.872   8.379   1.250
 8306SOL    HW236950   5.710   8.359   1.245
 8307SOL     OW36951   7.111   8.447   0.190
 8307SOL    HW136952   7.048   8.371   0.203
 8307SOL    HW236953   7.159   8.465   0.276
 8308SOL     OW36954   5.903   7.699   1.801
 8308SOL    HW136955   5.974   7.770   1.807
 8308SOL    HW236956   5.815   7.738   1.829
 8309SOL     OW36957   6.184   8.177   0.270
 8309SOL    HW136958   6.208   8.246   0.202
 8309SOL    HW236959   6.106   8.210   0.324
 8310SOL     OW36960   6.867   7.793   0.944
 8310SOL    HW136961   6.781   7.743   0.931
 8310SOL    HW236962   6.929   7.739   1.000
 8311SOL     OW36963   6.393   8.053   1.465
 8311SOL    HW136964   6.346   8.050   1.554
 8311SOL    HW236965   6.342   7.998   1.399
 8312SOL     OW36966   6.559   8.338   1.572
 8312SOL    HW136967   6.605   8.254   1.543
 8312SOL    HW236968   6.503   8.372   1.497
 8313SOL     OW36969   6.577   7.858   1.242
 8313SOL    HW136970   6.500   7.892   1.296
 8313SOL    HW236971   6.543   7.807   1.163
 8314SOL     OW36972   6.627   8.149   0.429
 8314SOL    HW136973   6.653   8.145   0.525
 8314SOL    HW236974   6.542   8.098   0.415
 8315SOL     OW36975   5.662   8.259   0.789
 8315SOL    HW136976   5.761   8.247   0.798
 8315SOL    HW236977   5.638   8.354   0.810
 8316SOL     OW36978   6.451   7.796   0.195
 8316SOL    HW136979   6.510   7.859   0.146
 8316SOL    HW236980   6.470   7.702   0.166
 8317SOL     OW36981   6.136   7.644   0.885
 8317SOL    HW136982   6.131   7.639   0.985
 8317SOL    HW236983   6.138   7.740   0.856
 8318SOL     OW36984   7.044   8.183   0.728
 8318SOL    HW136985   7.039   8.118   0.803
 8318SOL    HW236986   7.124   8.242   0.741
 8319SOL     OW36987   5.788   7.733   1.498
 8319SOL    HW136988   5.708   7.793   1.485
 8319SOL    HW236989   5.778   7.684   1.584
 8320SOL     OW36990   6.986   7.555   0.426
 8320SOL    HW136991   6.962   7.518   0.336
 8320SOL    HW236992   7.085   7.571   0.430
 8321SOL     OW36993   5.968   8.148   0.480
 8321SOL    HW136994   6.013   8.058   0.477
 8321SOL    HW236995   5.874   8.137   0.513
 8322SOL     OW36996   7.133   7.670   1.729
 8322SOL    HW136997   7.128   7.707   1.821
 8322SOL    HW236998   7.061   7.601   1.717
 8323SOL     OW36999   6.200   7.570   0.117
 8323SOL    HW137000   6.298   7.548   0.124
 8323SOL    HW237001   6.169   7.553   0.024
 8324SOL     OW37002   6.367   7.712   1.749
 8324SOL    HW137003   6.434   7.651   1.792
 8324SOL    HW237004   6.294   7.731   1.814
 8325SOL     OW37005   6.937   8.038   1.433
 8325SOL    HW137006   6.965   7.995   1.518
 8325SOL    HW237007   6.962   8.134   1.434
 8326SOL     OW37008   6.508   7.951   0.899
 8326SOL    HW137009   6.483   7.942   0.803
 8326SOL    HW237010   6.556   7.869   0.930
 8327SOL     OW37011   6.125   7.512   0.512
 8327SOL    HW137012   6.044   7.513   0.570
 8327SOL    HW237013   6.128   7.595   0.457
 8328SOL     OW37014   5.883   7.483   0.171
 8328SOL    HW137015   5.932   7.567   0.150
 8328SOL    HW237016   5.945   7.418   0.216
 8329SOL     OW37017   6.521   7.684   0.480
 8329SOL    HW137018   6.473   7.725   0.402
 8329SOL    HW237019   6.620   7.682   0.461
 8330SOL     OW37020   6.662   8.131   1.464
 8330SOL    HW137021   6.582   8.070   1.467
 8330SOL    HW237022   6.743   8.078   1.440
 8331SOL     OW37023   6.618   7.997   0.016
 8331SOL    HW137024   6.577   8.079  -0.023
 8331SOL    HW237025   6.682   8.023   0.089
 8332SOL     OW37026   5.664   8.004   1.386
 8332SOL    HW137027   5.756   8.003   1.345
 8332SOL    HW237028   5.658   8.078   1.453
 8333SOL     OW37029   6.147   7.670   1.147
 8333SOL    HW137030   6.185   7.586   1.184
 8333SOL    HW237031   6.059   7.689   1.191
 8334SOL     OW37032   6.452   7.902   0.642
 8334SOL    HW137033   6.420   7.974   0.580
 8334SOL    HW237034   6.476   7.821   0.589
 8335SOL     OW37035   6.603   7.487   0.753
 8335SOL    HW137036   6.531   7.492   0.684
 8335SOL    HW237037   6.579   7.418   0.822
 8336SOL     OW37038   7.052   8.038   0.992
 8336SOL    HW137039   7.022   7.943   0.999
 8336SOL    HW237040   7.125   8.054   1.058
 8337SOL     OW37041   7.443   8.281   0.377
 8337SOL    HW137042   7.485   8.217   0.441
 8337SOL    HW237043   7.405   8.230   0.299
 8338SOL     OW37044   6.976   8.023   0.078
 8338SOL    HW137045   6.922   8.002   0.159
 8338SOL    HW237046   7.067   7.982   0.087
 8339SOL     OW37047   6.113   7.704   0.328
 8339SOL    HW137048   6.140   7.645   0.253
 8339SOL    HW237049   6.113   7.799   0.297
 8340SOL     OW37050   7.224   8.547   1.079
 8340SOL    HW137051   7.229   8.628   1.138
 8340SOL    HW237052   7.138   8.549   1.028
 8341SOL     OW37053   6.501   7.537   1.402
 8341SOL    HW137054   6.526   7.517   1.307
 8341SOL    HW237055   6.573   7.593   1.444
 8342SOL     OW37056   5.996   8.261   1.251
 8342SOL    HW137057   6.082   8.273   1.301
 8342SOL    HW237058   5.954   8.174   1.278
 8343SOL     OW37059   6.860   7.834   1.262
 8343SOL    HW137060   6.881   7.908   1.326
 8343SOL    HW237061   6.771   7.851   1.219
 8344SOL     OW37062   6.152   7.985   0.865
 8344SOL    HW137063   6.164   8.051   0.791
 8344SOL    HW237064   6.198   8.019   0.948
 8345SOL     OW37065   7.168   8.087   0.472
 8345SOL    HW137066   7.137   8.148   0.545
 8345SOL    HW237067   7.218   8.139   0.403
 8346SOL     OW37068   5.988   8.199   1.598
 8346SOL    HW137069   6.056   8.254   1.551
 8346SOL    HW237070   6.028   8.111   1.625
 8347SOL     OW37071   6.090   7.498   1.740
 8347SOL    HW137072   6.048   7.441   1.670
 8347SOL    HW237073   6.024   7.567   1.772
 8348SOL     OW37074   6.159   8.318   1.029
 8348SOL    HW137075   6.203   8.407   1.020
 8348SOL    HW237076   6.096   8.318   1.106
 8349SOL     OW37077   6.946   8.310   1.045
 8349SOL    HW137078   6.871   8.310   0.979
 8349SOL    HW237079   6.983   8.218   1.054
 8350SOL     OW37080   6.795   7.973   0.275
 8350SOL    HW137081   6.808   7.889   0.329
 8350SOL    HW237082   6.766   8.047   0.335
 8351SOL     OW37083   5.893   7.661   1.231
 8351SOL    HW137084   5.870   7.698   1.321
 8351SOL    HW237085   5.863   7.566   1.225
 8352SOL     OW37086   6.318   8.082   1.064
 8352SOL    HW137087   6.377   8.056   0.988
 8352SOL    HW237088   6.290   8.178   1.053
 8353SOL     OW37089   5.893   7.511   0.618
 8353SOL    HW137090   5.882   7.605   0.651
 8353SOL    HW237091   5.888   7.448   0.695
 8354SOL     OW37092   7.208   7.815   0.374
 8354SOL    HW137093   7.210   7.739   0.438
 8354SOL    HW237094   7.160   7.892   0.414
 8355SOL     OW37095   6.609   8.214   0.966
 8355SOL    HW137096   6.624   8.235   1.062
 8355SOL    HW237097   6.579   8.119   0.957
 8356SOL     OW37098   5.936   8.346   1.804
 8356SOL    HW137099   6.012   8.390   1.852
 8356SOL    HW237100   5.971   8.299   1.722
 8357SOL     OW37101   7.126   7.722   0.125
 8357SOL    HW137102   7.065   7.647   0.148
 8357SOL    HW237103   7.148   7.774   0.208
 8358SOL     OW37104   6.889   8.286   0.042
 8358SOL    HW137105   6.923   8.193   0.057
 8358SOL    HW237106   6.907   8.313  -0.053
 8359SOL     OW37107   5.905   8.258   0.949
 8359SOL    HW137108   5.998   8.294   0.954
 8359SOL    HW237109   5.899   8.173   1.001
 8360SOL     OW37110   5.925   7.957   1.006
 8360SOL    HW137111   5.873   7.874   0.989
 8360SOL    HW237112   6.002   7.962   0.942
 8361SOL     OW37113   6.746   7.655   1.477
 8361SOL    HW137114   6.746   7.719   1.554
 8361SOL    HW237115   6.774   7.703   1.394
 8362SOL     OW37116   6.588   8.244   1.238
 8362SOL    HW137117   6.629   8.212   1.324
 8362SOL    HW237118   6.492   8.217   1.235
 8363SOL     OW37119   5.626   7.992   1.114
 8363SOL    HW137120   5.711   7.959   1.073
 8363SOL    HW237121   5.639   8.007   1.212
 8364SOL     OW37122   5.775   7.968   1.722
 8364SOL    HW137123   5.834   7.928   1.652
 8364SOL    HW237124   5.717   8.039   1.681
 8365SOL     OW37125   6.401   8.020   0.325
 8365SOL    HW137126   6.408   7.931   0.279
 8365SOL    HW237127   6.307   8.054   0.317
 8366SOL     OW37128   7.243   8.052   1.206
 8366SOL    HW137129   7.205   7.983   1.268
 8366SOL    HW237130   7.325   8.016   1.162
 8367SOL     OW37131   6.257   7.912   1.269
 8367SOL    HW137132   6.223   7.823   1.239
 8367SOL    HW237133   6.283   7.966   1.189
 8368SOL     OW37134   6.059   7.948   0.191
 8368SOL    HW137135   6.120   8.028   0.195
 8368SOL    HW237136   5.964   7.979   0.198
 8369SOL     OW37137   5.745   8.585   1.466
 8369SOL    HW137138   5.767   8.524   1.542
 8369SOL    HW237139   5.755   8.536   1.380
 8370SOL     OW37140   6.933   8.507   1.234
 8370SOL    HW137141   6.957   8.444   1.160
 8370SOL    HW237142   6.843   8.547   1.216
 8371SOL     OW37143   6.888   8.303   0.309
 8371SOL    HW137144   6.802   8.272   0.351
 8371SOL    HW237145   6.884   8.289   0.210
 8372SOL     OW37146   6.489   7.534   0.133
 8372SOL    HW137147   6.540   7.535   0.047
 8372SOL    HW237148   6.545   7.492   0.204
 8373SOL     OW37149   7.312   7.583   0.523
 8373SOL    HW137150   7.385   7.566   0.456
 8373SOL    HW237151   7.281   7.496   0.561
 8374SOL     OW37152   6.866   8.375   0.672
 8374SOL    HW137153   6.926   8.294   0.674
 8374SOL    HW237154   6.906   8.444   0.612
 8375SOL     OW37155   7.427   7.623   0.963
 8375SOL    HW137156   7.466   7.538   0.927
 8375SOL    HW237157   7.329   7.625   0.944
 8376SOL     OW37158   5.849   7.774   0.720
 8376SOL    HW137159   5.770   7.825   0.686
 8376SOL    HW237160   5.840   7.759   0.818
 8377SOL     OW37161   6.502   8.358   0.291
 8377SOL    HW137162   6.565   8.396   0.223
 8377SOL    HW237163   6.542   8.275   0.330
 8378SOL     OW37164   6.600   7.684   0.971
 8378SOL    HW137165   6.592   7.648   0.878
 8378SOL    HW237166   6.598   7.608   1.036
 8379SOL     OW37167   7.295   7.833   1.381
 8379SOL    HW137168   7.368   7.902   1.385
 8379SOL    HW237169   7.323   7.758   1.322
 8380SOL     OW37170   5.691   8.461   1.726
 8380SOL    HW137171   5.614   8.428   1.780
 8380SOL    HW237172   5.776   8.431   1.768
 8381SOL     OW37173   6.258   7.651   1.489
 8381SOL    HW137174   6.348   7.635   1.449
 8381SOL    HW237175   6.266   7.656   1.588
 8382SOL     OW37176   5.658   7.614   0.318
 8382SOL    HW137177   5.641   7.697   0.264
 8382SOL    HW237178   5.748   7.577   0.296
 8383SOL     OW37179   6.199   8.290   1.431
 8383SOL    HW137180   6.255   8.371   1.414
 8383SOL    HW237181   6.258   8.210   1.434
 8384SOL     OW37182   7.260   8.331   1.254
 8384SOL    HW137183   7.233   8.242   1.217
 8384SOL    HW237184   7.261   8.399   1.181
 8385SOL     OW37185   6.811   7.773   0.449
 8385SOL    HW137186   6.876   7.699   0.438
 8385SOL    HW237187   6.831   7.823   0.533
 8386SOL     OW37188   6.180   8.193   0.652
 8386SOL    HW137189   6.230   8.278   0.633
 8386SOL    HW237190   6.092   8.195   0.604
 8387SOL     OW37191   7.316   8.382   1.517
 8387SOL    HW137192   7.354   8.473   1.532
 8387SOL    HW237193   7.308   8.365   1.418
 8388SOL     OW37194   6.669   8.432   0.087
 8388SOL    HW137195   6.646   8.485   0.005
 8388SOL    HW237196   6.750   8.376   0.068
 8389SOL     OW37197   7.410   7.640   1.227
 8389SOL    HW137198   7.406   7.550   1.271
 8389SOL    HW237199   7.413   7.629   1.128
 8390SOL     OW37200   6.014   7.872   0.520
 8390SOL    HW137201   6.044   7.800   0.458
 8390SOL    HW237202   5.975   7.832   0.603
 8391SOL     OW37203   5.903   7.995   1.280
 8391SOL    HW137204   5.941   7.936   1.352
 8391SOL    HW237205   5.943   7.969   1.192
 8392SOL     OW37206   7.010   7.662   1.112
 8392SOL    HW137207   7.062   7.597   1.167
 8392SOL    HW237208   6.961   7.725   1.173
 8393SOL     OW37209   6.587   7.482   1.154
 8393SOL    HW137210   6.524   7.410   1.123
 8393SOL    HW237211   6.680   7.446   1.154
 8394SOL     OW37212   6.938   7.500   0.168
 8394SOL    HW137213   6.973   7.459   0.084
 8394SOL    HW237214   6.848   7.462   0.188
 8395SOL     OW37215   6.886   7.901   0.691
 8395SOL    HW137216   6.827   7.981   0.695
 8395SOL    HW237217   6.901   7.866   0.784
 8396SOL     OW37218   7.179   7.669   0.882
 8396SOL    HW137219   7.095   7.668   0.936
 8396SOL    HW237220   7.181   7.752   0.826
 8397SOL     OW37221   5.625   8.525   0.300
 8397SOL    HW137222   5.724   8.514   0.291
 8397SOL    HW237223   5.585   8.439   0.332
 8398SOL     OW37224   5.816   8.076   1.975
 8398SOL    HW137225   5.723   8.074   2.012
 8398SOL    HW237226   5.817   8.037   1.883
 8399SOL     OW37227   6.436   8.246   3.685
 8399SOL    HW137228   6.432   8.322   3.750
 8399SOL    HW237229   6.458   8.282   3.594
 8400SOL     OW37230   7.180   7.562   3.342
 8400SOL    HW137231   7.162   7.629   3.270
 8400SOL    HW237232   7.177   7.608   3.431
 8401SOL     OW37233   5.708   8.091   2.425
 8401SOL    HW137234   5.663   8.003   2.442
 8401SOL    HW237235   5.707   8.145   2.509
 8402SOL     OW37236   5.783   8.424   3.126
 8402SOL    HW137237   5.872   8.379   3.112
 8402SOL    HW237238   5.710   8.359   3.107
 8403SOL     OW37239   6.559   8.338   3.434
 8403SOL    HW137240   6.605   8.254   3.405
 8403SOL    HW237241   6.503   8.372   3.359
 8404SOL     OW37242   6.451   7.796   2.057
 8404SOL    HW137243   6.510   7.859   2.008
 8404SOL    HW237244   6.470   7.702   2.028
 8405SOL     OW37245   7.133   7.670   3.591
 8405SOL    HW137246   7.128   7.707   3.683
 8405SOL    HW237247   7.061   7.601   3.579
 8406SOL     OW37248   6.200   7.570   1.979
 8406SOL    HW137249   6.298   7.548   1.986
 8406SOL    HW237250   6.169   7.553   1.886
 8407SOL     OW37251   6.367   7.712   3.611
 8407SOL    HW137252   6.434   7.651   3.654
 8407SOL    HW237253   6.294   7.731   3.676
 8408SOL     OW37254   6.937   8.038   3.295
 8408SOL    HW137255   6.965   7.995   3.380
 8408SOL    HW237256   6.962   8.134   3.296
 8409SOL     OW37257   6.508   7.951   2.761
 8409SOL    HW137258   6.483   7.942   2.665
 8409SOL    HW237259   6.556   7.869   2.792
 8410SOL     OW37260   6.521   7.684   2.342
 8410SOL    HW137261   6.473   7.725   2.264
 8410SOL    HW237262   6.620   7.682   2.323
 8411SOL     OW37263   6.662   8.131   3.326
 8411SOL    HW137264   6.582   8.070   3.329
 8411SOL    HW237265   6.743   8.078   3.302
 8412SOL     OW37266   6.603   7.487   2.615
 8412SOL    HW137267   6.531   7.492   2.546
 8412SOL    HW237268   6.579   7.418   2.684
 8413SOL     OW37269   7.224   8.547   2.941
 8413SOL    HW137270   7.229   8.628   3.000
 8413SOL    HW237271   7.138   8.549   2.890
 8414SOL     OW37272   6.501   7.537   3.264
 8414SOL    HW137273   6.526   7.517   3.169
 8414SOL    HW237274   6.573   7.593   3.306
 8415SOL     OW37275   6.090   7.498   3.602
 8415SOL    HW137276   6.048   7.441   3.532
 8415SOL    HW237277   6.024   7.567   3.634
 8416SOL     OW37278   7.208   7.815   2.236
 8416SOL    HW137279   7.210   7.739   2.300
 8416SOL    HW237280   7.160   7.892   2.276
 8417SOL     OW37281   6.609   8.214   2.828
 8417SOL    HW137282   6.624   8.235   2.924
 8417SOL    HW237283   6.579   8.119   2.819
 8418SOL     OW37284   6.746   7.655   3.339
 8418SOL    HW137285   6.746   7.719   3.416
 8418SOL    HW237286   6.774   7.703   3.256
 8419SOL     OW37287   6.588   8.244   3.100
 8419SOL    HW137288   6.629   8.212   3.186
 8419SOL    HW237289   6.492   8.217   3.097
 8420SOL     OW37290   5.775   7.968   3.584
 8420SOL    HW137291   5.834   7.928   3.514
 8420SOL    HW237292   5.717   8.039   3.543
 8421SOL     OW37293   7.243   8.052   3.068
 8421SOL    HW137294   7.205   7.983   3.130
 8421SOL    HW237295   7.325   8.016   3.024
 8422SOL     OW37296   6.257   7.912   3.131
 8422SOL    HW137297   6.223   7.823   3.101
 8422SOL    HW237298   6.283   7.966   3.051
 8423SOL     OW37299   7.260   8.331   3.116
 8423SOL    HW137300   7.233   8.242   3.079
 8423SOL    HW237301   7.261   8.399   3.043
 8424SOL     OW37302   7.410   7.640   3.089
 8424SOL    HW137303   7.406   7.550   3.133
 8424SOL    HW237304   7.413   7.629   2.990
 8425SOL     OW37305   5.903   7.995   3.142
 8425SOL    HW137306   5.941   7.936   3.214
 8425SOL    HW237307   5.943   7.969   3.054
 8426SOL     OW37308   7.010   7.662   2.974
 8426SOL    HW137309   7.062   7.597   3.029
 8426SOL    HW237310   6.961   7.725   3.035
 8427SOL     OW37311   6.587   7.482   3.016
 8427SOL    HW137312   6.524   7.410   2.985
 8427SOL    HW237313   6.680   7.446   3.016
 8428SOL     OW37314   6.938   7.500   2.030
 8428SOL    HW137315   6.973   7.459   1.946
 8428SOL    HW237316   6.848   7.462   2.050
 8429SOL     OW37317   5.811   7.723   4.720
 8429SOL    HW137318   5.846   7.706   4.812
 8429SOL    HW237319   5.723   7.678   4.708
 8430SOL     OW37320   6.436   8.246   5.547
 8430SOL    HW137321   6.432   8.322   5.612
 8430SOL    HW237322   6.458   8.282   5.456
 8431SOL     OW37323   7.180   7.562   5.204
 8431SOL    HW137324   7.162   7.629   5.132
 8431SOL    HW237325   7.177   7.608   5.293
 8432SOL     OW37326   6.395   7.452   4.226
 8432SOL    HW137327   6.435   7.543   4.217
 8432SOL    HW237328   6.295   7.460   4.232
 8433SOL     OW37329   6.184   8.177   3.994
 8433SOL    HW137330   6.208   8.246   3.926
 8433SOL    HW237331   6.106   8.210   4.048
 8434SOL     OW37332   6.980   7.917   5.398
 8434SOL    HW137333   6.960   7.960   5.486
 8434SOL    HW237334   7.058   7.855   5.407
 8435SOL     OW37335   7.305   8.033   5.555
 8435SOL    HW137336   7.279   8.122   5.519
 8435SOL    HW237337   7.303   7.965   5.482
 8436SOL     OW37338   6.136   7.644   4.609
 8436SOL    HW137339   6.131   7.639   4.709
 8436SOL    HW237340   6.138   7.740   4.580
 8437SOL     OW37341   7.044   8.183   4.452
 8437SOL    HW137342   7.039   8.118   4.527
 8437SOL    HW237343   7.124   8.242   4.465
 8438SOL     OW37344   5.968   8.148   4.204
 8438SOL    HW137345   6.013   8.058   4.201
 8438SOL    HW237346   5.874   8.137   4.237
 8439SOL     OW37347   7.133   7.670   5.453
 8439SOL    HW137348   7.128   7.707   5.545
 8439SOL    HW237349   7.061   7.601   5.441
 8440SOL     OW37350   6.125   7.512   4.236
 8440SOL    HW137351   6.044   7.513   4.294
 8440SOL    HW237352   6.128   7.595   4.181
 8441SOL     OW37353   6.521   7.684   4.204
 8441SOL    HW137354   6.473   7.725   4.126
 8441SOL    HW237355   6.620   7.682   4.185
 8442SOL     OW37356   7.224   8.547   4.803
 8442SOL    HW137357   7.229   8.628   4.862
 8442SOL    HW237358   7.138   8.549   4.752
 8443SOL     OW37359   6.501   7.537   5.126
 8443SOL    HW137360   6.526   7.517   5.031
 8443SOL    HW237361   6.573   7.593   5.168
 8444SOL     OW37362   5.988   8.199   5.322
 8444SOL    HW137363   6.056   8.254   5.275
 8444SOL    HW237364   6.028   8.111   5.349
 8445SOL     OW37365   7.173   8.227   5.394
 8445SOL    HW137366   7.081   8.265   5.389
 8445SOL    HW237367   7.233   8.274   5.329
 8446SOL     OW37368   6.090   7.498   5.464
 8446SOL    HW137369   6.048   7.441   5.394
 8446SOL    HW237370   6.024   7.567   5.496
 8447SOL     OW37371   6.795   7.973   3.999
 8447SOL    HW137372   6.808   7.889   4.053
 8447SOL    HW237373   6.766   8.047   4.059
 8448SOL     OW37374   7.314   8.383   5.578
 8448SOL    HW137375   7.268   8.376   5.489
 8448SOL    HW237376   7.252   8.427   5.644
 8449SOL     OW37377   6.609   8.214   4.690
 8449SOL    HW137378   6.624   8.235   4.786
 8449SOL    HW237379   6.579   8.119   4.681
 8450SOL     OW37380   5.936   8.346   5.528
 8450SOL    HW137381   6.012   8.390   5.576
 8450SOL    HW237382   5.971   8.299   5.446
 8451SOL     OW37383   7.126   7.722   3.849
 8451SOL    HW137384   7.065   7.647   3.872
 8451SOL    HW237385   7.148   7.774   3.932
 8452SOL     OW37386   6.889   8.286   3.766
 8452SOL    HW137387   6.923   8.193   3.781
 8452SOL    HW237388   6.907   8.313   3.671
 8453SOL     OW37389   6.955   8.398   5.384
 8453SOL    HW137390   6.994   8.487   5.404
 8453SOL    HW237391   6.965   8.378   5.287
 8454SOL     OW37392   7.243   8.052   4.930
 8454SOL    HW137393   7.205   7.983   4.992
 8454SOL    HW237394   7.325   8.016   4.886
 8455SOL     OW37395   6.059   7.948   3.915
 8455SOL    HW137396   6.120   8.028   3.919
 8455SOL    HW237397   5.964   7.979   3.922
 8456SOL     OW37398   6.866   8.375   4.396
 8456SOL    HW137399   6.926   8.294   4.398
 8456SOL    HW237400   6.906   8.444   4.336
 8457SOL     OW37401   7.295   7.833   5.105
 8457SOL    HW137402   7.368   7.902   5.109
 8457SOL    HW237403   7.323   7.758   5.046
 8458SOL     OW37404   5.691   8.461   5.450
 8458SOL    HW137405   5.614   8.428   5.504
 8458SOL    HW237406   5.776   8.431   5.492
 8459SOL     OW37407   6.258   7.651   5.213
 8459SOL    HW137408   6.348   7.635   5.173
 8459SOL    HW237409   6.266   7.656   5.312
 8460SOL     OW37410   5.661   7.793   3.757
 8460SOL    HW137411   5.569   7.765   3.728
 8460SOL    HW237412   5.692   7.870   3.701
 8461SOL     OW37413   6.199   8.290   5.155
 8461SOL    HW137414   6.255   8.371   5.138
 8461SOL    HW237415   6.258   8.210   5.158
 8462SOL     OW37416   6.302   8.013   5.432
 8462SOL    HW137417   6.321   8.078   5.506
 8462SOL    HW237418   6.362   7.933   5.441
 8463SOL     OW37419   7.260   8.331   4.978
 8463SOL    HW137420   7.233   8.242   4.941
 8463SOL    HW237421   7.261   8.399   4.905
 8464SOL     OW37422   7.363   7.790   5.366
 8464SOL    HW137423   7.346   7.821   5.272
 8464SOL    HW237424   7.279   7.753   5.404
 8465SOL     OW37425   7.316   8.382   5.241
 8465SOL    HW137426   7.354   8.473   5.256
 8465SOL    HW237427   7.308   8.365   5.142
 8466SOL     OW37428   6.669   8.432   3.811
 8466SOL    HW137429   6.646   8.485   3.729
 8466SOL    HW237430   6.750   8.376   3.792
 8467SOL     OW37431   7.410   7.640   4.951
 8467SOL    HW137432   7.406   7.550   4.995
 8467SOL    HW237433   7.413   7.629   4.852
 8468SOL     OW37434   5.816   8.076   5.699
 8468SOL    HW137435   5.723   8.074   5.736
 8468SOL    HW237436   5.817   8.037   5.607
 8469SOL     OW37437   5.811   7.723   6.582
 8469SOL    HW137438   5.846   7.706   6.674
 8469SOL    HW237439   5.723   7.678   6.570
 8470SOL     OW37440   5.605   7.816   6.233
 8470SOL    HW137441   5.523   7.859   6.272
 8470SOL    HW237442   5.577   7.743   6.170
 8471SOL     OW37443   6.721   8.151   6.303
 8471SOL    HW137444   6.778   8.229   6.278
 8471SOL    HW237445   6.661   8.177   6.379
 8472SOL     OW37446   7.341   8.055   5.817
 8472SOL    HW137447   7.329   8.042   5.718
 8472SOL    HW237448   7.311   7.974   5.866
 8473SOL     OW37449   6.354   8.592   6.609
 8473SOL    HW137450   6.276   8.609   6.669
 8473SOL    HW237451   6.388   8.679   6.573
 8474SOL     OW37452   6.271   8.460   6.251
 8474SOL    HW137453   6.340   8.444   6.321
 8474SOL    HW237454   6.198   8.517   6.289
 8475SOL     OW37455   7.189   7.895   6.323
 8475SOL    HW137456   7.115   7.941   6.273
 8475SOL    HW237457   7.240   7.963   6.376
 8476SOL     OW37458   5.826   8.539   6.472
 8476SOL    HW137459   5.840   8.455   6.524
 8476SOL    HW237460   5.771   8.603   6.527
 8477SOL     OW37461   5.708   8.091   6.149
 8477SOL    HW137462   5.663   8.003   6.166
 8477SOL    HW237463   5.707   8.145   6.233
 8478SOL     OW37464   6.395   7.452   6.088
 8478SOL    HW137465   6.435   7.543   6.079
 8478SOL    HW237466   6.295   7.460   6.094
 8479SOL     OW37467   5.783   8.424   6.850
 8479SOL    HW137468   5.872   8.379   6.836
 8479SOL    HW237469   5.710   8.359   6.831
 8480SOL     OW37470   7.111   8.447   5.776
 8480SOL    HW137471   7.048   8.371   5.789
 8480SOL    HW237472   7.159   8.465   5.862
 8481SOL     OW37473   6.184   8.177   5.856
 8481SOL    HW137474   6.208   8.246   5.788
 8481SOL    HW237475   6.106   8.210   5.910
 8482SOL     OW37476   6.867   7.793   6.530
 8482SOL    HW137477   6.781   7.743   6.517
 8482SOL    HW237478   6.929   7.739   6.586
 8483SOL     OW37479   6.577   7.858   6.828
 8483SOL    HW137480   6.500   7.892   6.882
 8483SOL    HW237481   6.543   7.807   6.749
 8484SOL     OW37482   6.627   8.149   6.015
 8484SOL    HW137483   6.653   8.145   6.111
 8484SOL    HW237484   6.542   8.098   6.001
 8485SOL     OW37485   5.662   8.259   6.375
 8485SOL    HW137486   5.761   8.247   6.384
 8485SOL    HW237487   5.638   8.354   6.396
 8486SOL     OW37488   6.136   7.644   6.471
 8486SOL    HW137489   6.131   7.639   6.571
 8486SOL    HW237490   6.138   7.740   6.442
 8487SOL     OW37491   7.044   8.183   6.314
 8487SOL    HW137492   7.039   8.118   6.389
 8487SOL    HW237493   7.124   8.242   6.327
 8488SOL     OW37494   6.986   7.555   6.012
 8488SOL    HW137495   6.962   7.518   5.922
 8488SOL    HW237496   7.085   7.571   6.016
 8489SOL     OW37497   5.968   8.148   6.066
 8489SOL    HW137498   6.013   8.058   6.063
 8489SOL    HW237499   5.874   8.137   6.099
 8490SOL     OW37500   6.200   7.570   5.703
 8490SOL    HW137501   6.298   7.548   5.710
 8490SOL    HW237502   6.169   7.553   5.610
 8491SOL     OW37503   6.508   7.951   6.485
 8491SOL    HW137504   6.483   7.942   6.389
 8491SOL    HW237505   6.556   7.869   6.516
 8492SOL     OW37506   6.125   7.512   6.098
 8492SOL    HW137507   6.044   7.513   6.156
 8492SOL    HW237508   6.128   7.595   6.043
 8493SOL     OW37509   5.883   7.483   5.757
 8493SOL    HW137510   5.932   7.567   5.736
 8493SOL    HW237511   5.945   7.418   5.802
 8494SOL     OW37512   6.521   7.684   6.066
 8494SOL    HW137513   6.473   7.725   5.988
 8494SOL    HW237514   6.620   7.682   6.047
 8495SOL     OW37515   6.147   7.670   6.733
 8495SOL    HW137516   6.185   7.586   6.770
 8495SOL    HW237517   6.059   7.689   6.777
 8496SOL     OW37518   6.452   7.902   6.228
 8496SOL    HW137519   6.420   7.974   6.166
 8496SOL    HW237520   6.476   7.821   6.175
 8497SOL     OW37521   6.603   7.487   6.339
 8497SOL    HW137522   6.531   7.492   6.270
 8497SOL    HW237523   6.579   7.418   6.408
 8498SOL     OW37524   7.052   8.038   6.578
 8498SOL    HW137525   7.022   7.943   6.585
 8498SOL    HW237526   7.125   8.054   6.644
 8499SOL     OW37527   7.443   8.281   5.963
 8499SOL    HW137528   7.485   8.217   6.027
 8499SOL    HW237529   7.405   8.230   5.885
 8500SOL     OW37530   6.976   8.023   5.664
 8500SOL    HW137531   6.922   8.002   5.745
 8500SOL    HW237532   7.067   7.982   5.673
 8501SOL     OW37533   6.113   7.704   5.914
 8501SOL    HW137534   6.140   7.645   5.839
 8501SOL    HW237535   6.113   7.799   5.883
 8502SOL     OW37536   7.224   8.547   6.665
 8502SOL    HW137537   7.229   8.628   6.724
 8502SOL    HW237538   7.138   8.549   6.614
 8503SOL     OW37539   5.996   8.261   6.837
 8503SOL    HW137540   6.082   8.273   6.887
 8503SOL    HW237541   5.954   8.174   6.864
 8504SOL     OW37542   6.860   7.834   6.848
 8504SOL    HW137543   6.881   7.908   6.912
 8504SOL    HW237544   6.771   7.851   6.805
 8505SOL     OW37545   6.152   7.985   6.451
 8505SOL    HW137546   6.164   8.051   6.377
 8505SOL    HW237547   6.198   8.019   6.534
 8506SOL     OW37548   7.168   8.087   6.058
 8506SOL    HW137549   7.137   8.148   6.131
 8506SOL    HW237550   7.218   8.139   5.989
 8507SOL     OW37551   6.159   8.318   6.615
 8507SOL    HW137552   6.203   8.407   6.606
 8507SOL    HW237553   6.096   8.318   6.692
 8508SOL     OW37554   6.946   8.310   6.631
 8508SOL    HW137555   6.871   8.310   6.565
 8508SOL    HW237556   6.983   8.218   6.640
 8509SOL     OW37557   6.795   7.973   5.861
 8509SOL    HW137558   6.808   7.889   5.915
 8509SOL    HW237559   6.766   8.047   5.921
 8510SOL     OW37560   5.893   7.661   6.817
 8510SOL    HW137561   5.870   7.698   6.907
 8510SOL    HW237562   5.863   7.566   6.811
 8511SOL     OW37563   6.318   8.082   6.650
 8511SOL    HW137564   6.377   8.056   6.574
 8511SOL    HW237565   6.290   8.178   6.639
 8512SOL     OW37566   5.893   7.511   6.204
 8512SOL    HW137567   5.882   7.605   6.237
 8512SOL    HW237568   5.888   7.448   6.281
 8513SOL     OW37569   7.208   7.815   5.960
 8513SOL    HW137570   7.210   7.739   6.024
 8513SOL    HW237571   7.160   7.892   6.000
 8514SOL     OW37572   6.609   8.214   6.552
 8514SOL    HW137573   6.624   8.235   6.648
 8514SOL    HW237574   6.579   8.119   6.543
 8515SOL     OW37575   7.126   7.722   5.711
 8515SOL    HW137576   7.065   7.647   5.734
 8515SOL    HW237577   7.148   7.774   5.794
 8516SOL     OW37578   6.889   8.286   5.628
 8516SOL    HW137579   6.923   8.193   5.643
 8516SOL    HW237580   6.907   8.313   5.533
 8517SOL     OW37581   5.905   8.258   6.535
 8517SOL    HW137582   5.998   8.294   6.540
 8517SOL    HW237583   5.899   8.173   6.587
 8518SOL     OW37584   5.925   7.957   6.592
 8518SOL    HW137585   5.873   7.874   6.575
 8518SOL    HW237586   6.002   7.962   6.528
 8519SOL     OW37587   6.746   7.655   7.063
 8519SOL    HW137588   6.746   7.719   7.140
 8519SOL    HW237589   6.774   7.703   6.980
 8520SOL     OW37590   6.588   8.244   6.824
 8520SOL    HW137591   6.629   8.212   6.910
 8520SOL    HW237592   6.492   8.217   6.821
 8521SOL     OW37593   5.626   7.992   6.700
 8521SOL    HW137594   5.711   7.959   6.659
 8521SOL    HW237595   5.639   8.007   6.798
 8522SOL     OW37596   6.401   8.020   5.911
 8522SOL    HW137597   6.408   7.931   5.865
 8522SOL    HW237598   6.307   8.054   5.903
 8523SOL     OW37599   7.243   8.052   6.792
 8523SOL    HW137600   7.205   7.983   6.854
 8523SOL    HW237601   7.325   8.016   6.748
 8524SOL     OW37602   6.257   7.912   6.855
 8524SOL    HW137603   6.223   7.823   6.825
 8524SOL    HW237604   6.283   7.966   6.775
 8525SOL     OW37605   6.059   7.948   5.777
 8525SOL    HW137606   6.120   8.028   5.781
 8525SOL    HW237607   5.964   7.979   5.784
 8526SOL     OW37608   6.933   8.507   6.820
 8526SOL    HW137609   6.957   8.444   6.746
 8526SOL    HW237610   6.843   8.547   6.802
 8527SOL     OW37611   6.888   8.303   5.895
 8527SOL    HW137612   6.802   8.272   5.937
 8527SOL    HW237613   6.884   8.289   5.796
 8528SOL     OW37614   7.312   7.583   6.109
 8528SOL    HW137615   7.385   7.566   6.042
 8528SOL    HW237616   7.281   7.496   6.147
 8529SOL     OW37617   6.866   8.375   6.258
 8529SOL    HW137618   6.926   8.294   6.260
 8529SOL    HW237619   6.906   8.444   6.198
 8530SOL     OW37620   7.427   7.623   6.549
 8530SOL    HW137621   7.466   7.538   6.513
 8530SOL    HW237622   7.329   7.625   6.530
 8531SOL     OW37623   5.849   7.774   6.306
 8531SOL    HW137624   5.770   7.825   6.272
 8531SOL    HW237625   5.840   7.759   6.404
 8532SOL     OW37626   6.502   8.358   5.877
 8532SOL    HW137627   6.565   8.396   5.809
 8532SOL    HW237628   6.542   8.275   5.916
 8533SOL     OW37629   6.600   7.684   6.557
 8533SOL    HW137630   6.592   7.648   6.464
 8533SOL    HW237631   6.598   7.608   6.622
 8534SOL     OW37632   7.295   7.833   6.967
 8534SOL    HW137633   7.368   7.902   6.971
 8534SOL    HW237634   7.323   7.758   6.908
 8535SOL     OW37635   5.658   7.614   5.904
 8535SOL    HW137636   5.641   7.697   5.850
 8535SOL    HW237637   5.748   7.577   5.882
 8536SOL     OW37638   7.260   8.331   6.840
 8536SOL    HW137639   7.233   8.242   6.803
 8536SOL    HW237640   7.261   8.399   6.767
 8537SOL     OW37641   6.811   7.773   6.035
 8537SOL    HW137642   6.876   7.699   6.024
 8537SOL    HW237643   6.831   7.823   6.119
 8538SOL     OW37644   6.180   8.193   6.238
 8538SOL    HW137645   6.230   8.278   6.219
 8538SOL    HW237646   6.092   8.195   6.190
 8539SOL     OW37647   7.316   8.382   7.103
 8539SOL    HW137648   7.354   8.473   7.118
 8539SOL    HW237649   7.308   8.365   7.004
 8540SOL     OW37650   6.669   8.432   5.673
 8540SOL    HW137651   6.646   8.485   5.591
 8540SOL    HW237652   6.750   8.376   5.654
 8541SOL     OW37653   7.410   7.640   6.813
 8541SOL    HW137654   7.406   7.550   6.857
 8541SOL    HW237655   7.413   7.629   6.714
 8542SOL     OW37656   6.014   7.872   6.106
 8542SOL    HW137657   6.044   7.800   6.044
 8542SOL    HW237658   5.975   7.832   6.189
 8543SOL     OW37659   7.010   7.662   6.698
 8543SOL    HW137660   7.062   7.597   6.753
 8543SOL    HW237661   6.961   7.725   6.759
 8544SOL     OW37662   6.587   7.482   6.740
 8544SOL    HW137663   6.524   7.410   6.709
 8544SOL    HW237664   6.680   7.446   6.740
 8545SOL     OW37665   6.938   7.500   5.754
 8545SOL    HW137666   6.973   7.459   5.670
 8545SOL    HW237667   6.848   7.462   5.774
 8546SOL     OW37668   6.886   7.901   6.277
 8546SOL    HW137669   6.827   7.981   6.281
 8546SOL    HW237670   6.901   7.866   6.370
 8547SOL     OW37671   7.179   7.669   6.468
 8547SOL    HW137672   7.095   7.668   6.522
 8547SOL    HW237673   7.181   7.752   6.412
 8548SOL     OW37674   7.678   0.628   0.113
 8548SOL    HW137675   7.585   0.626   0.150
 8548SOL    HW237676   7.679   0.589   0.021
 8549SOL     OW37677   7.673   0.275   0.996
 8549SOL    HW137678   7.708   0.258   1.088
 8549SOL    HW237679   7.585   0.230   0.984
 8550SOL     OW37680   7.467   0.368   0.647
 8550SOL    HW137681   7.385   0.411   0.686
 8550SOL    HW237682   7.439   0.295   0.584
 8551SOL     OW37683   8.017   1.275   1.165
 8551SOL    HW137684   7.924   1.268   1.128
 8551SOL    HW237685   8.028   1.364   1.209
 8552SOL     OW37686   9.003   1.511   0.703
 8552SOL    HW137687   8.946   1.495   0.784
 8552SOL    HW237688   8.944   1.521   0.623
 8553SOL     OW37689   9.203   0.607   0.231
 8553SOL    HW137690   9.191   0.594   0.132
 8553SOL    HW237691   9.173   0.526   0.280
 8554SOL     OW37692   8.216   1.144   1.023
 8554SOL    HW137693   8.138   1.161   1.083
 8554SOL    HW237694   8.250   1.231   0.987
 8555SOL     OW37695   8.133   1.012   0.665
 8555SOL    HW137696   8.202   0.996   0.735
 8555SOL    HW237697   8.060   1.069   0.703
 8556SOL     OW37698   7.783   1.435   1.061
 8556SOL    HW137699   7.705   1.404   1.008
 8556SOL    HW237700   7.841   1.493   1.004
 8557SOL     OW37701   8.908   1.505   1.339
 8557SOL    HW137702   8.932   1.599   1.365
 8557SOL    HW237703   8.892   1.451   1.421
 8558SOL     OW37704   9.051   0.447   0.737
 8558SOL    HW137705   8.977   0.493   0.687
 8558SOL    HW237706   9.102   0.515   0.790
 8559SOL     OW37707   7.679   1.713   0.483
 8559SOL    HW137708   7.713   1.790   0.537
 8559SOL    HW237709   7.723   1.713   0.393
 8560SOL     OW37710   7.678   1.434   0.538
 8560SOL    HW137711   7.652   1.530   0.538
 8560SOL    HW237712   7.607   1.380   0.583
 8561SOL     OW37713   7.688   1.091   0.886
 8561SOL    HW137714   7.702   1.007   0.938
 8561SOL    HW237715   7.633   1.155   0.941
 8562SOL     OW37716   8.068   1.786   1.439
 8562SOL    HW137717   7.976   1.769   1.474
 8562SOL    HW237718   8.096   1.878   1.465
 8563SOL     OW37719   8.054   0.964   0.123
 8563SOL    HW137720   8.061   1.048   0.069
 8563SOL    HW237721   8.100   0.977   0.211
 8564SOL     OW37722   7.570   0.643   0.563
 8564SOL    HW137723   7.525   0.555   0.580
 8564SOL    HW237724   7.569   0.697   0.647
 8565SOL     OW37725   9.290   1.767   0.359
 8565SOL    HW137726   9.344   1.738   0.439
 8565SOL    HW237727   9.320   1.857   0.330
 8566SOL     OW37728   7.475   1.596   0.117
 8566SOL    HW137729   7.456   1.500   0.138
 8566SOL    HW237730   7.442   1.654   0.192
 8567SOL     OW37731   8.061   1.365   0.726
 8567SOL    HW137732   8.012   1.278   0.735
 8567SOL    HW237733   8.038   1.408   0.639
 8568SOL     OW37734   8.257   0.004   0.502
 8568SOL    HW137735   8.297   0.095   0.493
 8568SOL    HW237736   8.157   0.012   0.508
 8569SOL     OW37737   8.973   0.999   0.190
 8569SOL    HW137738   8.910   0.923   0.203
 8569SOL    HW237739   9.021   1.017   0.276
 8570SOL     OW37740   8.635   1.792   1.616
 8570SOL    HW137741   8.659   1.852   1.540
 8570SOL    HW237742   8.642   1.697   1.586
 8571SOL     OW37743   7.765   0.251   1.801
 8571SOL    HW137744   7.836   0.322   1.807
 8571SOL    HW237745   7.677   0.290   1.829
 8572SOL     OW37746   8.914   1.417   0.953
 8572SOL    HW137747   8.855   1.423   1.033
 8572SOL    HW237748   8.899   1.329   0.907
 8573SOL     OW37749   9.115   1.714   0.572
 8573SOL    HW137750   9.074   1.691   0.484
 8573SOL    HW237751   9.097   1.640   0.637
 8574SOL     OW37752   8.046   0.729   0.270
 8574SOL    HW137753   8.070   0.798   0.202
 8574SOL    HW237754   7.968   0.762   0.324
 8575SOL     OW37755   8.729   0.345   0.944
 8575SOL    HW137756   8.643   0.295   0.931
 8575SOL    HW237757   8.791   0.291   1.000
 8576SOL     OW37758   9.024   1.662   0.307
 8576SOL    HW137759   9.113   1.708   0.310
 8576SOL    HW237760   9.003   1.638   0.212
 8577SOL     OW37761   8.421   0.890   1.572
 8577SOL    HW137762   8.467   0.806   1.543
 8577SOL    HW237763   8.365   0.924   1.497
 8578SOL     OW37764   8.439   0.410   1.242
 8578SOL    HW137765   8.362   0.444   1.296
 8578SOL    HW237766   8.405   0.359   1.163
 8579SOL     OW37767   8.489   0.701   0.429
 8579SOL    HW137768   8.515   0.697   0.525
 8579SOL    HW237769   8.404   0.650   0.415
 8580SOL     OW37770   8.313   0.348   0.195
 8580SOL    HW137771   8.372   0.411   0.146
 8580SOL    HW237772   8.332   0.254   0.166
 8581SOL     OW37773   8.810   1.144   0.545
 8581SOL    HW137774   8.893   1.115   0.497
 8581SOL    HW237775   8.761   1.211   0.489
 8582SOL     OW37776   8.456   1.456   0.477
 8582SOL    HW137777   8.410   1.528   0.425
 8582SOL    HW237778   8.452   1.476   0.575
 8583SOL     OW37779   7.799   1.801   0.853
 8583SOL    HW137780   7.849   1.715   0.859
 8583SOL    HW237781   7.864   1.878   0.850
 8584SOL     OW37782   7.769   0.943   0.242
 8584SOL    HW137783   7.851   0.982   0.200
 8584SOL    HW237784   7.742   0.861   0.193
 8585SOL     OW37785   8.906   0.735   0.728
 8585SOL    HW137786   8.901   0.670   0.803
 8585SOL    HW237787   8.986   0.794   0.741
 8586SOL     OW37788   7.909   1.266   1.727
 8586SOL    HW137789   7.859   1.267   1.641
 8586SOL    HW237790   7.846   1.248   1.803
 8587SOL     OW37791   8.559   1.776   0.237
 8587SOL    HW137792   8.499   1.714   0.287
 8587SOL    HW237793   8.590   1.732   0.152
 8588SOL     OW37794   9.080   1.377   0.081
 8588SOL    HW137795   9.048   1.471   0.071
 8588SOL    HW237796   9.004   1.314   0.069
 8589SOL     OW37797   7.912   1.743   0.323
 8589SOL    HW137798   7.945   1.782   0.409
 8589SOL    HW237799   7.988   1.736   0.258
 8590SOL     OW37800   8.848   0.107   0.426
 8590SOL    HW137801   8.824   0.070   0.336
 8590SOL    HW237802   8.947   0.123   0.430
 8591SOL     OW37803   7.830   0.700   0.480
 8591SOL    HW137804   7.875   0.610   0.477
 8591SOL    HW237805   7.736   0.689   0.513
 8592SOL     OW37806   8.062   0.122   0.117
 8592SOL    HW137807   8.160   0.100   0.124
 8592SOL    HW237808   8.031   0.105   0.024
 8593SOL     OW37809   8.251   1.402   0.924
 8593SOL    HW137810   8.341   1.416   0.882
 8593SOL    HW237811   8.180   1.404   0.853
 8594SOL     OW37812   7.987   0.064   0.512
 8594SOL    HW137813   7.906   0.065   0.570
 8594SOL    HW237814   7.990   0.147   0.457
 8595SOL     OW37815   8.882   1.188   0.041
 8595SOL    HW137816   8.914   1.112   0.098
 8595SOL    HW237817   8.790   1.215   0.071
 8596SOL     OW37818   7.745   0.035   0.171
 8596SOL    HW137819   7.794   0.119   0.150
 8596SOL    HW237820   7.807  -0.030   0.216
 8597SOL     OW37821   8.383   0.236   0.480
 8597SOL    HW137822   8.335   0.277   0.402
 8597SOL    HW237823   8.482   0.234   0.461
 8598SOL     OW37824   8.524   0.683   1.464
 8598SOL    HW137825   8.444   0.622   1.467
 8598SOL    HW237826   8.605   0.630   1.440
 8599SOL     OW37827   8.675   1.570   0.793
 8599SOL    HW137828   8.696   1.644   0.728
 8599SOL    HW237829   8.743   1.570   0.866
 8600SOL     OW37830   7.907   1.152   0.741
 8600SOL    HW137831   7.836   1.125   0.806
 8600SOL    HW237832   7.881   1.124   0.648
 8601SOL     OW37833   8.719   1.797   0.591
 8601SOL    HW137834   8.763   1.861   0.527
 8601SOL    HW237835   8.669   1.849   0.661
 8602SOL     OW37836   8.480   0.549   0.016
 8602SOL    HW137837   8.439   0.631  -0.023
 8602SOL    HW237838   8.544   0.575   0.089
 8603SOL     OW37839   8.465   0.039   0.753
 8603SOL    HW137840   8.393   0.044   0.684
 8603SOL    HW237841   8.441  -0.030   0.822
 8604SOL     OW37842   9.305   0.833   0.377
 8604SOL    HW137843   9.347   0.769   0.441
 8604SOL    HW237844   9.267   0.782   0.299
 8605SOL     OW37845   7.936   1.385   0.174
 8605SOL    HW137846   7.849   1.370   0.221
 8605SOL    HW237847   7.919   1.411   0.079
 8606SOL     OW37848   8.838   0.575   0.078
 8606SOL    HW137849   8.784   0.554   0.159
 8606SOL    HW237850   8.929   0.534   0.087
 8607SOL     OW37851   7.975   0.256   0.328
 8607SOL    HW137852   8.002   0.197   0.253
 8607SOL    HW237853   7.975   0.351   0.297
 8608SOL     OW37854   8.153   1.050   0.368
 8608SOL    HW137855   8.139   1.057   0.467
 8608SOL    HW237856   8.237   0.999   0.350
 8609SOL     OW37857   8.722   0.386   1.262
 8609SOL    HW137858   8.743   0.460   1.326
 8609SOL    HW237859   8.633   0.403   1.219
 8610SOL     OW37860   7.512   1.564   1.331
 8610SOL    HW137861   7.466   1.646   1.297
 8610SOL    HW237862   7.610   1.583   1.340
 8611SOL     OW37863   7.815   1.100   0.501
 8611SOL    HW137864   7.808   1.183   0.445
 8611SOL    HW237865   7.819   1.020   0.441
 8612SOL     OW37866   8.014   0.537   0.865
 8612SOL    HW137867   8.026   0.603   0.791
 8612SOL    HW237868   8.060   0.571   0.948
 8613SOL     OW37869   8.700   1.348   0.388
 8613SOL    HW137870   8.750   1.425   0.428
 8613SOL    HW237871   8.605   1.350   0.420
 8614SOL     OW37872   9.030   0.639   0.472
 8614SOL    HW137873   8.999   0.700   0.545
 8614SOL    HW237874   9.080   0.691   0.403
 8615SOL     OW37875   7.802   1.510   1.329
 8615SOL    HW137876   7.781   1.466   1.242
 8615SOL    HW237877   7.899   1.536   1.332
 8616SOL     OW37878   9.035   0.779   1.670
 8616SOL    HW137879   8.943   0.817   1.665
 8616SOL    HW237880   9.095   0.826   1.605
 8617SOL     OW37881   7.952   0.050   1.740
 8617SOL    HW137882   7.910  -0.007   1.670
 8617SOL    HW237883   7.886   0.119   1.772
 8618SOL     OW37884   8.021   0.870   1.029
 8618SOL    HW137885   8.065   0.959   1.020
 8618SOL    HW237886   7.958   0.870   1.106
 8619SOL     OW37887   8.657   0.525   0.275
 8619SOL    HW137888   8.670   0.441   0.329
 8619SOL    HW237889   8.628   0.599   0.335
 8620SOL     OW37890   7.485   1.310   1.282
 8620SOL    HW137891   7.538   1.261   1.350
 8620SOL    HW237892   7.507   1.408   1.287
 8621SOL     OW37893   7.755   0.063   0.618
 8621SOL    HW137894   7.744   0.157   0.651
 8621SOL    HW237895   7.750   0.000   0.695
 8622SOL     OW37896   9.070   0.367   0.374
 8622SOL    HW137897   9.072   0.291   0.438
 8622SOL    HW237898   9.022   0.444   0.414
 8623SOL     OW37899   8.471   0.766   0.966
 8623SOL    HW137900   8.486   0.787   1.062
 8623SOL    HW237901   8.441   0.671   0.957
 8624SOL     OW37902   7.798   0.898   1.804
 8624SOL    HW137903   7.874   0.942   1.852
 8624SOL    HW237904   7.833   0.851   1.722
 8625SOL     OW37905   8.988   0.274   0.125
 8625SOL    HW137906   8.927   0.199   0.148
 8625SOL    HW237907   9.010   0.326   0.208
 8626SOL     OW37908   8.751   0.838   0.042
 8626SOL    HW137909   8.785   0.745   0.057
 8626SOL    HW237910   8.769   0.865  -0.053
 8627SOL     OW37911   8.516   1.333   0.849
 8627SOL    HW137912   8.523   1.249   0.794
 8627SOL    HW237913   8.578   1.402   0.813
 8628SOL     OW37914   7.767   0.810   0.949
 8628SOL    HW137915   7.860   0.846   0.954
 8628SOL    HW237916   7.761   0.725   1.001
 8629SOL     OW37917   7.787   0.509   1.006
 8629SOL    HW137918   7.735   0.426   0.989
 8629SOL    HW237919   7.864   0.514   0.942
 8630SOL     OW37920   7.536   1.801   0.927
 8630SOL    HW137921   7.494   1.715   0.900
 8630SOL    HW237922   7.630   1.804   0.893
 8631SOL     OW37923   7.952   1.568   0.910
 8631SOL    HW137924   8.018   1.642   0.919
 8631SOL    HW237925   7.996   1.489   0.868
 8632SOL     OW37926   7.488   0.544   1.114
 8632SOL    HW137927   7.573   0.511   1.073
 8632SOL    HW237928   7.501   0.559   1.212
 8633SOL     OW37929   8.263   0.572   0.325
 8633SOL    HW137930   8.270   0.483   0.279
 8633SOL    HW237931   8.169   0.606   0.317
 8634SOL     OW37932   7.700   1.564   1.744
 8634SOL    HW137933   7.670   1.621   1.820
 8634SOL    HW237934   7.693   1.467   1.770
 8635SOL     OW37935   8.378   1.678   1.465
 8635SOL    HW137936   8.354   1.660   1.370
 8635SOL    HW237937   8.408   1.772   1.475
 8636SOL     OW37938   7.921   0.500   0.191
 8636SOL    HW137939   7.982   0.580   0.195
 8636SOL    HW237940   7.826   0.531   0.198
 8637SOL     OW37941   8.750   0.855   0.309
 8637SOL    HW137942   8.664   0.824   0.351
 8637SOL    HW237943   8.746   0.841   0.210
 8638SOL     OW37944   7.531   1.258   1.022
 8638SOL    HW137945   7.526   1.257   1.122
 8638SOL    HW237946   7.448   1.217   0.984
 8639SOL     OW37947   8.136   1.662   1.716
 8639SOL    HW137948   8.080   1.743   1.725
 8639SOL    HW237949   8.188   1.666   1.630
 8640SOL     OW37950   8.351   0.086   0.133
 8640SOL    HW137951   8.402   0.087   0.047
 8640SOL    HW237952   8.407   0.044   0.204
 8641SOL     OW37953   9.174   0.135   0.523
 8641SOL    HW137954   9.247   0.118   0.456
 8641SOL    HW237955   9.143   0.048   0.561
 8642SOL     OW37956   8.836   1.573   0.477
 8642SOL    HW137957   8.903   1.585   0.403
 8642SOL    HW237958   8.796   1.662   0.500
 8643SOL     OW37959   8.728   0.927   0.672
 8643SOL    HW137960   8.788   0.846   0.674
 8643SOL    HW237961   8.768   0.996   0.612
 8644SOL     OW37962   8.120   1.616   0.154
 8644SOL    HW137963   8.129   1.626   0.055
 8644SOL    HW237964   8.080   1.527   0.175
 8645SOL     OW37965   9.098   1.720   1.394
 8645SOL    HW137966   9.151   1.730   1.310
 8645SOL    HW237967   9.071   1.810   1.428
 8646SOL     OW37968   9.289   0.175   0.963
 8646SOL    HW137969   9.328   0.090   0.927
 8646SOL    HW237970   9.191   0.177   0.944
 8647SOL     OW37971   7.711   0.326   0.720
 8647SOL    HW137972   7.632   0.377   0.686
 8647SOL    HW237973   7.702   0.311   0.818
 8648SOL     OW37974   8.642   1.612   0.031
 8648SOL    HW137975   8.648   1.519   0.068
 8648SOL    HW237976   8.583   1.612  -0.049
 8649SOL     OW37977   8.270   1.002   1.372
 8649SOL    HW137978   8.310   1.001   1.280
 8649SOL    HW237979   8.280   1.094   1.412
 8650SOL     OW37980   8.364   0.910   0.291
 8650SOL    HW137981   8.427   0.948   0.223
 8650SOL    HW237982   8.404   0.827   0.330
 8651SOL     OW37983   8.952   1.607   0.044
 8651SOL    HW137984   8.860   1.644   0.051
 8651SOL    HW237985   8.990   1.627  -0.046
 8652SOL     OW37986   9.062   1.292   1.289
 8652SOL    HW137987   9.122   1.295   1.369
 8652SOL    HW237988   8.987   1.356   1.302
 8653SOL     OW37989   8.487   1.098   0.696
 8653SOL    HW137990   8.417   1.051   0.750
 8653SOL    HW237991   8.546   1.030   0.653
 8654SOL     OW37992   8.462   0.236   0.971
 8654SOL    HW137993   8.454   0.200   0.878
 8654SOL    HW237994   8.460   0.160   1.036
 8655SOL     OW37995   8.038   1.487   0.491
 8655SOL    HW137996   8.080   1.429   0.421
 8655SOL    HW237997   7.994   1.566   0.447
 8656SOL     OW37998   7.703   1.348   0.290
 8656SOL    HW137999   7.607   1.349   0.263
 8656SOL    HW238000   7.715   1.401   0.374
 8657SOL     OW38001   8.631   1.335   0.119
 8657SOL    HW138002   8.532   1.324   0.121
 8657SOL    HW238003   8.665   1.350   0.212
 8658SOL     OW38004   8.941   1.767   0.959
 8658SOL    HW138005   8.974   1.831   0.890
 8658SOL    HW238006   9.007   1.761   1.034
 8659SOL     OW38007   8.164   0.565   1.708
 8659SOL    HW138008   8.183   0.630   1.782
 8659SOL    HW238009   8.224   0.485   1.717
 8660SOL     OW38010   9.122   0.883   1.254
 8660SOL    HW138011   9.095   0.794   1.217
 8660SOL    HW238012   9.123   0.951   1.181
 8661SOL     OW38013   8.673   0.325   0.449
 8661SOL    HW138014   8.738   0.251   0.438
 8661SOL    HW238015   8.693   0.375   0.533
 8662SOL     OW38016   8.042   0.745   0.652
 8662SOL    HW138017   8.092   0.830   0.633
 8662SOL    HW238018   7.954   0.747   0.604
 8663SOL     OW38019   8.307   1.374   0.016
 8663SOL    HW138020   8.261   1.389   0.104
 8663SOL    HW238021   8.351   1.459  -0.014
 8664SOL     OW38022   8.109   1.790   0.953
 8664SOL    HW138023   8.063   1.878   0.940
 8664SOL    HW238024   8.208   1.802   0.946
 8665SOL     OW38025   8.307   0.956   0.861
 8665SOL    HW138026   8.361   0.887   0.909
 8665SOL    HW238027   8.275   1.025   0.927
 8666SOL     OW38028   8.531   0.984   0.087
 8666SOL    HW138029   8.508   1.037   0.005
 8666SOL    HW238030   8.612   0.928   0.068
 8667SOL     OW38031   9.309   1.569   0.851
 8667SOL    HW138032   9.238   1.557   0.781
 8667SOL    HW238033   9.310   1.490   0.911
 8668SOL     OW38034   7.527   1.240   0.653
 8668SOL    HW138035   7.526   1.193   0.741
 8668SOL    HW238036   7.609   1.212   0.602
 8669SOL     OW38037   9.272   0.192   1.227
 8669SOL    HW138038   9.268   0.102   1.271
 8669SOL    HW238039   9.275   0.181   1.128
 8670SOL     OW38040   7.876   0.424   0.520
 8670SOL    HW138041   7.906   0.352   0.458
 8670SOL    HW238042   7.837   0.384   0.603
 8671SOL     OW38043   9.153   1.487   1.104
 8671SOL    HW138044   9.060   1.462   1.077
 8671SOL    HW238045   9.179   1.437   1.186
 8672SOL     OW38046   7.765   0.547   1.280
 8672SOL    HW138047   7.803   0.488   1.352
 8672SOL    HW238048   7.805   0.521   1.192
 8673SOL     OW38049   8.260   1.586   0.687
 8673SOL    HW138050   8.292   1.596   0.593
 8673SOL    HW238051   8.181   1.524   0.689
 8674SOL     OW38052   8.449   0.034   1.154
 8674SOL    HW138053   8.386  -0.038   1.123
 8674SOL    HW238054   8.542  -0.002   1.154
 8675SOL     OW38055   8.218   1.330   0.301
 8675SOL    HW138056   8.172   1.243   0.318
 8675SOL    HW238057   8.309   1.327   0.342
 8676SOL     OW38058   8.800   0.052   0.168
 8676SOL    HW138059   8.835   0.011   0.084
 8676SOL    HW238060   8.710   0.014   0.188
 8677SOL     OW38061   9.041   0.221   0.882
 8677SOL    HW138062   8.957   0.220   0.936
 8677SOL    HW238063   9.043   0.304   0.826
 8678SOL     OW38064   7.487   1.077   0.300
 8678SOL    HW138065   7.586   1.066   0.291
 8678SOL    HW238066   7.447   0.991   0.332
 8679SOL     OW38067   8.323   1.646   0.337
 8679SOL    HW138068   8.246   1.611   0.283
 8679SOL    HW238069   8.291   1.717   0.399
 8680SOL     OW38070   7.467   0.368   2.509
 8680SOL    HW138071   7.385   0.411   2.548
 8680SOL    HW238072   7.439   0.295   2.446
 8681SOL     OW38073   8.298   0.798   3.685
 8681SOL    HW138074   8.294   0.874   3.750
 8681SOL    HW238075   8.320   0.834   3.594
 8682SOL     OW38076   8.134   1.161   3.665
 8682SOL    HW138077   8.194   1.240   3.679
 8682SOL    HW238078   8.048   1.192   3.624
 8683SOL     OW38079   7.886   0.392   3.361
 8683SOL    HW138080   7.968   0.336   3.370
 8683SOL    HW238081   7.805   0.334   3.365
 8684SOL     OW38082   8.575   1.341   3.552
 8684SOL    HW138083   8.622   1.341   3.640
 8684SOL    HW238084   8.527   1.254   3.541
 8685SOL     OW38085   7.678   1.434   2.400
 8685SOL    HW138086   7.652   1.530   2.400
 8685SOL    HW238087   7.607   1.380   2.445
 8686SOL     OW38088   7.688   1.091   2.748
 8686SOL    HW138089   7.702   1.007   2.800
 8686SOL    HW238090   7.633   1.155   2.803
 8687SOL     OW38091   8.068   1.786   3.301
 8687SOL    HW138092   7.976   1.769   3.336
 8687SOL    HW238093   8.096   1.878   3.327
 8688SOL     OW38094   7.475   1.596   1.979
 8688SOL    HW138095   7.456   1.500   2.000
 8688SOL    HW238096   7.442   1.654   2.054
 8689SOL     OW38097   7.561   0.737   3.459
 8689SOL    HW138098   7.649   0.724   3.504
 8689SOL    HW238099   7.548   0.834   3.437
 8690SOL     OW38100   8.741   1.228   3.285
 8690SOL    HW138101   8.778   1.155   3.227
 8690SOL    HW238102   8.793   1.233   3.370
 8691SOL     OW38103   8.257   0.004   2.364
 8691SOL    HW138104   8.297   0.095   2.355
 8691SOL    HW238105   8.157   0.012   2.370
 8692SOL     OW38106   8.635   1.792   3.478
 8692SOL    HW138107   8.659   1.852   3.402
 8692SOL    HW238108   8.642   1.697   3.448
 8693SOL     OW38109   7.765   0.251   3.663
 8693SOL    HW138110   7.836   0.322   3.669
 8693SOL    HW238111   7.677   0.290   3.691
 8694SOL     OW38112   8.046   0.729   2.132
 8694SOL    HW138113   8.070   0.798   2.064
 8694SOL    HW238114   7.968   0.762   2.186
 8695SOL     OW38115   8.255   0.605   3.327
 8695SOL    HW138116   8.208   0.602   3.416
 8695SOL    HW238117   8.204   0.550   3.261
 8696SOL     OW38118   8.842   0.469   3.536
 8696SOL    HW138119   8.822   0.512   3.624
 8696SOL    HW238120   8.920   0.407   3.545
 8697SOL     OW38121   8.439   0.410   3.104
 8697SOL    HW138122   8.362   0.444   3.158
 8697SOL    HW238123   8.405   0.359   3.025
 8698SOL     OW38124   9.167   0.585   3.693
 8698SOL    HW138125   9.141   0.674   3.657
 8698SOL    HW238126   9.165   0.517   3.620
 8699SOL     OW38127   9.243   1.066   2.735
 8699SOL    HW138128   9.181   1.051   2.659
 8699SOL    HW238129   9.191   1.077   2.820
 8700SOL     OW38130   8.675   1.550   3.368
 8700SOL    HW138131   8.681   1.473   3.432
 8700SOL    HW238132   8.623   1.524   3.288
 8701SOL     OW38133   7.909   1.266   3.589
 8701SOL    HW138134   7.859   1.267   3.503
 8701SOL    HW238135   7.846   1.248   3.665
 8702SOL     OW38136   8.559   1.776   2.099
 8702SOL    HW138137   8.499   1.714   2.149
 8702SOL    HW238138   8.590   1.732   2.014
 8703SOL     OW38139   7.650   0.285   3.360
 8703SOL    HW138140   7.570   0.345   3.347
 8703SOL    HW238141   7.640   0.236   3.446
 8704SOL     OW38142   7.912   1.743   2.185
 8704SOL    HW138143   7.945   1.782   2.271
 8704SOL    HW238144   7.988   1.736   2.120
 8705SOL     OW38145   7.987   0.064   2.374
 8705SOL    HW138146   7.906   0.065   2.432
 8705SOL    HW238147   7.990   0.147   2.319
 8706SOL     OW38148   8.524   0.683   3.326
 8706SOL    HW138149   8.444   0.622   3.329
 8706SOL    HW238150   8.605   0.630   3.302
 8707SOL     OW38151   8.675   1.570   2.655
 8707SOL    HW138152   8.696   1.644   2.590
 8707SOL    HW238153   8.743   1.570   2.728
 8708SOL     OW38154   7.526   0.556   3.248
 8708SOL    HW138155   7.618   0.555   3.207
 8708SOL    HW238156   7.520   0.630   3.315
 8709SOL     OW38157   9.202   1.223   3.450
 8709SOL    HW138158   9.293   1.184   3.437
 8709SOL    HW238159   9.210   1.319   3.474
 8710SOL     OW38160   7.858   0.813   3.113
 8710SOL    HW138161   7.944   0.825   3.163
 8710SOL    HW238162   7.816   0.726   3.140
 8711SOL     OW38163   7.512   1.564   3.193
 8711SOL    HW138164   7.466   1.646   3.159
 8711SOL    HW238165   7.610   1.583   3.202
 8712SOL     OW38166   8.720   1.445   3.004
 8712SOL    HW138167   8.767   1.458   3.091
 8712SOL    HW238168   8.654   1.371   3.013
 8713SOL     OW38169   7.802   1.510   3.191
 8713SOL    HW138170   7.781   1.466   3.104
 8713SOL    HW238171   7.899   1.536   3.194
 8714SOL     OW38172   7.850   0.751   3.460
 8714SOL    HW138173   7.918   0.806   3.413
 8714SOL    HW238174   7.890   0.663   3.487
 8715SOL     OW38175   9.035   0.779   3.532
 8715SOL    HW138176   8.943   0.817   3.527
 8715SOL    HW238177   9.095   0.826   3.467
 8716SOL     OW38178   9.176   0.935   3.716
 8716SOL    HW138179   9.130   0.928   3.627
 8716SOL    HW238180   9.114   0.979   3.782
 8717SOL     OW38181   8.516   1.333   2.711
 8717SOL    HW138182   8.523   1.249   2.656
 8717SOL    HW238183   8.578   1.402   2.675
 8718SOL     OW38184   7.767   0.810   2.811
 8718SOL    HW138185   7.860   0.846   2.816
 8718SOL    HW238186   7.761   0.725   2.863
 8719SOL     OW38187   7.787   0.509   2.868
 8719SOL    HW138188   7.735   0.426   2.851
 8719SOL    HW238189   7.864   0.514   2.804
 8720SOL     OW38190   8.586   0.380   3.540
 8720SOL    HW138191   8.541   0.443   3.604
 8720SOL    HW238192   8.679   0.411   3.523
 8721SOL     OW38193   8.608   0.207   3.339
 8721SOL    HW138194   8.608   0.271   3.416
 8721SOL    HW238195   8.636   0.255   3.256
 8722SOL     OW38196   7.456   1.326   2.062
 8722SOL    HW138197   7.363   1.347   2.031
 8722SOL    HW238198   7.466   1.227   2.075
 8723SOL     OW38199   7.952   1.568   2.772
 8723SOL    HW138200   8.018   1.642   2.781
 8723SOL    HW238201   7.996   1.489   2.730
 8724SOL     OW38202   8.450   0.796   3.100
 8724SOL    HW138203   8.491   0.764   3.186
 8724SOL    HW238204   8.354   0.769   3.097
 8725SOL     OW38205   7.488   0.544   2.976
 8725SOL    HW138206   7.573   0.511   2.935
 8725SOL    HW238207   7.501   0.559   3.074
 8726SOL     OW38208   8.817   0.950   3.522
 8726SOL    HW138209   8.856   1.039   3.542
 8726SOL    HW238210   8.827   0.930   3.425
 8727SOL     OW38211   7.700   1.564   3.606
 8727SOL    HW138212   7.670   1.621   3.682
 8727SOL    HW238213   7.693   1.467   3.632
 8728SOL     OW38214   8.119   0.464   3.131
 8728SOL    HW138215   8.085   0.375   3.101
 8728SOL    HW238216   8.145   0.518   3.051
 8729SOL     OW38217   7.921   0.500   2.053
 8729SOL    HW138218   7.982   0.580   2.057
 8729SOL    HW238219   7.826   0.531   2.060
 8730SOL     OW38220   8.136   1.662   3.578
 8730SOL    HW138221   8.080   1.743   3.587
 8730SOL    HW238222   8.188   1.666   3.492
 8731SOL     OW38223   7.578   1.794   3.713
 8731SOL    HW138224   7.537   1.720   3.766
 8731SOL    HW238225   7.642   1.845   3.771
 8732SOL     OW38226   8.120   1.616   2.016
 8732SOL    HW138227   8.129   1.626   1.917
 8732SOL    HW238228   8.080   1.527   2.037
 8733SOL     OW38229   7.820   1.288   3.352
 8733SOL    HW138230   7.807   1.381   3.318
 8733SOL    HW238231   7.736   1.236   3.339
 8734SOL     OW38232   9.062   1.292   3.151
 8734SOL    HW138233   9.122   1.295   3.231
 8734SOL    HW238234   8.987   1.356   3.164
 8735SOL     OW38235   8.462   0.236   2.833
 8735SOL    HW138236   8.454   0.200   2.740
 8735SOL    HW238237   8.460   0.160   2.898
 8736SOL     OW38238   8.631   1.335   1.981
 8736SOL    HW138239   8.532   1.324   1.983
 8736SOL    HW238240   8.665   1.350   2.074
 8737SOL     OW38241   8.941   1.767   2.821
 8737SOL    HW138242   8.974   1.831   2.752
 8737SOL    HW238243   9.007   1.761   2.896
 8738SOL     OW38244   9.225   0.342   3.504
 8738SOL    HW138245   9.208   0.373   3.410
 8738SOL    HW238246   9.141   0.305   3.542
 8739SOL     OW38247   8.307   1.374   1.878
 8739SOL    HW138248   8.261   1.389   1.966
 8739SOL    HW238249   8.351   1.459   1.848
 8740SOL     OW38250   9.309   1.569   2.713
 8740SOL    HW138251   9.238   1.557   2.643
 8740SOL    HW238252   9.310   1.490   2.773
 8741SOL     OW38253   7.669   1.314   3.706
 8741SOL    HW138254   7.604   1.241   3.685
 8741SOL    HW238255   7.673   1.328   3.804
 8742SOL     OW38256   8.120   1.391   3.486
 8742SOL    HW138257   8.042   1.341   3.524
 8742SOL    HW238258   8.117   1.486   3.517
 8743SOL     OW38259   8.066   1.567   3.146
 8743SOL    HW138260   8.061   1.649   3.203
 8743SOL    HW238261   8.155   1.564   3.101
 8744SOL     OW38262   9.041   0.221   2.744
 8744SOL    HW138263   8.957   0.220   2.798
 8744SOL    HW238264   9.043   0.304   2.688
 8745SOL     OW38265   7.467   0.368   4.371
 8745SOL    HW138266   7.385   0.411   4.410
 8745SOL    HW238267   7.439   0.295   4.308
 8746SOL     OW38268   8.216   1.144   4.747
 8746SOL    HW138269   8.138   1.161   4.807
 8746SOL    HW238270   8.250   1.231   4.711
 8747SOL     OW38271   8.298   0.798   5.547
 8747SOL    HW138272   8.294   0.874   5.612
 8747SOL    HW238273   8.320   0.834   5.456
 8748SOL     OW38274   8.133   1.012   4.389
 8748SOL    HW138275   8.202   0.996   4.459
 8748SOL    HW238276   8.060   1.069   4.427
 8749SOL     OW38277   8.134   1.161   5.527
 8749SOL    HW138278   8.194   1.240   5.541
 8749SOL    HW238279   8.048   1.192   5.486
 8750SOL     OW38280   7.679   1.713   4.207
 8750SOL    HW138281   7.713   1.790   4.261
 8750SOL    HW238282   7.723   1.713   4.117
 8751SOL     OW38283   7.688   1.091   4.610
 8751SOL    HW138284   7.702   1.007   4.662
 8751SOL    HW238285   7.633   1.155   4.665
 8752SOL     OW38286   8.061   1.365   4.450
 8752SOL    HW138287   8.012   1.278   4.459
 8752SOL    HW238288   8.038   1.408   4.363
 8753SOL     OW38289   8.741   1.228   5.147
 8753SOL    HW138290   8.778   1.155   5.089
 8753SOL    HW238291   8.793   1.233   5.232
 8754SOL     OW38292   8.973   0.999   3.914
 8754SOL    HW138293   8.910   0.923   3.927
 8754SOL    HW238294   9.021   1.017   4.000
 8755SOL     OW38295   8.635   1.792   5.340
 8755SOL    HW138296   8.659   1.852   5.264
 8755SOL    HW238297   8.642   1.697   5.310
 8756SOL     OW38298   7.765   0.251   5.525
 8756SOL    HW138299   7.836   0.322   5.531
 8756SOL    HW238300   7.677   0.290   5.553
 8757SOL     OW38301   8.914   1.417   4.677
 8757SOL    HW138302   8.855   1.423   4.757
 8757SOL    HW238303   8.899   1.329   4.631
 8758SOL     OW38304   8.255   0.605   5.189
 8758SOL    HW138305   8.208   0.602   5.278
 8758SOL    HW238306   8.204   0.550   5.123
 8759SOL     OW38307   8.421   0.890   5.296
 8759SOL    HW138308   8.467   0.806   5.267
 8759SOL    HW238309   8.365   0.924   5.221
 8760SOL     OW38310   8.489   0.701   4.153
 8760SOL    HW138311   8.515   0.697   4.249
 8760SOL    HW238312   8.404   0.650   4.139
 8761SOL     OW38313   7.524   0.811   4.513
 8761SOL    HW138314   7.623   0.799   4.522
 8761SOL    HW238315   7.500   0.906   4.534
 8762SOL     OW38316   8.313   0.348   3.919
 8762SOL    HW138317   8.372   0.411   3.870
 8762SOL    HW238318   8.332   0.254   3.890
 8763SOL     OW38319   7.799   1.801   4.577
 8763SOL    HW138320   7.849   1.715   4.583
 8763SOL    HW238321   7.864   1.878   4.574
 8764SOL     OW38322   7.909   1.266   5.451
 8764SOL    HW138323   7.859   1.267   5.365
 8764SOL    HW238324   7.846   1.248   5.527
 8765SOL     OW38325   7.650   0.285   5.222
 8765SOL    HW138326   7.570   0.345   5.209
 8765SOL    HW238327   7.640   0.236   5.308
 8766SOL     OW38328   7.912   1.743   4.047
 8766SOL    HW138329   7.945   1.782   4.133
 8766SOL    HW238330   7.988   1.736   3.982
 8767SOL     OW38331   8.848   0.107   4.150
 8767SOL    HW138332   8.824   0.070   4.060
 8767SOL    HW238333   8.947   0.123   4.154
 8768SOL     OW38334   8.388   1.698   4.628
 8768SOL    HW138335   8.468   1.641   4.649
 8768SOL    HW238336   8.339   1.658   4.551
 8769SOL     OW38337   7.830   0.700   4.204
 8769SOL    HW138338   7.875   0.610   4.201
 8769SOL    HW238339   7.736   0.689   4.237
 8770SOL     OW38340   8.675   1.570   4.517
 8770SOL    HW138341   8.696   1.644   4.452
 8770SOL    HW238342   8.743   1.570   4.590
 8771SOL     OW38343   7.907   1.152   4.465
 8771SOL    HW138344   7.836   1.125   4.530
 8771SOL    HW238345   7.881   1.124   4.372
 8772SOL     OW38346   7.526   0.556   5.110
 8772SOL    HW138347   7.618   0.555   5.069
 8772SOL    HW238348   7.520   0.630   5.177
 8773SOL     OW38349   8.838   0.575   3.802
 8773SOL    HW138350   8.784   0.554   3.883
 8773SOL    HW238351   8.929   0.534   3.811
 8774SOL     OW38352   7.975   0.256   4.052
 8774SOL    HW138353   8.002   0.197   3.977
 8774SOL    HW238354   7.975   0.351   4.021
 8775SOL     OW38355   9.202   1.223   5.312
 8775SOL    HW138356   9.293   1.184   5.299
 8775SOL    HW238357   9.210   1.319   5.336
 8776SOL     OW38358   8.512   1.347   5.064
 8776SOL    HW138359   8.432   1.324   5.119
 8776SOL    HW238360   8.595   1.321   5.113
 8777SOL     OW38361   8.559   1.195   4.824
 8777SOL    HW138362   8.519   1.239   4.905
 8777SOL    HW238363   8.518   1.232   4.741
 8778SOL     OW38364   8.428   1.116   5.443
 8778SOL    HW138365   8.329   1.122   5.453
 8778SOL    HW238366   8.451   1.036   5.387
 8779SOL     OW38367   8.153   1.050   4.092
 8779SOL    HW138368   8.139   1.057   4.191
 8779SOL    HW238369   8.237   0.999   4.074
 8780SOL     OW38370   7.858   0.813   4.975
 8780SOL    HW138371   7.944   0.825   5.025
 8780SOL    HW238372   7.816   0.726   5.002
 8781SOL     OW38373   7.512   1.564   5.055
 8781SOL    HW138374   7.466   1.646   5.021
 8781SOL    HW238375   7.610   1.583   5.064
 8782SOL     OW38376   7.815   1.100   4.225
 8782SOL    HW138377   7.808   1.183   4.169
 8782SOL    HW238378   7.819   1.020   4.165
 8783SOL     OW38379   8.720   1.445   4.866
 8783SOL    HW138380   8.767   1.458   4.953
 8783SOL    HW238381   8.654   1.371   4.875
 8784SOL     OW38382   8.461   0.105   5.494
 8784SOL    HW138383   8.467   0.190   5.442
 8784SOL    HW238384   8.493   0.029   5.437
 8785SOL     OW38385   7.952   0.050   5.464
 8785SOL    HW138386   7.910  -0.007   5.394
 8785SOL    HW238387   7.886   0.119   5.496
 8786SOL     OW38388   9.176   0.935   5.578
 8786SOL    HW138389   9.130   0.928   5.489
 8786SOL    HW238390   9.114   0.979   5.644
 8787SOL     OW38391   8.751   0.838   3.766
 8787SOL    HW138392   8.785   0.745   3.781
 8787SOL    HW238393   8.769   0.865   3.671
 8788SOL     OW38394   7.787   0.509   4.730
 8788SOL    HW138395   7.735   0.426   4.713
 8788SOL    HW238396   7.864   0.514   4.666
 8789SOL     OW38397   8.817   0.950   5.384
 8789SOL    HW138398   8.856   1.039   5.404
 8789SOL    HW238399   8.827   0.930   5.287
 8790SOL     OW38400   7.700   1.564   5.468
 8790SOL    HW138401   7.670   1.621   5.544
 8790SOL    HW238402   7.693   1.467   5.494
 8791SOL     OW38403   7.921   0.500   3.915
 8791SOL    HW138404   7.982   0.580   3.919
 8791SOL    HW238405   7.826   0.531   3.922
 8792SOL     OW38406   8.750   0.855   4.033
 8792SOL    HW138407   8.664   0.824   4.075
 8792SOL    HW238408   8.746   0.841   3.934
 8793SOL     OW38409   8.728   0.927   4.396
 8793SOL    HW138410   8.788   0.846   4.398
 8793SOL    HW238411   8.768   0.996   4.336
 8794SOL     OW38412   8.270   1.002   5.096
 8794SOL    HW138413   8.310   1.001   5.004
 8794SOL    HW238414   8.280   1.094   5.136
 8795SOL     OW38415   8.487   1.098   4.420
 8795SOL    HW138416   8.417   1.051   4.474
 8795SOL    HW238417   8.546   1.030   4.377
 8796SOL     OW38418   8.038   1.487   4.215
 8796SOL    HW138419   8.080   1.429   4.145
 8796SOL    HW238420   7.994   1.566   4.171
 8797SOL     OW38421   7.703   1.348   4.014
 8797SOL    HW138422   7.607   1.349   3.987
 8797SOL    HW238423   7.715   1.401   4.098
 8798SOL     OW38424   7.553   1.013   5.450
 8798SOL    HW138425   7.476   0.980   5.504
 8798SOL    HW238426   7.638   0.983   5.492
 8799SOL     OW38427   8.631   1.335   3.843
 8799SOL    HW138428   8.532   1.324   3.845
 8799SOL    HW238429   8.665   1.350   3.936
 8800SOL     OW38430   8.061   0.842   5.155
 8800SOL    HW138431   8.117   0.923   5.138
 8800SOL    HW238432   8.120   0.762   5.158
 8801SOL     OW38433   8.673   0.325   4.173
 8801SOL    HW138434   8.738   0.251   4.162
 8801SOL    HW238435   8.693   0.375   4.257
 8802SOL     OW38436   8.307   1.374   3.740
 8802SOL    HW138437   8.261   1.389   3.828
 8802SOL    HW238438   8.351   1.459   3.710
 8803SOL     OW38439   8.109   1.790   4.677
 8803SOL    HW138440   8.063   1.878   4.664
 8803SOL    HW238441   8.208   1.802   4.670
 8804SOL     OW38442   7.669   1.314   5.568
 8804SOL    HW138443   7.604   1.241   5.547
 8804SOL    HW238444   7.673   1.328   5.666
 8805SOL     OW38445   7.876   0.424   4.244
 8805SOL    HW138446   7.906   0.352   4.182
 8805SOL    HW238447   7.837   0.384   4.327
 8806SOL     OW38448   7.765   0.547   5.004
 8806SOL    HW138449   7.803   0.488   5.076
 8806SOL    HW238450   7.805   0.521   4.916
 8807SOL     OW38451   8.218   1.330   4.025
 8807SOL    HW138452   8.172   1.243   4.042
 8807SOL    HW238453   8.309   1.327   4.066
 8808SOL     OW38454   8.800   0.052   3.892
 8808SOL    HW138455   8.835   0.011   3.808
 8808SOL    HW238456   8.710   0.014   3.912
 8809SOL     OW38457   7.487   1.077   4.024
 8809SOL    HW138458   7.586   1.066   4.015
 8809SOL    HW238459   7.447   0.991   4.056
 8810SOL     OW38460   7.673   0.275   6.582
 8810SOL    HW138461   7.708   0.258   6.674
 8810SOL    HW238462   7.585   0.230   6.570
 8811SOL     OW38463   7.467   0.368   6.233
 8811SOL    HW138464   7.385   0.411   6.272
 8811SOL    HW238465   7.439   0.295   6.170
 8812SOL     OW38466   8.017   1.275   6.751
 8812SOL    HW138467   7.924   1.268   6.714
 8812SOL    HW238468   8.028   1.364   6.795
 8813SOL     OW38469   9.003   1.511   6.289
 8813SOL    HW138470   8.946   1.495   6.370
 8813SOL    HW238471   8.944   1.521   6.209
 8814SOL     OW38472   8.583   0.703   6.303
 8814SOL    HW138473   8.640   0.781   6.278
 8814SOL    HW238474   8.523   0.729   6.379
 8815SOL     OW38475   9.203   0.607   5.817
 8815SOL    HW138476   9.191   0.594   5.718
 8815SOL    HW238477   9.173   0.526   5.866
 8816SOL     OW38478   8.216   1.144   6.609
 8816SOL    HW138479   8.138   1.161   6.669
 8816SOL    HW238480   8.250   1.231   6.573
 8817SOL     OW38481   8.133   1.012   6.251
 8817SOL    HW138482   8.202   0.996   6.321
 8817SOL    HW238483   8.060   1.069   6.289
 8818SOL     OW38484   7.783   1.435   6.647
 8818SOL    HW138485   7.705   1.404   6.594
 8818SOL    HW238486   7.841   1.493   6.590
 8819SOL     OW38487   9.051   0.447   6.323
 8819SOL    HW138488   8.977   0.493   6.273
 8819SOL    HW238489   9.102   0.515   6.376
 8820SOL     OW38490   7.679   1.713   6.069
 8820SOL    HW138491   7.713   1.790   6.123
 8820SOL    HW238492   7.723   1.713   5.979
 8821SOL     OW38493   7.678   1.434   6.124
 8821SOL    HW138494   7.652   1.530   6.124
 8821SOL    HW238495   7.607   1.380   6.169
 8822SOL     OW38496   7.688   1.091   6.472
 8822SOL    HW138497   7.702   1.007   6.524
 8822SOL    HW238498   7.633   1.155   6.527
 8823SOL     OW38499   8.068   1.786   7.025
 8823SOL    HW138500   7.976   1.769   7.060
 8823SOL    HW238501   8.096   1.878   7.051
 8824SOL     OW38502   8.054   0.964   5.709
 8824SOL    HW138503   8.061   1.048   5.655
 8824SOL    HW238504   8.100   0.977   5.797
 8825SOL     OW38505   7.570   0.643   6.149
 8825SOL    HW138506   7.525   0.555   6.166
 8825SOL    HW238507   7.569   0.697   6.233
 8826SOL     OW38508   9.290   1.767   5.945
 8826SOL    HW138509   9.344   1.738   6.025
 8826SOL    HW238510   9.320   1.857   5.916
 8827SOL     OW38511   9.137   0.922   6.198
 8827SOL    HW138512   9.232   0.893   6.206
 8827SOL    HW238513   9.129   0.987   6.123
 8828SOL     OW38514   9.089   1.108   6.018
 8828SOL    HW138515   9.175   1.110   5.966
 8828SOL    HW238516   9.103   1.155   6.106
 8829SOL     OW38517   8.061   1.365   6.312
 8829SOL    HW138518   8.012   1.278   6.321
 8829SOL    HW238519   8.038   1.408   6.225
 8830SOL     OW38520   8.257   0.004   6.088
 8830SOL    HW138521   8.297   0.095   6.079
 8830SOL    HW238522   8.157   0.012   6.094
 8831SOL     OW38523   7.645   0.976   6.850
 8831SOL    HW138524   7.734   0.931   6.836
 8831SOL    HW238525   7.572   0.911   6.831
 8832SOL     OW38526   8.973   0.999   5.776
 8832SOL    HW138527   8.910   0.923   5.789
 8832SOL    HW238528   9.021   1.017   5.862
 8833SOL     OW38529   8.914   1.417   6.539
 8833SOL    HW138530   8.855   1.423   6.619
 8833SOL    HW238531   8.899   1.329   6.493
 8834SOL     OW38532   9.115   1.714   6.158
 8834SOL    HW138533   9.074   1.691   6.070
 8834SOL    HW238534   9.097   1.640   6.223
 8835SOL     OW38535   8.046   0.729   5.856
 8835SOL    HW138536   8.070   0.798   5.788
 8835SOL    HW238537   7.968   0.762   5.910
 8836SOL     OW38538   8.729   0.345   6.530
 8836SOL    HW138539   8.643   0.295   6.517
 8836SOL    HW238540   8.791   0.291   6.586
 8837SOL     OW38541   9.024   1.662   5.893
 8837SOL    HW138542   9.113   1.708   5.896
 8837SOL    HW238543   9.003   1.638   5.798
 8838SOL     OW38544   8.439   0.410   6.828
 8838SOL    HW138545   8.362   0.444   6.882
 8838SOL    HW238546   8.405   0.359   6.749
 8839SOL     OW38547   8.489   0.701   6.015
 8839SOL    HW138548   8.515   0.697   6.111
 8839SOL    HW238549   8.404   0.650   6.001
 8840SOL     OW38550   7.524   0.811   6.375
 8840SOL    HW138551   7.623   0.799   6.384
 8840SOL    HW238552   7.500   0.906   6.396
 8841SOL     OW38553   8.313   0.348   5.781
 8841SOL    HW138554   8.372   0.411   5.732
 8841SOL    HW238555   8.332   0.254   5.752
 8842SOL     OW38556   8.810   1.144   6.131
 8842SOL    HW138557   8.893   1.115   6.083
 8842SOL    HW238558   8.761   1.211   6.075
 8843SOL     OW38559   7.998   0.196   6.471
 8843SOL    HW138560   7.993   0.191   6.571
 8843SOL    HW238561   8.000   0.292   6.442
 8844SOL     OW38562   8.456   1.456   6.063
 8844SOL    HW138563   8.410   1.528   6.011
 8844SOL    HW238564   8.452   1.476   6.161
 8845SOL     OW38565   7.799   1.801   6.439
 8845SOL    HW138566   7.849   1.715   6.445
 8845SOL    HW238567   7.864   1.878   6.436
 8846SOL     OW38568   9.243   1.066   6.459
 8846SOL    HW138569   9.181   1.051   6.383
 8846SOL    HW238570   9.191   1.077   6.544
 8847SOL     OW38571   7.769   0.943   5.828
 8847SOL    HW138572   7.851   0.982   5.786
 8847SOL    HW238573   7.742   0.861   5.779
 8848SOL     OW38574   8.906   0.735   6.314
 8848SOL    HW138575   8.901   0.670   6.389
 8848SOL    HW238576   8.986   0.794   6.327
 8849SOL     OW38577   7.650   0.285   7.084
 8849SOL    HW138578   7.570   0.345   7.071
 8849SOL    HW238579   7.640   0.236   7.170
 8850SOL     OW38580   8.848   0.107   6.012
 8850SOL    HW138581   8.824   0.070   5.922
 8850SOL    HW238582   8.947   0.123   6.016
 8851SOL     OW38583   7.697   1.785   6.827
 8851SOL    HW138584   7.754   1.720   6.877
 8851SOL    HW238585   7.681   1.752   6.734
 8852SOL     OW38586   8.388   1.698   6.490
 8852SOL    HW138587   8.468   1.641   6.511
 8852SOL    HW238588   8.339   1.658   6.413
 8853SOL     OW38589   7.830   0.700   6.066
 8853SOL    HW138590   7.875   0.610   6.063
 8853SOL    HW238591   7.736   0.689   6.099
 8854SOL     OW38592   8.062   0.122   5.703
 8854SOL    HW138593   8.160   0.100   5.710
 8854SOL    HW238594   8.031   0.105   5.610
 8855SOL     OW38595   8.251   1.402   6.510
 8855SOL    HW138596   8.341   1.416   6.468
 8855SOL    HW238597   8.180   1.404   6.439
 8856SOL     OW38598   8.370   0.503   6.485
 8856SOL    HW138599   8.345   0.494   6.389
 8856SOL    HW238600   8.418   0.421   6.516
 8857SOL     OW38601   7.987   0.064   6.098
 8857SOL    HW138602   7.906   0.065   6.156
 8857SOL    HW238603   7.990   0.147   6.043
 8858SOL     OW38604   7.745   0.035   5.757
 8858SOL    HW138605   7.794   0.119   5.736
 8858SOL    HW238606   7.807  -0.030   5.802
 8859SOL     OW38607   8.383   0.236   6.066
 8859SOL    HW138608   8.335   0.277   5.988
 8859SOL    HW238609   8.482   0.234   6.047
 8860SOL     OW38610   8.675   1.570   6.379
 8860SOL    HW138611   8.696   1.644   6.314
 8860SOL    HW238612   8.743   1.570   6.452
 8861SOL     OW38613   7.907   1.152   6.327
 8861SOL    HW138614   7.836   1.125   6.392
 8861SOL    HW238615   7.881   1.124   6.234
 8862SOL     OW38616   8.719   1.797   6.177
 8862SOL    HW138617   8.763   1.861   6.113
 8862SOL    HW238618   8.669   1.849   6.247
 8863SOL     OW38619   8.480   0.549   5.602
 8863SOL    HW138620   8.439   0.631   5.563
 8863SOL    HW238621   8.544   0.575   5.675
 8864SOL     OW38622   8.009   0.222   6.733
 8864SOL    HW138623   8.047   0.138   6.770
 8864SOL    HW238624   7.921   0.241   6.777
 8865SOL     OW38625   8.314   0.454   6.228
 8865SOL    HW138626   8.282   0.526   6.166
 8865SOL    HW238627   8.338   0.373   6.175
 8866SOL     OW38628   8.465   0.039   6.339
 8866SOL    HW138629   8.393   0.044   6.270
 8866SOL    HW238630   8.441  -0.030   6.408
 8867SOL     OW38631   8.877   1.173   6.453
 8867SOL    HW138632   8.822   1.089   6.446
 8867SOL    HW238633   8.903   1.202   6.361
 8868SOL     OW38634   8.914   0.590   6.578
 8868SOL    HW138635   8.884   0.495   6.585
 8868SOL    HW238636   8.987   0.606   6.644
 8869SOL     OW38637   9.305   0.833   5.963
 8869SOL    HW138638   9.347   0.769   6.027
 8869SOL    HW238639   9.267   0.782   5.885
 8870SOL     OW38640   9.112   1.280   6.243
 8870SOL    HW138641   9.211   1.288   6.257
 8870SOL    HW238642   9.067   1.364   6.274
 8871SOL     OW38643   7.975   0.256   5.914
 8871SOL    HW138644   8.002   0.197   5.839
 8871SOL    HW238645   7.975   0.351   5.883
 8872SOL     OW38646   9.202   1.223   7.174
 8872SOL    HW138647   9.293   1.184   7.161
 8872SOL    HW238648   9.210   1.319   7.198
 8873SOL     OW38649   8.559   1.195   6.686
 8873SOL    HW138650   8.519   1.239   6.767
 8873SOL    HW238651   8.518   1.232   6.603
 8874SOL     OW38652   9.086   1.099   6.665
 8874SOL    HW138653   9.091   1.180   6.724
 8874SOL    HW238654   9.000   1.101   6.614
 8875SOL     OW38655   8.153   1.050   5.954
 8875SOL    HW138656   8.139   1.057   6.053
 8875SOL    HW238657   8.237   0.999   5.936
 8876SOL     OW38658   7.858   0.813   6.837
 8876SOL    HW138659   7.944   0.825   6.887
 8876SOL    HW238660   7.816   0.726   6.864
 8877SOL     OW38661   8.722   0.386   6.848
 8877SOL    HW138662   8.743   0.460   6.912
 8877SOL    HW238663   8.633   0.403   6.805
 8878SOL     OW38664   7.815   1.100   6.087
 8878SOL    HW138665   7.808   1.183   6.031
 8878SOL    HW238666   7.819   1.020   6.027
 8879SOL     OW38667   8.014   0.537   6.451
 8879SOL    HW138668   8.026   0.603   6.377
 8879SOL    HW238669   8.060   0.571   6.534
 8880SOL     OW38670   8.700   1.348   5.974
 8880SOL    HW138671   8.750   1.425   6.014
 8880SOL    HW238672   8.605   1.350   6.006
 8881SOL     OW38673   8.720   1.445   6.728
 8881SOL    HW138674   8.767   1.458   6.815
 8881SOL    HW238675   8.654   1.371   6.737
 8882SOL     OW38676   9.030   0.639   6.058
 8882SOL    HW138677   8.999   0.700   6.131
 8882SOL    HW238678   9.080   0.691   5.989
 8883SOL     OW38679   7.802   1.510   6.915
 8883SOL    HW138680   7.781   1.466   6.828
 8883SOL    HW238681   7.899   1.536   6.918
 8884SOL     OW38682   8.021   0.870   6.615
 8884SOL    HW138683   8.065   0.959   6.606
 8884SOL    HW238684   7.958   0.870   6.692
 8885SOL     OW38685   8.808   0.862   6.631
 8885SOL    HW138686   8.733   0.862   6.565
 8885SOL    HW238687   8.845   0.770   6.640
 8886SOL     OW38688   8.657   0.525   5.861
 8886SOL    HW138689   8.670   0.441   5.915
 8886SOL    HW238690   8.628   0.599   5.921
 8887SOL     OW38691   7.755   0.213   6.817
 8887SOL    HW138692   7.732   0.250   6.907
 8887SOL    HW238693   7.725   0.118   6.811
 8888SOL     OW38694   7.485   1.310   6.868
 8888SOL    HW138695   7.538   1.261   6.936
 8888SOL    HW238696   7.507   1.408   6.873
 8889SOL     OW38697   8.180   0.634   6.650
 8889SOL    HW138698   8.239   0.608   6.574
 8889SOL    HW238699   8.152   0.730   6.639
 8890SOL     OW38700   7.755   0.063   6.204
 8890SOL    HW138701   7.744   0.157   6.237
 8890SOL    HW238702   7.750   0.000   6.281
 8891SOL     OW38703   9.070   0.367   5.960
 8891SOL    HW138704   9.072   0.291   6.024
 8891SOL    HW238705   9.022   0.444   6.000
 8892SOL     OW38706   8.471   0.766   6.552
 8892SOL    HW138707   8.486   0.787   6.648
 8892SOL    HW238708   8.441   0.671   6.543
 8893SOL     OW38709   8.988   0.274   5.711
 8893SOL    HW138710   8.927   0.199   5.734
 8893SOL    HW238711   9.010   0.326   5.794
 8894SOL     OW38712   8.751   0.838   5.628
 8894SOL    HW138713   8.785   0.745   5.643
 8894SOL    HW238714   8.769   0.865   5.533
 8895SOL     OW38715   8.516   1.333   6.435
 8895SOL    HW138716   8.523   1.249   6.380
 8895SOL    HW238717   8.578   1.402   6.399
 8896SOL     OW38718   7.767   0.810   6.535
 8896SOL    HW138719   7.860   0.846   6.540
 8896SOL    HW238720   7.761   0.725   6.587
 8897SOL     OW38721   7.787   0.509   6.592
 8897SOL    HW138722   7.735   0.426   6.575
 8897SOL    HW238723   7.864   0.514   6.528
 8898SOL     OW38724   8.608   0.207   7.063
 8898SOL    HW138725   8.608   0.271   7.140
 8898SOL    HW238726   8.636   0.255   6.980
 8899SOL     OW38727   7.456   1.326   5.786
 8899SOL    HW138728   7.363   1.347   5.755
 8899SOL    HW238729   7.466   1.227   5.799
 8900SOL     OW38730   7.536   1.801   6.513
 8900SOL    HW138731   7.494   1.715   6.486
 8900SOL    HW238732   7.630   1.804   6.479
 8901SOL     OW38733   7.952   1.568   6.496
 8901SOL    HW138734   8.018   1.642   6.505
 8901SOL    HW238735   7.996   1.489   6.454
 8902SOL     OW38736   8.450   0.796   6.824
 8902SOL    HW138737   8.491   0.764   6.910
 8902SOL    HW238738   8.354   0.769   6.821
 8903SOL     OW38739   7.488   0.544   6.700
 8903SOL    HW138740   7.573   0.511   6.659
 8903SOL    HW238741   7.501   0.559   6.798
 8904SOL     OW38742   8.263   0.572   5.911
 8904SOL    HW138743   8.270   0.483   5.865
 8904SOL    HW238744   8.169   0.606   5.903
 8905SOL     OW38745   9.105   0.604   6.792
 8905SOL    HW138746   9.067   0.535   6.854
 8905SOL    HW238747   9.187   0.568   6.748
 8906SOL     OW38748   8.119   0.464   6.855
 8906SOL    HW138749   8.085   0.375   6.825
 8906SOL    HW238750   8.145   0.518   6.775
 8907SOL     OW38751   8.378   1.678   7.051
 8907SOL    HW138752   8.354   1.660   6.956
 8907SOL    HW238753   8.408   1.772   7.061
 8908SOL     OW38754   7.921   0.500   5.777
 8908SOL    HW138755   7.982   0.580   5.781
 8908SOL    HW238756   7.826   0.531   5.784
 8909SOL     OW38757   8.795   1.059   6.820
 8909SOL    HW138758   8.819   0.996   6.746
 8909SOL    HW238759   8.705   1.099   6.802
 8910SOL     OW38760   8.750   0.855   5.895
 8910SOL    HW138761   8.664   0.824   5.937
 8910SOL    HW238762   8.746   0.841   5.796
 8911SOL     OW38763   9.207   1.747   6.740
 8911SOL    HW138764   9.268   1.777   6.667
 8911SOL    HW238765   9.169   1.658   6.718
 8912SOL     OW38766   8.700   1.731   6.714
 8912SOL    HW138767   8.784   1.736   6.660
 8912SOL    HW238768   8.677   1.635   6.732
 8913SOL     OW38769   7.531   1.258   6.608
 8913SOL    HW138770   7.526   1.257   6.708
 8913SOL    HW238771   7.448   1.217   6.570
 8914SOL     OW38772   9.174   0.135   6.109
 8914SOL    HW138773   9.247   0.118   6.042
 8914SOL    HW238774   9.143   0.048   6.147
 8915SOL     OW38775   8.836   1.573   6.063
 8915SOL    HW138776   8.903   1.585   5.989
 8915SOL    HW238777   8.796   1.662   6.086
 8916SOL     OW38778   8.728   0.927   6.258
 8916SOL    HW138779   8.788   0.846   6.260
 8916SOL    HW238780   8.768   0.996   6.198
 8917SOL     OW38781   9.098   1.720   6.980
 8917SOL    HW138782   9.151   1.730   6.896
 8917SOL    HW238783   9.071   1.810   7.014
 8918SOL     OW38784   9.289   0.175   6.549
 8918SOL    HW138785   9.328   0.090   6.513
 8918SOL    HW238786   9.191   0.177   6.530
 8919SOL     OW38787   7.711   0.326   6.306
 8919SOL    HW138788   7.632   0.377   6.272
 8919SOL    HW238789   7.702   0.311   6.404
 8920SOL     OW38790   8.270   1.002   6.958
 8920SOL    HW138791   8.310   1.001   6.866
 8920SOL    HW238792   8.280   1.094   6.998
 8921SOL     OW38793   8.364   0.910   5.877
 8921SOL    HW138794   8.427   0.948   5.809
 8921SOL    HW238795   8.404   0.827   5.916
 8922SOL     OW38796   8.952   1.607   5.630
 8922SOL    HW138797   8.860   1.644   5.637
 8922SOL    HW238798   8.990   1.627   5.540
 8923SOL     OW38799   8.487   1.098   6.282
 8923SOL    HW138800   8.417   1.051   6.336
 8923SOL    HW238801   8.546   1.030   6.239
 8924SOL     OW38802   8.462   0.236   6.557
 8924SOL    HW138803   8.454   0.200   6.464
 8924SOL    HW238804   8.460   0.160   6.622
 8925SOL     OW38805   8.038   1.487   6.077
 8925SOL    HW138806   8.080   1.429   6.007
 8925SOL    HW238807   7.994   1.566   6.033
 8926SOL     OW38808   9.157   0.385   6.967
 8926SOL    HW138809   9.230   0.454   6.971
 8926SOL    HW238810   9.185   0.310   6.908
 8927SOL     OW38811   7.520   0.166   5.904
 8927SOL    HW138812   7.503   0.249   5.850
 8927SOL    HW238813   7.610   0.129   5.882
 8928SOL     OW38814   8.631   1.335   5.705
 8928SOL    HW138815   8.532   1.324   5.707
 8928SOL    HW238816   8.665   1.350   5.798
 8929SOL     OW38817   8.941   1.767   6.545
 8929SOL    HW138818   8.974   1.831   6.476
 8929SOL    HW238819   9.007   1.761   6.620
 8930SOL     OW38820   8.898   1.220   7.219
 8930SOL    HW138821   8.889   1.210   7.318
 8930SOL    HW238822   8.994   1.213   7.193
 8931SOL     OW38823   9.122   0.883   6.840
 8931SOL    HW138824   9.095   0.794   6.803
 8931SOL    HW238825   9.123   0.951   6.767
 8932SOL     OW38826   8.673   0.325   6.035
 8932SOL    HW138827   8.738   0.251   6.024
 8932SOL    HW238828   8.693   0.375   6.119
 8933SOL     OW38829   8.042   0.745   6.238
 8933SOL    HW138830   8.092   0.830   6.219
 8933SOL    HW238831   7.954   0.747   6.190
 8934SOL     OW38832   9.178   0.934   7.103
 8934SOL    HW138833   9.216   1.025   7.118
 8934SOL    HW238834   9.170   0.917   7.004
 8935SOL     OW38835   8.109   1.790   6.539
 8935SOL    HW138836   8.063   1.878   6.526
 8935SOL    HW238837   8.208   1.802   6.532
 8936SOL     OW38838   8.307   0.956   6.447
 8936SOL    HW138839   8.361   0.887   6.495
 8936SOL    HW238840   8.275   1.025   6.513
 8937SOL     OW38841   8.531   0.984   5.673
 8937SOL    HW138842   8.508   1.037   5.591
 8937SOL    HW238843   8.612   0.928   5.654
 8938SOL     OW38844   9.309   1.569   6.437
 8938SOL    HW138845   9.238   1.557   6.367
 8938SOL    HW238846   9.310   1.490   6.497
 8939SOL     OW38847   7.527   1.240   6.239
 8939SOL    HW138848   7.526   1.193   6.327
 8939SOL    HW238849   7.609   1.212   6.188
 8940SOL     OW38850   9.272   0.192   6.813
 8940SOL    HW138851   9.268   0.102   6.857
 8940SOL    HW238852   9.275   0.181   6.714
 8941SOL     OW38853   7.876   0.424   6.106
 8941SOL    HW138854   7.906   0.352   6.044
 8941SOL    HW238855   7.837   0.384   6.189
 8942SOL     OW38856   9.153   1.487   6.690
 8942SOL    HW138857   9.060   1.462   6.663
 8942SOL    HW238858   9.179   1.437   6.772
 8943SOL     OW38859   8.260   1.586   6.273
 8943SOL    HW138860   8.292   1.596   6.179
 8943SOL    HW238861   8.181   1.524   6.275
 8944SOL     OW38862   8.872   0.214   6.698
 8944SOL    HW138863   8.924   0.149   6.753
 8944SOL    HW238864   8.823   0.277   6.759
 8945SOL     OW38865   8.449   0.034   6.740
 8945SOL    HW138866   8.386  -0.038   6.709
 8945SOL    HW238867   8.542  -0.002   6.740
 8946SOL     OW38868   8.218   1.330   5.887
 8946SOL    HW138869   8.172   1.243   5.904
 8946SOL    HW238870   8.309   1.327   5.928
 8947SOL     OW38871   8.800   0.052   5.754
 8947SOL    HW138872   8.835   0.011   5.670
 8947SOL    HW238873   8.710   0.014   5.774
 8948SOL     OW38874   8.748   0.453   6.277
 8948SOL    HW138875   8.689   0.533   6.281
 8948SOL    HW238876   8.763   0.418   6.370
 8949SOL     OW38877   9.041   0.221   6.468
 8949SOL    HW138878   8.957   0.220   6.522
 8949SOL    HW238879   9.043   0.304   6.412
 8950SOL     OW38880   7.487   1.077   5.886
 8950SOL    HW138881   7.586   1.066   5.877
 8950SOL    HW238882   7.447   0.991   5.918
 8951SOL     OW38883   8.323   1.646   5.923
 8951SOL    HW138884   8.246   1.611   5.869
 8951SOL    HW238885   8.291   1.717   5.985
 8952SOL     OW38886   7.678   2.490   0.113
 8952SOL    HW138887   7.585   2.488   0.150
 8952SOL    HW238888   7.679   2.451   0.021
 8953SOL     OW38889   7.467   2.230   0.647
 8953SOL    HW138890   7.385   2.273   0.686
 8953SOL    HW238891   7.439   2.157   0.584
 8954SOL     OW38892   8.017   3.137   1.165
 8954SOL    HW138893   7.924   3.130   1.128
 8954SOL    HW238894   8.028   3.226   1.209
 8955SOL     OW38895   9.003   3.373   0.703
 8955SOL    HW138896   8.946   3.357   0.784
 8955SOL    HW238897   8.944   3.383   0.623
 8956SOL     OW38898   8.583   2.565   0.717
 8956SOL    HW138899   8.640   2.643   0.692
 8956SOL    HW238900   8.523   2.591   0.793
 8957SOL     OW38901   9.203   2.469   0.231
 8957SOL    HW138902   9.191   2.456   0.132
 8957SOL    HW238903   9.173   2.388   0.280
 8958SOL     OW38904   8.216   3.006   1.023
 8958SOL    HW138905   8.138   3.023   1.083
 8958SOL    HW238906   8.250   3.093   0.987
 8959SOL     OW38907   8.133   2.874   0.665
 8959SOL    HW138908   8.202   2.858   0.735
 8959SOL    HW238909   8.060   2.931   0.703
 8960SOL     OW38910   7.783   3.297   1.061
 8960SOL    HW138911   7.705   3.266   1.008
 8960SOL    HW238912   7.841   3.355   1.004
 8961SOL     OW38913   9.051   2.309   0.737
 8961SOL    HW138914   8.977   2.355   0.687
 8961SOL    HW238915   9.102   2.377   0.790
 8962SOL     OW38916   7.679   3.575   0.483
 8962SOL    HW138917   7.713   3.652   0.537
 8962SOL    HW238918   7.723   3.575   0.393
 8963SOL     OW38919   7.678   3.296   0.538
 8963SOL    HW138920   7.652   3.392   0.538
 8963SOL    HW238921   7.607   3.242   0.583
 8964SOL     OW38922   7.688   2.953   0.886
 8964SOL    HW138923   7.702   2.869   0.938
 8964SOL    HW238924   7.633   3.017   0.941
 8965SOL     OW38925   8.068   3.648   1.439
 8965SOL    HW138926   7.976   3.631   1.474
 8965SOL    HW238927   8.096   3.740   1.465
 8966SOL     OW38928   8.054   2.826   0.123
 8966SOL    HW138929   8.061   2.910   0.069
 8966SOL    HW238930   8.100   2.839   0.211
 8967SOL     OW38931   7.570   2.505   0.563
 8967SOL    HW138932   7.525   2.417   0.580
 8967SOL    HW238933   7.569   2.559   0.647
 8968SOL     OW38934   9.290   3.629   0.359
 8968SOL    HW138935   9.344   3.600   0.439
 8968SOL    HW238936   9.320   3.719   0.330
 8969SOL     OW38937   7.475   3.458   0.117
 8969SOL    HW138938   7.456   3.362   0.138
 8969SOL    HW238939   7.442   3.516   0.192
 8970SOL     OW38940   9.137   2.784   0.612
 8970SOL    HW138941   9.232   2.755   0.620
 8970SOL    HW238942   9.129   2.849   0.537
 8971SOL     OW38943   9.089   2.970   0.432
 8971SOL    HW138944   9.175   2.972   0.380
 8971SOL    HW238945   9.103   3.017   0.520
 8972SOL     OW38946   7.561   2.599   1.597
 8972SOL    HW138947   7.649   2.586   1.642
 8972SOL    HW238948   7.548   2.696   1.575
 8973SOL     OW38949   8.061   3.227   0.726
 8973SOL    HW138950   8.012   3.140   0.735
 8973SOL    HW238951   8.038   3.270   0.639
 8974SOL     OW38952   8.257   1.866   0.502
 8974SOL    HW138953   8.297   1.957   0.493
 8974SOL    HW238954   8.157   1.874   0.508
 8975SOL     OW38955   7.645   2.838   1.264
 8975SOL    HW138956   7.734   2.793   1.250
 8975SOL    HW238957   7.572   2.773   1.245
 8976SOL     OW38958   8.973   2.861   0.190
 8976SOL    HW138959   8.910   2.785   0.203
 8976SOL    HW238960   9.021   2.879   0.276
 8977SOL     OW38961   8.914   3.279   0.953
 8977SOL    HW138962   8.855   3.285   1.033
 8977SOL    HW238963   8.899   3.191   0.907
 8978SOL     OW38964   9.115   3.576   0.572
 8978SOL    HW138965   9.074   3.553   0.484
 8978SOL    HW238966   9.097   3.502   0.637
 8979SOL     OW38967   8.046   2.591   0.270
 8979SOL    HW138968   8.070   2.660   0.202
 8979SOL    HW238969   7.968   2.624   0.324
 8980SOL     OW38970   8.729   2.207   0.944
 8980SOL    HW138971   8.643   2.157   0.931
 8980SOL    HW238972   8.791   2.153   1.000
 8981SOL     OW38973   9.024   3.524   0.307
 8981SOL    HW138974   9.113   3.570   0.310
 8981SOL    HW238975   9.003   3.500   0.212
 8982SOL     OW38976   8.255   2.467   1.465
 8982SOL    HW138977   8.208   2.464   1.554
 8982SOL    HW238978   8.204   2.412   1.399
 8983SOL     OW38979   8.842   2.331   1.674
 8983SOL    HW138980   8.822   2.374   1.762
 8983SOL    HW238981   8.920   2.269   1.683
 8984SOL     OW38982   8.421   2.752   1.572
 8984SOL    HW138983   8.467   2.668   1.543
 8984SOL    HW238984   8.365   2.786   1.497
 8985SOL     OW38985   8.439   2.272   1.242
 8985SOL    HW138986   8.362   2.306   1.296
 8985SOL    HW238987   8.405   2.221   1.163
 8986SOL     OW38988   8.489   2.563   0.429
 8986SOL    HW138989   8.515   2.559   0.525
 8986SOL    HW238990   8.404   2.512   0.415
 8987SOL     OW38991   7.524   2.673   0.789
 8987SOL    HW138992   7.623   2.661   0.798
 8987SOL    HW238993   7.500   2.768   0.810
 8988SOL     OW38994   8.313   2.210   0.195
 8988SOL    HW138995   8.372   2.273   0.146
 8988SOL    HW238996   8.332   2.116   0.166
 8989SOL     OW38997   9.167   2.447   1.831
 8989SOL    HW138998   9.141   2.536   1.795
 8989SOL    HW238999   9.165   2.379   1.758
 8990SOL     OW39000   8.810   3.006   0.545
 8990SOL    HW139001   8.893   2.977   0.497
 8990SOL    HW239002   8.761   3.073   0.489
 8991SOL     OW39003   7.998   2.058   0.885
 8991SOL    HW139004   7.993   2.053   0.985
 8991SOL    HW239005   8.000   2.154   0.856
 8992SOL     OW39006   8.456   3.318   0.477
 8992SOL    HW139007   8.410   3.390   0.425
 8992SOL    HW239008   8.452   3.338   0.575
 8993SOL     OW39009   7.799   3.663   0.853
 8993SOL    HW139010   7.849   3.577   0.859
 8993SOL    HW239011   7.864   3.740   0.850
 8994SOL     OW39012   9.243   2.928   0.873
 8994SOL    HW139013   9.181   2.913   0.797
 8994SOL    HW239014   9.191   2.939   0.958
 8995SOL     OW39015   7.769   2.805   0.242
 8995SOL    HW139016   7.851   2.844   0.200
 8995SOL    HW239017   7.742   2.723   0.193
 8996SOL     OW39018   8.906   2.597   0.728
 8996SOL    HW139019   8.901   2.532   0.803
 8996SOL    HW239020   8.986   2.656   0.741
 8997SOL     OW39021   8.559   3.638   0.237
 8997SOL    HW139022   8.499   3.576   0.287
 8997SOL    HW239023   8.590   3.594   0.152
 8998SOL     OW39024   9.080   3.239   0.081
 8998SOL    HW139025   9.048   3.333   0.071
 8998SOL    HW239026   9.004   3.176   0.069
 8999SOL     OW39027   7.912   3.605   0.323
 8999SOL    HW139028   7.945   3.644   0.409
 8999SOL    HW239029   7.988   3.598   0.258
 9000SOL     OW39030   8.848   1.969   0.426
 9000SOL    HW139031   8.824   1.932   0.336
 9000SOL    HW239032   8.947   1.985   0.430
 9001SOL     OW39033   7.697   3.647   1.241
 9001SOL    HW139034   7.754   3.582   1.291
 9001SOL    HW239035   7.681   3.614   1.148
 9002SOL     OW39036   8.388   3.560   0.904
 9002SOL    HW139037   8.468   3.503   0.925
 9002SOL    HW239038   8.339   3.520   0.827
 9003SOL     OW39039   7.830   2.562   0.480
 9003SOL    HW139040   7.875   2.472   0.477
 9003SOL    HW239041   7.736   2.551   0.513
 9004SOL     OW39042   8.336   3.376   1.195
 9004SOL    HW139043   8.313   3.351   1.101
 9004SOL    HW239044   8.397   3.307   1.234
 9005SOL     OW39045   8.799   2.452   1.433
 9005SOL    HW139046   8.827   2.409   1.518
 9005SOL    HW239047   8.824   2.548   1.434
 9006SOL     OW39048   8.251   3.264   0.924
 9006SOL    HW139049   8.341   3.278   0.882
 9006SOL    HW239050   8.180   3.266   0.853
 9007SOL     OW39051   8.370   2.365   0.899
 9007SOL    HW139052   8.345   2.356   0.803
 9007SOL    HW239053   8.418   2.283   0.930
 9008SOL     OW39054   7.987   1.926   0.512
 9008SOL    HW139055   7.906   1.927   0.570
 9008SOL    HW239056   7.990   2.009   0.457
 9009SOL     OW39057   8.882   3.050   0.041
 9009SOL    HW139058   8.914   2.974   0.098
 9009SOL    HW239059   8.790   3.077   0.071
 9010SOL     OW39060   7.745   1.897   0.171
 9010SOL    HW139061   7.794   1.981   0.150
 9010SOL    HW239062   7.807   1.832   0.216
 9011SOL     OW39063   8.383   2.098   0.480
 9011SOL    HW139064   8.335   2.139   0.402
 9011SOL    HW239065   8.482   2.096   0.461
 9012SOL     OW39066   8.524   2.545   1.464
 9012SOL    HW139067   8.444   2.484   1.467
 9012SOL    HW239068   8.605   2.492   1.440
 9013SOL     OW39069   8.675   3.432   0.793
 9013SOL    HW139070   8.696   3.506   0.728
 9013SOL    HW239071   8.743   3.432   0.866
 9014SOL     OW39072   7.907   3.014   0.741
 9014SOL    HW139073   7.836   2.987   0.806
 9014SOL    HW239074   7.881   2.986   0.648
 9015SOL     OW39075   8.719   3.659   0.591
 9015SOL    HW139076   8.763   3.723   0.527
 9015SOL    HW239077   8.669   3.711   0.661
 9016SOL     OW39078   8.480   2.411   0.016
 9016SOL    HW139079   8.439   2.493  -0.023
 9016SOL    HW239080   8.544   2.437   0.089
 9017SOL     OW39081   8.009   2.084   1.147
 9017SOL    HW139082   8.047   2.000   1.184
 9017SOL    HW239083   7.921   2.103   1.191
 9018SOL     OW39084   8.314   2.316   0.642
 9018SOL    HW139085   8.282   2.388   0.580
 9018SOL    HW239086   8.338   2.235   0.589
 9019SOL     OW39087   8.465   1.901   0.753
 9019SOL    HW139088   8.393   1.906   0.684
 9019SOL    HW239089   8.441   1.832   0.822
 9020SOL     OW39090   8.877   3.035   0.867
 9020SOL    HW139091   8.822   2.951   0.860
 9020SOL    HW239092   8.903   3.064   0.775
 9021SOL     OW39093   8.914   2.452   0.992
 9021SOL    HW139094   8.884   2.357   0.999
 9021SOL    HW239095   8.987   2.468   1.058
 9022SOL     OW39096   9.305   2.695   0.377
 9022SOL    HW139097   9.347   2.631   0.441
 9022SOL    HW239098   9.267   2.644   0.299
 9023SOL     OW39099   7.936   3.247   0.174
 9023SOL    HW139100   7.849   3.232   0.221
 9023SOL    HW239101   7.919   3.273   0.079
 9024SOL     OW39102   9.112   3.142   0.657
 9024SOL    HW139103   9.211   3.150   0.671
 9024SOL    HW239104   9.067   3.226   0.688
 9025SOL     OW39105   8.838   2.437   0.078
 9025SOL    HW139106   8.784   2.416   0.159
 9025SOL    HW239107   8.929   2.396   0.087
 9026SOL     OW39108   7.975   2.118   0.328
 9026SOL    HW139109   8.002   2.059   0.253
 9026SOL    HW239110   7.975   2.213   0.297
 9027SOL     OW39111   9.202   3.085   1.588
 9027SOL    HW139112   9.293   3.046   1.575
 9027SOL    HW239113   9.210   3.181   1.612
 9028SOL     OW39114   9.040   3.491   1.625
 9028SOL    HW139115   9.067   3.525   1.535
 9028SOL    HW239116   9.119   3.453   1.671
 9029SOL     OW39117   8.559   3.057   1.100
 9029SOL    HW139118   8.519   3.101   1.181
 9029SOL    HW239119   8.518   3.094   1.017
 9030SOL     OW39120   9.086   2.961   1.079
 9030SOL    HW139121   9.091   3.042   1.138
 9030SOL    HW239122   9.000   2.963   1.028
 9031SOL     OW39123   8.363   1.951   1.402
 9031SOL    HW139124   8.388   1.931   1.307
 9031SOL    HW239125   8.435   2.007   1.444
 9032SOL     OW39126   8.153   2.912   0.368
 9032SOL    HW139127   8.139   2.919   0.467
 9032SOL    HW239128   8.237   2.861   0.350
 9033SOL     OW39129   8.722   2.248   1.262
 9033SOL    HW139130   8.743   2.322   1.326
 9033SOL    HW239131   8.633   2.265   1.219
 9034SOL     OW39132   7.512   3.426   1.331
 9034SOL    HW139133   7.466   3.508   1.297
 9034SOL    HW239134   7.610   3.445   1.340
 9035SOL     OW39135   7.815   2.962   0.501
 9035SOL    HW139136   7.808   3.045   0.445
 9035SOL    HW239137   7.819   2.882   0.441
 9036SOL     OW39138   8.014   2.399   0.865
 9036SOL    HW139139   8.026   2.465   0.791
 9036SOL    HW239140   8.060   2.433   0.948
 9037SOL     OW39141   8.700   3.210   0.388
 9037SOL    HW139142   8.750   3.287   0.428
 9037SOL    HW239143   8.605   3.212   0.420
 9038SOL     OW39144   8.720   3.307   1.142
 9038SOL    HW139145   8.767   3.320   1.229
 9038SOL    HW239146   8.654   3.233   1.151
 9039SOL     OW39147   9.030   2.501   0.472
 9039SOL    HW139148   8.999   2.562   0.545
 9039SOL    HW239149   9.080   2.553   0.403
 9040SOL     OW39150   7.802   3.372   1.329
 9040SOL    HW139151   7.781   3.328   1.242
 9040SOL    HW239152   7.899   3.398   1.332
 9041SOL     OW39153   8.461   1.967   1.770
 9041SOL    HW139154   8.467   2.052   1.718
 9041SOL    HW239155   8.493   1.891   1.713
 9042SOL     OW39156   7.952   1.912   1.740
 9042SOL    HW139157   7.910   1.855   1.670
 9042SOL    HW239158   7.886   1.981   1.772
 9043SOL     OW39159   8.021   2.732   1.029
 9043SOL    HW139160   8.065   2.821   1.020
 9043SOL    HW239161   7.958   2.732   1.106
 9044SOL     OW39162   8.808   2.724   1.045
 9044SOL    HW139163   8.733   2.724   0.979
 9044SOL    HW239164   8.845   2.632   1.054
 9045SOL     OW39165   8.657   2.387   0.275
 9045SOL    HW139166   8.670   2.303   0.329
 9045SOL    HW239167   8.628   2.461   0.335
 9046SOL     OW39168   7.485   3.172   1.282
 9046SOL    HW139169   7.538   3.123   1.350
 9046SOL    HW239170   7.507   3.270   1.287
 9047SOL     OW39171   8.180   2.496   1.064
 9047SOL    HW139172   8.239   2.470   0.988
 9047SOL    HW239173   8.152   2.592   1.053
 9048SOL     OW39174   9.176   2.797   1.854
 9048SOL    HW139175   9.130   2.790   1.765
 9048SOL    HW239176   9.114   2.841   1.920
 9049SOL     OW39177   7.755   1.925   0.618
 9049SOL    HW139178   7.744   2.019   0.651
 9049SOL    HW239179   7.750   1.862   0.695
 9050SOL     OW39180   9.070   2.229   0.374
 9050SOL    HW139181   9.072   2.153   0.438
 9050SOL    HW239182   9.022   2.306   0.414
 9051SOL     OW39183   8.471   2.628   0.966
 9051SOL    HW139184   8.486   2.649   1.062
 9051SOL    HW239185   8.441   2.533   0.957
 9052SOL     OW39186   9.307   3.380   1.605
 9052SOL    HW139187   9.321   3.407   1.510
 9052SOL    HW239188   9.390   3.402   1.658
 9053SOL     OW39189   8.988   2.136   0.125
 9053SOL    HW139190   8.927   2.061   0.148
 9053SOL    HW239191   9.010   2.188   0.208
 9054SOL     OW39192   8.751   2.700   0.042
 9054SOL    HW139193   8.785   2.607   0.057
 9054SOL    HW239194   8.769   2.727  -0.053
 9055SOL     OW39195   8.516   3.195   0.849
 9055SOL    HW139196   8.523   3.111   0.794
 9055SOL    HW239197   8.578   3.264   0.813
 9056SOL     OW39198   7.767   2.672   0.949
 9056SOL    HW139199   7.860   2.708   0.954
 9056SOL    HW239200   7.761   2.587   1.001
 9057SOL     OW39201   7.787   2.371   1.006
 9057SOL    HW139202   7.735   2.288   0.989
 9057SOL    HW239203   7.864   2.376   0.942
 9058SOL     OW39204   8.608   2.069   1.477
 9058SOL    HW139205   8.608   2.133   1.554
 9058SOL    HW239206   8.636   2.117   1.394
 9059SOL     OW39207   7.536   3.663   0.927
 9059SOL    HW139208   7.494   3.577   0.900
 9059SOL    HW239209   7.630   3.666   0.893
 9060SOL     OW39210   7.952   3.430   0.910
 9060SOL    HW139211   8.018   3.504   0.919
 9060SOL    HW239212   7.996   3.351   0.868
 9061SOL     OW39213   8.450   2.658   1.238
 9061SOL    HW139214   8.491   2.626   1.324
 9061SOL    HW239215   8.354   2.631   1.235
 9062SOL     OW39216   7.488   2.406   1.114
 9062SOL    HW139217   7.573   2.373   1.073
 9062SOL    HW239218   7.501   2.421   1.212
 9063SOL     OW39219   8.263   2.434   0.325
 9063SOL    HW139220   8.270   2.345   0.279
 9063SOL    HW239221   8.169   2.468   0.317
 9064SOL     OW39222   9.105   2.466   1.206
 9064SOL    HW139223   9.067   2.397   1.268
 9064SOL    HW239224   9.187   2.430   1.162
 9065SOL     OW39225   8.119   2.326   1.269
 9065SOL    HW139226   8.085   2.237   1.239
 9065SOL    HW239227   8.145   2.380   1.189
 9066SOL     OW39228   7.921   2.362   0.191
 9066SOL    HW139229   7.982   2.442   0.195
 9066SOL    HW239230   7.826   2.393   0.198
 9067SOL     OW39231   8.795   2.921   1.234
 9067SOL    HW139232   8.819   2.858   1.160
 9067SOL    HW239233   8.705   2.961   1.216
 9068SOL     OW39234   8.750   2.717   0.309
 9068SOL    HW139235   8.664   2.686   0.351
 9068SOL    HW239236   8.746   2.703   0.210
 9069SOL     OW39237   9.207   3.609   1.154
 9069SOL    HW139238   9.268   3.639   1.081
 9069SOL    HW239239   9.169   3.520   1.132
 9070SOL     OW39240   8.700   3.593   1.128
 9070SOL    HW139241   8.784   3.598   1.074
 9070SOL    HW239242   8.677   3.497   1.146
 9071SOL     OW39243   7.531   3.120   1.022
 9071SOL    HW139244   7.526   3.119   1.122
 9071SOL    HW239245   7.448   3.079   0.984
 9072SOL     OW39246   8.136   3.524   1.716
 9072SOL    HW139247   8.080   3.605   1.725
 9072SOL    HW239248   8.188   3.528   1.630
 9073SOL     OW39249   8.351   1.948   0.133
 9073SOL    HW139250   8.402   1.949   0.047
 9073SOL    HW239251   8.407   1.906   0.204
 9074SOL     OW39252   9.174   1.997   0.523
 9074SOL    HW139253   9.247   1.980   0.456
 9074SOL    HW239254   9.143   1.910   0.561
 9075SOL     OW39255   8.836   3.435   0.477
 9075SOL    HW139256   8.903   3.447   0.403
 9075SOL    HW239257   8.796   3.524   0.500
 9076SOL     OW39258   8.728   2.789   0.672
 9076SOL    HW139259   8.788   2.708   0.674
 9076SOL    HW239260   8.768   2.858   0.612
 9077SOL     OW39261   8.120   3.478   0.154
 9077SOL    HW139262   8.129   3.488   0.055
 9077SOL    HW239263   8.080   3.389   0.175
 9078SOL     OW39264   9.098   3.582   1.394
 9078SOL    HW139265   9.151   3.592   1.310
 9078SOL    HW239266   9.071   3.672   1.428
 9079SOL     OW39267   9.289   2.037   0.963
 9079SOL    HW139268   9.328   1.952   0.927
 9079SOL    HW239269   9.191   2.039   0.944
 9080SOL     OW39270   7.711   2.188   0.720
 9080SOL    HW139271   7.632   2.239   0.686
 9080SOL    HW239272   7.702   2.173   0.818
 9081SOL     OW39273   8.642   3.474   0.031
 9081SOL    HW139274   8.648   3.381   0.068
 9081SOL    HW239275   8.583   3.474  -0.049
 9082SOL     OW39276   8.270   2.864   1.372
 9082SOL    HW139277   8.310   2.863   1.280
 9082SOL    HW239278   8.280   2.956   1.412
 9083SOL     OW39279   8.364   2.772   0.291
 9083SOL    HW139280   8.427   2.810   0.223
 9083SOL    HW239281   8.404   2.689   0.330
 9084SOL     OW39282   8.952   3.469   0.044
 9084SOL    HW139283   8.860   3.506   0.051
 9084SOL    HW239284   8.990   3.489  -0.046
 9085SOL     OW39285   7.820   3.150   1.490
 9085SOL    HW139286   7.807   3.243   1.456
 9085SOL    HW239287   7.736   3.098   1.477
 9086SOL     OW39288   8.487   2.960   0.696
 9086SOL    HW139289   8.417   2.913   0.750
 9086SOL    HW239290   8.546   2.892   0.653
 9087SOL     OW39291   8.038   3.349   0.491
 9087SOL    HW139292   8.080   3.291   0.421
 9087SOL    HW239293   7.994   3.428   0.447
 9088SOL     OW39294   7.703   3.210   0.290
 9088SOL    HW139295   7.607   3.211   0.263
 9088SOL    HW239296   7.715   3.263   0.374
 9089SOL     OW39297   7.553   2.875   1.726
 9089SOL    HW139298   7.476   2.842   1.780
 9089SOL    HW239299   7.638   2.845   1.768
 9090SOL     OW39300   8.120   2.065   1.489
 9090SOL    HW139301   8.210   2.049   1.449
 9090SOL    HW239302   8.128   2.070   1.588
 9091SOL     OW39303   7.520   2.028   0.318
 9091SOL    HW139304   7.503   2.111   0.264
 9091SOL    HW239305   7.610   1.991   0.296
 9092SOL     OW39306   8.631   3.197   0.119
 9092SOL    HW139307   8.532   3.186   0.121
 9092SOL    HW239308   8.665   3.212   0.212
 9093SOL     OW39309   8.061   2.704   1.431
 9093SOL    HW139310   8.117   2.785   1.414
 9093SOL    HW239311   8.120   2.624   1.434
 9094SOL     OW39312   8.941   3.629   0.959
 9094SOL    HW139313   8.974   3.693   0.890
 9094SOL    HW239314   9.007   3.623   1.034
 9095SOL     OW39315   7.838   3.603   1.560
 9095SOL    HW139316   7.747   3.644   1.558
 9095SOL    HW239317   7.831   3.509   1.592
 9096SOL     OW39318   9.122   2.745   1.254
 9096SOL    HW139319   9.095   2.656   1.217
 9096SOL    HW239320   9.123   2.813   1.181
 9097SOL     OW39321   8.673   2.187   0.449
 9097SOL    HW139322   8.738   2.113   0.438
 9097SOL    HW239323   8.693   2.237   0.533
 9098SOL     OW39324   8.042   2.607   0.652
 9098SOL    HW139325   8.092   2.692   0.633
 9098SOL    HW239326   7.954   2.609   0.604
 9099SOL     OW39327   8.307   3.236   0.016
 9099SOL    HW139328   8.261   3.251   0.104
 9099SOL    HW239329   8.351   3.321  -0.014
 9100SOL     OW39330   8.109   3.652   0.953
 9100SOL    HW139331   8.063   3.740   0.940
 9100SOL    HW239332   8.208   3.664   0.946
 9101SOL     OW39333   8.307   2.818   0.861
 9101SOL    HW139334   8.361   2.749   0.909
 9101SOL    HW239335   8.275   2.887   0.927
 9102SOL     OW39336   8.531   2.846   0.087
 9102SOL    HW139337   8.508   2.899   0.005
 9102SOL    HW239338   8.612   2.790   0.068
 9103SOL     OW39339   9.309   3.431   0.851
 9103SOL    HW139340   9.238   3.419   0.781
 9103SOL    HW239341   9.310   3.352   0.911
 9104SOL     OW39342   7.527   3.102   0.653
 9104SOL    HW139343   7.526   3.055   0.741
 9104SOL    HW239344   7.609   3.074   0.602
 9105SOL     OW39345   8.120   3.253   1.624
 9105SOL    HW139346   8.042   3.203   1.662
 9105SOL    HW239347   8.117   3.348   1.655
 9106SOL     OW39348   7.876   2.286   0.520
 9106SOL    HW139349   7.906   2.214   0.458
 9106SOL    HW239350   7.837   2.246   0.603
 9107SOL     OW39351   9.153   3.349   1.104
 9107SOL    HW139352   9.060   3.324   1.077
 9107SOL    HW239353   9.179   3.299   1.186
 9108SOL     OW39354   8.260   3.448   0.687
 9108SOL    HW139355   8.292   3.458   0.593
 9108SOL    HW239356   8.181   3.386   0.689
 9109SOL     OW39357   8.218   3.192   0.301
 9109SOL    HW139358   8.172   3.105   0.318
 9109SOL    HW239359   8.309   3.189   0.342
 9110SOL     OW39360   8.066   3.429   1.284
 9110SOL    HW139361   8.061   3.511   1.341
 9110SOL    HW239362   8.155   3.426   1.239
 9111SOL     OW39363   8.800   1.914   0.168
 9111SOL    HW139364   8.835   1.873   0.084
 9111SOL    HW239365   8.710   1.876   0.188
 9112SOL     OW39366   8.748   2.315   0.691
 9112SOL    HW139367   8.689   2.395   0.695
 9112SOL    HW239368   8.763   2.280   0.784
 9113SOL     OW39369   9.041   2.083   0.882
 9113SOL    HW139370   8.957   2.082   0.936
 9113SOL    HW239371   9.043   2.166   0.826
 9114SOL     OW39372   7.487   2.939   0.300
 9114SOL    HW139373   7.586   2.928   0.291
 9114SOL    HW239374   7.447   2.853   0.332
 9115SOL     OW39375   8.323   3.508   0.337
 9115SOL    HW139376   8.246   3.473   0.283
 9115SOL    HW239377   8.291   3.579   0.399
 9116SOL     OW39378   7.678   2.490   1.975
 9116SOL    HW139379   7.585   2.488   2.012
 9116SOL    HW239380   7.679   2.451   1.883
 9117SOL     OW39381   7.467   2.230   2.509
 9117SOL    HW139382   7.385   2.273   2.548
 9117SOL    HW239383   7.439   2.157   2.446
 9118SOL     OW39384   8.133   2.874   2.527
 9118SOL    HW139385   8.202   2.858   2.597
 9118SOL    HW239386   8.060   2.931   2.565
 9119SOL     OW39387   8.134   3.023   3.665
 9119SOL    HW139388   8.194   3.102   3.679
 9119SOL    HW239389   8.048   3.054   3.624
 9120SOL     OW39390   8.908   3.367   3.201
 9120SOL    HW139391   8.932   3.461   3.227
 9120SOL    HW239392   8.892   3.313   3.283
 9121SOL     OW39393   7.886   2.254   3.361
 9121SOL    HW139394   7.968   2.198   3.370
 9121SOL    HW239395   7.805   2.196   3.365
 9122SOL     OW39396   9.042   1.976   3.342
 9122SOL    HW139397   9.024   2.043   3.270
 9122SOL    HW239398   9.039   2.022   3.431
 9123SOL     OW39399   7.475   3.458   1.979
 9123SOL    HW139400   7.456   3.362   2.000
 9123SOL    HW239401   7.442   3.516   2.054
 9124SOL     OW39402   9.137   2.784   2.474
 9124SOL    HW139403   9.232   2.755   2.482
 9124SOL    HW239404   9.129   2.849   2.399
 9125SOL     OW39405   7.561   2.599   3.459
 9125SOL    HW139406   7.649   2.586   3.504
 9125SOL    HW239407   7.548   2.696   3.437
 9126SOL     OW39408   8.046   2.591   2.132
 9126SOL    HW139409   8.070   2.660   2.064
 9126SOL    HW239410   7.968   2.624   2.186
 9127SOL     OW39411   8.421   2.752   3.434
 9127SOL    HW139412   8.467   2.668   3.405
 9127SOL    HW239413   8.365   2.786   3.359
 9128SOL     OW39414   8.313   2.210   2.057
 9128SOL    HW139415   8.372   2.273   2.008
 9128SOL    HW239416   8.332   2.116   2.028
 9129SOL     OW39417   9.167   2.447   3.693
 9129SOL    HW139418   9.141   2.536   3.657
 9129SOL    HW239419   9.165   2.379   3.620
 9130SOL     OW39420   8.810   3.006   2.407
 9130SOL    HW139421   8.893   2.977   2.359
 9130SOL    HW239422   8.761   3.073   2.351
 9131SOL     OW39423   9.243   2.928   2.735
 9131SOL    HW139424   9.181   2.913   2.659
 9131SOL    HW239425   9.191   2.939   2.820
 9132SOL     OW39426   8.675   3.412   3.368
 9132SOL    HW139427   8.681   3.335   3.432
 9132SOL    HW239428   8.623   3.386   3.288
 9133SOL     OW39429   7.909   3.128   3.589
 9133SOL    HW139430   7.859   3.129   3.503
 9133SOL    HW239431   7.846   3.110   3.665
 9134SOL     OW39432   9.080   3.239   1.943
 9134SOL    HW139433   9.048   3.333   1.933
 9134SOL    HW239434   9.004   3.176   1.931
 9135SOL     OW39435   7.912   3.605   2.185
 9135SOL    HW139436   7.945   3.644   2.271
 9135SOL    HW239437   7.988   3.598   2.120
 9136SOL     OW39438   8.388   3.560   2.766
 9136SOL    HW139439   8.468   3.503   2.787
 9136SOL    HW239440   8.339   3.520   2.689
 9137SOL     OW39441   7.830   2.562   2.342
 9137SOL    HW139442   7.875   2.472   2.339
 9137SOL    HW239443   7.736   2.551   2.375
 9138SOL     OW39444   8.995   2.084   3.591
 9138SOL    HW139445   8.990   2.121   3.683
 9138SOL    HW239446   8.923   2.015   3.579
 9139SOL     OW39447   8.799   2.452   3.295
 9139SOL    HW139448   8.827   2.409   3.380
 9139SOL    HW239449   8.824   2.548   3.296
 9140SOL     OW39450   8.370   2.365   2.761
 9140SOL    HW139451   8.345   2.356   2.665
 9140SOL    HW239452   8.418   2.283   2.792
 9141SOL     OW39453   7.745   1.897   2.033
 9141SOL    HW139454   7.794   1.981   2.012
 9141SOL    HW239455   7.807   1.832   2.078
 9142SOL     OW39456   7.907   3.014   2.603
 9142SOL    HW139457   7.836   2.987   2.668
 9142SOL    HW239458   7.881   2.986   2.510
 9143SOL     OW39459   8.719   3.659   2.453
 9143SOL    HW139460   8.763   3.723   2.389
 9143SOL    HW239461   8.669   3.711   2.523
 9144SOL     OW39462   8.914   2.452   2.854
 9144SOL    HW139463   8.884   2.357   2.861
 9144SOL    HW239464   8.987   2.468   2.920
 9145SOL     OW39465   9.305   2.695   2.239
 9145SOL    HW139466   9.347   2.631   2.303
 9145SOL    HW239467   9.267   2.644   2.161
 9146SOL     OW39468   9.112   3.142   2.519
 9146SOL    HW139469   9.211   3.150   2.533
 9146SOL    HW239470   9.067   3.226   2.550
 9147SOL     OW39471   8.838   2.437   1.940
 9147SOL    HW139472   8.784   2.416   2.021
 9147SOL    HW239473   8.929   2.396   1.949
 9148SOL     OW39474   9.040   3.491   3.487
 9148SOL    HW139475   9.067   3.525   3.397
 9148SOL    HW239476   9.119   3.453   3.533
 9149SOL     OW39477   8.363   1.951   3.264
 9149SOL    HW139478   8.388   1.931   3.169
 9149SOL    HW239479   8.435   2.007   3.306
 9150SOL     OW39480   8.722   2.248   3.124
 9150SOL    HW139481   8.743   2.322   3.188
 9150SOL    HW239482   8.633   2.265   3.081
 9151SOL     OW39483   7.952   1.912   3.602
 9151SOL    HW139484   7.910   1.855   3.532
 9151SOL    HW239485   7.886   1.981   3.634
 9152SOL     OW39486   8.180   2.496   2.926
 9152SOL    HW139487   8.239   2.470   2.850
 9152SOL    HW239488   8.152   2.592   2.915
 9153SOL     OW39489   9.070   2.229   2.236
 9153SOL    HW139490   9.072   2.153   2.300
 9153SOL    HW239491   9.022   2.306   2.276
 9154SOL     OW39492   9.307   3.380   3.467
 9154SOL    HW139493   9.321   3.407   3.372
 9154SOL    HW239494   9.390   3.402   3.520
 9155SOL     OW39495   8.751   2.700   1.904
 9155SOL    HW139496   8.785   2.607   1.919
 9155SOL    HW239497   8.769   2.727   1.809
 9156SOL     OW39498   8.586   2.242   3.540
 9156SOL    HW139499   8.541   2.305   3.604
 9156SOL    HW239500   8.679   2.273   3.523
 9157SOL     OW39501   8.608   2.069   3.339
 9157SOL    HW139502   8.608   2.133   3.416
 9157SOL    HW239503   8.636   2.117   3.256
 9158SOL     OW39504   7.536   3.663   2.789
 9158SOL    HW139505   7.494   3.577   2.762
 9158SOL    HW239506   7.630   3.666   2.755
 9159SOL     OW39507   7.488   2.406   2.976
 9159SOL    HW139508   7.573   2.373   2.935
 9159SOL    HW239509   7.501   2.421   3.074
 9160SOL     OW39510   8.817   2.812   3.522
 9160SOL    HW139511   8.856   2.901   3.542
 9160SOL    HW239512   8.827   2.792   3.425
 9161SOL     OW39513   8.119   2.326   3.131
 9161SOL    HW139514   8.085   2.237   3.101
 9161SOL    HW239515   8.145   2.380   3.051
 9162SOL     OW39516   7.921   2.362   2.053
 9162SOL    HW139517   7.982   2.442   2.057
 9162SOL    HW239518   7.826   2.393   2.060
 9163SOL     OW39519   9.207   3.609   3.016
 9163SOL    HW139520   9.268   3.639   2.943
 9163SOL    HW239521   9.169   3.520   2.994
 9164SOL     OW39522   8.136   3.524   3.578
 9164SOL    HW139523   8.080   3.605   3.587
 9164SOL    HW239524   8.188   3.528   3.492
 9165SOL     OW39525   9.174   1.997   2.385
 9165SOL    HW139526   9.247   1.980   2.318
 9165SOL    HW239527   9.143   1.910   2.423
 9166SOL     OW39528   9.098   3.582   3.256
 9166SOL    HW139529   9.151   3.592   3.172
 9166SOL    HW239530   9.071   3.672   3.290
 9167SOL     OW39531   8.364   2.772   2.153
 9167SOL    HW139532   8.427   2.810   2.085
 9167SOL    HW239533   8.404   2.689   2.192
 9168SOL     OW39534   7.820   3.150   3.352
 9168SOL    HW139535   7.807   3.243   3.318
 9168SOL    HW239536   7.736   3.098   3.339
 9169SOL     OW39537   8.487   2.960   2.558
 9169SOL    HW139538   8.417   2.913   2.612
 9169SOL    HW239539   8.546   2.892   2.515
 9170SOL     OW39540   9.157   2.247   3.243
 9170SOL    HW139541   9.230   2.316   3.247
 9170SOL    HW239542   9.185   2.172   3.184
 9171SOL     OW39543   8.120   2.065   3.351
 9171SOL    HW139544   8.210   2.049   3.311
 9171SOL    HW239545   8.128   2.070   3.450
 9172SOL     OW39546   8.888   2.718   3.260
 9172SOL    HW139547   8.831   2.770   3.197
 9172SOL    HW239548   8.984   2.730   3.236
 9173SOL     OW39549   8.898   3.082   3.495
 9173SOL    HW139550   8.889   3.072   3.594
 9173SOL    HW239551   8.994   3.075   3.469
 9174SOL     OW39552   7.838   3.603   3.422
 9174SOL    HW139553   7.747   3.644   3.420
 9174SOL    HW239554   7.831   3.509   3.454
 9175SOL     OW39555   9.122   2.745   3.116
 9175SOL    HW139556   9.095   2.656   3.079
 9175SOL    HW239557   9.123   2.813   3.043
 9176SOL     OW39558   9.178   2.796   3.379
 9176SOL    HW139559   9.216   2.887   3.394
 9176SOL    HW239560   9.170   2.779   3.280
 9177SOL     OW39561   8.307   3.236   1.878
 9177SOL    HW139562   8.261   3.251   1.966
 9177SOL    HW239563   8.351   3.321   1.848
 9178SOL     OW39564   8.531   2.846   1.949
 9178SOL    HW139565   8.508   2.899   1.867
 9178SOL    HW239566   8.612   2.790   1.930
 9179SOL     OW39567   8.120   3.253   3.486
 9179SOL    HW139568   8.042   3.203   3.524
 9179SOL    HW239569   8.117   3.348   3.517
 9180SOL     OW39570   7.876   2.286   2.382
 9180SOL    HW139571   7.906   2.214   2.320
 9180SOL    HW239572   7.837   2.246   2.465
 9181SOL     OW39573   8.260   3.448   2.549
 9181SOL    HW139574   8.292   3.458   2.455
 9181SOL    HW239575   8.181   3.386   2.551
 9182SOL     OW39576   8.066   3.429   3.146
 9182SOL    HW139577   8.061   3.511   3.203
 9182SOL    HW239578   8.155   3.426   3.101
 9183SOL     OW39579   8.800   1.914   2.030
 9183SOL    HW139580   8.835   1.873   1.946
 9183SOL    HW239581   8.710   1.876   2.050
 9184SOL     OW39582   8.323   3.508   2.199
 9184SOL    HW139583   8.246   3.473   2.145
 9184SOL    HW239584   8.291   3.579   2.261
 9185SOL     OW39585   7.678   2.490   3.837
 9185SOL    HW139586   7.585   2.488   3.874
 9185SOL    HW239587   7.679   2.451   3.745
 9186SOL     OW39588   7.467   2.230   4.371
 9186SOL    HW139589   7.385   2.273   4.410
 9186SOL    HW239590   7.439   2.157   4.308
 9187SOL     OW39591   8.583   2.565   4.441
 9187SOL    HW139592   8.640   2.643   4.416
 9187SOL    HW239593   8.523   2.591   4.517
 9188SOL     OW39594   9.203   2.469   3.955
 9188SOL    HW139595   9.191   2.456   3.856
 9188SOL    HW239596   9.173   2.388   4.004
 9189SOL     OW39597   8.216   3.006   4.747
 9189SOL    HW139598   8.138   3.023   4.807
 9189SOL    HW239599   8.250   3.093   4.711
 9190SOL     OW39600   8.908   3.367   5.063
 9190SOL    HW139601   8.932   3.461   5.089
 9190SOL    HW239602   8.892   3.313   5.145
 9191SOL     OW39603   8.575   3.203   5.414
 9191SOL    HW139604   8.622   3.203   5.502
 9191SOL    HW239605   8.527   3.116   5.403
 9192SOL     OW39606   8.054   2.826   3.847
 9192SOL    HW139607   8.061   2.910   3.793
 9192SOL    HW239608   8.100   2.839   3.935
 9193SOL     OW39609   9.042   1.976   5.204
 9193SOL    HW139610   9.024   2.043   5.132
 9193SOL    HW239611   9.039   2.022   5.293
 9194SOL     OW39612   7.475   3.458   3.841
 9194SOL    HW139613   7.456   3.362   3.862
 9194SOL    HW239614   7.442   3.516   3.916
 9195SOL     OW39615   9.089   2.970   4.156
 9195SOL    HW139616   9.175   2.972   4.104
 9195SOL    HW239617   9.103   3.017   4.244
 9196SOL     OW39618   7.561   2.599   5.321
 9196SOL    HW139619   7.649   2.586   5.366
 9196SOL    HW239620   7.548   2.696   5.299
 9197SOL     OW39621   8.061   3.227   4.450
 9197SOL    HW139622   8.012   3.140   4.459
 9197SOL    HW239623   8.038   3.270   4.363
 9198SOL     OW39624   8.842   2.331   5.398
 9198SOL    HW139625   8.822   2.374   5.486
 9198SOL    HW239626   8.920   2.269   5.407
 9199SOL     OW39627   7.524   2.673   4.513
 9199SOL    HW139628   7.623   2.661   4.522
 9199SOL    HW239629   7.500   2.768   4.534
 9200SOL     OW39630   8.313   2.210   3.919
 9200SOL    HW139631   8.372   2.273   3.870
 9200SOL    HW239632   8.332   2.116   3.890
 9201SOL     OW39633   8.810   3.006   4.269
 9201SOL    HW139634   8.893   2.977   4.221
 9201SOL    HW239635   8.761   3.073   4.213
 9202SOL     OW39636   8.456   3.318   4.201
 9202SOL    HW139637   8.410   3.390   4.149
 9202SOL    HW239638   8.452   3.338   4.299
 9203SOL     OW39639   8.559   3.638   3.961
 9203SOL    HW139640   8.499   3.576   4.011
 9203SOL    HW239641   8.590   3.594   3.876
 9204SOL     OW39642   9.080   3.239   3.805
 9204SOL    HW139643   9.048   3.333   3.795
 9204SOL    HW239644   9.004   3.176   3.793
 9205SOL     OW39645   8.229   2.126   5.473
 9205SOL    HW139646   8.296   2.065   5.516
 9205SOL    HW239647   8.156   2.145   5.538
 9206SOL     OW39648   8.799   2.452   5.157
 9206SOL    HW139649   8.827   2.409   5.242
 9206SOL    HW239650   8.824   2.548   5.158
 9207SOL     OW39651   7.745   1.897   3.895
 9207SOL    HW139652   7.794   1.981   3.874
 9207SOL    HW239653   7.807   1.832   3.940
 9208SOL     OW39654   8.480   2.411   3.740
 9208SOL    HW139655   8.439   2.493   3.701
 9208SOL    HW239656   8.544   2.437   3.813
 9209SOL     OW39657   8.009   2.084   4.871
 9209SOL    HW139658   8.047   2.000   4.908
 9209SOL    HW239659   7.921   2.103   4.915
 9210SOL     OW39660   8.559   3.057   4.824
 9210SOL    HW139661   8.519   3.101   4.905
 9210SOL    HW239662   8.518   3.094   4.741
 9211SOL     OW39663   9.086   2.961   4.803
 9211SOL    HW139664   9.091   3.042   4.862
 9211SOL    HW239665   9.000   2.963   4.752
 9212SOL     OW39666   8.428   2.978   5.443
 9212SOL    HW139667   8.329   2.984   5.453
 9212SOL    HW239668   8.451   2.898   5.387
 9213SOL     OW39669   8.720   3.307   4.866
 9213SOL    HW139670   8.767   3.320   4.953
 9213SOL    HW239671   8.654   3.233   4.875
 9214SOL     OW39672   7.802   3.372   5.053
 9214SOL    HW139673   7.781   3.328   4.966
 9214SOL    HW239674   7.899   3.398   5.056
 9215SOL     OW39675   8.461   1.967   5.494
 9215SOL    HW139676   8.467   2.052   5.442
 9215SOL    HW239677   8.493   1.891   5.437
 9216SOL     OW39678   8.657   2.387   3.999
 9216SOL    HW139679   8.670   2.303   4.053
 9216SOL    HW239680   8.628   2.461   4.059
 9217SOL     OW39681   9.176   2.797   5.578
 9217SOL    HW139682   9.130   2.790   5.489
 9217SOL    HW239683   9.114   2.841   5.644
 9218SOL     OW39684   7.755   1.925   4.342
 9218SOL    HW139685   7.744   2.019   4.375
 9218SOL    HW239686   7.750   1.862   4.419
 9219SOL     OW39687   9.307   3.380   5.329
 9219SOL    HW139688   9.321   3.407   5.234
 9219SOL    HW239689   9.390   3.402   5.382
 9220SOL     OW39690   8.751   2.700   3.766
 9220SOL    HW139691   8.785   2.607   3.781
 9220SOL    HW239692   8.769   2.727   3.671
 9221SOL     OW39693   8.516   3.195   4.573
 9221SOL    HW139694   8.523   3.111   4.518
 9221SOL    HW239695   8.578   3.264   4.537
 9222SOL     OW39696   7.767   2.672   4.673
 9222SOL    HW139697   7.860   2.708   4.678
 9222SOL    HW239698   7.761   2.587   4.725
 9223SOL     OW39699   8.586   2.242   5.402
 9223SOL    HW139700   8.541   2.305   5.466
 9223SOL    HW239701   8.679   2.273   5.385
 9224SOL     OW39702   8.608   2.069   5.201
 9224SOL    HW139703   8.608   2.133   5.278
 9224SOL    HW239704   8.636   2.117   5.118
 9225SOL     OW39705   7.536   3.663   4.651
 9225SOL    HW139706   7.494   3.577   4.624
 9225SOL    HW239707   7.630   3.666   4.617
 9226SOL     OW39708   7.637   2.382   5.446
 9226SOL    HW139709   7.696   2.342   5.376
 9226SOL    HW239710   7.579   2.453   5.405
 9227SOL     OW39711   8.817   2.812   5.384
 9227SOL    HW139712   8.856   2.901   5.404
 9227SOL    HW239713   8.827   2.792   5.287
 9228SOL     OW39714   8.119   2.326   4.993
 9228SOL    HW139715   8.085   2.237   4.963
 9228SOL    HW239716   8.145   2.380   4.913
 9229SOL     OW39717   7.607   2.999   5.190
 9229SOL    HW139718   7.629   2.938   5.266
 9229SOL    HW239719   7.617   2.950   5.104
 9230SOL     OW39720   8.750   2.717   4.033
 9230SOL    HW139721   8.664   2.686   4.075
 9230SOL    HW239722   8.746   2.703   3.934
 9231SOL     OW39723   8.700   3.593   4.852
 9231SOL    HW139724   8.784   3.598   4.798
 9231SOL    HW239725   8.677   3.497   4.870
 9232SOL     OW39726   7.531   3.120   4.746
 9232SOL    HW139727   7.526   3.119   4.846
 9232SOL    HW239728   7.448   3.079   4.708
 9233SOL     OW39729   9.098   3.582   5.118
 9233SOL    HW139730   9.151   3.592   5.034
 9233SOL    HW239731   9.071   3.672   5.152
 9234SOL     OW39732   8.642   3.474   3.755
 9234SOL    HW139733   8.648   3.381   3.792
 9234SOL    HW239734   8.583   3.474   3.675
 9235SOL     OW39735   8.952   3.469   3.768
 9235SOL    HW139736   8.860   3.506   3.775
 9235SOL    HW239737   8.990   3.489   3.678
 9236SOL     OW39738   7.820   3.150   5.214
 9236SOL    HW139739   7.807   3.243   5.180
 9236SOL    HW239740   7.736   3.098   5.201
 9237SOL     OW39741   9.062   3.154   5.013
 9237SOL    HW139742   9.122   3.157   5.093
 9237SOL    HW239743   8.987   3.218   5.026
 9238SOL     OW39744   8.462   2.098   4.695
 9238SOL    HW139745   8.454   2.062   4.602
 9238SOL    HW239746   8.460   2.022   4.760
 9239SOL     OW39747   8.038   3.349   4.215
 9239SOL    HW139748   8.080   3.291   4.145
 9239SOL    HW239749   7.994   3.428   4.171
 9240SOL     OW39750   7.703   3.210   4.014
 9240SOL    HW139751   7.607   3.211   3.987
 9240SOL    HW239752   7.715   3.263   4.098
 9241SOL     OW39753   7.553   2.875   5.450
 9241SOL    HW139754   7.476   2.842   5.504
 9241SOL    HW239755   7.638   2.845   5.492
 9242SOL     OW39756   8.888   2.718   5.122
 9242SOL    HW139757   8.831   2.770   5.059
 9242SOL    HW239758   8.984   2.730   5.098
 9243SOL     OW39759   8.631   3.197   3.843
 9243SOL    HW139760   8.532   3.186   3.845
 9243SOL    HW239761   8.665   3.212   3.936
 9244SOL     OW39762   8.061   2.704   5.155
 9244SOL    HW139763   8.117   2.785   5.138
 9244SOL    HW239764   8.120   2.624   5.158
 9245SOL     OW39765   8.164   2.427   5.432
 9245SOL    HW139766   8.183   2.492   5.506
 9245SOL    HW239767   8.224   2.347   5.441
 9246SOL     OW39768   8.673   2.187   4.173
 9246SOL    HW139769   8.738   2.113   4.162
 9246SOL    HW239770   8.693   2.237   4.257
 9247SOL     OW39771   8.042   2.607   4.376
 9247SOL    HW139772   8.092   2.692   4.357
 9247SOL    HW239773   7.954   2.609   4.328
 9248SOL     OW39774   9.225   2.204   5.366
 9248SOL    HW139775   9.208   2.235   5.272
 9248SOL    HW239776   9.141   2.167   5.404
 9249SOL     OW39777   8.307   3.236   3.740
 9249SOL    HW139778   8.261   3.251   3.828
 9249SOL    HW239779   8.351   3.321   3.710
 9250SOL     OW39780   9.309   3.431   4.575
 9250SOL    HW139781   9.238   3.419   4.505
 9250SOL    HW239782   9.310   3.352   4.635
 9251SOL     OW39783   7.669   3.176   5.568
 9251SOL    HW139784   7.604   3.103   5.547
 9251SOL    HW239785   7.673   3.190   5.666
 9252SOL     OW39786   7.876   2.286   4.244
 9252SOL    HW139787   7.906   2.214   4.182
 9252SOL    HW239788   7.837   2.246   4.327
 9253SOL     OW39789   8.449   1.896   4.878
 9253SOL    HW139790   8.386   1.824   4.847
 9253SOL    HW239791   8.542   1.860   4.878
 9254SOL     OW39792   8.066   3.429   5.008
 9254SOL    HW139793   8.061   3.511   5.065
 9254SOL    HW239794   8.155   3.426   4.963
 9255SOL     OW39795   7.487   2.939   4.024
 9255SOL    HW139796   7.586   2.928   4.015
 9255SOL    HW239797   7.447   2.853   4.056
 9256SOL     OW39798   7.678   2.490   5.699
 9256SOL    HW139799   7.585   2.488   5.736
 9256SOL    HW239800   7.679   2.451   5.607
 9257SOL     OW39801   7.673   2.137   6.582
 9257SOL    HW139802   7.708   2.120   6.674
 9257SOL    HW239803   7.585   2.092   6.570
 9258SOL     OW39804   7.467   2.230   6.233
 9258SOL    HW139805   7.385   2.273   6.272
 9258SOL    HW239806   7.439   2.157   6.170
 9259SOL     OW39807   8.017   3.137   6.751
 9259SOL    HW139808   7.924   3.130   6.714
 9259SOL    HW239809   8.028   3.226   6.795
 9260SOL     OW39810   9.003   3.373   6.289
 9260SOL    HW139811   8.946   3.357   6.370
 9260SOL    HW239812   8.944   3.383   6.209
 9261SOL     OW39813   8.583   2.565   6.303
 9261SOL    HW139814   8.640   2.643   6.278
 9261SOL    HW239815   8.523   2.591   6.379
 9262SOL     OW39816   9.203   2.469   5.817
 9262SOL    HW139817   9.191   2.456   5.718
 9262SOL    HW239818   9.173   2.388   5.866
 9263SOL     OW39819   8.216   3.006   6.609
 9263SOL    HW139820   8.138   3.023   6.669
 9263SOL    HW239821   8.250   3.093   6.573
 9264SOL     OW39822   8.133   2.874   6.251
 9264SOL    HW139823   8.202   2.858   6.321
 9264SOL    HW239824   8.060   2.931   6.289
 9265SOL     OW39825   7.783   3.297   6.647
 9265SOL    HW139826   7.705   3.266   6.594
 9265SOL    HW239827   7.841   3.355   6.590
 9266SOL     OW39828   9.051   2.309   6.323
 9266SOL    HW139829   8.977   2.355   6.273
 9266SOL    HW239830   9.102   2.377   6.376
 9267SOL     OW39831   7.688   2.953   6.472
 9267SOL    HW139832   7.702   2.869   6.524
 9267SOL    HW239833   7.633   3.017   6.527
 9268SOL     OW39834   8.068   3.648   7.025
 9268SOL    HW139835   7.976   3.631   7.060
 9268SOL    HW239836   8.096   3.740   7.051
 9269SOL     OW39837   8.054   2.826   5.709
 9269SOL    HW139838   8.061   2.910   5.655
 9269SOL    HW239839   8.100   2.839   5.797
 9270SOL     OW39840   7.570   2.505   6.149
 9270SOL    HW139841   7.525   2.417   6.166
 9270SOL    HW239842   7.569   2.559   6.233
 9271SOL     OW39843   9.137   2.784   6.198
 9271SOL    HW139844   9.232   2.755   6.206
 9271SOL    HW239845   9.129   2.849   6.123
 9272SOL     OW39846   9.089   2.970   6.018
 9272SOL    HW139847   9.175   2.972   5.966
 9272SOL    HW239848   9.103   3.017   6.106
 9273SOL     OW39849   8.061   3.227   6.312
 9273SOL    HW139850   8.012   3.140   6.321
 9273SOL    HW239851   8.038   3.270   6.225
 9274SOL     OW39852   8.257   1.866   6.088
 9274SOL    HW139853   8.297   1.957   6.079
 9274SOL    HW239854   8.157   1.874   6.094
 9275SOL     OW39855   7.645   2.838   6.850
 9275SOL    HW139856   7.734   2.793   6.836
 9275SOL    HW239857   7.572   2.773   6.831
 9276SOL     OW39858   8.973   2.861   5.776
 9276SOL    HW139859   8.910   2.785   5.789
 9276SOL    HW239860   9.021   2.879   5.862
 9277SOL     OW39861   8.914   3.279   6.539
 9277SOL    HW139862   8.855   3.285   6.619
 9277SOL    HW239863   8.899   3.191   6.493
 9278SOL     OW39864   9.115   3.576   6.158
 9278SOL    HW139865   9.074   3.553   6.070
 9278SOL    HW239866   9.097   3.502   6.223
 9279SOL     OW39867   8.046   2.591   5.856
 9279SOL    HW139868   8.070   2.660   5.788
 9279SOL    HW239869   7.968   2.624   5.910
 9280SOL     OW39870   8.729   2.207   6.530
 9280SOL    HW139871   8.643   2.157   6.517
 9280SOL    HW239872   8.791   2.153   6.586
 9281SOL     OW39873   9.024   3.524   5.893
 9281SOL    HW139874   9.113   3.570   5.896
 9281SOL    HW239875   9.003   3.500   5.798
 9282SOL     OW39876   8.439   2.272   6.828
 9282SOL    HW139877   8.362   2.306   6.882
 9282SOL    HW239878   8.405   2.221   6.749
 9283SOL     OW39879   8.489   2.563   6.015
 9283SOL    HW139880   8.515   2.559   6.111
 9283SOL    HW239881   8.404   2.512   6.001
 9284SOL     OW39882   7.524   2.673   6.375
 9284SOL    HW139883   7.623   2.661   6.384
 9284SOL    HW239884   7.500   2.768   6.396
 9285SOL     OW39885   8.313   2.210   5.781
 9285SOL    HW139886   8.372   2.273   5.732
 9285SOL    HW239887   8.332   2.116   5.752
 9286SOL     OW39888   8.810   3.006   6.131
 9286SOL    HW139889   8.893   2.977   6.083
 9286SOL    HW239890   8.761   3.073   6.075
 9287SOL     OW39891   7.998   2.058   6.471
 9287SOL    HW139892   7.993   2.053   6.571
 9287SOL    HW239893   8.000   2.154   6.442
 9288SOL     OW39894   8.456   3.318   6.063
 9288SOL    HW139895   8.410   3.390   6.011
 9288SOL    HW239896   8.452   3.338   6.161
 9289SOL     OW39897   7.799   3.663   6.439
 9289SOL    HW139898   7.849   3.577   6.445
 9289SOL    HW239899   7.864   3.740   6.436
 9290SOL     OW39900   9.243   2.928   6.459
 9290SOL    HW139901   9.181   2.913   6.383
 9290SOL    HW239902   9.191   2.939   6.544
 9291SOL     OW39903   7.769   2.805   5.828
 9291SOL    HW139904   7.851   2.844   5.786
 9291SOL    HW239905   7.742   2.723   5.779
 9292SOL     OW39906   8.906   2.597   6.314
 9292SOL    HW139907   8.901   2.532   6.389
 9292SOL    HW239908   8.986   2.656   6.327
 9293SOL     OW39909   9.080   3.239   5.667
 9293SOL    HW139910   9.048   3.333   5.657
 9293SOL    HW239911   9.004   3.176   5.655
 9294SOL     OW39912   8.848   1.969   6.012
 9294SOL    HW139913   8.824   1.932   5.922
 9294SOL    HW239914   8.947   1.985   6.016
 9295SOL     OW39915   7.697   3.647   6.827
 9295SOL    HW139916   7.754   3.582   6.877
 9295SOL    HW239917   7.681   3.614   6.734
 9296SOL     OW39918   8.388   3.560   6.490
 9296SOL    HW139919   8.468   3.503   6.511
 9296SOL    HW239920   8.339   3.520   6.413
 9297SOL     OW39921   7.830   2.562   6.066
 9297SOL    HW139922   7.875   2.472   6.063
 9297SOL    HW239923   7.736   2.551   6.099
 9298SOL     OW39924   8.251   3.264   6.510
 9298SOL    HW139925   8.341   3.278   6.468
 9298SOL    HW239926   8.180   3.266   6.439
 9299SOL     OW39927   8.370   2.365   6.485
 9299SOL    HW139928   8.345   2.356   6.389
 9299SOL    HW239929   8.418   2.283   6.516
 9300SOL     OW39930   7.987   1.926   6.098
 9300SOL    HW139931   7.906   1.927   6.156
 9300SOL    HW239932   7.990   2.009   6.043
 9301SOL     OW39933   8.882   3.050   5.627
 9301SOL    HW139934   8.914   2.974   5.684
 9301SOL    HW239935   8.790   3.077   5.657
 9302SOL     OW39936   8.383   2.098   6.066
 9302SOL    HW139937   8.335   2.139   5.988
 9302SOL    HW239938   8.482   2.096   6.047
 9303SOL     OW39939   8.675   3.432   6.379
 9303SOL    HW139940   8.696   3.506   6.314
 9303SOL    HW239941   8.743   3.432   6.452
 9304SOL     OW39942   7.907   3.014   6.327
 9304SOL    HW139943   7.836   2.987   6.392
 9304SOL    HW239944   7.881   2.986   6.234
 9305SOL     OW39945   8.719   3.659   6.177
 9305SOL    HW139946   8.763   3.723   6.113
 9305SOL    HW239947   8.669   3.711   6.247
 9306SOL     OW39948   8.009   2.084   6.733
 9306SOL    HW139949   8.047   2.000   6.770
 9306SOL    HW239950   7.921   2.103   6.777
 9307SOL     OW39951   8.314   2.316   6.228
 9307SOL    HW139952   8.282   2.388   6.166
 9307SOL    HW239953   8.338   2.235   6.175
 9308SOL     OW39954   8.465   1.901   6.339
 9308SOL    HW139955   8.393   1.906   6.270
 9308SOL    HW239956   8.441   1.832   6.408
 9309SOL     OW39957   8.877   3.035   6.453
 9309SOL    HW139958   8.822   2.951   6.446
 9309SOL    HW239959   8.903   3.064   6.361
 9310SOL     OW39960   8.914   2.452   6.578
 9310SOL    HW139961   8.884   2.357   6.585
 9310SOL    HW239962   8.987   2.468   6.644
 9311SOL     OW39963   9.305   2.695   5.963
 9311SOL    HW139964   9.347   2.631   6.027
 9311SOL    HW239965   9.267   2.644   5.885
 9312SOL     OW39966   9.112   3.142   6.243
 9312SOL    HW139967   9.211   3.150   6.257
 9312SOL    HW239968   9.067   3.226   6.274
 9313SOL     OW39969   9.202   3.085   7.174
 9313SOL    HW139970   9.293   3.046   7.161
 9313SOL    HW239971   9.210   3.181   7.198
 9314SOL     OW39972   8.559   3.057   6.686
 9314SOL    HW139973   8.519   3.101   6.767
 9314SOL    HW239974   8.518   3.094   6.603
 9315SOL     OW39975   9.086   2.961   6.665
 9315SOL    HW139976   9.091   3.042   6.724
 9315SOL    HW239977   9.000   2.963   6.614
 9316SOL     OW39978   7.858   2.675   6.837
 9316SOL    HW139979   7.944   2.687   6.887
 9316SOL    HW239980   7.816   2.588   6.864
 9317SOL     OW39981   8.722   2.248   6.848
 9317SOL    HW139982   8.743   2.322   6.912
 9317SOL    HW239983   8.633   2.265   6.805
 9318SOL     OW39984   7.815   2.962   6.087
 9318SOL    HW139985   7.808   3.045   6.031
 9318SOL    HW239986   7.819   2.882   6.027
 9319SOL     OW39987   8.014   2.399   6.451
 9319SOL    HW139988   8.026   2.465   6.377
 9319SOL    HW239989   8.060   2.433   6.534
 9320SOL     OW39990   8.700   3.210   5.974
 9320SOL    HW139991   8.750   3.287   6.014
 9320SOL    HW239992   8.605   3.212   6.006
 9321SOL     OW39993   8.720   3.307   6.728
 9321SOL    HW139994   8.767   3.320   6.815
 9321SOL    HW239995   8.654   3.233   6.737
 9322SOL     OW39996   9.030   2.501   6.058
 9322SOL    HW139997   8.999   2.562   6.131
 9322SOL    HW239998   9.080   2.553   5.989
 9323SOL     OW39999   7.802   3.372   6.915
 9323SOL    HW140000   7.781   3.328   6.828
 9323SOL    HW240001   7.899   3.398   6.918
 9324SOL     OW40002   8.021   2.732   6.615
 9324SOL    HW140003   8.065   2.821   6.606
 9324SOL    HW240004   7.958   2.732   6.692
 9325SOL     OW40005   8.808   2.724   6.631
 9325SOL    HW140006   8.733   2.724   6.565
 9325SOL    HW240007   8.845   2.632   6.640
 9326SOL     OW40008   8.657   2.387   5.861
 9326SOL    HW140009   8.670   2.303   5.915
 9326SOL    HW240010   8.628   2.461   5.921
 9327SOL     OW40011   7.755   2.075   6.817
 9327SOL    HW140012   7.732   2.112   6.907
 9327SOL    HW240013   7.725   1.980   6.811
 9328SOL     OW40014   7.485   3.172   6.868
 9328SOL    HW140015   7.538   3.123   6.936
 9328SOL    HW240016   7.507   3.270   6.873
 9329SOL     OW40017   8.180   2.496   6.650
 9329SOL    HW140018   8.239   2.470   6.574
 9329SOL    HW240019   8.152   2.592   6.639
 9330SOL     OW40020   7.755   1.925   6.204
 9330SOL    HW140021   7.744   2.019   6.237
 9330SOL    HW240022   7.750   1.862   6.281
 9331SOL     OW40023   9.070   2.229   5.960
 9331SOL    HW140024   9.072   2.153   6.024
 9331SOL    HW240025   9.022   2.306   6.000
 9332SOL     OW40026   8.471   2.628   6.552
 9332SOL    HW140027   8.486   2.649   6.648
 9332SOL    HW240028   8.441   2.533   6.543
 9333SOL     OW40029   8.516   3.195   6.435
 9333SOL    HW140030   8.523   3.111   6.380
 9333SOL    HW240031   8.578   3.264   6.399
 9334SOL     OW40032   7.767   2.672   6.535
 9334SOL    HW140033   7.860   2.708   6.540
 9334SOL    HW240034   7.761   2.587   6.587
 9335SOL     OW40035   7.787   2.371   6.592
 9335SOL    HW140036   7.735   2.288   6.575
 9335SOL    HW240037   7.864   2.376   6.528
 9336SOL     OW40038   8.608   2.069   7.063
 9336SOL    HW140039   8.608   2.133   7.140
 9336SOL    HW240040   8.636   2.117   6.980
 9337SOL     OW40041   7.536   3.663   6.513
 9337SOL    HW140042   7.494   3.577   6.486
 9337SOL    HW240043   7.630   3.666   6.479
 9338SOL     OW40044   7.952   3.430   6.496
 9338SOL    HW140045   8.018   3.504   6.505
 9338SOL    HW240046   7.996   3.351   6.454
 9339SOL     OW40047   8.450   2.658   6.824
 9339SOL    HW140048   8.491   2.626   6.910
 9339SOL    HW240049   8.354   2.631   6.821
 9340SOL     OW40050   7.488   2.406   6.700
 9340SOL    HW140051   7.573   2.373   6.659
 9340SOL    HW240052   7.501   2.421   6.798
 9341SOL     OW40053   8.263   2.434   5.911
 9341SOL    HW140054   8.270   2.345   5.865
 9341SOL    HW240055   8.169   2.468   5.903
 9342SOL     OW40056   9.105   2.466   6.792
 9342SOL    HW140057   9.067   2.397   6.854
 9342SOL    HW240058   9.187   2.430   6.748
 9343SOL     OW40059   8.119   2.326   6.855
 9343SOL    HW140060   8.085   2.237   6.825
 9343SOL    HW240061   8.145   2.380   6.775
 9344SOL     OW40062   8.378   3.540   7.051
 9344SOL    HW140063   8.354   3.522   6.956
 9344SOL    HW240064   8.408   3.634   7.061
 9345SOL     OW40065   7.921   2.362   5.777
 9345SOL    HW140066   7.982   2.442   5.781
 9345SOL    HW240067   7.826   2.393   5.784
 9346SOL     OW40068   8.795   2.921   6.820
 9346SOL    HW140069   8.819   2.858   6.746
 9346SOL    HW240070   8.705   2.961   6.802
 9347SOL     OW40071   8.750   2.717   5.895
 9347SOL    HW140072   8.664   2.686   5.937
 9347SOL    HW240073   8.746   2.703   5.796
 9348SOL     OW40074   9.207   3.609   6.740
 9348SOL    HW140075   9.268   3.639   6.667
 9348SOL    HW240076   9.169   3.520   6.718
 9349SOL     OW40077   8.700   3.593   6.714
 9349SOL    HW140078   8.784   3.598   6.660
 9349SOL    HW240079   8.677   3.497   6.732
 9350SOL     OW40080   7.531   3.120   6.608
 9350SOL    HW140081   7.526   3.119   6.708
 9350SOL    HW240082   7.448   3.079   6.570
 9351SOL     OW40083   9.174   1.997   6.109
 9351SOL    HW140084   9.247   1.980   6.042
 9351SOL    HW240085   9.143   1.910   6.147
 9352SOL     OW40086   8.836   3.435   6.063
 9352SOL    HW140087   8.903   3.447   5.989
 9352SOL    HW240088   8.796   3.524   6.086
 9353SOL     OW40089   8.728   2.789   6.258
 9353SOL    HW140090   8.788   2.708   6.260
 9353SOL    HW240091   8.768   2.858   6.198
 9354SOL     OW40092   9.098   3.582   6.980
 9354SOL    HW140093   9.151   3.592   6.896
 9354SOL    HW240094   9.071   3.672   7.014
 9355SOL     OW40095   9.289   2.037   6.549
 9355SOL    HW140096   9.328   1.952   6.513
 9355SOL    HW240097   9.191   2.039   6.530
 9356SOL     OW40098   7.711   2.188   6.306
 9356SOL    HW140099   7.632   2.239   6.272
 9356SOL    HW240100   7.702   2.173   6.404
 9357SOL     OW40101   8.270   2.864   6.958
 9357SOL    HW140102   8.310   2.863   6.866
 9357SOL    HW240103   8.280   2.956   6.998
 9358SOL     OW40104   8.364   2.772   5.877
 9358SOL    HW140105   8.427   2.810   5.809
 9358SOL    HW240106   8.404   2.689   5.916
 9359SOL     OW40107   8.952   3.469   5.630
 9359SOL    HW140108   8.860   3.506   5.637
 9359SOL    HW240109   8.990   3.489   5.540
 9360SOL     OW40110   8.487   2.960   6.282
 9360SOL    HW140111   8.417   2.913   6.336
 9360SOL    HW240112   8.546   2.892   6.239
 9361SOL     OW40113   8.462   2.098   6.557
 9361SOL    HW140114   8.454   2.062   6.464
 9361SOL    HW240115   8.460   2.022   6.622
 9362SOL     OW40116   8.038   3.349   6.077
 9362SOL    HW140117   8.080   3.291   6.007
 9362SOL    HW240118   7.994   3.428   6.033
 9363SOL     OW40119   9.157   2.247   6.967
 9363SOL    HW140120   9.230   2.316   6.971
 9363SOL    HW240121   9.185   2.172   6.908
 9364SOL     OW40122   7.703   3.210   5.876
 9364SOL    HW140123   7.607   3.211   5.849
 9364SOL    HW240124   7.715   3.263   5.960
 9365SOL     OW40125   8.631   3.197   5.705
 9365SOL    HW140126   8.532   3.186   5.707
 9365SOL    HW240127   8.665   3.212   5.798
 9366SOL     OW40128   8.941   3.629   6.545
 9366SOL    HW140129   8.974   3.693   6.476
 9366SOL    HW240130   9.007   3.623   6.620
 9367SOL     OW40131   8.898   3.082   7.219
 9367SOL    HW140132   8.889   3.072   7.318
 9367SOL    HW240133   8.994   3.075   7.193
 9368SOL     OW40134   9.122   2.745   6.840
 9368SOL    HW140135   9.095   2.656   6.803
 9368SOL    HW240136   9.123   2.813   6.767
 9369SOL     OW40137   8.673   2.187   6.035
 9369SOL    HW140138   8.738   2.113   6.024
 9369SOL    HW240139   8.693   2.237   6.119
 9370SOL     OW40140   8.042   2.607   6.238
 9370SOL    HW140141   8.092   2.692   6.219
 9370SOL    HW240142   7.954   2.609   6.190
 9371SOL     OW40143   9.178   2.796   7.103
 9371SOL    HW140144   9.216   2.887   7.118
 9371SOL    HW240145   9.170   2.779   7.004
 9372SOL     OW40146   8.109   3.652   6.539
 9372SOL    HW140147   8.063   3.740   6.526
 9372SOL    HW240148   8.208   3.664   6.532
 9373SOL     OW40149   8.307   2.818   6.447
 9373SOL    HW140150   8.361   2.749   6.495
 9373SOL    HW240151   8.275   2.887   6.513
 9374SOL     OW40152   9.309   3.431   6.437
 9374SOL    HW140153   9.238   3.419   6.367
 9374SOL    HW240154   9.310   3.352   6.497
 9375SOL     OW40155   7.527   3.102   6.239
 9375SOL    HW140156   7.526   3.055   6.327
 9375SOL    HW240157   7.609   3.074   6.188
 9376SOL     OW40158   9.272   2.054   6.813
 9376SOL    HW140159   9.268   1.964   6.857
 9376SOL    HW240160   9.275   2.043   6.714
 9377SOL     OW40161   7.876   2.286   6.106
 9377SOL    HW140162   7.906   2.214   6.044
 9377SOL    HW240163   7.837   2.246   6.189
 9378SOL     OW40164   9.153   3.349   6.690
 9378SOL    HW140165   9.060   3.324   6.663
 9378SOL    HW240166   9.179   3.299   6.772
 9379SOL     OW40167   8.260   3.448   6.273
 9379SOL    HW140168   8.292   3.458   6.179
 9379SOL    HW240169   8.181   3.386   6.275
 9380SOL     OW40170   8.872   2.076   6.698
 9380SOL    HW140171   8.924   2.011   6.753
 9380SOL    HW240172   8.823   2.139   6.759
 9381SOL     OW40173   8.449   1.896   6.740
 9381SOL    HW140174   8.386   1.824   6.709
 9381SOL    HW240175   8.542   1.860   6.740
 9382SOL     OW40176   8.748   2.315   6.277
 9382SOL    HW140177   8.689   2.395   6.281
 9382SOL    HW240178   8.763   2.280   6.370
 9383SOL     OW40179   9.041   2.083   6.468
 9383SOL    HW140180   8.957   2.082   6.522
 9383SOL    HW240181   9.043   2.166   6.412
 9384SOL     OW40182   7.487   2.939   5.886
 9384SOL    HW140183   7.586   2.928   5.877
 9384SOL    HW240184   7.447   2.853   5.918
 9385SOL     OW40185   7.678   4.352   0.113
 9385SOL    HW140186   7.585   4.350   0.150
 9385SOL    HW240187   7.679   4.313   0.021
 9386SOL     OW40188   7.673   3.999   0.996
 9386SOL    HW140189   7.708   3.982   1.088
 9386SOL    HW240190   7.585   3.954   0.984
 9387SOL     OW40191   7.467   4.092   0.647
 9387SOL    HW140192   7.385   4.135   0.686
 9387SOL    HW240193   7.439   4.019   0.584
 9388SOL     OW40194   9.003   5.235   0.703
 9388SOL    HW140195   8.946   5.219   0.784
 9388SOL    HW240196   8.944   5.245   0.623
 9389SOL     OW40197   8.583   4.427   0.717
 9389SOL    HW140198   8.640   4.505   0.692
 9389SOL    HW240199   8.523   4.453   0.793
 9390SOL     OW40200   9.203   4.331   0.231
 9390SOL    HW140201   9.191   4.318   0.132
 9390SOL    HW240202   9.173   4.250   0.280
 9391SOL     OW40203   8.133   4.736   0.665
 9391SOL    HW140204   8.202   4.720   0.735
 9391SOL    HW240205   8.060   4.793   0.703
 9392SOL     OW40206   8.134   4.885   1.803
 9392SOL    HW140207   8.194   4.964   1.817
 9392SOL    HW240208   8.048   4.916   1.762
 9393SOL     OW40209   8.908   5.229   1.339
 9393SOL    HW140210   8.932   5.323   1.365
 9393SOL    HW240211   8.892   5.175   1.421
 9394SOL     OW40212   9.051   4.171   0.737
 9394SOL    HW140213   8.977   4.217   0.687
 9394SOL    HW240214   9.102   4.239   0.790
 9395SOL     OW40215   7.679   5.437   0.483
 9395SOL    HW140216   7.713   5.514   0.537
 9395SOL    HW240217   7.723   5.437   0.393
 9396SOL     OW40218   8.575   5.065   1.690
 9396SOL    HW140219   8.622   5.065   1.778
 9396SOL    HW240220   8.527   4.978   1.679
 9397SOL     OW40221   7.678   5.158   0.538
 9397SOL    HW140222   7.652   5.254   0.538
 9397SOL    HW240223   7.607   5.104   0.583
 9398SOL     OW40224   7.688   4.815   0.886
 9398SOL    HW140225   7.702   4.731   0.938
 9398SOL    HW240226   7.633   4.879   0.941
 9399SOL     OW40227   8.054   4.688   0.123
 9399SOL    HW140228   8.061   4.772   0.069
 9399SOL    HW240229   8.100   4.701   0.211
 9400SOL     OW40230   7.570   4.367   0.563
 9400SOL    HW140231   7.525   4.279   0.580
 9400SOL    HW240232   7.569   4.421   0.647
 9401SOL     OW40233   9.290   5.491   0.359
 9401SOL    HW140234   9.344   5.462   0.439
 9401SOL    HW240235   9.320   5.581   0.330
 9402SOL     OW40236   7.475   5.320   0.117
 9402SOL    HW140237   7.456   5.224   0.138
 9402SOL    HW240238   7.442   5.378   0.192
 9403SOL     OW40239   9.137   4.646   0.612
 9403SOL    HW140240   9.232   4.617   0.620
 9403SOL    HW240241   9.129   4.711   0.537
 9404SOL     OW40242   9.089   4.832   0.432
 9404SOL    HW140243   9.175   4.834   0.380
 9404SOL    HW240244   9.103   4.879   0.520
 9405SOL     OW40245   8.061   5.089   0.726
 9405SOL    HW140246   8.012   5.002   0.735
 9405SOL    HW240247   8.038   5.132   0.639
 9406SOL     OW40248   8.257   3.728   0.502
 9406SOL    HW140249   8.297   3.819   0.493
 9406SOL    HW240250   8.157   3.736   0.508
 9407SOL     OW40251   8.973   4.723   0.190
 9407SOL    HW140252   8.910   4.647   0.203
 9407SOL    HW240253   9.021   4.741   0.276
 9408SOL     OW40254   7.765   3.975   1.801
 9408SOL    HW140255   7.836   4.046   1.807
 9408SOL    HW240256   7.677   4.014   1.829
 9409SOL     OW40257   8.914   5.141   0.953
 9409SOL    HW140258   8.855   5.147   1.033
 9409SOL    HW240259   8.899   5.053   0.907
 9410SOL     OW40260   9.115   5.438   0.572
 9410SOL    HW140261   9.074   5.415   0.484
 9410SOL    HW240262   9.097   5.364   0.637
 9411SOL     OW40263   8.046   4.453   0.270
 9411SOL    HW140264   8.070   4.522   0.202
 9411SOL    HW240265   7.968   4.486   0.324
 9412SOL     OW40266   8.729   4.069   0.944
 9412SOL    HW140267   8.643   4.019   0.931
 9412SOL    HW240268   8.791   4.015   1.000
 9413SOL     OW40269   9.024   5.386   0.307
 9413SOL    HW140270   9.113   5.432   0.310
 9413SOL    HW240271   9.003   5.362   0.212
 9414SOL     OW40272   8.421   4.614   1.572
 9414SOL    HW140273   8.467   4.530   1.543
 9414SOL    HW240274   8.365   4.648   1.497
 9415SOL     OW40275   8.489   4.425   0.429
 9415SOL    HW140276   8.515   4.421   0.525
 9415SOL    HW240277   8.404   4.374   0.415
 9416SOL     OW40278   7.524   4.535   0.789
 9416SOL    HW140279   7.623   4.523   0.798
 9416SOL    HW240280   7.500   4.630   0.810
 9417SOL     OW40281   8.313   4.072   0.195
 9417SOL    HW140282   8.372   4.135   0.146
 9417SOL    HW240283   8.332   3.978   0.166
 9418SOL     OW40284   8.810   4.868   0.545
 9418SOL    HW140285   8.893   4.839   0.497
 9418SOL    HW240286   8.761   4.935   0.489
 9419SOL     OW40287   7.998   3.920   0.885
 9419SOL    HW140288   7.993   3.915   0.985
 9419SOL    HW240289   8.000   4.016   0.856
 9420SOL     OW40290   8.456   5.180   0.477
 9420SOL    HW140291   8.410   5.252   0.425
 9420SOL    HW240292   8.452   5.200   0.575
 9421SOL     OW40293   8.675   5.274   1.506
 9421SOL    HW140294   8.681   5.197   1.570
 9421SOL    HW240295   8.623   5.248   1.426
 9422SOL     OW40296   7.769   4.667   0.242
 9422SOL    HW140297   7.851   4.706   0.200
 9422SOL    HW240298   7.742   4.585   0.193
 9423SOL     OW40299   8.906   4.459   0.728
 9423SOL    HW140300   8.901   4.394   0.803
 9423SOL    HW240301   8.986   4.518   0.741
 9424SOL     OW40302   8.559   5.500   0.237
 9424SOL    HW140303   8.499   5.438   0.287
 9424SOL    HW240304   8.590   5.456   0.152
 9425SOL     OW40305   7.650   4.009   1.498
 9425SOL    HW140306   7.570   4.069   1.485
 9425SOL    HW240307   7.640   3.960   1.584
 9426SOL     OW40308   9.080   5.101   0.081
 9426SOL    HW140309   9.048   5.195   0.071
 9426SOL    HW240310   9.004   5.038   0.069
 9427SOL     OW40311   7.912   5.467   0.323
 9427SOL    HW140312   7.945   5.506   0.409
 9427SOL    HW240313   7.988   5.460   0.258
 9428SOL     OW40314   8.848   3.831   0.426
 9428SOL    HW140315   8.824   3.794   0.336
 9428SOL    HW240316   8.947   3.847   0.430
 9429SOL     OW40317   7.697   5.509   1.241
 9429SOL    HW140318   7.754   5.444   1.291
 9429SOL    HW240319   7.681   5.476   1.148
 9430SOL     OW40320   8.388   5.422   0.904
 9430SOL    HW140321   8.468   5.365   0.925
 9430SOL    HW240322   8.339   5.382   0.827
 9431SOL     OW40323   7.830   4.424   0.480
 9431SOL    HW140324   7.875   4.334   0.477
 9431SOL    HW240325   7.736   4.413   0.513
 9432SOL     OW40326   8.251   5.126   0.924
 9432SOL    HW140327   8.341   5.140   0.882
 9432SOL    HW240328   8.180   5.128   0.853
 9433SOL     OW40329   8.370   4.227   0.899
 9433SOL    HW140330   8.345   4.218   0.803
 9433SOL    HW240331   8.418   4.145   0.930
 9434SOL     OW40332   7.987   3.788   0.512
 9434SOL    HW140333   7.906   3.789   0.570
 9434SOL    HW240334   7.990   3.871   0.457
 9435SOL     OW40335   8.882   4.912   0.041
 9435SOL    HW140336   8.914   4.836   0.098
 9435SOL    HW240337   8.790   4.939   0.071
 9436SOL     OW40338   7.745   3.759   0.171
 9436SOL    HW140339   7.794   3.843   0.150
 9436SOL    HW240340   7.807   3.694   0.216
 9437SOL     OW40341   8.383   3.960   0.480
 9437SOL    HW140342   8.335   4.001   0.402
 9437SOL    HW240343   8.482   3.958   0.461
 9438SOL     OW40344   8.675   5.294   0.793
 9438SOL    HW140345   8.696   5.368   0.728
 9438SOL    HW240346   8.743   5.294   0.866
 9439SOL     OW40347   7.907   4.876   0.741
 9439SOL    HW140348   7.836   4.849   0.806
 9439SOL    HW240349   7.881   4.848   0.648
 9440SOL     OW40350   8.719   5.521   0.591
 9440SOL    HW140351   8.763   5.585   0.527
 9440SOL    HW240352   8.669   5.573   0.661
 9441SOL     OW40353   8.480   4.273   0.016
 9441SOL    HW140354   8.439   4.355  -0.023
 9441SOL    HW240355   8.544   4.299   0.089
 9442SOL     OW40356   7.526   4.280   1.386
 9442SOL    HW140357   7.618   4.279   1.345
 9442SOL    HW240358   7.520   4.354   1.453
 9443SOL     OW40359   8.009   3.946   1.147
 9443SOL    HW140360   8.047   3.862   1.184
 9443SOL    HW240361   7.921   3.965   1.191
 9444SOL     OW40362   8.314   4.178   0.642
 9444SOL    HW140363   8.282   4.250   0.580
 9444SOL    HW240364   8.338   4.097   0.589
 9445SOL     OW40365   8.465   3.763   0.753
 9445SOL    HW140366   8.393   3.768   0.684
 9445SOL    HW240367   8.441   3.694   0.822
 9446SOL     OW40368   8.877   4.897   0.867
 9446SOL    HW140369   8.822   4.813   0.860
 9446SOL    HW240370   8.903   4.926   0.775
 9447SOL     OW40371   8.914   4.314   0.992
 9447SOL    HW140372   8.884   4.219   0.999
 9447SOL    HW240373   8.987   4.330   1.058
 9448SOL     OW40374   9.305   4.557   0.377
 9448SOL    HW140375   9.347   4.493   0.441
 9448SOL    HW240376   9.267   4.506   0.299
 9449SOL     OW40377   7.936   5.109   0.174
 9449SOL    HW140378   7.849   5.094   0.221
 9449SOL    HW240379   7.919   5.135   0.079
 9450SOL     OW40380   9.112   5.004   0.657
 9450SOL    HW140381   9.211   5.012   0.671
 9450SOL    HW240382   9.067   5.088   0.688
 9451SOL     OW40383   8.838   4.299   0.078
 9451SOL    HW140384   8.784   4.278   0.159
 9451SOL    HW240385   8.929   4.258   0.087
 9452SOL     OW40386   7.975   3.980   0.328
 9452SOL    HW140387   8.002   3.921   0.253
 9452SOL    HW240388   7.975   4.075   0.297
 9453SOL     OW40389   9.202   4.947   1.588
 9453SOL    HW140390   9.293   4.908   1.575
 9453SOL    HW240391   9.210   5.043   1.612
 9454SOL     OW40392   9.040   5.353   1.625
 9454SOL    HW140393   9.067   5.387   1.535
 9454SOL    HW240394   9.119   5.315   1.671
 9455SOL     OW40395   8.363   3.813   1.402
 9455SOL    HW140396   8.388   3.793   1.307
 9455SOL    HW240397   8.435   3.869   1.444
 9456SOL     OW40398   8.153   4.774   0.368
 9456SOL    HW140399   8.139   4.781   0.467
 9456SOL    HW240400   8.237   4.723   0.350
 9457SOL     OW40401   7.512   5.288   1.331
 9457SOL    HW140402   7.466   5.370   1.297
 9457SOL    HW240403   7.610   5.307   1.340
 9458SOL     OW40404   7.815   4.824   0.501
 9458SOL    HW140405   7.808   4.907   0.445
 9458SOL    HW240406   7.819   4.744   0.441
 9459SOL     OW40407   8.014   4.261   0.865
 9459SOL    HW140408   8.026   4.327   0.791
 9459SOL    HW240409   8.060   4.295   0.948
 9460SOL     OW40410   8.700   5.072   0.388
 9460SOL    HW140411   8.750   5.149   0.428
 9460SOL    HW240412   8.605   5.074   0.420
 9461SOL     OW40413   9.030   4.363   0.472
 9461SOL    HW140414   8.999   4.424   0.545
 9461SOL    HW240415   9.080   4.415   0.403
 9462SOL     OW40416   7.952   3.774   1.740
 9462SOL    HW140417   7.910   3.717   1.670
 9462SOL    HW240418   7.886   3.843   1.772
 9463SOL     OW40419   8.808   4.586   1.045
 9463SOL    HW140420   8.733   4.586   0.979
 9463SOL    HW240421   8.845   4.494   1.054
 9464SOL     OW40422   8.657   4.249   0.275
 9464SOL    HW140423   8.670   4.165   0.329
 9464SOL    HW240424   8.628   4.323   0.335
 9465SOL     OW40425   7.755   3.937   1.231
 9465SOL    HW140426   7.732   3.974   1.321
 9465SOL    HW240427   7.725   3.842   1.225
 9466SOL     OW40428   7.485   5.034   1.282
 9466SOL    HW140429   7.538   4.985   1.350
 9466SOL    HW240430   7.507   5.132   1.287
 9467SOL     OW40431   8.180   4.358   1.064
 9467SOL    HW140432   8.239   4.332   0.988
 9467SOL    HW240433   8.152   4.454   1.053
 9468SOL     OW40434   7.755   3.787   0.618
 9468SOL    HW140435   7.744   3.881   0.651
 9468SOL    HW240436   7.750   3.724   0.695
 9469SOL     OW40437   9.070   4.091   0.374
 9469SOL    HW140438   9.072   4.015   0.438
 9469SOL    HW240439   9.022   4.168   0.414
 9470SOL     OW40440   8.471   4.490   0.966
 9470SOL    HW140441   8.486   4.511   1.062
 9470SOL    HW240442   8.441   4.395   0.957
 9471SOL     OW40443   8.988   3.998   0.125
 9471SOL    HW140444   8.927   3.923   0.148
 9471SOL    HW240445   9.010   4.050   0.208
 9472SOL     OW40446   8.751   4.562   0.042
 9472SOL    HW140447   8.785   4.469   0.057
 9472SOL    HW240448   8.769   4.589  -0.053
 9473SOL     OW40449   8.516   5.057   0.849
 9473SOL    HW140450   8.523   4.973   0.794
 9473SOL    HW240451   8.578   5.126   0.813
 9474SOL     OW40452   7.787   4.233   1.006
 9474SOL    HW140453   7.735   4.150   0.989
 9474SOL    HW240454   7.864   4.238   0.942
 9475SOL     OW40455   8.450   4.520   1.238
 9475SOL    HW140456   8.491   4.488   1.324
 9475SOL    HW240457   8.354   4.493   1.235
 9476SOL     OW40458   7.637   4.244   1.722
 9476SOL    HW140459   7.696   4.204   1.652
 9476SOL    HW240460   7.579   4.315   1.681
 9477SOL     OW40461   8.817   4.674   1.660
 9477SOL    HW140462   8.856   4.763   1.680
 9477SOL    HW240463   8.827   4.654   1.563
 9478SOL     OW40464   8.263   4.296   0.325
 9478SOL    HW140465   8.270   4.207   0.279
 9478SOL    HW240466   8.169   4.330   0.317
 9479SOL     OW40467   9.105   4.328   1.206
 9479SOL    HW140468   9.067   4.259   1.268
 9479SOL    HW240469   9.187   4.292   1.162
 9480SOL     OW40470   8.119   4.188   1.269
 9480SOL    HW140471   8.085   4.099   1.239
 9480SOL    HW240472   8.145   4.242   1.189
 9481SOL     OW40473   8.378   5.402   1.465
 9481SOL    HW140474   8.354   5.384   1.370
 9481SOL    HW240475   8.408   5.496   1.475
 9482SOL     OW40476   7.921   4.224   0.191
 9482SOL    HW140477   7.982   4.304   0.195
 9482SOL    HW240478   7.826   4.255   0.198
 9483SOL     OW40479   7.607   4.861   1.466
 9483SOL    HW140480   7.629   4.800   1.542
 9483SOL    HW240481   7.617   4.812   1.380
 9484SOL     OW40482   8.750   4.579   0.309
 9484SOL    HW140483   8.664   4.548   0.351
 9484SOL    HW240484   8.746   4.565   0.210
 9485SOL     OW40485   9.207   5.471   1.154
 9485SOL    HW140486   9.268   5.501   1.081
 9485SOL    HW240487   9.169   5.382   1.132
 9486SOL     OW40488   8.700   5.455   1.128
 9486SOL    HW140489   8.784   5.460   1.074
 9486SOL    HW240490   8.677   5.359   1.146
 9487SOL     OW40491   7.531   4.982   1.022
 9487SOL    HW140492   7.526   4.981   1.122
 9487SOL    HW240493   7.448   4.941   0.984
 9488SOL     OW40494   8.351   3.810   0.133
 9488SOL    HW140495   8.402   3.811   0.047
 9488SOL    HW240496   8.407   3.768   0.204
 9489SOL     OW40497   9.174   3.859   0.523
 9489SOL    HW140498   9.247   3.842   0.456
 9489SOL    HW240499   9.143   3.772   0.561
 9490SOL     OW40500   8.836   5.297   0.477
 9490SOL    HW140501   8.903   5.309   0.403
 9490SOL    HW240502   8.796   5.386   0.500
 9491SOL     OW40503   8.728   4.651   0.672
 9491SOL    HW140504   8.788   4.570   0.674
 9491SOL    HW240505   8.768   4.720   0.612
 9492SOL     OW40506   8.278   4.997   1.422
 9492SOL    HW140507   8.273   5.030   1.517
 9492SOL    HW240508   8.192   5.016   1.376
 9493SOL     OW40509   8.120   5.340   0.154
 9493SOL    HW140510   8.129   5.350   0.055
 9493SOL    HW240511   8.080   5.251   0.175
 9494SOL     OW40512   9.289   3.899   0.963
 9494SOL    HW140513   9.328   3.814   0.927
 9494SOL    HW240514   9.191   3.901   0.944
 9495SOL     OW40515   7.711   4.050   0.720
 9495SOL    HW140516   7.632   4.101   0.686
 9495SOL    HW240517   7.702   4.035   0.818
 9496SOL     OW40518   8.642   5.336   0.031
 9496SOL    HW140519   8.648   5.243   0.068
 9496SOL    HW240520   8.583   5.336  -0.049
 9497SOL     OW40521   8.364   4.634   0.291
 9497SOL    HW140522   8.427   4.672   0.223
 9497SOL    HW240523   8.404   4.551   0.330
 9498SOL     OW40524   8.952   5.331   0.044
 9498SOL    HW140525   8.860   5.368   0.051
 9498SOL    HW240526   8.990   5.351  -0.046
 9499SOL     OW40527   7.820   5.012   1.490
 9499SOL    HW140528   7.807   5.105   1.456
 9499SOL    HW240529   7.736   4.960   1.477
 9500SOL     OW40530   8.487   4.822   0.696
 9500SOL    HW140531   8.417   4.775   0.750
 9500SOL    HW240532   8.546   4.754   0.653
 9501SOL     OW40533   8.462   3.960   0.971
 9501SOL    HW140534   8.454   3.924   0.878
 9501SOL    HW240535   8.460   3.884   1.036
 9502SOL     OW40536   8.038   5.211   0.491
 9502SOL    HW140537   8.080   5.153   0.421
 9502SOL    HW240538   7.994   5.290   0.447
 9503SOL     OW40539   9.157   4.109   1.381
 9503SOL    HW140540   9.230   4.178   1.385
 9503SOL    HW240541   9.185   4.034   1.322
 9504SOL     OW40542   7.703   5.072   0.290
 9504SOL    HW140543   7.607   5.073   0.263
 9504SOL    HW240544   7.715   5.125   0.374
 9505SOL     OW40545   8.120   3.927   1.489
 9505SOL    HW140546   8.210   3.911   1.449
 9505SOL    HW240547   8.128   3.932   1.588
 9506SOL     OW40548   7.520   3.890   0.318
 9506SOL    HW140549   7.503   3.973   0.264
 9506SOL    HW240550   7.610   3.853   0.296
 9507SOL     OW40551   8.631   5.059   0.119
 9507SOL    HW140552   8.532   5.048   0.121
 9507SOL    HW240553   8.665   5.074   0.212
 9508SOL     OW40554   8.061   4.566   1.431
 9508SOL    HW140555   8.117   4.647   1.414
 9508SOL    HW240556   8.120   4.486   1.434
 9509SOL     OW40557   8.941   5.491   0.959
 9509SOL    HW140558   8.974   5.555   0.890
 9509SOL    HW240559   9.007   5.485   1.034
 9510SOL     OW40560   8.673   4.049   0.449
 9510SOL    HW140561   8.738   3.975   0.438
 9510SOL    HW240562   8.693   4.099   0.533
 9511SOL     OW40563   8.042   4.469   0.652
 9511SOL    HW140564   8.092   4.554   0.633
 9511SOL    HW240565   7.954   4.471   0.604
 9512SOL     OW40566   8.307   5.098   0.016
 9512SOL    HW140567   8.261   5.113   0.104
 9512SOL    HW240568   8.351   5.183  -0.014
 9513SOL     OW40569   8.531   4.708   0.087
 9513SOL    HW140570   8.508   4.761   0.005
 9513SOL    HW240571   8.612   4.652   0.068
 9514SOL     OW40572   9.309   5.293   0.851
 9514SOL    HW140573   9.238   5.281   0.781
 9514SOL    HW240574   9.310   5.214   0.911
 9515SOL     OW40575   7.527   4.964   0.653
 9515SOL    HW140576   7.526   4.917   0.741
 9515SOL    HW240577   7.609   4.936   0.602
 9516SOL     OW40578   9.272   3.916   1.227
 9516SOL    HW140579   9.268   3.826   1.271
 9516SOL    HW240580   9.275   3.905   1.128
 9517SOL     OW40581   7.876   4.148   0.520
 9517SOL    HW140582   7.906   4.076   0.458
 9517SOL    HW240583   7.837   4.108   0.603
 9518SOL     OW40584   9.153   5.211   1.104
 9518SOL    HW140585   9.060   5.186   1.077
 9518SOL    HW240586   9.179   5.161   1.186
 9519SOL     OW40587   8.260   5.310   0.687
 9519SOL    HW140588   8.292   5.320   0.593
 9519SOL    HW240589   8.181   5.248   0.689
 9520SOL     OW40590   8.449   3.758   1.154
 9520SOL    HW140591   8.386   3.686   1.123
 9520SOL    HW240592   8.542   3.722   1.154
 9521SOL     OW40593   8.218   5.054   0.301
 9521SOL    HW140594   8.172   4.967   0.318
 9521SOL    HW240595   8.309   5.051   0.342
 9522SOL     OW40596   8.800   3.776   0.168
 9522SOL    HW140597   8.835   3.735   0.084
 9522SOL    HW240598   8.710   3.738   0.188
 9523SOL     OW40599   8.748   4.177   0.691
 9523SOL    HW140600   8.689   4.257   0.695
 9523SOL    HW240601   8.763   4.142   0.784
 9524SOL     OW40602   9.041   3.945   0.882
 9524SOL    HW140603   8.957   3.944   0.936
 9524SOL    HW240604   9.043   4.028   0.826
 9525SOL     OW40605   7.487   4.801   0.300
 9525SOL    HW140606   7.586   4.790   0.291
 9525SOL    HW240607   7.447   4.715   0.332
 9526SOL     OW40608   8.323   5.370   0.337
 9526SOL    HW140609   8.246   5.335   0.283
 9526SOL    HW240610   8.291   5.441   0.399
 9527SOL     OW40611   7.467   4.092   2.509
 9527SOL    HW140612   7.385   4.135   2.548
 9527SOL    HW240613   7.439   4.019   2.446
 9528SOL     OW40614   9.003   5.235   2.565
 9528SOL    HW140615   8.946   5.219   2.646
 9528SOL    HW240616   8.944   5.245   2.485
 9529SOL     OW40617   8.134   4.885   3.665
 9529SOL    HW140618   8.194   4.964   3.679
 9529SOL    HW240619   8.048   4.916   3.624
 9530SOL     OW40620   7.679   5.437   2.345
 9530SOL    HW140621   7.713   5.514   2.399
 9530SOL    HW240622   7.723   5.437   2.255
 9531SOL     OW40623   8.575   5.065   3.552
 9531SOL    HW140624   8.622   5.065   3.640
 9531SOL    HW240625   8.527   4.978   3.541
 9532SOL     OW40626   7.678   5.158   2.400
 9532SOL    HW140627   7.652   5.254   2.400
 9532SOL    HW240628   7.607   5.104   2.445
 9533SOL     OW40629   8.054   4.688   1.985
 9533SOL    HW140630   8.061   4.772   1.931
 9533SOL    HW240631   8.100   4.701   2.073
 9534SOL     OW40632   7.475   5.320   1.979
 9534SOL    HW140633   7.456   5.224   2.000
 9534SOL    HW240634   7.442   5.378   2.054
 9535SOL     OW40635   7.561   4.461   3.459
 9535SOL    HW140636   7.649   4.448   3.504
 9535SOL    HW240637   7.548   4.558   3.437
 9536SOL     OW40638   8.741   4.952   3.285
 9536SOL    HW140639   8.778   4.879   3.227
 9536SOL    HW240640   8.793   4.957   3.370
 9537SOL     OW40641   7.765   3.975   3.663
 9537SOL    HW140642   7.836   4.046   3.669
 9537SOL    HW240643   7.677   4.014   3.691
 9538SOL     OW40644   8.914   5.141   2.815
 9538SOL    HW140645   8.855   5.147   2.895
 9538SOL    HW240646   8.899   5.053   2.769
 9539SOL     OW40647   9.115   5.438   2.434
 9539SOL    HW140648   9.074   5.415   2.346
 9539SOL    HW240649   9.097   5.364   2.499
 9540SOL     OW40650   8.729   4.069   2.806
 9540SOL    HW140651   8.643   4.019   2.793
 9540SOL    HW240652   8.791   4.015   2.862
 9541SOL     OW40653   8.421   4.614   3.434
 9541SOL    HW140654   8.467   4.530   3.405
 9541SOL    HW240655   8.365   4.648   3.359
 9542SOL     OW40656   8.313   4.072   2.057
 9542SOL    HW140657   8.372   4.135   2.008
 9542SOL    HW240658   8.332   3.978   2.028
 9543SOL     OW40659   7.799   5.525   2.715
 9543SOL    HW140660   7.849   5.439   2.721
 9543SOL    HW240661   7.864   5.602   2.712
 9544SOL     OW40662   7.650   4.009   3.360
 9544SOL    HW140663   7.570   4.069   3.347
 9544SOL    HW240664   7.640   3.960   3.446
 9545SOL     OW40665   9.080   5.101   1.943
 9545SOL    HW140666   9.048   5.195   1.933
 9545SOL    HW240667   9.004   5.038   1.931
 9546SOL     OW40668   8.848   3.831   2.288
 9546SOL    HW140669   8.824   3.794   2.198
 9546SOL    HW240670   8.947   3.847   2.292
 9547SOL     OW40671   7.697   5.509   3.103
 9547SOL    HW140672   7.754   5.444   3.153
 9547SOL    HW240673   7.681   5.476   3.010
 9548SOL     OW40674   8.995   3.946   3.591
 9548SOL    HW140675   8.990   3.983   3.683
 9548SOL    HW240676   8.923   3.877   3.579
 9549SOL     OW40677   8.336   5.238   3.057
 9549SOL    HW140678   8.313   5.213   2.963
 9549SOL    HW240679   8.397   5.169   3.096
 9550SOL     OW40680   8.799   4.314   3.295
 9550SOL    HW140681   8.827   4.271   3.380
 9550SOL    HW240682   8.824   4.410   3.296
 9551SOL     OW40683   8.251   5.126   2.786
 9551SOL    HW140684   8.341   5.140   2.744
 9551SOL    HW240685   8.180   5.128   2.715
 9552SOL     OW40686   7.987   3.788   2.374
 9552SOL    HW140687   7.906   3.789   2.432
 9552SOL    HW240688   7.990   3.871   2.319
 9553SOL     OW40689   7.745   3.759   2.033
 9553SOL    HW140690   7.794   3.843   2.012
 9553SOL    HW240691   7.807   3.694   2.078
 9554SOL     OW40692   8.524   4.407   3.326
 9554SOL    HW140693   8.444   4.346   3.329
 9554SOL    HW240694   8.605   4.354   3.302
 9555SOL     OW40695   8.675   5.294   2.655
 9555SOL    HW140696   8.696   5.368   2.590
 9555SOL    HW240697   8.743   5.294   2.728
 9556SOL     OW40698   7.907   4.876   2.603
 9556SOL    HW140699   7.836   4.849   2.668
 9556SOL    HW240700   7.881   4.848   2.510
 9557SOL     OW40701   8.480   4.273   1.878
 9557SOL    HW140702   8.439   4.355   1.839
 9557SOL    HW240703   8.544   4.299   1.951
 9558SOL     OW40704   7.936   5.109   2.036
 9558SOL    HW140705   7.849   5.094   2.083
 9558SOL    HW240706   7.919   5.135   1.941
 9559SOL     OW40707   7.975   3.980   2.190
 9559SOL    HW140708   8.002   3.921   2.115
 9559SOL    HW240709   7.975   4.075   2.159
 9560SOL     OW40710   8.559   4.919   2.962
 9560SOL    HW140711   8.519   4.963   3.043
 9560SOL    HW240712   8.518   4.956   2.879
 9561SOL     OW40713   8.428   4.840   3.581
 9561SOL    HW140714   8.329   4.846   3.591
 9561SOL    HW240715   8.451   4.760   3.525
 9562SOL     OW40716   8.700   5.072   2.250
 9562SOL    HW140717   8.750   5.149   2.290
 9562SOL    HW240718   8.605   5.074   2.282
 9563SOL     OW40719   7.802   5.234   3.191
 9563SOL    HW140720   7.781   5.190   3.104
 9563SOL    HW240721   7.899   5.260   3.194
 9564SOL     OW40722   7.850   4.475   3.460
 9564SOL    HW140723   7.918   4.530   3.413
 9564SOL    HW240724   7.890   4.387   3.487
 9565SOL     OW40725   8.461   3.829   3.632
 9565SOL    HW140726   8.467   3.914   3.580
 9565SOL    HW240727   8.493   3.753   3.575
 9566SOL     OW40728   7.952   3.774   3.602
 9566SOL    HW140729   7.910   3.717   3.532
 9566SOL    HW240730   7.886   3.843   3.634
 9567SOL     OW40731   9.070   4.091   2.236
 9567SOL    HW140732   9.072   4.015   2.300
 9567SOL    HW240733   9.022   4.168   2.276
 9568SOL     OW40734   8.428   5.297   3.562
 9568SOL    HW140735   8.408   5.341   3.474
 9568SOL    HW240736   8.467   5.206   3.546
 9569SOL     OW40737   9.307   5.242   3.467
 9569SOL    HW140738   9.321   5.269   3.372
 9569SOL    HW240739   9.390   5.264   3.520
 9570SOL     OW40740   8.751   4.562   1.904
 9570SOL    HW140741   8.785   4.469   1.919
 9570SOL    HW240742   8.769   4.589   1.809
 9571SOL     OW40743   7.787   4.233   2.868
 9571SOL    HW140744   7.735   4.150   2.851
 9571SOL    HW240745   7.864   4.238   2.804
 9572SOL     OW40746   8.586   4.104   3.540
 9572SOL    HW140747   8.541   4.167   3.604
 9572SOL    HW240748   8.679   4.135   3.523
 9573SOL     OW40749   7.536   5.525   2.789
 9573SOL    HW140750   7.494   5.439   2.762
 9573SOL    HW240751   7.630   5.528   2.755
 9574SOL     OW40752   8.700   5.455   2.990
 9574SOL    HW140753   8.784   5.460   2.936
 9574SOL    HW240754   8.677   5.359   3.008
 9575SOL     OW40755   8.278   4.997   3.284
 9575SOL    HW140756   8.273   5.030   3.379
 9575SOL    HW240757   8.192   5.016   3.238
 9576SOL     OW40758   8.270   4.726   3.234
 9576SOL    HW140759   8.310   4.725   3.142
 9576SOL    HW240760   8.280   4.818   3.274
 9577SOL     OW40761   8.364   4.634   2.153
 9577SOL    HW140762   8.427   4.672   2.085
 9577SOL    HW240763   8.404   4.551   2.192
 9578SOL     OW40764   8.462   3.960   2.833
 9578SOL    HW140765   8.454   3.924   2.740
 9578SOL    HW240766   8.460   3.884   2.898
 9579SOL     OW40767   9.157   4.109   3.243
 9579SOL    HW140768   9.230   4.178   3.247
 9579SOL    HW240769   9.185   4.034   3.184
 9580SOL     OW40770   7.703   5.072   2.152
 9580SOL    HW140771   7.607   5.073   2.125
 9580SOL    HW240772   7.715   5.125   2.236
 9581SOL     OW40773   7.553   4.737   3.588
 9581SOL    HW140774   7.476   4.704   3.642
 9581SOL    HW240775   7.638   4.707   3.630
 9582SOL     OW40776   8.120   3.927   3.351
 9582SOL    HW140777   8.210   3.911   3.311
 9582SOL    HW240778   8.128   3.932   3.450
 9583SOL     OW40779   7.523   4.069   1.895
 9583SOL    HW140780   7.431   4.041   1.866
 9583SOL    HW240781   7.554   4.146   1.839
 9584SOL     OW40782   8.888   4.580   3.260
 9584SOL    HW140783   8.831   4.632   3.197
 9584SOL    HW240784   8.984   4.592   3.236
 9585SOL     OW40785   7.520   3.890   2.180
 9585SOL    HW140786   7.503   3.973   2.126
 9585SOL    HW240787   7.610   3.853   2.158
 9586SOL     OW40788   8.061   4.566   3.293
 9586SOL    HW140789   8.117   4.647   3.276
 9586SOL    HW240790   8.120   4.486   3.296
 9587SOL     OW40791   8.164   4.289   3.570
 9587SOL    HW140792   8.183   4.354   3.644
 9587SOL    HW240793   8.224   4.209   3.579
 9588SOL     OW40794   8.109   5.514   2.815
 9588SOL    HW140795   8.063   5.602   2.802
 9588SOL    HW240796   8.208   5.526   2.808
 9589SOL     OW40797   7.669   5.038   3.706
 9589SOL    HW140798   7.604   4.965   3.685
 9589SOL    HW240799   7.673   5.052   3.804
 9590SOL     OW40800   8.120   5.115   3.486
 9590SOL    HW140801   8.042   5.065   3.524
 9590SOL    HW240802   8.117   5.210   3.517
 9591SOL     OW40803   7.876   4.148   2.382
 9591SOL    HW140804   7.906   4.076   2.320
 9591SOL    HW240805   7.837   4.108   2.465
 9592SOL     OW40806   9.153   5.211   2.966
 9592SOL    HW140807   9.060   5.186   2.939
 9592SOL    HW240808   9.179   5.161   3.048
 9593SOL     OW40809   8.066   5.291   3.146
 9593SOL    HW140810   8.061   5.373   3.203
 9593SOL    HW240811   8.155   5.288   3.101
 9594SOL     OW40812   9.041   3.945   2.744
 9594SOL    HW140813   8.957   3.944   2.798
 9594SOL    HW240814   9.043   4.028   2.688
 9595SOL     OW40815   7.487   4.801   2.162
 9595SOL    HW140816   7.586   4.790   2.153
 9595SOL    HW240817   7.447   4.715   2.194
 9596SOL     OW40818   9.203   4.331   3.955
 9596SOL    HW140819   9.191   4.318   3.856
 9596SOL    HW240820   9.173   4.250   4.004
 9597SOL     OW40821   8.298   4.522   5.547
 9597SOL    HW140822   8.294   4.598   5.612
 9597SOL    HW240823   8.320   4.558   5.456
 9598SOL     OW40824   8.134   4.885   5.527
 9598SOL    HW140825   8.194   4.964   5.541
 9598SOL    HW240826   8.048   4.916   5.486
 9599SOL     OW40827   7.886   4.116   5.223
 9599SOL    HW140828   7.968   4.060   5.232
 9599SOL    HW240829   7.805   4.058   5.227
 9600SOL     OW40830   8.575   5.065   5.414
 9600SOL    HW140831   8.622   5.065   5.502
 9600SOL    HW240832   8.527   4.978   5.403
 9601SOL     OW40833   7.678   5.158   4.262
 9601SOL    HW140834   7.652   5.254   4.262
 9601SOL    HW240835   7.607   5.104   4.307
 9602SOL     OW40836   9.089   4.832   4.156
 9602SOL    HW140837   9.175   4.834   4.104
 9602SOL    HW240838   9.103   4.879   4.244
 9603SOL     OW40839   7.561   4.461   5.321
 9603SOL    HW140840   7.649   4.448   5.366
 9603SOL    HW240841   7.548   4.558   5.299
 9604SOL     OW40842   8.741   4.952   5.147
 9604SOL    HW140843   8.778   4.879   5.089
 9604SOL    HW240844   8.793   4.957   5.232
 9605SOL     OW40845   8.046   4.453   3.994
 9605SOL    HW140846   8.070   4.522   3.926
 9605SOL    HW240847   7.968   4.486   4.048
 9606SOL     OW40848   9.024   5.386   4.031
 9606SOL    HW140849   9.113   5.432   4.034
 9606SOL    HW240850   9.003   5.362   3.936
 9607SOL     OW40851   8.439   4.134   4.966
 9607SOL    HW140852   8.362   4.168   5.020
 9607SOL    HW240853   8.405   4.083   4.887
 9608SOL     OW40854   7.524   4.535   4.513
 9608SOL    HW140855   7.623   4.523   4.522
 9608SOL    HW240856   7.500   4.630   4.534
 9609SOL     OW40857   7.578   5.545   5.295
 9609SOL    HW140858   7.568   5.530   5.394
 9609SOL    HW240859   7.492   5.581   5.259
 9610SOL     OW40860   8.313   4.072   3.919
 9610SOL    HW140861   8.372   4.135   3.870
 9610SOL    HW240862   8.332   3.978   3.890
 9611SOL     OW40863   8.810   4.868   4.269
 9611SOL    HW140864   8.893   4.839   4.221
 9611SOL    HW240865   8.761   4.935   4.213
 9612SOL     OW40866   8.675   5.274   5.230
 9612SOL    HW140867   8.681   5.197   5.294
 9612SOL    HW240868   8.623   5.248   5.150
 9613SOL     OW40869   8.906   4.459   4.452
 9613SOL    HW140870   8.901   4.394   4.527
 9613SOL    HW240871   8.986   4.518   4.465
 9614SOL     OW40872   7.909   4.990   5.451
 9614SOL    HW140873   7.859   4.991   5.365
 9614SOL    HW240874   7.846   4.972   5.527
 9615SOL     OW40875   7.912   5.467   4.047
 9615SOL    HW140876   7.945   5.506   4.133
 9615SOL    HW240877   7.988   5.460   3.982
 9616SOL     OW40878   8.848   3.831   4.150
 9616SOL    HW140879   8.824   3.794   4.060
 9616SOL    HW240880   8.947   3.847   4.154
 9617SOL     OW40881   7.697   5.509   4.965
 9617SOL    HW140882   7.754   5.444   5.015
 9617SOL    HW240883   7.681   5.476   4.872
 9618SOL     OW40884   8.388   5.422   4.628
 9618SOL    HW140885   8.468   5.365   4.649
 9618SOL    HW240886   8.339   5.382   4.551
 9619SOL     OW40887   7.830   4.424   4.204
 9619SOL    HW140888   7.875   4.334   4.201
 9619SOL    HW240889   7.736   4.413   4.237
 9620SOL     OW40890   8.229   3.988   5.473
 9620SOL    HW140891   8.296   3.927   5.516
 9620SOL    HW240892   8.156   4.007   5.538
 9621SOL     OW40893   8.465   3.763   4.477
 9621SOL    HW140894   8.393   3.768   4.408
 9621SOL    HW240895   8.441   3.694   4.546
 9622SOL     OW40896   8.877   4.897   4.591
 9622SOL    HW140897   8.822   4.813   4.584
 9622SOL    HW240898   8.903   4.926   4.499
 9623SOL     OW40899   9.202   4.947   5.312
 9623SOL    HW140900   9.293   4.908   5.299
 9623SOL    HW240901   9.210   5.043   5.336
 9624SOL     OW40902   8.363   3.813   5.126
 9624SOL    HW140903   8.388   3.793   5.031
 9624SOL    HW240904   8.435   3.869   5.168
 9625SOL     OW40905   8.428   4.840   5.443
 9625SOL    HW140906   8.329   4.846   5.453
 9625SOL    HW240907   8.451   4.760   5.387
 9626SOL     OW40908   7.858   4.537   4.975
 9626SOL    HW140909   7.944   4.549   5.025
 9626SOL    HW240910   7.816   4.450   5.002
 9627SOL     OW40911   7.512   5.288   5.055
 9627SOL    HW140912   7.466   5.370   5.021
 9627SOL    HW240913   7.610   5.307   5.064
 9628SOL     OW40914   8.720   5.169   4.866
 9628SOL    HW140915   8.767   5.182   4.953
 9628SOL    HW240916   8.654   5.095   4.875
 9629SOL     OW40917   7.850   4.475   5.322
 9629SOL    HW140918   7.918   4.530   5.275
 9629SOL    HW240919   7.890   4.387   5.349
 9630SOL     OW40920   8.021   4.594   4.753
 9630SOL    HW140921   8.065   4.683   4.744
 9630SOL    HW240922   7.958   4.594   4.830
 9631SOL     OW40923   8.657   4.249   3.999
 9631SOL    HW140924   8.670   4.165   4.053
 9631SOL    HW240925   8.628   4.323   4.059
 9632SOL     OW40926   7.485   5.034   5.006
 9632SOL    HW140927   7.538   4.985   5.074
 9632SOL    HW240928   7.507   5.132   5.011
 9633SOL     OW40929   9.176   4.659   5.578
 9633SOL    HW140930   9.130   4.652   5.489
 9633SOL    HW240931   9.114   4.703   5.644
 9634SOL     OW40932   7.755   3.787   4.342
 9634SOL    HW140933   7.744   3.881   4.375
 9634SOL    HW240934   7.750   3.724   4.419
 9635SOL     OW40935   8.428   5.297   5.424
 9635SOL    HW140936   8.408   5.341   5.336
 9635SOL    HW240937   8.467   5.206   5.408
 9636SOL     OW40938   7.798   4.622   5.528
 9636SOL    HW140939   7.874   4.666   5.576
 9636SOL    HW240940   7.833   4.575   5.446
 9637SOL     OW40941   8.988   3.998   3.849
 9637SOL    HW140942   8.927   3.923   3.872
 9637SOL    HW240943   9.010   4.050   3.932
 9638SOL     OW40944   8.751   4.562   3.766
 9638SOL    HW140945   8.785   4.469   3.781
 9638SOL    HW240946   8.769   4.589   3.671
 9639SOL     OW40947   8.608   3.931   5.201
 9639SOL    HW140948   8.608   3.995   5.278
 9639SOL    HW240949   8.636   3.979   5.118
 9640SOL     OW40950   7.536   5.525   4.651
 9640SOL    HW140951   7.494   5.439   4.624
 9640SOL    HW240952   7.630   5.528   4.617
 9641SOL     OW40953   8.263   4.296   4.049
 9641SOL    HW140954   8.270   4.207   4.003
 9641SOL    HW240955   8.169   4.330   4.041
 9642SOL     OW40956   8.795   4.783   4.958
 9642SOL    HW140957   8.819   4.720   4.884
 9642SOL    HW240958   8.705   4.823   4.940
 9643SOL     OW40959   8.750   4.579   4.033
 9643SOL    HW140960   8.664   4.548   4.075
 9643SOL    HW240961   8.746   4.565   3.934
 9644SOL     OW40962   7.531   4.982   4.746
 9644SOL    HW140963   7.526   4.981   4.846
 9644SOL    HW240964   7.448   4.941   4.708
 9645SOL     OW40965   8.836   5.297   4.201
 9645SOL    HW140966   8.903   5.309   4.127
 9645SOL    HW240967   8.796   5.386   4.224
 9646SOL     OW40968   7.578   5.518   5.575
 9646SOL    HW140969   7.537   5.444   5.628
 9646SOL    HW240970   7.642   5.569   5.633
 9647SOL     OW40971   8.278   4.997   5.146
 9647SOL    HW140972   8.273   5.030   5.241
 9647SOL    HW240973   8.192   5.016   5.100
 9648SOL     OW40974   9.098   5.444   5.118
 9648SOL    HW140975   9.151   5.454   5.034
 9648SOL    HW240976   9.071   5.534   5.152
 9649SOL     OW40977   7.711   4.050   4.444
 9649SOL    HW140978   7.632   4.101   4.410
 9649SOL    HW240979   7.702   4.035   4.542
 9650SOL     OW40980   8.642   5.336   3.755
 9650SOL    HW140981   8.648   5.243   3.792
 9650SOL    HW240982   8.583   5.336   3.675
 9651SOL     OW40983   8.952   5.331   3.768
 9651SOL    HW140984   8.860   5.368   3.775
 9651SOL    HW240985   8.990   5.351   3.678
 9652SOL     OW40986   8.487   4.822   4.420
 9652SOL    HW140987   8.417   4.775   4.474
 9652SOL    HW240988   8.546   4.754   4.377
 9653SOL     OW40989   7.703   5.072   4.014
 9653SOL    HW140990   7.607   5.073   3.987
 9653SOL    HW240991   7.715   5.125   4.098
 9654SOL     OW40992   8.120   3.927   5.213
 9654SOL    HW140993   8.210   3.911   5.173
 9654SOL    HW240994   8.128   3.932   5.312
 9655SOL     OW40995   8.631   5.059   3.843
 9655SOL    HW140996   8.532   5.048   3.845
 9655SOL    HW240997   8.665   5.074   3.936
 9656SOL     OW40998   8.941   5.491   4.683
 9656SOL    HW140999   8.974   5.555   4.614
 9656SOL    HW241000   9.007   5.485   4.758
 9657SOL     OW41001   7.838   5.465   5.284
 9657SOL    HW141002   7.747   5.506   5.282
 9657SOL    HW241003   7.831   5.371   5.316
 9658SOL     OW41004   9.122   4.607   4.978
 9658SOL    HW141005   9.095   4.518   4.941
 9658SOL    HW241006   9.123   4.675   4.905
 9659SOL     OW41007   9.178   4.658   5.241
 9659SOL    HW141008   9.216   4.749   5.256
 9659SOL    HW241009   9.170   4.641   5.142
 9660SOL     OW41010   8.531   4.708   3.811
 9660SOL    HW141011   8.508   4.761   3.729
 9660SOL    HW241012   8.612   4.652   3.792
 9661SOL     OW41013   8.120   5.115   5.348
 9661SOL    HW141014   8.042   5.065   5.386
 9661SOL    HW241015   8.117   5.210   5.379
 9662SOL     OW41016   9.153   5.211   4.828
 9662SOL    HW141017   9.060   5.186   4.801
 9662SOL    HW241018   9.179   5.161   4.910
 9663SOL     OW41019   7.765   4.271   5.004
 9663SOL    HW141020   7.803   4.212   5.076
 9663SOL    HW241021   7.805   4.245   4.916
 9664SOL     OW41022   8.260   5.310   4.411
 9664SOL    HW141023   8.292   5.320   4.317
 9664SOL    HW241024   8.181   5.248   4.413
 9665SOL     OW41025   8.218   5.054   4.025
 9665SOL    HW141026   8.172   4.967   4.042
 9665SOL    HW241027   8.309   5.051   4.066
 9666SOL     OW41028   8.748   4.177   4.415
 9666SOL    HW141029   8.689   4.257   4.419
 9666SOL    HW241030   8.763   4.142   4.508
 9667SOL     OW41031   8.323   5.370   4.061
 9667SOL    HW141032   8.246   5.335   4.007
 9667SOL    HW241033   8.291   5.441   4.123
 9668SOL     OW41034   7.673   3.999   6.582
 9668SOL    HW141035   7.708   3.982   6.674
 9668SOL    HW241036   7.585   3.954   6.570
 9669SOL     OW41037   7.467   4.092   6.233
 9669SOL    HW141038   7.385   4.135   6.272
 9669SOL    HW241039   7.439   4.019   6.170
 9670SOL     OW41040   8.017   4.999   6.751
 9670SOL    HW141041   7.924   4.992   6.714
 9670SOL    HW241042   8.028   5.088   6.795
 9671SOL     OW41043   9.003   5.235   6.289
 9671SOL    HW141044   8.946   5.219   6.370
 9671SOL    HW241045   8.944   5.245   6.209
 9672SOL     OW41046   8.583   4.427   6.303
 9672SOL    HW141047   8.640   4.505   6.278
 9672SOL    HW241048   8.523   4.453   6.379
 9673SOL     OW41049   9.203   4.331   5.817
 9673SOL    HW141050   9.191   4.318   5.718
 9673SOL    HW241051   9.173   4.250   5.866
 9674SOL     OW41052   8.216   4.868   6.609
 9674SOL    HW141053   8.138   4.885   6.669
 9674SOL    HW241054   8.250   4.955   6.573
 9675SOL     OW41055   8.133   4.736   6.251
 9675SOL    HW141056   8.202   4.720   6.321
 9675SOL    HW241057   8.060   4.793   6.289
 9676SOL     OW41058   7.783   5.159   6.647
 9676SOL    HW141059   7.705   5.128   6.594
 9676SOL    HW241060   7.841   5.217   6.590
 9677SOL     OW41061   9.051   4.171   6.323
 9677SOL    HW141062   8.977   4.217   6.273
 9677SOL    HW241063   9.102   4.239   6.376
 9678SOL     OW41064   7.679   5.437   6.069
 9678SOL    HW141065   7.713   5.514   6.123
 9678SOL    HW241066   7.723   5.437   5.979
 9679SOL     OW41067   7.678   5.158   6.124
 9679SOL    HW141068   7.652   5.254   6.124
 9679SOL    HW241069   7.607   5.104   6.169
 9680SOL     OW41070   7.688   4.815   6.472
 9680SOL    HW141071   7.702   4.731   6.524
 9680SOL    HW241072   7.633   4.879   6.527
 9681SOL     OW41073   8.068   5.510   7.025
 9681SOL    HW141074   7.976   5.493   7.060
 9681SOL    HW241075   8.096   5.602   7.051
 9682SOL     OW41076   8.054   4.688   5.709
 9682SOL    HW141077   8.061   4.772   5.655
 9682SOL    HW241078   8.100   4.701   5.797
 9683SOL     OW41079   7.570   4.367   6.149
 9683SOL    HW141080   7.525   4.279   6.166
 9683SOL    HW241081   7.569   4.421   6.233
 9684SOL     OW41082   9.290   5.491   5.945
 9684SOL    HW141083   9.344   5.462   6.025
 9684SOL    HW241084   9.320   5.581   5.916
 9685SOL     OW41085   9.137   4.646   6.198
 9685SOL    HW141086   9.232   4.617   6.206
 9685SOL    HW241087   9.129   4.711   6.123
 9686SOL     OW41088   9.089   4.832   6.018
 9686SOL    HW141089   9.175   4.834   5.966
 9686SOL    HW241090   9.103   4.879   6.106
 9687SOL     OW41091   8.061   5.089   6.312
 9687SOL    HW141092   8.012   5.002   6.321
 9687SOL    HW241093   8.038   5.132   6.225
 9688SOL     OW41094   8.257   3.728   6.088
 9688SOL    HW141095   8.297   3.819   6.079
 9688SOL    HW241096   8.157   3.736   6.094
 9689SOL     OW41097   7.645   4.700   6.850
 9689SOL    HW141098   7.734   4.655   6.836
 9689SOL    HW241099   7.572   4.635   6.831
 9690SOL     OW41100   8.914   5.141   6.539
 9690SOL    HW141101   8.855   5.147   6.619
 9690SOL    HW241102   8.899   5.053   6.493
 9691SOL     OW41103   9.115   5.438   6.158
 9691SOL    HW141104   9.074   5.415   6.070
 9691SOL    HW241105   9.097   5.364   6.223
 9692SOL     OW41106   8.046   4.453   5.856
 9692SOL    HW141107   8.070   4.522   5.788
 9692SOL    HW241108   7.968   4.486   5.910
 9693SOL     OW41109   8.729   4.069   6.530
 9693SOL    HW141110   8.643   4.019   6.517
 9693SOL    HW241111   8.791   4.015   6.586
 9694SOL     OW41112   9.024   5.386   5.893
 9694SOL    HW141113   9.113   5.432   5.896
 9694SOL    HW241114   9.003   5.362   5.798
 9695SOL     OW41115   8.439   4.134   6.828
 9695SOL    HW141116   8.362   4.168   6.882
 9695SOL    HW241117   8.405   4.083   6.749
 9696SOL     OW41118   8.489   4.425   6.015
 9696SOL    HW141119   8.515   4.421   6.111
 9696SOL    HW241120   8.404   4.374   6.001
 9697SOL     OW41121   7.524   4.535   6.375
 9697SOL    HW141122   7.623   4.523   6.384
 9697SOL    HW241123   7.500   4.630   6.396
 9698SOL     OW41124   8.313   4.072   5.781
 9698SOL    HW141125   8.372   4.135   5.732
 9698SOL    HW241126   8.332   3.978   5.752
 9699SOL     OW41127   8.810   4.868   6.131
 9699SOL    HW141128   8.893   4.839   6.083
 9699SOL    HW241129   8.761   4.935   6.075
 9700SOL     OW41130   7.998   3.920   6.471
 9700SOL    HW141131   7.993   3.915   6.571
 9700SOL    HW241132   8.000   4.016   6.442
 9701SOL     OW41133   8.456   5.180   6.063
 9701SOL    HW141134   8.410   5.252   6.011
 9701SOL    HW241135   8.452   5.200   6.161
 9702SOL     OW41136   7.799   5.525   6.439
 9702SOL    HW141137   7.849   5.439   6.445
 9702SOL    HW241138   7.864   5.602   6.436
 9703SOL     OW41139   9.243   4.790   6.459
 9703SOL    HW141140   9.181   4.775   6.383
 9703SOL    HW241141   9.191   4.801   6.544
 9704SOL     OW41142   8.906   4.459   6.314
 9704SOL    HW141143   8.901   4.394   6.389
 9704SOL    HW241144   8.986   4.518   6.327
 9705SOL     OW41145   8.559   5.500   5.823
 9705SOL    HW141146   8.499   5.438   5.873
 9705SOL    HW241147   8.590   5.456   5.738
 9706SOL     OW41148   9.080   5.101   5.667
 9706SOL    HW141149   9.048   5.195   5.657
 9706SOL    HW241150   9.004   5.038   5.655
 9707SOL     OW41151   7.912   5.467   5.909
 9707SOL    HW141152   7.945   5.506   5.995
 9707SOL    HW241153   7.988   5.460   5.844
 9708SOL     OW41154   8.848   3.831   6.012
 9708SOL    HW141155   8.824   3.794   5.922
 9708SOL    HW241156   8.947   3.847   6.016
 9709SOL     OW41157   7.697   5.509   6.827
 9709SOL    HW141158   7.754   5.444   6.877
 9709SOL    HW241159   7.681   5.476   6.734
 9710SOL     OW41160   8.388   5.422   6.490
 9710SOL    HW141161   8.468   5.365   6.511
 9710SOL    HW241162   8.339   5.382   6.413
 9711SOL     OW41163   7.830   4.424   6.066
 9711SOL    HW141164   7.875   4.334   6.063
 9711SOL    HW241165   7.736   4.413   6.099
 9712SOL     OW41166   8.062   3.846   5.703
 9712SOL    HW141167   8.160   3.824   5.710
 9712SOL    HW241168   8.031   3.829   5.610
 9713SOL     OW41169   8.251   5.126   6.510
 9713SOL    HW141170   8.341   5.140   6.468
 9713SOL    HW241171   8.180   5.128   6.439
 9714SOL     OW41172   8.370   4.227   6.485
 9714SOL    HW141173   8.345   4.218   6.389
 9714SOL    HW241174   8.418   4.145   6.516
 9715SOL     OW41175   7.987   3.788   6.098
 9715SOL    HW141176   7.906   3.789   6.156
 9715SOL    HW241177   7.990   3.871   6.043
 9716SOL     OW41178   7.745   3.759   5.757
 9716SOL    HW141179   7.794   3.843   5.736
 9716SOL    HW241180   7.807   3.694   5.802
 9717SOL     OW41181   8.383   3.960   6.066
 9717SOL    HW141182   8.335   4.001   5.988
 9717SOL    HW241183   8.482   3.958   6.047
 9718SOL     OW41184   8.675   5.294   6.379
 9718SOL    HW141185   8.696   5.368   6.314
 9718SOL    HW241186   8.743   5.294   6.452
 9719SOL     OW41187   7.907   4.876   6.327
 9719SOL    HW141188   7.836   4.849   6.392
 9719SOL    HW241189   7.881   4.848   6.234
 9720SOL     OW41190   8.719   5.521   6.177
 9720SOL    HW141191   8.763   5.585   6.113
 9720SOL    HW241192   8.669   5.573   6.247
 9721SOL     OW41193   8.009   3.946   6.733
 9721SOL    HW141194   8.047   3.862   6.770
 9721SOL    HW241195   7.921   3.965   6.777
 9722SOL     OW41196   8.314   4.178   6.228
 9722SOL    HW141197   8.282   4.250   6.166
 9722SOL    HW241198   8.338   4.097   6.175
 9723SOL     OW41199   8.465   3.763   6.339
 9723SOL    HW141200   8.393   3.768   6.270
 9723SOL    HW241201   8.441   3.694   6.408
 9724SOL     OW41202   8.877   4.897   6.453
 9724SOL    HW141203   8.822   4.813   6.446
 9724SOL    HW241204   8.903   4.926   6.361
 9725SOL     OW41205   8.914   4.314   6.578
 9725SOL    HW141206   8.884   4.219   6.585
 9725SOL    HW241207   8.987   4.330   6.644
 9726SOL     OW41208   9.305   4.557   5.963
 9726SOL    HW141209   9.347   4.493   6.027
 9726SOL    HW241210   9.267   4.506   5.885
 9727SOL     OW41211   7.936   5.109   5.760
 9727SOL    HW141212   7.849   5.094   5.807
 9727SOL    HW241213   7.919   5.135   5.665
 9728SOL     OW41214   9.112   5.004   6.243
 9728SOL    HW141215   9.211   5.012   6.257
 9728SOL    HW241216   9.067   5.088   6.274
 9729SOL     OW41217   7.975   3.980   5.914
 9729SOL    HW141218   8.002   3.921   5.839
 9729SOL    HW241219   7.975   4.075   5.883
 9730SOL     OW41220   9.202   4.947   7.174
 9730SOL    HW141221   9.293   4.908   7.161
 9730SOL    HW241222   9.210   5.043   7.198
 9731SOL     OW41223   8.559   4.919   6.686
 9731SOL    HW141224   8.519   4.963   6.767
 9731SOL    HW241225   8.518   4.956   6.603
 9732SOL     OW41226   9.086   4.823   6.665
 9732SOL    HW141227   9.091   4.904   6.724
 9732SOL    HW241228   9.000   4.825   6.614
 9733SOL     OW41229   8.153   4.774   5.954
 9733SOL    HW141230   8.139   4.781   6.053
 9733SOL    HW241231   8.237   4.723   5.936
 9734SOL     OW41232   7.858   4.537   6.837
 9734SOL    HW141233   7.944   4.549   6.887
 9734SOL    HW241234   7.816   4.450   6.864
 9735SOL     OW41235   8.722   4.110   6.848
 9735SOL    HW141236   8.743   4.184   6.912
 9735SOL    HW241237   8.633   4.127   6.805
 9736SOL     OW41238   7.815   4.824   6.087
 9736SOL    HW141239   7.808   4.907   6.031
 9736SOL    HW241240   7.819   4.744   6.027
 9737SOL     OW41241   8.014   4.261   6.451
 9737SOL    HW141242   8.026   4.327   6.377
 9737SOL    HW241243   8.060   4.295   6.534
 9738SOL     OW41244   8.700   5.072   5.974
 9738SOL    HW141245   8.750   5.149   6.014
 9738SOL    HW241246   8.605   5.074   6.006
 9739SOL     OW41247   8.720   5.169   6.728
 9739SOL    HW141248   8.767   5.182   6.815
 9739SOL    HW241249   8.654   5.095   6.737
 9740SOL     OW41250   9.030   4.363   6.058
 9740SOL    HW141251   8.999   4.424   6.131
 9740SOL    HW241252   9.080   4.415   5.989
 9741SOL     OW41253   7.802   5.234   6.915
 9741SOL    HW141254   7.781   5.190   6.828
 9741SOL    HW241255   7.899   5.260   6.918
 9742SOL     OW41256   8.021   4.594   6.615
 9742SOL    HW141257   8.065   4.683   6.606
 9742SOL    HW241258   7.958   4.594   6.692
 9743SOL     OW41259   8.808   4.586   6.631
 9743SOL    HW141260   8.733   4.586   6.565
 9743SOL    HW241261   8.845   4.494   6.640
 9744SOL     OW41262   8.657   4.249   5.861
 9744SOL    HW141263   8.670   4.165   5.915
 9744SOL    HW241264   8.628   4.323   5.921
 9745SOL     OW41265   7.755   3.937   6.817
 9745SOL    HW141266   7.732   3.974   6.907
 9745SOL    HW241267   7.725   3.842   6.811
 9746SOL     OW41268   7.485   5.034   6.868
 9746SOL    HW141269   7.538   4.985   6.936
 9746SOL    HW241270   7.507   5.132   6.873
 9747SOL     OW41271   8.180   4.358   6.650
 9747SOL    HW141272   8.239   4.332   6.574
 9747SOL    HW241273   8.152   4.454   6.639
 9748SOL     OW41274   7.755   3.787   6.204
 9748SOL    HW141275   7.744   3.881   6.237
 9748SOL    HW241276   7.750   3.724   6.281
 9749SOL     OW41277   9.070   4.091   5.960
 9749SOL    HW141278   9.072   4.015   6.024
 9749SOL    HW241279   9.022   4.168   6.000
 9750SOL     OW41280   8.471   4.490   6.552
 9750SOL    HW141281   8.486   4.511   6.648
 9750SOL    HW241282   8.441   4.395   6.543
 9751SOL     OW41283   8.988   3.998   5.711
 9751SOL    HW141284   8.927   3.923   5.734
 9751SOL    HW241285   9.010   4.050   5.794
 9752SOL     OW41286   8.516   5.057   6.435
 9752SOL    HW141287   8.523   4.973   6.380
 9752SOL    HW241288   8.578   5.126   6.399
 9753SOL     OW41289   7.767   4.534   6.535
 9753SOL    HW141290   7.860   4.570   6.540
 9753SOL    HW241291   7.761   4.449   6.587
 9754SOL     OW41292   7.787   4.233   6.592
 9754SOL    HW141293   7.735   4.150   6.575
 9754SOL    HW241294   7.864   4.238   6.528
 9755SOL     OW41295   8.608   3.931   7.063
 9755SOL    HW141296   8.608   3.995   7.140
 9755SOL    HW241297   8.636   3.979   6.980
 9756SOL     OW41298   7.536   5.525   6.513
 9756SOL    HW141299   7.494   5.439   6.486
 9756SOL    HW241300   7.630   5.528   6.479
 9757SOL     OW41301   7.952   5.292   6.496
 9757SOL    HW141302   8.018   5.366   6.505
 9757SOL    HW241303   7.996   5.213   6.454
 9758SOL     OW41304   8.450   4.520   6.824
 9758SOL    HW141305   8.491   4.488   6.910
 9758SOL    HW241306   8.354   4.493   6.821
 9759SOL     OW41307   7.488   4.268   6.700
 9759SOL    HW141308   7.573   4.235   6.659
 9759SOL    HW241309   7.501   4.283   6.798
 9760SOL     OW41310   8.263   4.296   5.911
 9760SOL    HW141311   8.270   4.207   5.865
 9760SOL    HW241312   8.169   4.330   5.903
 9761SOL     OW41313   9.105   4.328   6.792
 9761SOL    HW141314   9.067   4.259   6.854
 9761SOL    HW241315   9.187   4.292   6.748
 9762SOL     OW41316   8.119   4.188   6.855
 9762SOL    HW141317   8.085   4.099   6.825
 9762SOL    HW241318   8.145   4.242   6.775
 9763SOL     OW41319   8.378   5.402   7.051
 9763SOL    HW141320   8.354   5.384   6.956
 9763SOL    HW241321   8.408   5.496   7.061
 9764SOL     OW41322   8.795   4.783   6.820
 9764SOL    HW141323   8.819   4.720   6.746
 9764SOL    HW241324   8.705   4.823   6.802
 9765SOL     OW41325   8.750   4.579   5.895
 9765SOL    HW141326   8.664   4.548   5.937
 9765SOL    HW241327   8.746   4.565   5.796
 9766SOL     OW41328   9.207   5.471   6.740
 9766SOL    HW141329   9.268   5.501   6.667
 9766SOL    HW241330   9.169   5.382   6.718
 9767SOL     OW41331   8.700   5.455   6.714
 9767SOL    HW141332   8.784   5.460   6.660
 9767SOL    HW241333   8.677   5.359   6.732
 9768SOL     OW41334   7.531   4.982   6.608
 9768SOL    HW141335   7.526   4.981   6.708
 9768SOL    HW241336   7.448   4.941   6.570
 9769SOL     OW41337   9.174   3.859   6.109
 9769SOL    HW141338   9.247   3.842   6.042
 9769SOL    HW241339   9.143   3.772   6.147
 9770SOL     OW41340   8.836   5.297   6.063
 9770SOL    HW141341   8.903   5.309   5.989
 9770SOL    HW241342   8.796   5.386   6.086
 9771SOL     OW41343   8.728   4.651   6.258
 9771SOL    HW141344   8.788   4.570   6.260
 9771SOL    HW241345   8.768   4.720   6.198
 9772SOL     OW41346   8.120   5.340   5.740
 9772SOL    HW141347   8.129   5.350   5.641
 9772SOL    HW241348   8.080   5.251   5.761
 9773SOL     OW41349   9.098   5.444   6.980
 9773SOL    HW141350   9.151   5.454   6.896
 9773SOL    HW241351   9.071   5.534   7.014
 9774SOL     OW41352   9.289   3.899   6.549
 9774SOL    HW141353   9.328   3.814   6.513
 9774SOL    HW241354   9.191   3.901   6.530
 9775SOL     OW41355   7.711   4.050   6.306
 9775SOL    HW141356   7.632   4.101   6.272
 9775SOL    HW241357   7.702   4.035   6.404
 9776SOL     OW41358   8.642   5.336   5.617
 9776SOL    HW141359   8.648   5.243   5.654
 9776SOL    HW241360   8.583   5.336   5.537
 9777SOL     OW41361   8.270   4.726   6.958
 9777SOL    HW141362   8.310   4.725   6.866
 9777SOL    HW241363   8.280   4.818   6.998
 9778SOL     OW41364   8.364   4.634   5.877
 9778SOL    HW141365   8.427   4.672   5.809
 9778SOL    HW241366   8.404   4.551   5.916
 9779SOL     OW41367   8.952   5.331   5.630
 9779SOL    HW141368   8.860   5.368   5.637
 9779SOL    HW241369   8.990   5.351   5.540
 9780SOL     OW41370   8.487   4.822   6.282
 9780SOL    HW141371   8.417   4.775   6.336
 9780SOL    HW241372   8.546   4.754   6.239
 9781SOL     OW41373   8.462   3.960   6.557
 9781SOL    HW141374   8.454   3.924   6.464
 9781SOL    HW241375   8.460   3.884   6.622
 9782SOL     OW41376   8.038   5.211   6.077
 9782SOL    HW141377   8.080   5.153   6.007
 9782SOL    HW241378   7.994   5.290   6.033
 9783SOL     OW41379   9.157   4.109   6.967
 9783SOL    HW141380   9.230   4.178   6.971
 9783SOL    HW241381   9.185   4.034   6.908
 9784SOL     OW41382   7.523   4.069   5.619
 9784SOL    HW141383   7.431   4.041   5.590
 9784SOL    HW241384   7.554   4.146   5.563
 9785SOL     OW41385   7.520   3.890   5.904
 9785SOL    HW141386   7.503   3.973   5.850
 9785SOL    HW241387   7.610   3.853   5.882
 9786SOL     OW41388   8.631   5.059   5.705
 9786SOL    HW141389   8.532   5.048   5.707
 9786SOL    HW241390   8.665   5.074   5.798
 9787SOL     OW41391   8.941   5.491   6.545
 9787SOL    HW141392   8.974   5.555   6.476
 9787SOL    HW241393   9.007   5.485   6.620
 9788SOL     OW41394   8.898   4.944   7.219
 9788SOL    HW141395   8.889   4.934   7.318
 9788SOL    HW241396   8.994   4.937   7.193
 9789SOL     OW41397   9.122   4.607   6.840
 9789SOL    HW141398   9.095   4.518   6.803
 9789SOL    HW241399   9.123   4.675   6.767
 9790SOL     OW41400   8.673   4.049   6.035
 9790SOL    HW141401   8.738   3.975   6.024
 9790SOL    HW241402   8.693   4.099   6.119
 9791SOL     OW41403   8.042   4.469   6.238
 9791SOL    HW141404   8.092   4.554   6.219
 9791SOL    HW241405   7.954   4.471   6.190
 9792SOL     OW41406   9.178   4.658   7.103
 9792SOL    HW141407   9.216   4.749   7.118
 9792SOL    HW241408   9.170   4.641   7.004
 9793SOL     OW41409   8.307   5.098   5.602
 9793SOL    HW141410   8.261   5.113   5.690
 9793SOL    HW241411   8.351   5.183   5.572
 9794SOL     OW41412   8.109   5.514   6.539
 9794SOL    HW141413   8.063   5.602   6.526
 9794SOL    HW241414   8.208   5.526   6.532
 9795SOL     OW41415   8.307   4.680   6.447
 9795SOL    HW141416   8.361   4.611   6.495
 9795SOL    HW241417   8.275   4.749   6.513
 9796SOL     OW41418   9.309   5.293   6.437
 9796SOL    HW141419   9.238   5.281   6.367
 9796SOL    HW241420   9.310   5.214   6.497
 9797SOL     OW41421   7.527   4.964   6.239
 9797SOL    HW141422   7.526   4.917   6.327
 9797SOL    HW241423   7.609   4.936   6.188
 9798SOL     OW41424   9.272   3.916   6.813
 9798SOL    HW141425   9.268   3.826   6.857
 9798SOL    HW241426   9.275   3.905   6.714
 9799SOL     OW41427   7.876   4.148   6.106
 9799SOL    HW141428   7.906   4.076   6.044
 9799SOL    HW241429   7.837   4.108   6.189
 9800SOL     OW41430   9.153   5.211   6.690
 9800SOL    HW141431   9.060   5.186   6.663
 9800SOL    HW241432   9.179   5.161   6.772
 9801SOL     OW41433   8.260   5.310   6.273
 9801SOL    HW141434   8.292   5.320   6.179
 9801SOL    HW241435   8.181   5.248   6.275
 9802SOL     OW41436   8.872   3.938   6.698
 9802SOL    HW141437   8.924   3.873   6.753
 9802SOL    HW241438   8.823   4.001   6.759
 9803SOL     OW41439   8.449   3.758   6.740
 9803SOL    HW141440   8.386   3.686   6.709
 9803SOL    HW241441   8.542   3.722   6.740
 9804SOL     OW41442   8.218   5.054   5.887
 9804SOL    HW141443   8.172   4.967   5.904
 9804SOL    HW241444   8.309   5.051   5.928
 9805SOL     OW41445   8.800   3.776   5.754
 9805SOL    HW141446   8.835   3.735   5.670
 9805SOL    HW241447   8.710   3.738   5.774
 9806SOL     OW41448   8.748   4.177   6.277
 9806SOL    HW141449   8.689   4.257   6.281
 9806SOL    HW241450   8.763   4.142   6.370
 9807SOL     OW41451   9.041   3.945   6.468
 9807SOL    HW141452   8.957   3.944   6.522
 9807SOL    HW241453   9.043   4.028   6.412
 9808SOL     OW41454   7.487   4.801   5.886
 9808SOL    HW141455   7.586   4.790   5.877
 9808SOL    HW241456   7.447   4.715   5.918
 9809SOL     OW41457   8.323   5.370   5.923
 9809SOL    HW141458   8.246   5.335   5.869
 9809SOL    HW241459   8.291   5.441   5.985
 9810SOL     OW41460   7.678   6.214   0.113
 9810SOL    HW141461   7.585   6.212   0.150
 9810SOL    HW241462   7.679   6.175   0.021
 9811SOL     OW41463   7.673   5.861   0.996
 9811SOL    HW141464   7.708   5.844   1.088
 9811SOL    HW241465   7.585   5.816   0.984
 9812SOL     OW41466   7.467   5.954   0.647
 9812SOL    HW141467   7.385   5.997   0.686
 9812SOL    HW241468   7.439   5.881   0.584
 9813SOL     OW41469   8.017   6.861   1.165
 9813SOL    HW141470   7.924   6.854   1.128
 9813SOL    HW241471   8.028   6.950   1.209
 9814SOL     OW41472   9.003   7.097   0.703
 9814SOL    HW141473   8.946   7.081   0.784
 9814SOL    HW241474   8.944   7.107   0.623
 9815SOL     OW41475   8.583   6.289   0.717
 9815SOL    HW141476   8.640   6.367   0.692
 9815SOL    HW241477   8.523   6.315   0.793
 9816SOL     OW41478   9.203   6.193   0.231
 9816SOL    HW141479   9.191   6.180   0.132
 9816SOL    HW241480   9.173   6.112   0.280
 9817SOL     OW41481   8.216   6.730   1.023
 9817SOL    HW141482   8.138   6.747   1.083
 9817SOL    HW241483   8.250   6.817   0.987
 9818SOL     OW41484   8.133   6.598   0.665
 9818SOL    HW141485   8.202   6.582   0.735
 9818SOL    HW241486   8.060   6.655   0.703
 9819SOL     OW41487   8.134   6.747   1.803
 9819SOL    HW141488   8.194   6.826   1.817
 9819SOL    HW241489   8.048   6.778   1.762
 9820SOL     OW41490   8.908   7.091   1.339
 9820SOL    HW141491   8.932   7.185   1.365
 9820SOL    HW241492   8.892   7.037   1.421
 9821SOL     OW41493   7.679   7.299   0.483
 9821SOL    HW141494   7.713   7.376   0.537
 9821SOL    HW241495   7.723   7.299   0.393
 9822SOL     OW41496   8.575   6.927   1.690
 9822SOL    HW141497   8.622   6.927   1.778
 9822SOL    HW241498   8.527   6.840   1.679
 9823SOL     OW41499   7.678   7.020   0.538
 9823SOL    HW141500   7.652   7.116   0.538
 9823SOL    HW241501   7.607   6.966   0.583
 9824SOL     OW41502   7.688   6.677   0.886
 9824SOL    HW141503   7.702   6.593   0.938
 9824SOL    HW241504   7.633   6.741   0.941
 9825SOL     OW41505   8.054   6.550   0.123
 9825SOL    HW141506   8.061   6.634   0.069
 9825SOL    HW241507   8.100   6.563   0.211
 9826SOL     OW41508   7.570   6.229   0.563
 9826SOL    HW141509   7.525   6.141   0.580
 9826SOL    HW241510   7.569   6.283   0.647
 9827SOL     OW41511   9.290   7.353   0.359
 9827SOL    HW141512   9.344   7.324   0.439
 9827SOL    HW241513   9.320   7.443   0.330
 9828SOL     OW41514   7.475   7.182   0.117
 9828SOL    HW141515   7.456   7.086   0.138
 9828SOL    HW241516   7.442   7.240   0.192
 9829SOL     OW41517   9.137   6.508   0.612
 9829SOL    HW141518   9.232   6.479   0.620
 9829SOL    HW241519   9.129   6.573   0.537
 9830SOL     OW41520   9.089   6.694   0.432
 9830SOL    HW141521   9.175   6.696   0.380
 9830SOL    HW241522   9.103   6.741   0.520
 9831SOL     OW41523   7.561   6.323   1.597
 9831SOL    HW141524   7.649   6.310   1.642
 9831SOL    HW241525   7.548   6.420   1.575
 9832SOL     OW41526   8.061   6.951   0.726
 9832SOL    HW141527   8.012   6.864   0.735
 9832SOL    HW241528   8.038   6.994   0.639
 9833SOL     OW41529   8.257   5.590   0.502
 9833SOL    HW141530   8.297   5.681   0.493
 9833SOL    HW241531   8.157   5.598   0.508
 9834SOL     OW41532   8.973   6.585   0.190
 9834SOL    HW141533   8.910   6.509   0.203
 9834SOL    HW241534   9.021   6.603   0.276
 9835SOL     OW41535   8.635   7.378   1.616
 9835SOL    HW141536   8.659   7.438   1.540
 9835SOL    HW241537   8.642   7.283   1.586
 9836SOL     OW41538   8.914   7.003   0.953
 9836SOL    HW141539   8.855   7.009   1.033
 9836SOL    HW241540   8.899   6.915   0.907
 9837SOL     OW41541   9.115   7.300   0.572
 9837SOL    HW141542   9.074   7.277   0.484
 9837SOL    HW241543   9.097   7.226   0.637
 9838SOL     OW41544   8.046   6.315   0.270
 9838SOL    HW141545   8.070   6.384   0.202
 9838SOL    HW241546   7.968   6.348   0.324
 9839SOL     OW41547   8.729   5.931   0.944
 9839SOL    HW141548   8.643   5.881   0.931
 9839SOL    HW241549   8.791   5.877   1.000
 9840SOL     OW41550   9.024   7.248   0.307
 9840SOL    HW141551   9.113   7.294   0.310
 9840SOL    HW241552   9.003   7.224   0.212
 9841SOL     OW41553   8.421   6.476   1.572
 9841SOL    HW141554   8.467   6.392   1.543
 9841SOL    HW241555   8.365   6.510   1.497
 9842SOL     OW41556   8.489   6.287   0.429
 9842SOL    HW141557   8.515   6.283   0.525
 9842SOL    HW241558   8.404   6.236   0.415
 9843SOL     OW41559   7.524   6.397   0.789
 9843SOL    HW141560   7.623   6.385   0.798
 9843SOL    HW241561   7.500   6.492   0.810
 9844SOL     OW41562   8.313   5.934   0.195
 9844SOL    HW141563   8.372   5.997   0.146
 9844SOL    HW241564   8.332   5.840   0.166
 9845SOL     OW41565   8.810   6.730   0.545
 9845SOL    HW141566   8.893   6.701   0.497
 9845SOL    HW241567   8.761   6.797   0.489
 9846SOL     OW41568   7.998   5.782   0.885
 9846SOL    HW141569   7.993   5.777   0.985
 9846SOL    HW241570   8.000   5.878   0.856
 9847SOL     OW41571   8.456   7.042   0.477
 9847SOL    HW141572   8.410   7.114   0.425
 9847SOL    HW241573   8.452   7.062   0.575
 9848SOL     OW41574   7.799   7.387   0.853
 9848SOL    HW141575   7.849   7.301   0.859
 9848SOL    HW241576   7.864   7.464   0.850
 9849SOL     OW41577   7.769   6.529   0.242
 9849SOL    HW141578   7.851   6.568   0.200
 9849SOL    HW241579   7.742   6.447   0.193
 9850SOL     OW41580   8.559   7.362   0.237
 9850SOL    HW141581   8.499   7.300   0.287
 9850SOL    HW241582   8.590   7.318   0.152
 9851SOL     OW41583   7.650   5.871   1.498
 9851SOL    HW141584   7.570   5.931   1.485
 9851SOL    HW241585   7.640   5.822   1.584
 9852SOL     OW41586   9.080   6.963   0.081
 9852SOL    HW141587   9.048   7.057   0.071
 9852SOL    HW241588   9.004   6.900   0.069
 9853SOL     OW41589   7.912   7.329   0.323
 9853SOL    HW141590   7.945   7.368   0.409
 9853SOL    HW241591   7.988   7.322   0.258
 9854SOL     OW41592   8.848   5.693   0.426
 9854SOL    HW141593   8.824   5.656   0.336
 9854SOL    HW241594   8.947   5.709   0.430
 9855SOL     OW41595   7.697   7.371   1.241
 9855SOL    HW141596   7.754   7.306   1.291
 9855SOL    HW241597   7.681   7.338   1.148
 9856SOL     OW41598   8.388   7.284   0.904
 9856SOL    HW141599   8.468   7.227   0.925
 9856SOL    HW241600   8.339   7.244   0.827
 9857SOL     OW41601   7.830   6.286   0.480
 9857SOL    HW141602   7.875   6.196   0.477
 9857SOL    HW241603   7.736   6.275   0.513
 9858SOL     OW41604   8.995   5.808   1.729
 9858SOL    HW141605   8.990   5.845   1.821
 9858SOL    HW241606   8.923   5.739   1.717
 9859SOL     OW41607   8.229   5.850   1.749
 9859SOL    HW141608   8.296   5.789   1.792
 9859SOL    HW241609   8.156   5.869   1.814
 9860SOL     OW41610   8.799   6.176   1.433
 9860SOL    HW141611   8.827   6.133   1.518
 9860SOL    HW241612   8.824   6.272   1.434
 9861SOL     OW41613   8.251   6.988   0.924
 9861SOL    HW141614   8.341   7.002   0.882
 9861SOL    HW241615   8.180   6.990   0.853
 9862SOL     OW41616   8.370   6.089   0.899
 9862SOL    HW141617   8.345   6.080   0.803
 9862SOL    HW241618   8.418   6.007   0.930
 9863SOL     OW41619   7.987   5.650   0.512
 9863SOL    HW141620   7.906   5.651   0.570
 9863SOL    HW241621   7.990   5.733   0.457
 9864SOL     OW41622   8.882   6.774   0.041
 9864SOL    HW141623   8.914   6.698   0.098
 9864SOL    HW241624   8.790   6.801   0.071
 9865SOL     OW41625   7.745   5.621   0.171
 9865SOL    HW141626   7.794   5.705   0.150
 9865SOL    HW241627   7.807   5.556   0.216
 9866SOL     OW41628   8.383   5.822   0.480
 9866SOL    HW141629   8.335   5.863   0.402
 9866SOL    HW241630   8.482   5.820   0.461
 9867SOL     OW41631   8.524   6.269   1.464
 9867SOL    HW141632   8.444   6.208   1.467
 9867SOL    HW241633   8.605   6.216   1.440
 9868SOL     OW41634   8.675   7.156   0.793
 9868SOL    HW141635   8.696   7.230   0.728
 9868SOL    HW241636   8.743   7.156   0.866
 9869SOL     OW41637   7.907   6.738   0.741
 9869SOL    HW141638   7.836   6.711   0.806
 9869SOL    HW241639   7.881   6.710   0.648
 9870SOL     OW41640   8.719   7.383   0.591
 9870SOL    HW141641   8.763   7.447   0.527
 9870SOL    HW241642   8.669   7.435   0.661
 9871SOL     OW41643   8.480   6.135   0.016
 9871SOL    HW141644   8.439   6.217  -0.023
 9871SOL    HW241645   8.544   6.161   0.089
 9872SOL     OW41646   7.526   6.142   1.386
 9872SOL    HW141647   7.618   6.141   1.345
 9872SOL    HW241648   7.520   6.216   1.453
 9873SOL     OW41649   8.314   6.040   0.642
 9873SOL    HW141650   8.282   6.112   0.580
 9873SOL    HW241651   8.338   5.959   0.589
 9874SOL     OW41652   8.465   5.625   0.753
 9874SOL    HW141653   8.393   5.630   0.684
 9874SOL    HW241654   8.441   5.556   0.822
 9875SOL     OW41655   8.877   6.759   0.867
 9875SOL    HW141656   8.822   6.675   0.860
 9875SOL    HW241657   8.903   6.788   0.775
 9876SOL     OW41658   7.936   6.971   0.174
 9876SOL    HW141659   7.849   6.956   0.221
 9876SOL    HW241660   7.919   6.997   0.079
 9877SOL     OW41661   9.112   6.866   0.657
 9877SOL    HW141662   9.211   6.874   0.671
 9877SOL    HW241663   9.067   6.950   0.688
 9878SOL     OW41664   8.838   6.161   0.078
 9878SOL    HW141665   8.784   6.140   0.159
 9878SOL    HW241666   8.929   6.120   0.087
 9879SOL     OW41667   7.975   5.842   0.328
 9879SOL    HW141668   8.002   5.783   0.253
 9879SOL    HW241669   7.975   5.937   0.297
 9880SOL     OW41670   9.202   6.809   1.588
 9880SOL    HW141671   9.293   6.770   1.575
 9880SOL    HW241672   9.210   6.905   1.612
 9881SOL     OW41673   8.559   6.781   1.100
 9881SOL    HW141674   8.519   6.825   1.181
 9881SOL    HW241675   8.518   6.818   1.017
 9882SOL     OW41676   8.428   6.702   1.719
 9882SOL    HW141677   8.329   6.708   1.729
 9882SOL    HW241678   8.451   6.622   1.663
 9883SOL     OW41679   8.153   6.636   0.368
 9883SOL    HW141680   8.139   6.643   0.467
 9883SOL    HW241681   8.237   6.585   0.350
 9884SOL     OW41682   7.815   6.686   0.501
 9884SOL    HW141683   7.808   6.769   0.445
 9884SOL    HW241684   7.819   6.606   0.441
 9885SOL     OW41685   8.014   6.123   0.865
 9885SOL    HW141686   8.026   6.189   0.791
 9885SOL    HW241687   8.060   6.157   0.948
 9886SOL     OW41688   8.700   6.934   0.388
 9886SOL    HW141689   8.750   7.011   0.428
 9886SOL    HW241690   8.605   6.936   0.420
 9887SOL     OW41691   8.720   7.031   1.142
 9887SOL    HW141692   8.767   7.044   1.229
 9887SOL    HW241693   8.654   6.957   1.151
 9888SOL     OW41694   8.021   6.456   1.029
 9888SOL    HW141695   8.065   6.545   1.020
 9888SOL    HW241696   7.958   6.456   1.106
 9889SOL     OW41697   8.808   6.448   1.045
 9889SOL    HW141698   8.733   6.448   0.979
 9889SOL    HW241699   8.845   6.356   1.054
 9890SOL     OW41700   8.657   6.111   0.275
 9890SOL    HW141701   8.670   6.027   0.329
 9890SOL    HW241702   8.628   6.185   0.335
 9891SOL     OW41703   8.180   6.220   1.064
 9891SOL    HW141704   8.239   6.194   0.988
 9891SOL    HW241705   8.152   6.316   1.053
 9892SOL     OW41706   9.070   5.953   0.374
 9892SOL    HW141707   9.072   5.877   0.438
 9892SOL    HW241708   9.022   6.030   0.414
 9893SOL     OW41709   8.471   6.352   0.966
 9893SOL    HW141710   8.486   6.373   1.062
 9893SOL    HW241711   8.441   6.257   0.957
 9894SOL     OW41712   8.988   5.860   0.125
 9894SOL    HW141713   8.927   5.785   0.148
 9894SOL    HW241714   9.010   5.912   0.208
 9895SOL     OW41715   8.751   6.424   0.042
 9895SOL    HW141716   8.785   6.331   0.057
 9895SOL    HW241717   8.769   6.451  -0.053
 9896SOL     OW41718   8.516   6.919   0.849
 9896SOL    HW141719   8.523   6.835   0.794
 9896SOL    HW241720   8.578   6.988   0.813
 9897SOL     OW41721   7.767   6.396   0.949
 9897SOL    HW141722   7.860   6.432   0.954
 9897SOL    HW241723   7.761   6.311   1.001
 9898SOL     OW41724   7.787   6.095   1.006
 9898SOL    HW141725   7.735   6.012   0.989
 9898SOL    HW241726   7.864   6.100   0.942
 9899SOL     OW41727   7.536   7.387   0.927
 9899SOL    HW141728   7.494   7.301   0.900
 9899SOL    HW241729   7.630   7.390   0.893
 9900SOL     OW41730   7.952   7.154   0.910
 9900SOL    HW141731   8.018   7.228   0.919
 9900SOL    HW241732   7.996   7.075   0.868
 9901SOL     OW41733   8.450   6.382   1.238
 9901SOL    HW141734   8.491   6.350   1.324
 9901SOL    HW241735   8.354   6.355   1.235
 9902SOL     OW41736   7.488   6.130   1.114
 9902SOL    HW141737   7.573   6.097   1.073
 9902SOL    HW241738   7.501   6.145   1.212
 9903SOL     OW41739   8.263   6.158   0.325
 9903SOL    HW141740   8.270   6.069   0.279
 9903SOL    HW241741   8.169   6.192   0.317
 9904SOL     OW41742   7.700   7.150   1.744
 9904SOL    HW141743   7.670   7.207   1.820
 9904SOL    HW241744   7.693   7.053   1.770
 9905SOL     OW41745   7.921   6.086   0.191
 9905SOL    HW141746   7.982   6.166   0.195
 9905SOL    HW241747   7.826   6.117   0.198
 9906SOL     OW41748   8.750   6.441   0.309
 9906SOL    HW141749   8.664   6.410   0.351
 9906SOL    HW241750   8.746   6.427   0.210
 9907SOL     OW41751   9.207   7.333   1.154
 9907SOL    HW141752   9.268   7.363   1.081
 9907SOL    HW241753   9.169   7.244   1.132
 9908SOL     OW41754   8.700   7.317   1.128
 9908SOL    HW141755   8.784   7.322   1.074
 9908SOL    HW241756   8.677   7.221   1.146
 9909SOL     OW41757   7.531   6.844   1.022
 9909SOL    HW141758   7.526   6.843   1.122
 9909SOL    HW241759   7.448   6.803   0.984
 9910SOL     OW41760   8.351   5.672   0.133
 9910SOL    HW141761   8.402   5.673   0.047
 9910SOL    HW241762   8.407   5.630   0.204
 9911SOL     OW41763   9.174   5.721   0.523
 9911SOL    HW141764   9.247   5.704   0.456
 9911SOL    HW241765   9.143   5.634   0.561
 9912SOL     OW41766   8.836   7.159   0.477
 9912SOL    HW141767   8.903   7.171   0.403
 9912SOL    HW241768   8.796   7.248   0.500
 9913SOL     OW41769   8.728   6.513   0.672
 9913SOL    HW141770   8.788   6.432   0.674
 9913SOL    HW241771   8.768   6.582   0.612
 9914SOL     OW41772   8.278   6.859   1.422
 9914SOL    HW141773   8.273   6.892   1.517
 9914SOL    HW241774   8.192   6.878   1.376
 9915SOL     OW41775   8.120   7.202   0.154
 9915SOL    HW141776   8.129   7.212   0.055
 9915SOL    HW241777   8.080   7.113   0.175
 9916SOL     OW41778   9.098   7.306   1.394
 9916SOL    HW141779   9.151   7.316   1.310
 9916SOL    HW241780   9.071   7.396   1.428
 9917SOL     OW41781   9.289   5.761   0.963
 9917SOL    HW141782   9.328   5.676   0.927
 9917SOL    HW241783   9.191   5.763   0.944
 9918SOL     OW41784   7.711   5.912   0.720
 9918SOL    HW141785   7.632   5.963   0.686
 9918SOL    HW241786   7.702   5.897   0.818
 9919SOL     OW41787   8.642   7.198   0.031
 9919SOL    HW141788   8.648   7.105   0.068
 9919SOL    HW241789   8.583   7.198  -0.049
 9920SOL     OW41790   8.270   6.588   1.372
 9920SOL    HW141791   8.310   6.587   1.280
 9920SOL    HW241792   8.280   6.680   1.412
 9921SOL     OW41793   8.364   6.496   0.291
 9921SOL    HW141794   8.427   6.534   0.223
 9921SOL    HW241795   8.404   6.413   0.330
 9922SOL     OW41796   8.952   7.193   0.044
 9922SOL    HW141797   8.860   7.230   0.051
 9922SOL    HW241798   8.990   7.213  -0.046
 9923SOL     OW41799   9.062   6.878   1.289
 9923SOL    HW141800   9.122   6.881   1.369
 9923SOL    HW241801   8.987   6.942   1.302
 9924SOL     OW41802   8.487   6.684   0.696
 9924SOL    HW141803   8.417   6.637   0.750
 9924SOL    HW241804   8.546   6.616   0.653
 9925SOL     OW41805   8.038   7.073   0.491
 9925SOL    HW141806   8.080   7.015   0.421
 9925SOL    HW241807   7.994   7.152   0.447
 9926SOL     OW41808   7.703   6.934   0.290
 9926SOL    HW141809   7.607   6.935   0.263
 9926SOL    HW241810   7.715   6.987   0.374
 9927SOL     OW41811   7.553   6.599   1.726
 9927SOL    HW141812   7.476   6.566   1.780
 9927SOL    HW241813   7.638   6.569   1.768
 9928SOL     OW41814   7.520   5.752   0.318
 9928SOL    HW141815   7.503   5.835   0.264
 9928SOL    HW241816   7.610   5.715   0.296
 9929SOL     OW41817   8.631   6.921   0.119
 9929SOL    HW141818   8.532   6.910   0.121
 9929SOL    HW241819   8.665   6.936   0.212
 9930SOL     OW41820   8.061   6.428   1.431
 9930SOL    HW141821   8.117   6.509   1.414
 9930SOL    HW241822   8.120   6.348   1.434
 9931SOL     OW41823   8.941   7.353   0.959
 9931SOL    HW141824   8.974   7.417   0.890
 9931SOL    HW241825   9.007   7.347   1.034
 9932SOL     OW41826   8.898   6.806   1.633
 9932SOL    HW141827   8.889   6.796   1.732
 9932SOL    HW241828   8.994   6.799   1.607
 9933SOL     OW41829   7.838   7.327   1.560
 9933SOL    HW141830   7.747   7.368   1.558
 9933SOL    HW241831   7.831   7.233   1.592
 9934SOL     OW41832   8.673   5.911   0.449
 9934SOL    HW141833   8.738   5.837   0.438
 9934SOL    HW241834   8.693   5.961   0.533
 9935SOL     OW41835   8.042   6.331   0.652
 9935SOL    HW141836   8.092   6.416   0.633
 9935SOL    HW241837   7.954   6.333   0.604
 9936SOL     OW41838   9.225   5.928   1.642
 9936SOL    HW141839   9.208   5.959   1.548
 9936SOL    HW241840   9.141   5.891   1.680
 9937SOL     OW41841   9.178   6.520   1.517
 9937SOL    HW141842   9.216   6.611   1.532
 9937SOL    HW241843   9.170   6.503   1.418
 9938SOL     OW41844   8.307   6.960   0.016
 9938SOL    HW141845   8.261   6.975   0.104
 9938SOL    HW241846   8.351   7.045  -0.014
 9939SOL     OW41847   8.109   7.376   0.953
 9939SOL    HW141848   8.063   7.464   0.940
 9939SOL    HW241849   8.208   7.388   0.946
 9940SOL     OW41850   8.307   6.542   0.861
 9940SOL    HW141851   8.361   6.473   0.909
 9940SOL    HW241852   8.275   6.611   0.927
 9941SOL     OW41853   8.531   6.570   0.087
 9941SOL    HW141854   8.508   6.623   0.005
 9941SOL    HW241855   8.612   6.514   0.068
 9942SOL     OW41856   9.309   7.155   0.851
 9942SOL    HW141857   9.238   7.143   0.781
 9942SOL    HW241858   9.310   7.076   0.911
 9943SOL     OW41859   7.527   6.826   0.653
 9943SOL    HW141860   7.526   6.779   0.741
 9943SOL    HW241861   7.609   6.798   0.602
 9944SOL     OW41862   8.120   6.977   1.624
 9944SOL    HW141863   8.042   6.927   1.662
 9944SOL    HW241864   8.117   7.072   1.655
 9945SOL     OW41865   7.876   6.010   0.520
 9945SOL    HW141866   7.906   5.938   0.458
 9945SOL    HW241867   7.837   5.970   0.603
 9946SOL     OW41868   9.153   7.073   1.104
 9946SOL    HW141869   9.060   7.048   1.077
 9946SOL    HW241870   9.179   7.023   1.186
 9947SOL     OW41871   7.765   6.133   1.280
 9947SOL    HW141872   7.803   6.074   1.352
 9947SOL    HW241873   7.805   6.107   1.192
 9948SOL     OW41874   8.260   7.172   0.687
 9948SOL    HW141875   8.292   7.182   0.593
 9948SOL    HW241876   8.181   7.110   0.689
 9949SOL     OW41877   8.218   6.916   0.301
 9949SOL    HW141878   8.172   6.829   0.318
 9949SOL    HW241879   8.309   6.913   0.342
 9950SOL     OW41880   8.800   5.638   0.168
 9950SOL    HW141881   8.835   5.597   0.084
 9950SOL    HW241882   8.710   5.600   0.188
 9951SOL     OW41883   9.041   5.807   0.882
 9951SOL    HW141884   8.957   5.806   0.936
 9951SOL    HW241885   9.043   5.890   0.826
 9952SOL     OW41886   7.487   6.663   0.300
 9952SOL    HW141887   7.586   6.652   0.291
 9952SOL    HW241888   7.447   6.577   0.332
 9953SOL     OW41889   8.323   7.232   0.337
 9953SOL    HW141890   8.246   7.197   0.283
 9953SOL    HW241891   8.291   7.303   0.399
 9954SOL     OW41892   8.017   6.861   3.027
 9954SOL    HW141893   7.924   6.854   2.990
 9954SOL    HW241894   8.028   6.950   3.071
 9955SOL     OW41895   8.298   6.384   3.685
 9955SOL    HW141896   8.294   6.460   3.750
 9955SOL    HW241897   8.320   6.420   3.594
 9956SOL     OW41898   7.783   7.021   2.923
 9956SOL    HW141899   7.705   6.990   2.870
 9956SOL    HW241900   7.841   7.079   2.866
 9957SOL     OW41901   8.908   7.091   3.201
 9957SOL    HW141902   8.932   7.185   3.227
 9957SOL    HW241903   8.892   7.037   3.283
 9958SOL     OW41904   8.575   6.927   3.552
 9958SOL    HW141905   8.622   6.927   3.640
 9958SOL    HW241906   8.527   6.840   3.541
 9959SOL     OW41907   8.068   7.372   3.301
 9959SOL    HW141908   7.976   7.355   3.336
 9959SOL    HW241909   8.096   7.464   3.327
 9960SOL     OW41910   9.042   5.700   3.342
 9960SOL    HW141911   9.024   5.767   3.270
 9960SOL    HW241912   9.039   5.746   3.431
 9961SOL     OW41913   7.570   6.229   2.425
 9961SOL    HW141914   7.525   6.141   2.442
 9961SOL    HW241915   7.569   6.283   2.509
 9962SOL     OW41916   9.137   6.508   2.474
 9962SOL    HW141917   9.232   6.479   2.482
 9962SOL    HW241918   9.129   6.573   2.399
 9963SOL     OW41919   8.257   5.590   2.364
 9963SOL    HW141920   8.297   5.681   2.355
 9963SOL    HW241921   8.157   5.598   2.370
 9964SOL     OW41922   7.645   6.562   3.126
 9964SOL    HW141923   7.734   6.517   3.112
 9964SOL    HW241924   7.572   6.497   3.107
 9965SOL     OW41925   8.973   6.585   2.052
 9965SOL    HW141926   8.910   6.509   2.065
 9965SOL    HW241927   9.021   6.603   2.138
 9966SOL     OW41928   8.729   5.931   2.806
 9966SOL    HW141929   8.643   5.881   2.793
 9966SOL    HW241930   8.791   5.877   2.862
 9967SOL     OW41931   8.842   6.055   3.536
 9967SOL    HW141932   8.822   6.098   3.624
 9967SOL    HW241933   8.920   5.993   3.545
 9968SOL     OW41934   8.439   5.996   3.104
 9968SOL    HW141935   8.362   6.030   3.158
 9968SOL    HW241936   8.405   5.945   3.025
 9969SOL     OW41937   7.578   7.407   3.433
 9969SOL    HW141938   7.568   7.392   3.532
 9969SOL    HW241939   7.492   7.443   3.397
 9970SOL     OW41940   8.456   7.042   2.339
 9970SOL    HW141941   8.410   7.114   2.287
 9970SOL    HW241942   8.452   7.062   2.437
 9971SOL     OW41943   7.799   7.387   2.715
 9971SOL    HW141944   7.849   7.301   2.721
 9971SOL    HW241945   7.864   7.464   2.712
 9972SOL     OW41946   9.080   6.963   1.943
 9972SOL    HW141947   9.048   7.057   1.933
 9972SOL    HW241948   9.004   6.900   1.931
 9973SOL     OW41949   8.388   7.284   2.766
 9973SOL    HW141950   8.468   7.227   2.787
 9973SOL    HW241951   8.339   7.244   2.689
 9974SOL     OW41952   8.882   6.774   1.903
 9974SOL    HW141953   8.914   6.698   1.960
 9974SOL    HW241954   8.790   6.801   1.933
 9975SOL     OW41955   8.383   5.822   2.342
 9975SOL    HW141956   8.335   5.863   2.264
 9975SOL    HW241957   8.482   5.820   2.323
 9976SOL     OW41958   8.480   6.135   1.878
 9976SOL    HW141959   8.439   6.217   1.839
 9976SOL    HW241960   8.544   6.161   1.951
 9977SOL     OW41961   7.526   6.142   3.248
 9977SOL    HW141962   7.618   6.141   3.207
 9977SOL    HW241963   7.520   6.216   3.315
 9978SOL     OW41964   8.009   5.808   3.009
 9978SOL    HW141965   8.047   5.724   3.046
 9978SOL    HW241966   7.921   5.827   3.053
 9979SOL     OW41967   8.877   6.759   2.729
 9979SOL    HW141968   8.822   6.675   2.722
 9979SOL    HW241969   8.903   6.788   2.637
 9980SOL     OW41970   8.914   6.176   2.854
 9980SOL    HW141971   8.884   6.081   2.861
 9980SOL    HW241972   8.987   6.192   2.920
 9981SOL     OW41973   8.428   6.702   3.581
 9981SOL    HW141974   8.329   6.708   3.591
 9981SOL    HW241975   8.451   6.622   3.525
 9982SOL     OW41976   7.858   6.399   3.113
 9982SOL    HW141977   7.944   6.411   3.163
 9982SOL    HW241978   7.816   6.312   3.140
 9983SOL     OW41979   7.815   6.686   2.363
 9983SOL    HW141980   7.808   6.769   2.307
 9983SOL    HW241981   7.819   6.606   2.303
 9984SOL     OW41982   8.014   6.123   2.727
 9984SOL    HW141983   8.026   6.189   2.653
 9984SOL    HW241984   8.060   6.157   2.810
 9985SOL     OW41985   7.850   6.337   3.460
 9985SOL    HW141986   7.918   6.392   3.413
 9985SOL    HW241987   7.890   6.249   3.487
 9986SOL     OW41988   8.021   6.456   2.891
 9986SOL    HW141989   8.065   6.545   2.882
 9986SOL    HW241990   7.958   6.456   2.968
 9987SOL     OW41991   8.180   6.220   2.926
 9987SOL    HW141992   8.239   6.194   2.850
 9987SOL    HW241993   8.152   6.316   2.915
 9988SOL     OW41994   7.798   6.484   3.666
 9988SOL    HW141995   7.874   6.528   3.714
 9988SOL    HW241996   7.833   6.437   3.584
 9989SOL     OW41997   8.988   5.860   1.987
 9989SOL    HW141998   8.927   5.785   2.010
 9989SOL    HW241999   9.010   5.912   2.070
 9990SOL     OW42000   8.516   6.919   2.711
 9990SOL    HW142001   8.523   6.835   2.656
 9990SOL    HW242002   8.578   6.988   2.675
 9991SOL     OW42003   8.586   5.966   3.540
 9991SOL    HW142004   8.541   6.029   3.604
 9991SOL    HW242005   8.679   5.997   3.523
 9992SOL     OW42006   8.608   5.793   3.339
 9992SOL    HW142007   8.608   5.857   3.416
 9992SOL    HW242008   8.636   5.841   3.256
 9993SOL     OW42009   7.952   7.154   2.772
 9993SOL    HW142010   8.018   7.228   2.781
 9993SOL    HW242011   7.996   7.075   2.730
 9994SOL     OW42012   8.450   6.382   3.100
 9994SOL    HW142013   8.491   6.350   3.186
 9994SOL    HW242014   8.354   6.355   3.097
 9995SOL     OW42015   7.488   6.130   2.976
 9995SOL    HW142016   7.573   6.097   2.935
 9995SOL    HW242017   7.501   6.145   3.074
 9996SOL     OW42018   8.817   6.536   3.522
 9996SOL    HW142019   8.856   6.625   3.542
 9996SOL    HW242020   8.827   6.516   3.425
 9997SOL     OW42021   7.700   7.150   3.606
 9997SOL    HW142022   7.670   7.207   3.682
 9997SOL    HW242023   7.693   7.053   3.632
 9998SOL     OW42024   8.119   6.050   3.131
 9998SOL    HW142025   8.085   5.961   3.101
 9998SOL    HW242026   8.145   6.104   3.051
 9999SOL     OW42027   7.531   6.844   2.884
 9999SOL    HW142028   7.526   6.843   2.984
 9999SOL    HW242029   7.448   6.803   2.846
10000SOL     OW42030   7.711   5.912   2.582
10000SOL    HW142031   7.632   5.963   2.548
10000SOL    HW242032   7.702   5.897   2.680
10001SOL     OW42033   8.364   6.496   2.153
10001SOL    HW142034   8.427   6.534   2.085
10001SOL    HW242035   8.404   6.413   2.192
10002SOL     OW42036   8.462   5.822   2.833
10002SOL    HW142037   8.454   5.786   2.740
10002SOL    HW242038   8.460   5.746   2.898
10003SOL     OW42039   8.038   7.073   2.353
10003SOL    HW142040   8.080   7.015   2.283
10003SOL    HW242041   7.994   7.152   2.309
10004SOL     OW42042   8.120   5.789   3.351
10004SOL    HW142043   8.210   5.773   3.311
10004SOL    HW242044   8.128   5.794   3.450
10005SOL     OW42045   7.523   5.931   1.895
10005SOL    HW142046   7.431   5.903   1.866
10005SOL    HW242047   7.554   6.008   1.839
10006SOL     OW42048   8.941   7.353   2.821
10006SOL    HW142049   8.974   7.417   2.752
10006SOL    HW242050   9.007   7.347   2.896
10007SOL     OW42051   8.898   6.806   3.495
10007SOL    HW142052   8.889   6.796   3.594
10007SOL    HW242053   8.994   6.799   3.469
10008SOL     OW42054   7.838   7.327   3.422
10008SOL    HW142055   7.747   7.368   3.420
10008SOL    HW242056   7.831   7.233   3.454
10009SOL     OW42057   8.109   7.376   2.815
10009SOL    HW142058   8.063   7.464   2.802
10009SOL    HW242059   8.208   7.388   2.808
10010SOL     OW42060   9.309   7.155   2.713
10010SOL    HW142061   9.238   7.143   2.643
10010SOL    HW242062   9.310   7.076   2.773
10011SOL     OW42063   7.527   6.826   2.515
10011SOL    HW142064   7.526   6.779   2.603
10011SOL    HW242065   7.609   6.798   2.464
10012SOL     OW42066   9.272   5.778   3.089
10012SOL    HW142067   9.268   5.688   3.133
10012SOL    HW242068   9.275   5.767   2.990
10013SOL     OW42069   8.872   5.800   2.974
10013SOL    HW142070   8.924   5.735   3.029
10013SOL    HW242071   8.823   5.863   3.035
10014SOL     OW42072   8.800   5.638   2.030
10014SOL    HW142073   8.835   5.597   1.946
10014SOL    HW242074   8.710   5.600   2.050
10015SOL     OW42075   7.467   5.954   4.371
10015SOL    HW142076   7.385   5.997   4.410
10015SOL    HW242077   7.439   5.881   4.308
10016SOL     OW42078   8.017   6.861   4.889
10016SOL    HW142079   7.924   6.854   4.852
10016SOL    HW242080   8.028   6.950   4.933
10017SOL     OW42081   9.203   6.193   3.955
10017SOL    HW142082   9.191   6.180   3.856
10017SOL    HW242083   9.173   6.112   4.004
10018SOL     OW42084   8.216   6.730   4.747
10018SOL    HW142085   8.138   6.747   4.807
10018SOL    HW242086   8.250   6.817   4.711
10019SOL     OW42087   8.298   6.384   5.547
10019SOL    HW142088   8.294   6.460   5.612
10019SOL    HW242089   8.320   6.420   5.456
10020SOL     OW42090   8.134   6.747   5.527
10020SOL    HW142091   8.194   6.826   5.541
10020SOL    HW242092   8.048   6.778   5.486
10021SOL     OW42093   8.908   7.091   5.063
10021SOL    HW142094   8.932   7.185   5.089
10021SOL    HW242095   8.892   7.037   5.145
10022SOL     OW42096   7.886   5.978   5.223
10022SOL    HW142097   7.968   5.922   5.232
10022SOL    HW242098   7.805   5.920   5.227
10023SOL     OW42099   8.575   6.927   5.414
10023SOL    HW142100   8.622   6.927   5.502
10023SOL    HW242101   8.527   6.840   5.403
10024SOL     OW42102   7.678   7.020   4.262
10024SOL    HW142103   7.652   7.116   4.262
10024SOL    HW242104   7.607   6.966   4.307
10025SOL     OW42105   8.068   7.372   5.163
10025SOL    HW142106   7.976   7.355   5.198
10025SOL    HW242107   8.096   7.464   5.189
10026SOL     OW42108   7.475   7.182   3.841
10026SOL    HW142109   7.456   7.086   3.862
10026SOL    HW242110   7.442   7.240   3.916
10027SOL     OW42111   9.137   6.508   4.336
10027SOL    HW142112   9.232   6.479   4.344
10027SOL    HW242113   9.129   6.573   4.261
10028SOL     OW42114   7.561   6.323   5.321
10028SOL    HW142115   7.649   6.310   5.366
10028SOL    HW242116   7.548   6.420   5.299
10029SOL     OW42117   8.741   6.814   5.147
10029SOL    HW142118   8.778   6.741   5.089
10029SOL    HW242119   8.793   6.819   5.232
10030SOL     OW42120   7.645   6.562   4.988
10030SOL    HW142121   7.734   6.517   4.974
10030SOL    HW242122   7.572   6.497   4.969
10031SOL     OW42123   8.635   7.378   5.340
10031SOL    HW142124   8.659   7.438   5.264
10031SOL    HW242125   8.642   7.283   5.310
10032SOL     OW42126   7.765   5.837   5.525
10032SOL    HW142127   7.836   5.908   5.531
10032SOL    HW242128   7.677   5.876   5.553
10033SOL     OW42129   8.842   6.055   5.398
10033SOL    HW142130   8.822   6.098   5.486
10033SOL    HW242131   8.920   5.993   5.407
10034SOL     OW42132   7.578   7.407   5.295
10034SOL    HW142133   7.568   7.392   5.394
10034SOL    HW242134   7.492   7.443   5.259
10035SOL     OW42135   8.313   5.934   3.919
10035SOL    HW142136   8.372   5.997   3.870
10035SOL    HW242137   8.332   5.840   3.890
10036SOL     OW42138   9.167   6.171   5.555
10036SOL    HW142139   9.141   6.260   5.519
10036SOL    HW242140   9.165   6.103   5.482
10037SOL     OW42141   7.998   5.782   4.609
10037SOL    HW142142   7.993   5.777   4.709
10037SOL    HW242143   8.000   5.878   4.580
10038SOL     OW42144   7.799   7.387   4.577
10038SOL    HW142145   7.849   7.301   4.583
10038SOL    HW242146   7.864   7.464   4.574
10039SOL     OW42147   9.243   6.652   4.597
10039SOL    HW142148   9.181   6.637   4.521
10039SOL    HW242149   9.191   6.663   4.682
10040SOL     OW42150   8.675   7.136   5.230
10040SOL    HW142151   8.681   7.059   5.294
10040SOL    HW242152   8.623   7.110   5.150
10041SOL     OW42153   7.769   6.529   3.966
10041SOL    HW142154   7.851   6.568   3.924
10041SOL    HW242155   7.742   6.447   3.917
10042SOL     OW42156   7.650   5.871   5.222
10042SOL    HW142157   7.570   5.931   5.209
10042SOL    HW242158   7.640   5.822   5.308
10043SOL     OW42159   7.912   7.329   4.047
10043SOL    HW142160   7.945   7.368   4.133
10043SOL    HW242161   7.988   7.322   3.982
10044SOL     OW42162   7.697   7.371   4.965
10044SOL    HW142163   7.754   7.306   5.015
10044SOL    HW242164   7.681   7.338   4.872
10045SOL     OW42165   8.995   5.808   5.453
10045SOL    HW142166   8.990   5.845   5.545
10045SOL    HW242167   8.923   5.739   5.441
10046SOL     OW42168   8.336   7.100   4.919
10046SOL    HW142169   8.313   7.075   4.825
10046SOL    HW242170   8.397   7.031   4.958
10047SOL     OW42171   8.799   6.176   5.157
10047SOL    HW142172   8.827   6.133   5.242
10047SOL    HW242173   8.824   6.272   5.158
10048SOL     OW42174   8.251   6.988   4.648
10048SOL    HW142175   8.341   7.002   4.606
10048SOL    HW242176   8.180   6.990   4.577
10049SOL     OW42177   8.370   6.089   4.623
10049SOL    HW142178   8.345   6.080   4.527
10049SOL    HW242179   8.418   6.007   4.654
10050SOL     OW42180   7.987   5.650   4.236
10050SOL    HW142181   7.906   5.651   4.294
10050SOL    HW242182   7.990   5.733   4.181
10051SOL     OW42183   8.383   5.822   4.204
10051SOL    HW142184   8.335   5.863   4.126
10051SOL    HW242185   8.482   5.820   4.185
10052SOL     OW42186   8.719   7.383   4.315
10052SOL    HW142187   8.763   7.447   4.251
10052SOL    HW242188   8.669   7.435   4.385
10053SOL     OW42189   8.480   6.135   3.740
10053SOL    HW142190   8.439   6.217   3.701
10053SOL    HW242191   8.544   6.161   3.813
10054SOL     OW42192   8.838   6.161   3.802
10054SOL    HW142193   8.784   6.140   3.883
10054SOL    HW242194   8.929   6.120   3.811
10055SOL     OW42195   9.202   6.809   5.312
10055SOL    HW142196   9.293   6.770   5.299
10055SOL    HW242197   9.210   6.905   5.336
10056SOL     OW42198   8.512   6.933   5.064
10056SOL    HW142199   8.432   6.910   5.119
10056SOL    HW242200   8.595   6.907   5.113
10057SOL     OW42201   9.040   7.215   5.349
10057SOL    HW142202   9.067   7.249   5.259
10057SOL    HW242203   9.119   7.177   5.395
10058SOL     OW42204   8.559   6.781   4.824
10058SOL    HW142205   8.519   6.825   4.905
10058SOL    HW242206   8.518   6.818   4.741
10059SOL     OW42207   8.428   6.702   5.443
10059SOL    HW142208   8.329   6.708   5.453
10059SOL    HW242209   8.451   6.622   5.387
10060SOL     OW42210   8.722   5.972   4.986
10060SOL    HW142211   8.743   6.046   5.050
10060SOL    HW242212   8.633   5.989   4.943
10061SOL     OW42213   8.700   6.934   4.112
10061SOL    HW142214   8.750   7.011   4.152
10061SOL    HW242215   8.605   6.936   4.144
10062SOL     OW42216   8.720   7.031   4.866
10062SOL    HW142217   8.767   7.044   4.953
10062SOL    HW242218   8.654   6.957   4.875
10063SOL     OW42219   9.030   6.225   4.196
10063SOL    HW142220   8.999   6.286   4.269
10063SOL    HW242221   9.080   6.277   4.127
10064SOL     OW42222   9.035   6.365   5.394
10064SOL    HW142223   8.943   6.403   5.389
10064SOL    HW242224   9.095   6.412   5.329
10065SOL     OW42225   8.461   5.691   5.494
10065SOL    HW142226   8.467   5.776   5.442
10065SOL    HW242227   8.493   5.615   5.437
10066SOL     OW42228   8.808   6.448   4.769
10066SOL    HW142229   8.733   6.448   4.703
10066SOL    HW242230   8.845   6.356   4.778
10067SOL     OW42231   9.176   6.521   5.578
10067SOL    HW142232   9.130   6.514   5.489
10067SOL    HW242233   9.114   6.565   5.644
10068SOL     OW42234   7.755   5.649   4.342
10068SOL    HW142235   7.744   5.743   4.375
10068SOL    HW242236   7.750   5.586   4.419
10069SOL     OW42237   9.070   5.953   4.098
10069SOL    HW142238   9.072   5.877   4.162
10069SOL    HW242239   9.022   6.030   4.138
10070SOL     OW42240   8.428   7.159   5.424
10070SOL    HW142241   8.408   7.203   5.336
10070SOL    HW242242   8.467   7.068   5.408
10071SOL     OW42243   9.307   7.104   5.329
10071SOL    HW142244   9.321   7.131   5.234
10071SOL    HW242245   9.390   7.126   5.382
10072SOL     OW42246   7.767   6.396   4.673
10072SOL    HW142247   7.860   6.432   4.678
10072SOL    HW242248   7.761   6.311   4.725
10073SOL     OW42249   8.586   5.966   5.402
10073SOL    HW142250   8.541   6.029   5.466
10073SOL    HW242251   8.679   5.997   5.385
10074SOL     OW42252   7.536   7.387   4.651
10074SOL    HW142253   7.494   7.301   4.624
10074SOL    HW242254   7.630   7.390   4.617
10075SOL     OW42255   7.952   7.154   4.634
10075SOL    HW142256   8.018   7.228   4.643
10075SOL    HW242257   7.996   7.075   4.592
10076SOL     OW42258   8.450   6.382   4.962
10076SOL    HW142259   8.491   6.350   5.048
10076SOL    HW242260   8.354   6.355   4.959
10077SOL     OW42261   7.637   6.106   5.446
10077SOL    HW142262   7.696   6.066   5.376
10077SOL    HW242263   7.579   6.177   5.405
10078SOL     OW42264   8.817   6.536   5.384
10078SOL    HW142265   8.856   6.625   5.404
10078SOL    HW242266   8.827   6.516   5.287
10079SOL     OW42267   9.105   6.190   4.930
10079SOL    HW142268   9.067   6.121   4.992
10079SOL    HW242269   9.187   6.154   4.886
10080SOL     OW42270   8.378   7.264   5.189
10080SOL    HW142271   8.354   7.246   5.094
10080SOL    HW242272   8.408   7.358   5.199
10081SOL     OW42273   8.795   6.645   4.958
10081SOL    HW142274   8.819   6.582   4.884
10081SOL    HW242275   8.705   6.685   4.940
10082SOL     OW42276   8.700   7.317   4.852
10082SOL    HW142277   8.784   7.322   4.798
10082SOL    HW242278   8.677   7.221   4.870
10083SOL     OW42279   8.136   7.248   5.440
10083SOL    HW142280   8.080   7.329   5.449
10083SOL    HW242281   8.188   7.252   5.354
10084SOL     OW42282   7.578   7.380   5.575
10084SOL    HW142283   7.537   7.306   5.628
10084SOL    HW242284   7.642   7.431   5.633
10085SOL     OW42285   8.278   6.859   5.146
10085SOL    HW142286   8.273   6.892   5.241
10085SOL    HW242287   8.192   6.878   5.100
10086SOL     OW42288   9.098   7.306   5.118
10086SOL    HW142289   9.151   7.316   5.034
10086SOL    HW242290   9.071   7.396   5.152
10087SOL     OW42291   8.270   6.588   5.096
10087SOL    HW142292   8.310   6.587   5.004
10087SOL    HW242293   8.280   6.680   5.136
10088SOL     OW42294   8.364   6.496   4.015
10088SOL    HW142295   8.427   6.534   3.947
10088SOL    HW242296   8.404   6.413   4.054
10089SOL     OW42297   8.952   7.193   3.768
10089SOL    HW142298   8.860   7.230   3.775
10089SOL    HW242299   8.990   7.213   3.678
10090SOL     OW42300   9.157   5.971   5.105
10090SOL    HW142301   9.230   6.040   5.109
10090SOL    HW242302   9.185   5.896   5.046
10091SOL     OW42303   7.703   6.934   4.014
10091SOL    HW142304   7.607   6.935   3.987
10091SOL    HW242305   7.715   6.987   4.098
10092SOL     OW42306   7.553   6.599   5.450
10092SOL    HW142307   7.476   6.566   5.504
10092SOL    HW242308   7.638   6.569   5.492
10093SOL     OW42309   8.888   6.442   5.122
10093SOL    HW142310   8.831   6.494   5.059
10093SOL    HW242311   8.984   6.454   5.098
10094SOL     OW42312   7.520   5.752   4.042
10094SOL    HW142313   7.503   5.835   3.988
10094SOL    HW242314   7.610   5.715   4.020
10095SOL     OW42315   8.164   6.151   5.432
10095SOL    HW142316   8.183   6.216   5.506
10095SOL    HW242317   8.224   6.071   5.441
10096SOL     OW42318   8.898   6.806   5.357
10096SOL    HW142319   8.889   6.796   5.456
10096SOL    HW242320   8.994   6.799   5.331
10097SOL     OW42321   8.673   5.911   4.173
10097SOL    HW142322   8.738   5.837   4.162
10097SOL    HW242323   8.693   5.961   4.257
10098SOL     OW42324   9.225   5.928   5.366
10098SOL    HW142325   9.208   5.959   5.272
10098SOL    HW242326   9.141   5.891   5.404
10099SOL     OW42327   9.178   6.520   5.241
10099SOL    HW142328   9.216   6.611   5.256
10099SOL    HW242329   9.170   6.503   5.142
10100SOL     OW42330   8.307   6.960   3.740
10100SOL    HW142331   8.261   6.975   3.828
10100SOL    HW242332   8.351   7.045   3.710
10101SOL     OW42333   8.531   6.570   3.811
10101SOL    HW142334   8.508   6.623   3.729
10101SOL    HW242335   8.612   6.514   3.792
10102SOL     OW42336   7.669   6.900   5.568
10102SOL    HW142337   7.604   6.827   5.547
10102SOL    HW242338   7.673   6.914   5.666
10103SOL     OW42339   8.120   6.977   5.348
10103SOL    HW142340   8.042   6.927   5.386
10103SOL    HW242341   8.117   7.072   5.379
10104SOL     OW42342   9.272   5.778   4.951
10104SOL    HW142343   9.268   5.688   4.995
10104SOL    HW242344   9.275   5.767   4.852
10105SOL     OW42345   8.066   7.153   5.008
10105SOL    HW142346   8.061   7.235   5.065
10105SOL    HW242347   8.155   7.150   4.963
10106SOL     OW42348   8.748   6.039   4.415
10106SOL    HW142349   8.689   6.119   4.419
10106SOL    HW242350   8.763   6.004   4.508
10107SOL     OW42351   7.487   6.663   4.024
10107SOL    HW142352   7.586   6.652   4.015
10107SOL    HW242353   7.447   6.577   4.056
10108SOL     OW42354   7.678   6.214   5.699
10108SOL    HW142355   7.585   6.212   5.736
10108SOL    HW242356   7.679   6.175   5.607
10109SOL     OW42357   7.673   5.861   6.582
10109SOL    HW142358   7.708   5.844   6.674
10109SOL    HW242359   7.585   5.816   6.570
10110SOL     OW42360   7.467   5.954   6.233
10110SOL    HW142361   7.385   5.997   6.272
10110SOL    HW242362   7.439   5.881   6.170
10111SOL     OW42363   8.017   6.861   6.751
10111SOL    HW142364   7.924   6.854   6.714
10111SOL    HW242365   8.028   6.950   6.795
10112SOL     OW42366   9.003   7.097   6.289
10112SOL    HW142367   8.946   7.081   6.370
10112SOL    HW242368   8.944   7.107   6.209
10113SOL     OW42369   8.583   6.289   6.303
10113SOL    HW142370   8.640   6.367   6.278
10113SOL    HW242371   8.523   6.315   6.379
10114SOL     OW42372   9.203   6.193   5.817
10114SOL    HW142373   9.191   6.180   5.718
10114SOL    HW242374   9.173   6.112   5.866
10115SOL     OW42375   8.216   6.730   6.609
10115SOL    HW142376   8.138   6.747   6.669
10115SOL    HW242377   8.250   6.817   6.573
10116SOL     OW42378   8.133   6.598   6.251
10116SOL    HW142379   8.202   6.582   6.321
10116SOL    HW242380   8.060   6.655   6.289
10117SOL     OW42381   7.783   7.021   6.647
10117SOL    HW142382   7.705   6.990   6.594
10117SOL    HW242383   7.841   7.079   6.590
10118SOL     OW42384   9.051   6.033   6.323
10118SOL    HW142385   8.977   6.079   6.273
10118SOL    HW242386   9.102   6.101   6.376
10119SOL     OW42387   7.679   7.299   6.069
10119SOL    HW142388   7.713   7.376   6.123
10119SOL    HW242389   7.723   7.299   5.979
10120SOL     OW42390   7.678   7.020   6.124
10120SOL    HW142391   7.652   7.116   6.124
10120SOL    HW242392   7.607   6.966   6.169
10121SOL     OW42393   7.688   6.677   6.472
10121SOL    HW142394   7.702   6.593   6.524
10121SOL    HW242395   7.633   6.741   6.527
10122SOL     OW42396   8.054   6.550   5.709
10122SOL    HW142397   8.061   6.634   5.655
10122SOL    HW242398   8.100   6.563   5.797
10123SOL     OW42399   7.570   6.229   6.149
10123SOL    HW142400   7.525   6.141   6.166
10123SOL    HW242401   7.569   6.283   6.233
10124SOL     OW42402   9.290   7.353   5.945
10124SOL    HW142403   9.344   7.324   6.025
10124SOL    HW242404   9.320   7.443   5.916
10125SOL     OW42405   7.475   7.182   5.703
10125SOL    HW142406   7.456   7.086   5.724
10125SOL    HW242407   7.442   7.240   5.778
10126SOL     OW42408   9.137   6.508   6.198
10126SOL    HW142409   9.232   6.479   6.206
10126SOL    HW242410   9.129   6.573   6.123
10127SOL     OW42411   9.089   6.694   6.018
10127SOL    HW142412   9.175   6.696   5.966
10127SOL    HW242413   9.103   6.741   6.106
10128SOL     OW42414   8.061   6.951   6.312
10128SOL    HW142415   8.012   6.864   6.321
10128SOL    HW242416   8.038   6.994   6.225
10129SOL     OW42417   8.257   5.590   6.088
10129SOL    HW142418   8.297   5.681   6.079
10129SOL    HW242419   8.157   5.598   6.094
10130SOL     OW42420   7.645   6.562   6.850
10130SOL    HW142421   7.734   6.517   6.836
10130SOL    HW242422   7.572   6.497   6.831
10131SOL     OW42423   8.973   6.585   5.776
10131SOL    HW142424   8.910   6.509   5.789
10131SOL    HW242425   9.021   6.603   5.862
10132SOL     OW42426   8.914   7.003   6.539
10132SOL    HW142427   8.855   7.009   6.619
10132SOL    HW242428   8.899   6.915   6.493
10133SOL     OW42429   9.115   7.300   6.158
10133SOL    HW142430   9.074   7.277   6.070
10133SOL    HW242431   9.097   7.226   6.223
10134SOL     OW42432   8.046   6.315   5.856
10134SOL    HW142433   8.070   6.384   5.788
10134SOL    HW242434   7.968   6.348   5.910
10135SOL     OW42435   8.729   5.931   6.530
10135SOL    HW142436   8.643   5.881   6.517
10135SOL    HW242437   8.791   5.877   6.586
10136SOL     OW42438   9.024   7.248   5.893
10136SOL    HW142439   9.113   7.294   5.896
10136SOL    HW242440   9.003   7.224   5.798
10137SOL     OW42441   8.439   5.996   6.828
10137SOL    HW142442   8.362   6.030   6.882
10137SOL    HW242443   8.405   5.945   6.749
10138SOL     OW42444   8.489   6.287   6.015
10138SOL    HW142445   8.515   6.283   6.111
10138SOL    HW242446   8.404   6.236   6.001
10139SOL     OW42447   7.524   6.397   6.375
10139SOL    HW142448   7.623   6.385   6.384
10139SOL    HW242449   7.500   6.492   6.396
10140SOL     OW42450   8.313   5.934   5.781
10140SOL    HW142451   8.372   5.997   5.732
10140SOL    HW242452   8.332   5.840   5.752
10141SOL     OW42453   8.810   6.730   6.131
10141SOL    HW142454   8.893   6.701   6.083
10141SOL    HW242455   8.761   6.797   6.075
10142SOL     OW42456   7.998   5.782   6.471
10142SOL    HW142457   7.993   5.777   6.571
10142SOL    HW242458   8.000   5.878   6.442
10143SOL     OW42459   8.456   7.042   6.063
10143SOL    HW142460   8.410   7.114   6.011
10143SOL    HW242461   8.452   7.062   6.161
10144SOL     OW42462   7.799   7.387   6.439
10144SOL    HW142463   7.849   7.301   6.445
10144SOL    HW242464   7.864   7.464   6.436
10145SOL     OW42465   9.243   6.652   6.459
10145SOL    HW142466   9.181   6.637   6.383
10145SOL    HW242467   9.191   6.663   6.544
10146SOL     OW42468   7.769   6.529   5.828
10146SOL    HW142469   7.851   6.568   5.786
10146SOL    HW242470   7.742   6.447   5.779
10147SOL     OW42471   8.906   6.321   6.314
10147SOL    HW142472   8.901   6.256   6.389
10147SOL    HW242473   8.986   6.380   6.327
10148SOL     OW42474   8.559   7.362   5.823
10148SOL    HW142475   8.499   7.300   5.873
10148SOL    HW242476   8.590   7.318   5.738
10149SOL     OW42477   9.080   6.963   5.667
10149SOL    HW142478   9.048   7.057   5.657
10149SOL    HW242479   9.004   6.900   5.655
10150SOL     OW42480   7.912   7.329   5.909
10150SOL    HW142481   7.945   7.368   5.995
10150SOL    HW242482   7.988   7.322   5.844
10151SOL     OW42483   8.848   5.693   6.012
10151SOL    HW142484   8.824   5.656   5.922
10151SOL    HW242485   8.947   5.709   6.016
10152SOL     OW42486   7.697   7.371   6.827
10152SOL    HW142487   7.754   7.306   6.877
10152SOL    HW242488   7.681   7.338   6.734
10153SOL     OW42489   8.388   7.284   6.490
10153SOL    HW142490   8.468   7.227   6.511
10153SOL    HW242491   8.339   7.244   6.413
10154SOL     OW42492   7.830   6.286   6.066
10154SOL    HW142493   7.875   6.196   6.063
10154SOL    HW242494   7.736   6.275   6.099
10155SOL     OW42495   8.251   6.988   6.510
10155SOL    HW142496   8.341   7.002   6.468
10155SOL    HW242497   8.180   6.990   6.439
10156SOL     OW42498   8.370   6.089   6.485
10156SOL    HW142499   8.345   6.080   6.389
10156SOL    HW242500   8.418   6.007   6.516
10157SOL     OW42501   7.987   5.650   6.098
10157SOL    HW142502   7.906   5.651   6.156
10157SOL    HW242503   7.990   5.733   6.043
10158SOL     OW42504   8.882   6.774   5.627
10158SOL    HW142505   8.914   6.698   5.684
10158SOL    HW242506   8.790   6.801   5.657
10159SOL     OW42507   7.745   5.621   5.757
10159SOL    HW142508   7.794   5.705   5.736
10159SOL    HW242509   7.807   5.556   5.802
10160SOL     OW42510   8.383   5.822   6.066
10160SOL    HW142511   8.335   5.863   5.988
10160SOL    HW242512   8.482   5.820   6.047
10161SOL     OW42513   8.675   7.156   6.379
10161SOL    HW142514   8.696   7.230   6.314
10161SOL    HW242515   8.743   7.156   6.452
10162SOL     OW42516   7.907   6.738   6.327
10162SOL    HW142517   7.836   6.711   6.392
10162SOL    HW242518   7.881   6.710   6.234
10163SOL     OW42519   8.719   7.383   6.177
10163SOL    HW142520   8.763   7.447   6.113
10163SOL    HW242521   8.669   7.435   6.247
10164SOL     OW42522   8.480   6.135   5.602
10164SOL    HW142523   8.439   6.217   5.563
10164SOL    HW242524   8.544   6.161   5.675
10165SOL     OW42525   8.009   5.808   6.733
10165SOL    HW142526   8.047   5.724   6.770
10165SOL    HW242527   7.921   5.827   6.777
10166SOL     OW42528   8.314   6.040   6.228
10166SOL    HW142529   8.282   6.112   6.166
10166SOL    HW242530   8.338   5.959   6.175
10167SOL     OW42531   8.465   5.625   6.339
10167SOL    HW142532   8.393   5.630   6.270
10167SOL    HW242533   8.441   5.556   6.408
10168SOL     OW42534   8.877   6.759   6.453
10168SOL    HW142535   8.822   6.675   6.446
10168SOL    HW242536   8.903   6.788   6.361
10169SOL     OW42537   8.914   6.176   6.578
10169SOL    HW142538   8.884   6.081   6.585
10169SOL    HW242539   8.987   6.192   6.644
10170SOL     OW42540   9.305   6.419   5.963
10170SOL    HW142541   9.347   6.355   6.027
10170SOL    HW242542   9.267   6.368   5.885
10171SOL     OW42543   7.936   6.971   5.760
10171SOL    HW142544   7.849   6.956   5.807
10171SOL    HW242545   7.919   6.997   5.665
10172SOL     OW42546   9.112   6.866   6.243
10172SOL    HW142547   9.211   6.874   6.257
10172SOL    HW242548   9.067   6.950   6.274
10173SOL     OW42549   8.838   6.161   5.664
10173SOL    HW142550   8.784   6.140   5.745
10173SOL    HW242551   8.929   6.120   5.673
10174SOL     OW42552   7.975   5.842   5.914
10174SOL    HW142553   8.002   5.783   5.839
10174SOL    HW242554   7.975   5.937   5.883
10175SOL     OW42555   9.202   6.809   7.174
10175SOL    HW142556   9.293   6.770   7.161
10175SOL    HW242557   9.210   6.905   7.198
10176SOL     OW42558   8.559   6.781   6.686
10176SOL    HW142559   8.519   6.825   6.767
10176SOL    HW242560   8.518   6.818   6.603
10177SOL     OW42561   9.086   6.685   6.665
10177SOL    HW142562   9.091   6.766   6.724
10177SOL    HW242563   9.000   6.687   6.614
10178SOL     OW42564   8.153   6.636   5.954
10178SOL    HW142565   8.139   6.643   6.053
10178SOL    HW242566   8.237   6.585   5.936
10179SOL     OW42567   7.858   6.399   6.837
10179SOL    HW142568   7.944   6.411   6.887
10179SOL    HW242569   7.816   6.312   6.864
10180SOL     OW42570   8.722   5.972   6.848
10180SOL    HW142571   8.743   6.046   6.912
10180SOL    HW242572   8.633   5.989   6.805
10181SOL     OW42573   7.815   6.686   6.087
10181SOL    HW142574   7.808   6.769   6.031
10181SOL    HW242575   7.819   6.606   6.027
10182SOL     OW42576   8.014   6.123   6.451
10182SOL    HW142577   8.026   6.189   6.377
10182SOL    HW242578   8.060   6.157   6.534
10183SOL     OW42579   8.700   6.934   5.974
10183SOL    HW142580   8.750   7.011   6.014
10183SOL    HW242581   8.605   6.936   6.006
10184SOL     OW42582   8.720   7.031   6.728
10184SOL    HW142583   8.767   7.044   6.815
10184SOL    HW242584   8.654   6.957   6.737
10185SOL     OW42585   9.030   6.225   6.058
10185SOL    HW142586   8.999   6.286   6.131
10185SOL    HW242587   9.080   6.277   5.989
10186SOL     OW42588   7.802   7.096   6.915
10186SOL    HW142589   7.781   7.052   6.828
10186SOL    HW242590   7.899   7.122   6.918
10187SOL     OW42591   8.021   6.456   6.615
10187SOL    HW142592   8.065   6.545   6.606
10187SOL    HW242593   7.958   6.456   6.692
10188SOL     OW42594   8.808   6.448   6.631
10188SOL    HW142595   8.733   6.448   6.565
10188SOL    HW242596   8.845   6.356   6.640
10189SOL     OW42597   8.657   6.111   5.861
10189SOL    HW142598   8.670   6.027   5.915
10189SOL    HW242599   8.628   6.185   5.921
10190SOL     OW42600   7.755   5.799   6.817
10190SOL    HW142601   7.732   5.836   6.907
10190SOL    HW242602   7.725   5.704   6.811
10191SOL     OW42603   7.485   6.896   6.868
10191SOL    HW142604   7.538   6.847   6.936
10191SOL    HW242605   7.507   6.994   6.873
10192SOL     OW42606   8.180   6.220   6.650
10192SOL    HW142607   8.239   6.194   6.574
10192SOL    HW242608   8.152   6.316   6.639
10193SOL     OW42609   7.755   5.649   6.204
10193SOL    HW142610   7.744   5.743   6.237
10193SOL    HW242611   7.750   5.586   6.281
10194SOL     OW42612   9.070   5.953   5.960
10194SOL    HW142613   9.072   5.877   6.024
10194SOL    HW242614   9.022   6.030   6.000
10195SOL     OW42615   8.471   6.352   6.552
10195SOL    HW142616   8.486   6.373   6.648
10195SOL    HW242617   8.441   6.257   6.543
10196SOL     OW42618   8.988   5.860   5.711
10196SOL    HW142619   8.927   5.785   5.734
10196SOL    HW242620   9.010   5.912   5.794
10197SOL     OW42621   8.751   6.424   5.628
10197SOL    HW142622   8.785   6.331   5.643
10197SOL    HW242623   8.769   6.451   5.533
10198SOL     OW42624   8.516   6.919   6.435
10198SOL    HW142625   8.523   6.835   6.380
10198SOL    HW242626   8.578   6.988   6.399
10199SOL     OW42627   7.767   6.396   6.535
10199SOL    HW142628   7.860   6.432   6.540
10199SOL    HW242629   7.761   6.311   6.587
10200SOL     OW42630   7.787   6.095   6.592
10200SOL    HW142631   7.735   6.012   6.575
10200SOL    HW242632   7.864   6.100   6.528
10201SOL     OW42633   8.608   5.793   7.063
10201SOL    HW142634   8.608   5.857   7.140
10201SOL    HW242635   8.636   5.841   6.980
10202SOL     OW42636   7.456   6.912   5.786
10202SOL    HW142637   7.363   6.933   5.755
10202SOL    HW242638   7.466   6.813   5.799
10203SOL     OW42639   7.536   7.387   6.513
10203SOL    HW142640   7.494   7.301   6.486
10203SOL    HW242641   7.630   7.390   6.479
10204SOL     OW42642   7.952   7.154   6.496
10204SOL    HW142643   8.018   7.228   6.505
10204SOL    HW242644   7.996   7.075   6.454
10205SOL     OW42645   8.450   6.382   6.824
10205SOL    HW142646   8.491   6.350   6.910
10205SOL    HW242647   8.354   6.355   6.821
10206SOL     OW42648   7.488   6.130   6.700
10206SOL    HW142649   7.573   6.097   6.659
10206SOL    HW242650   7.501   6.145   6.798
10207SOL     OW42651   8.263   6.158   5.911
10207SOL    HW142652   8.270   6.069   5.865
10207SOL    HW242653   8.169   6.192   5.903
10208SOL     OW42654   9.105   6.190   6.792
10208SOL    HW142655   9.067   6.121   6.854
10208SOL    HW242656   9.187   6.154   6.748
10209SOL     OW42657   8.119   6.050   6.855
10209SOL    HW142658   8.085   5.961   6.825
10209SOL    HW242659   8.145   6.104   6.775
10210SOL     OW42660   8.378   7.264   7.051
10210SOL    HW142661   8.354   7.246   6.956
10210SOL    HW242662   8.408   7.358   7.061
10211SOL     OW42663   7.921   6.086   5.777
10211SOL    HW142664   7.982   6.166   5.781
10211SOL    HW242665   7.826   6.117   5.784
10212SOL     OW42666   8.795   6.645   6.820
10212SOL    HW142667   8.819   6.582   6.746
10212SOL    HW242668   8.705   6.685   6.802
10213SOL     OW42669   8.750   6.441   5.895
10213SOL    HW142670   8.664   6.410   5.937
10213SOL    HW242671   8.746   6.427   5.796
10214SOL     OW42672   9.207   7.333   6.740
10214SOL    HW142673   9.268   7.363   6.667
10214SOL    HW242674   9.169   7.244   6.718
10215SOL     OW42675   8.700   7.317   6.714
10215SOL    HW142676   8.784   7.322   6.660
10215SOL    HW242677   8.677   7.221   6.732
10216SOL     OW42678   7.531   6.844   6.608
10216SOL    HW142679   7.526   6.843   6.708
10216SOL    HW242680   7.448   6.803   6.570
10217SOL     OW42681   9.174   5.721   6.109
10217SOL    HW142682   9.247   5.704   6.042
10217SOL    HW242683   9.143   5.634   6.147
10218SOL     OW42684   8.836   7.159   6.063
10218SOL    HW142685   8.903   7.171   5.989
10218SOL    HW242686   8.796   7.248   6.086
10219SOL     OW42687   8.728   6.513   6.258
10219SOL    HW142688   8.788   6.432   6.260
10219SOL    HW242689   8.768   6.582   6.198
10220SOL     OW42690   8.120   7.202   5.740
10220SOL    HW142691   8.129   7.212   5.641
10220SOL    HW242692   8.080   7.113   5.761
10221SOL     OW42693   9.098   7.306   6.980
10221SOL    HW142694   9.151   7.316   6.896
10221SOL    HW242695   9.071   7.396   7.014
10222SOL     OW42696   9.289   5.761   6.549
10222SOL    HW142697   9.328   5.676   6.513
10222SOL    HW242698   9.191   5.763   6.530
10223SOL     OW42699   7.711   5.912   6.306
10223SOL    HW142700   7.632   5.963   6.272
10223SOL    HW242701   7.702   5.897   6.404
10224SOL     OW42702   8.642   7.198   5.617
10224SOL    HW142703   8.648   7.105   5.654
10224SOL    HW242704   8.583   7.198   5.537
10225SOL     OW42705   8.270   6.588   6.958
10225SOL    HW142706   8.310   6.587   6.866
10225SOL    HW242707   8.280   6.680   6.998
10226SOL     OW42708   8.364   6.496   5.877
10226SOL    HW142709   8.427   6.534   5.809
10226SOL    HW242710   8.404   6.413   5.916
10227SOL     OW42711   8.952   7.193   5.630
10227SOL    HW142712   8.860   7.230   5.637
10227SOL    HW242713   8.990   7.213   5.540
10228SOL     OW42714   8.487   6.684   6.282
10228SOL    HW142715   8.417   6.637   6.336
10228SOL    HW242716   8.546   6.616   6.239
10229SOL     OW42717   8.462   5.822   6.557
10229SOL    HW142718   8.454   5.786   6.464
10229SOL    HW242719   8.460   5.746   6.622
10230SOL     OW42720   8.038   7.073   6.077
10230SOL    HW142721   8.080   7.015   6.007
10230SOL    HW242722   7.994   7.152   6.033
10231SOL     OW42723   9.157   5.971   6.967
10231SOL    HW142724   9.230   6.040   6.971
10231SOL    HW242725   9.185   5.896   6.908
10232SOL     OW42726   7.703   6.934   5.876
10232SOL    HW142727   7.607   6.935   5.849
10232SOL    HW242728   7.715   6.987   5.960
10233SOL     OW42729   7.523   5.931   5.619
10233SOL    HW142730   7.431   5.903   5.590
10233SOL    HW242731   7.554   6.008   5.563
10234SOL     OW42732   7.520   5.752   5.904
10234SOL    HW142733   7.503   5.835   5.850
10234SOL    HW242734   7.610   5.715   5.882
10235SOL     OW42735   8.631   6.921   5.705
10235SOL    HW142736   8.532   6.910   5.707
10235SOL    HW242737   8.665   6.936   5.798
10236SOL     OW42738   8.941   7.353   6.545
10236SOL    HW142739   8.974   7.417   6.476
10236SOL    HW242740   9.007   7.347   6.620
10237SOL     OW42741   8.898   6.806   7.219
10237SOL    HW142742   8.889   6.796   7.318
10237SOL    HW242743   8.994   6.799   7.193
10238SOL     OW42744   9.122   6.469   6.840
10238SOL    HW142745   9.095   6.380   6.803
10238SOL    HW242746   9.123   6.537   6.767
10239SOL     OW42747   8.673   5.911   6.035
10239SOL    HW142748   8.738   5.837   6.024
10239SOL    HW242749   8.693   5.961   6.119
10240SOL     OW42750   8.042   6.331   6.238
10240SOL    HW142751   8.092   6.416   6.219
10240SOL    HW242752   7.954   6.333   6.190
10241SOL     OW42753   9.178   6.520   7.103
10241SOL    HW142754   9.216   6.611   7.118
10241SOL    HW242755   9.170   6.503   7.004
10242SOL     OW42756   8.307   6.960   5.602
10242SOL    HW142757   8.261   6.975   5.690
10242SOL    HW242758   8.351   7.045   5.572
10243SOL     OW42759   8.109   7.376   6.539
10243SOL    HW142760   8.063   7.464   6.526
10243SOL    HW242761   8.208   7.388   6.532
10244SOL     OW42762   8.307   6.542   6.447
10244SOL    HW142763   8.361   6.473   6.495
10244SOL    HW242764   8.275   6.611   6.513
10245SOL     OW42765   8.531   6.570   5.673
10245SOL    HW142766   8.508   6.623   5.591
10245SOL    HW242767   8.612   6.514   5.654
10246SOL     OW42768   9.309   7.155   6.437
10246SOL    HW142769   9.238   7.143   6.367
10246SOL    HW242770   9.310   7.076   6.497
10247SOL     OW42771   7.527   6.826   6.239
10247SOL    HW142772   7.526   6.779   6.327
10247SOL    HW242773   7.609   6.798   6.188
10248SOL     OW42774   9.272   5.778   6.813
10248SOL    HW142775   9.268   5.688   6.857
10248SOL    HW242776   9.275   5.767   6.714
10249SOL     OW42777   7.876   6.010   6.106
10249SOL    HW142778   7.906   5.938   6.044
10249SOL    HW242779   7.837   5.970   6.189
10250SOL     OW42780   9.153   7.073   6.690
10250SOL    HW142781   9.060   7.048   6.663
10250SOL    HW242782   9.179   7.023   6.772
10251SOL     OW42783   8.260   7.172   6.273
10251SOL    HW142784   8.292   7.182   6.179
10251SOL    HW242785   8.181   7.110   6.275
10252SOL     OW42786   8.872   5.800   6.698
10252SOL    HW142787   8.924   5.735   6.753
10252SOL    HW242788   8.823   5.863   6.759
10253SOL     OW42789   8.449   5.620   6.740
10253SOL    HW142790   8.386   5.548   6.709
10253SOL    HW242791   8.542   5.584   6.740
10254SOL     OW42792   8.218   6.916   5.887
10254SOL    HW142793   8.172   6.829   5.904
10254SOL    HW242794   8.309   6.913   5.928
10255SOL     OW42795   8.800   5.638   5.754
10255SOL    HW142796   8.835   5.597   5.670
10255SOL    HW242797   8.710   5.600   5.774
10256SOL     OW42798   8.748   6.039   6.277
10256SOL    HW142799   8.689   6.119   6.281
10256SOL    HW242800   8.763   6.004   6.370
10257SOL     OW42801   9.041   5.807   6.468
10257SOL    HW142802   8.957   5.806   6.522
10257SOL    HW242803   9.043   5.890   6.412
10258SOL     OW42804   7.487   6.663   5.886
10258SOL    HW142805   7.586   6.652   5.877
10258SOL    HW242806   7.447   6.577   5.918
10259SOL     OW42807   8.323   7.232   5.923
10259SOL    HW142808   8.246   7.197   5.869
10259SOL    HW242809   8.291   7.303   5.985
10260SOL     OW42810   7.678   8.076   0.113
10260SOL    HW142811   7.585   8.074   0.150
10260SOL    HW242812   7.679   8.037   0.021
10261SOL     OW42813   7.673   7.723   0.996
10261SOL    HW142814   7.708   7.706   1.088
10261SOL    HW242815   7.585   7.678   0.984
10262SOL     OW42816   7.467   7.816   0.647
10262SOL    HW142817   7.385   7.859   0.686
10262SOL    HW242818   7.439   7.743   0.584
10263SOL     OW42819   8.583   8.151   0.717
10263SOL    HW142820   8.640   8.229   0.692
10263SOL    HW242821   8.523   8.177   0.793
10264SOL     OW42822   9.203   8.055   0.231
10264SOL    HW142823   9.191   8.042   0.132
10264SOL    HW242824   9.173   7.974   0.280
10265SOL     OW42825   8.133   8.460   0.665
10265SOL    HW142826   8.202   8.444   0.735
10265SOL    HW242827   8.060   8.517   0.703
10266SOL     OW42828   9.051   7.895   0.737
10266SOL    HW142829   8.977   7.941   0.687
10266SOL    HW242830   9.102   7.963   0.790
10267SOL     OW42831   9.042   7.562   1.480
10267SOL    HW142832   9.024   7.629   1.408
10267SOL    HW242833   9.039   7.608   1.569
10268SOL     OW42834   7.570   8.091   0.563
10268SOL    HW142835   7.525   8.003   0.580
10268SOL    HW242836   7.569   8.145   0.647
10269SOL     OW42837   8.257   7.452   0.502
10269SOL    HW142838   8.297   7.543   0.493
10269SOL    HW242839   8.157   7.460   0.508
10270SOL     OW42840   8.973   8.447   0.190
10270SOL    HW142841   8.910   8.371   0.203
10270SOL    HW242842   9.021   8.465   0.276
10271SOL     OW42843   7.765   7.699   1.801
10271SOL    HW142844   7.836   7.770   1.807
10271SOL    HW242845   7.677   7.738   1.829
10272SOL     OW42846   8.046   8.177   0.270
10272SOL    HW142847   8.070   8.246   0.202
10272SOL    HW242848   7.968   8.210   0.324
10273SOL     OW42849   8.729   7.793   0.944
10273SOL    HW142850   8.643   7.743   0.931
10273SOL    HW242851   8.791   7.739   1.000
10274SOL     OW42852   8.255   8.053   1.465
10274SOL    HW142853   8.208   8.050   1.554
10274SOL    HW242854   8.204   7.998   1.399
10275SOL     OW42855   8.842   7.917   1.674
10275SOL    HW142856   8.822   7.960   1.762
10275SOL    HW242857   8.920   7.855   1.683
10276SOL     OW42858   8.439   7.858   1.242
10276SOL    HW142859   8.362   7.892   1.296
10276SOL    HW242860   8.405   7.807   1.163
10277SOL     OW42861   8.489   8.149   0.429
10277SOL    HW142862   8.515   8.145   0.525
10277SOL    HW242863   8.404   8.098   0.415
10278SOL     OW42864   7.524   8.259   0.789
10278SOL    HW142865   7.623   8.247   0.798
10278SOL    HW242866   7.500   8.354   0.810
10279SOL     OW42867   8.313   7.796   0.195
10279SOL    HW142868   8.372   7.859   0.146
10279SOL    HW242869   8.332   7.702   0.166
10280SOL     OW42870   7.998   7.644   0.885
10280SOL    HW142871   7.993   7.639   0.985
10280SOL    HW242872   8.000   7.740   0.856
10281SOL     OW42873   8.906   8.183   0.728
10281SOL    HW142874   8.901   8.118   0.803
10281SOL    HW242875   8.986   8.242   0.741
10282SOL     OW42876   8.848   7.555   0.426
10282SOL    HW142877   8.824   7.518   0.336
10282SOL    HW242878   8.947   7.571   0.430
10283SOL     OW42879   7.830   8.148   0.480
10283SOL    HW142880   7.875   8.058   0.477
10283SOL    HW242881   7.736   8.137   0.513
10284SOL     OW42882   8.062   7.570   0.117
10284SOL    HW142883   8.160   7.548   0.124
10284SOL    HW242884   8.031   7.553   0.024
10285SOL     OW42885   8.799   8.038   1.433
10285SOL    HW142886   8.827   7.995   1.518
10285SOL    HW242887   8.824   8.134   1.434
10286SOL     OW42888   8.370   7.951   0.899
10286SOL    HW142889   8.345   7.942   0.803
10286SOL    HW242890   8.418   7.869   0.930
10287SOL     OW42891   7.987   7.512   0.512
10287SOL    HW142892   7.906   7.513   0.570
10287SOL    HW242893   7.990   7.595   0.457
10288SOL     OW42894   7.745   7.483   0.171
10288SOL    HW142895   7.794   7.567   0.150
10288SOL    HW242896   7.807   7.418   0.216
10289SOL     OW42897   8.383   7.684   0.480
10289SOL    HW142898   8.335   7.725   0.402
10289SOL    HW242899   8.482   7.682   0.461
10290SOL     OW42900   8.524   8.131   1.464
10290SOL    HW142901   8.444   8.070   1.467
10290SOL    HW242902   8.605   8.078   1.440
10291SOL     OW42903   8.480   7.997   0.016
10291SOL    HW142904   8.439   8.079  -0.023
10291SOL    HW242905   8.544   8.023   0.089
10292SOL     OW42906   8.009   7.670   1.147
10292SOL    HW142907   8.047   7.586   1.184
10292SOL    HW242908   7.921   7.689   1.191
10293SOL     OW42909   8.314   7.902   0.642
10293SOL    HW142910   8.282   7.974   0.580
10293SOL    HW242911   8.338   7.821   0.589
10294SOL     OW42912   8.465   7.487   0.753
10294SOL    HW142913   8.393   7.492   0.684
10294SOL    HW242914   8.441   7.418   0.822
10295SOL     OW42915   9.305   8.281   0.377
10295SOL    HW142916   9.347   8.217   0.441
10295SOL    HW242917   9.267   8.230   0.299
10296SOL     OW42918   8.838   8.023   0.078
10296SOL    HW142919   8.784   8.002   0.159
10296SOL    HW242920   8.929   7.982   0.087
10297SOL     OW42921   7.975   7.704   0.328
10297SOL    HW142922   8.002   7.645   0.253
10297SOL    HW242923   7.975   7.799   0.297
10298SOL     OW42924   9.086   8.547   1.079
10298SOL    HW142925   9.091   8.628   1.138
10298SOL    HW242926   9.000   8.549   1.028
10299SOL     OW42927   8.722   7.834   1.262
10299SOL    HW142928   8.743   7.908   1.326
10299SOL    HW242929   8.633   7.851   1.219
10300SOL     OW42930   8.014   7.985   0.865
10300SOL    HW142931   8.026   8.051   0.791
10300SOL    HW242932   8.060   8.019   0.948
10301SOL     OW42933   9.030   8.087   0.472
10301SOL    HW142934   8.999   8.148   0.545
10301SOL    HW242935   9.080   8.139   0.403
10302SOL     OW42936   8.657   7.973   0.275
10302SOL    HW142937   8.670   7.889   0.329
10302SOL    HW242938   8.628   8.047   0.335
10303SOL     OW42939   7.755   7.661   1.231
10303SOL    HW142940   7.732   7.698   1.321
10303SOL    HW242941   7.725   7.566   1.225
10304SOL     OW42942   8.180   8.082   1.064
10304SOL    HW142943   8.239   8.056   0.988
10304SOL    HW242944   8.152   8.178   1.053
10305SOL     OW42945   7.755   7.511   0.618
10305SOL    HW142946   7.744   7.605   0.651
10305SOL    HW242947   7.750   7.448   0.695
10306SOL     OW42948   9.070   7.815   0.374
10306SOL    HW142949   9.072   7.739   0.438
10306SOL    HW242950   9.022   7.892   0.414
10307SOL     OW42951   8.471   8.214   0.966
10307SOL    HW142952   8.486   8.235   1.062
10307SOL    HW242953   8.441   8.119   0.957
10308SOL     OW42954   8.988   7.722   0.125
10308SOL    HW142955   8.927   7.647   0.148
10308SOL    HW242956   9.010   7.774   0.208
10309SOL     OW42957   8.751   8.286   0.042
10309SOL    HW142958   8.785   8.193   0.057
10309SOL    HW242959   8.769   8.313  -0.053
10310SOL     OW42960   7.787   7.957   1.006
10310SOL    HW142961   7.735   7.874   0.989
10310SOL    HW242962   7.864   7.962   0.942
10311SOL     OW42963   8.608   7.655   1.477
10311SOL    HW142964   8.608   7.719   1.554
10311SOL    HW242965   8.636   7.703   1.394
10312SOL     OW42966   8.450   8.244   1.238
10312SOL    HW142967   8.491   8.212   1.324
10312SOL    HW242968   8.354   8.217   1.235
10313SOL     OW42969   7.488   7.992   1.114
10313SOL    HW142970   7.573   7.959   1.073
10313SOL    HW242971   7.501   8.007   1.212
10314SOL     OW42972   8.263   8.020   0.325
10314SOL    HW142973   8.270   7.931   0.279
10314SOL    HW242974   8.169   8.054   0.317
10315SOL     OW42975   9.105   8.052   1.206
10315SOL    HW142976   9.067   7.983   1.268
10315SOL    HW242977   9.187   8.016   1.162
10316SOL     OW42978   8.119   7.912   1.269
10316SOL    HW142979   8.085   7.823   1.239
10316SOL    HW242980   8.145   7.966   1.189
10317SOL     OW42981   7.921   7.948   0.191
10317SOL    HW142982   7.982   8.028   0.195
10317SOL    HW242983   7.826   7.979   0.198
10318SOL     OW42984   8.750   8.303   0.309
10318SOL    HW142985   8.664   8.272   0.351
10318SOL    HW242986   8.746   8.289   0.210
10319SOL     OW42987   8.351   7.534   0.133
10319SOL    HW142988   8.402   7.535   0.047
10319SOL    HW242989   8.407   7.492   0.204
10320SOL     OW42990   9.174   7.583   0.523
10320SOL    HW142991   9.247   7.566   0.456
10320SOL    HW242992   9.143   7.496   0.561
10321SOL     OW42993   8.728   8.375   0.672
10321SOL    HW142994   8.788   8.294   0.674
10321SOL    HW242995   8.768   8.444   0.612
10322SOL     OW42996   9.289   7.623   0.963
10322SOL    HW142997   9.328   7.538   0.927
10322SOL    HW242998   9.191   7.625   0.944
10323SOL     OW42999   7.711   7.774   0.720
10323SOL    HW143000   7.632   7.825   0.686
10323SOL    HW243001   7.702   7.759   0.818
10324SOL     OW43002   8.364   8.358   0.291
10324SOL    HW143003   8.427   8.396   0.223
10324SOL    HW243004   8.404   8.275   0.330
10325SOL     OW43005   8.462   7.684   0.971
10325SOL    HW143006   8.454   7.648   0.878
10325SOL    HW243007   8.460   7.608   1.036
10326SOL     OW43008   7.520   7.614   0.318
10326SOL    HW143009   7.503   7.697   0.264
10326SOL    HW243010   7.610   7.577   0.296
10327SOL     OW43011   9.122   8.331   1.254
10327SOL    HW143012   9.095   8.242   1.217
10327SOL    HW243013   9.123   8.399   1.181
10328SOL     OW43014   8.673   7.773   0.449
10328SOL    HW143015   8.738   7.699   0.438
10328SOL    HW243016   8.693   7.823   0.533
10329SOL     OW43017   8.042   8.193   0.652
10329SOL    HW143018   8.092   8.278   0.633
10329SOL    HW243019   7.954   8.195   0.604
10330SOL     OW43020   9.225   7.790   1.642
10330SOL    HW143021   9.208   7.821   1.548
10330SOL    HW243022   9.141   7.753   1.680
10331SOL     OW43023   9.178   8.382   1.517
10331SOL    HW143024   9.216   8.473   1.532
10331SOL    HW243025   9.170   8.365   1.418
10332SOL     OW43026   8.531   8.432   0.087
10332SOL    HW143027   8.508   8.485   0.005
10332SOL    HW243028   8.612   8.376   0.068
10333SOL     OW43029   7.876   7.872   0.520
10333SOL    HW143030   7.906   7.800   0.458
10333SOL    HW243031   7.837   7.832   0.603
10334SOL     OW43032   7.765   7.995   1.280
10334SOL    HW143033   7.803   7.936   1.352
10334SOL    HW243034   7.805   7.969   1.192
10335SOL     OW43035   8.872   7.662   1.112
10335SOL    HW143036   8.924   7.597   1.167
10335SOL    HW243037   8.823   7.725   1.173
10336SOL     OW43038   8.449   7.482   1.154
10336SOL    HW143039   8.386   7.410   1.123
10336SOL    HW243040   8.542   7.446   1.154
10337SOL     OW43041   8.800   7.500   0.168
10337SOL    HW143042   8.835   7.459   0.084
10337SOL    HW243043   8.710   7.462   0.188
10338SOL     OW43044   8.748   7.901   0.691
10338SOL    HW143045   8.689   7.981   0.695
10338SOL    HW243046   8.763   7.866   0.784
10339SOL     OW43047   9.041   7.669   0.882
10339SOL    HW143048   8.957   7.668   0.936
10339SOL    HW243049   9.043   7.752   0.826
10340SOL     OW43050   7.487   8.525   0.300
10340SOL    HW143051   7.586   8.514   0.291
10340SOL    HW243052   7.447   8.439   0.332
10341SOL     OW43053   8.298   8.246   3.685
10341SOL    HW143054   8.294   8.322   3.750
10341SOL    HW243055   8.320   8.282   3.594
10342SOL     OW43056   7.561   8.185   3.459
10342SOL    HW143057   7.649   8.172   3.504
10342SOL    HW243058   7.548   8.282   3.437
10343SOL     OW43059   8.255   8.053   3.327
10343SOL    HW143060   8.208   8.050   3.416
10343SOL    HW243061   8.204   7.998   3.261
10344SOL     OW43062   8.842   7.917   3.536
10344SOL    HW143063   8.822   7.960   3.624
10344SOL    HW243064   8.920   7.855   3.545
10345SOL     OW43065   7.524   8.259   2.651
10345SOL    HW143066   7.623   8.247   2.660
10345SOL    HW243067   7.500   8.354   2.672
10346SOL     OW43068   7.998   7.644   2.747
10346SOL    HW143069   7.993   7.639   2.847
10346SOL    HW243070   8.000   7.740   2.718
10347SOL     OW43071   7.526   8.004   3.248
10347SOL    HW143072   7.618   8.003   3.207
10347SOL    HW243073   7.520   8.078   3.315
10348SOL     OW43074   8.914   8.038   2.854
10348SOL    HW143075   8.884   7.943   2.861
10348SOL    HW243076   8.987   8.054   2.920
10349SOL     OW43077   9.305   8.281   2.239
10349SOL    HW143078   9.347   8.217   2.303
10349SOL    HW243079   9.267   8.230   2.161
10350SOL     OW43080   8.838   8.023   1.940
10350SOL    HW143081   8.784   8.002   2.021
10350SOL    HW243082   8.929   7.982   1.949
10351SOL     OW43083   8.014   7.985   2.727
10351SOL    HW143084   8.026   8.051   2.653
10351SOL    HW243085   8.060   8.019   2.810
10352SOL     OW43086   9.030   8.087   2.334
10352SOL    HW143087   8.999   8.148   2.407
10352SOL    HW243088   9.080   8.139   2.265
10353SOL     OW43089   8.461   7.553   3.632
10353SOL    HW143090   8.467   7.638   3.580
10353SOL    HW243091   8.493   7.477   3.575
10354SOL     OW43092   8.021   8.318   2.891
10354SOL    HW143093   8.065   8.407   2.882
10354SOL    HW243094   7.958   8.318   2.968
10355SOL     OW43095   7.755   7.661   3.093
10355SOL    HW143096   7.732   7.698   3.183
10355SOL    HW243097   7.725   7.566   3.087
10356SOL     OW43098   8.180   8.082   2.926
10356SOL    HW143099   8.239   8.056   2.850
10356SOL    HW243100   8.152   8.178   2.915
10357SOL     OW43101   9.176   8.383   3.716
10357SOL    HW143102   9.130   8.376   3.627
10357SOL    HW243103   9.114   8.427   3.782
10358SOL     OW43104   9.070   7.815   2.236
10358SOL    HW143105   9.072   7.739   2.300
10358SOL    HW243106   9.022   7.892   2.276
10359SOL     OW43107   8.608   7.655   3.339
10359SOL    HW143108   8.608   7.719   3.416
10359SOL    HW243109   8.636   7.703   3.256
10360SOL     OW43110   8.450   8.244   3.100
10360SOL    HW143111   8.491   8.212   3.186
10360SOL    HW243112   8.354   8.217   3.097
10361SOL     OW43113   7.488   7.992   2.976
10361SOL    HW143114   7.573   7.959   2.935
10361SOL    HW243115   7.501   8.007   3.074
10362SOL     OW43116   7.921   7.948   2.053
10362SOL    HW143117   7.982   8.028   2.057
10362SOL    HW243118   7.826   7.979   2.060
10363SOL     OW43119   9.157   7.833   3.243
10363SOL    HW143120   9.230   7.902   3.247
10363SOL    HW243121   9.185   7.758   3.184
10364SOL     OW43122   8.888   8.304   3.260
10364SOL    HW143123   8.831   8.356   3.197
10364SOL    HW243124   8.984   8.316   3.236
10365SOL     OW43125   8.061   8.290   3.293
10365SOL    HW143126   8.117   8.371   3.276
10365SOL    HW243127   8.120   8.210   3.296
10366SOL     OW43128   8.164   8.013   3.570
10366SOL    HW143129   8.183   8.078   3.644
10366SOL    HW243130   8.224   7.933   3.579
10367SOL     OW43131   9.122   8.331   3.116
10367SOL    HW143132   9.095   8.242   3.079
10367SOL    HW243133   9.123   8.399   3.043
10368SOL     OW43134   8.042   8.193   2.514
10368SOL    HW143135   8.092   8.278   2.495
10368SOL    HW243136   7.954   8.195   2.466
10369SOL     OW43137   9.178   8.382   3.379
10369SOL    HW143138   9.216   8.473   3.394
10369SOL    HW243139   9.170   8.365   3.280
10370SOL     OW43140   8.531   8.432   1.949
10370SOL    HW143141   8.508   8.485   1.867
10370SOL    HW243142   8.612   8.376   1.930
10371SOL     OW43143   9.272   7.640   3.089
10371SOL    HW143144   9.268   7.550   3.133
10371SOL    HW243145   9.275   7.629   2.990
10372SOL     OW43146   8.449   7.482   3.016
10372SOL    HW143147   8.386   7.410   2.985
10372SOL    HW243148   8.542   7.446   3.016
10373SOL     OW43149   8.298   8.246   5.547
10373SOL    HW143150   8.294   8.322   5.612
10373SOL    HW243151   8.320   8.282   5.456
10374SOL     OW43152   7.561   8.185   5.321
10374SOL    HW143153   7.649   8.172   5.366
10374SOL    HW243154   7.548   8.282   5.299
10375SOL     OW43155   8.421   8.338   5.296
10375SOL    HW143156   8.467   8.254   5.267
10375SOL    HW243157   8.365   8.372   5.221
10376SOL     OW43158   8.439   7.858   4.966
10376SOL    HW143159   8.362   7.892   5.020
10376SOL    HW243160   8.405   7.807   4.887
10377SOL     OW43161   7.524   8.259   4.513
10377SOL    HW143162   7.623   8.247   4.522
10377SOL    HW243163   7.500   8.354   4.534
10378SOL     OW43164   8.313   7.796   3.919
10378SOL    HW143165   8.372   7.859   3.870
10378SOL    HW243166   8.332   7.702   3.890
10379SOL     OW43167   8.906   8.183   4.452
10379SOL    HW143168   8.901   8.118   4.527
10379SOL    HW243169   8.986   8.242   4.465
10380SOL     OW43170   7.650   7.733   5.222
10380SOL    HW143171   7.570   7.793   5.209
10380SOL    HW243172   7.640   7.684   5.308
10381SOL     OW43173   7.830   8.148   4.204
10381SOL    HW143174   7.875   8.058   4.201
10381SOL    HW243175   7.736   8.137   4.237
10382SOL     OW43176   8.062   7.570   3.841
10382SOL    HW143177   8.160   7.548   3.848
10382SOL    HW243178   8.031   7.553   3.748
10383SOL     OW43179   8.229   7.712   5.473
10383SOL    HW143180   8.296   7.651   5.516
10383SOL    HW243181   8.156   7.731   5.538
10384SOL     OW43182   8.370   7.951   4.623
10384SOL    HW143183   8.345   7.942   4.527
10384SOL    HW243184   8.418   7.869   4.654
10385SOL     OW43185   8.383   7.684   4.204
10385SOL    HW143186   8.335   7.725   4.126
10385SOL    HW243187   8.482   7.682   4.185
10386SOL     OW43188   8.465   7.487   4.477
10386SOL    HW143189   8.393   7.492   4.408
10386SOL    HW243190   8.441   7.418   4.546
10387SOL     OW43191   9.305   8.281   4.101
10387SOL    HW143192   9.347   8.217   4.165
10387SOL    HW243193   9.267   8.230   4.023
10388SOL     OW43194   8.363   7.537   5.126
10388SOL    HW143195   8.388   7.517   5.031
10388SOL    HW243196   8.435   7.593   5.168
10389SOL     OW43197   9.035   8.227   5.394
10389SOL    HW143198   8.943   8.265   5.389
10389SOL    HW243199   9.095   8.274   5.329
10390SOL     OW43200   8.461   7.553   5.494
10390SOL    HW143201   8.467   7.638   5.442
10390SOL    HW243202   8.493   7.477   5.437
10391SOL     OW43203   7.952   7.498   5.464
10391SOL    HW143204   7.910   7.441   5.394
10391SOL    HW243205   7.886   7.567   5.496
10392SOL     OW43206   7.755   7.661   4.955
10392SOL    HW143207   7.732   7.698   5.045
10392SOL    HW243208   7.725   7.566   4.949
10393SOL     OW43209   9.176   8.383   5.578
10393SOL    HW143210   9.130   8.376   5.489
10393SOL    HW243211   9.114   8.427   5.644
10394SOL     OW43212   7.798   8.346   5.528
10394SOL    HW143213   7.874   8.390   5.576
10394SOL    HW243214   7.833   8.299   5.446
10395SOL     OW43215   8.988   7.722   3.849
10395SOL    HW143216   8.927   7.647   3.872
10395SOL    HW243217   9.010   7.774   3.932
10396SOL     OW43218   8.586   7.828   5.402
10396SOL    HW143219   8.541   7.891   5.466
10396SOL    HW243220   8.679   7.859   5.385
10397SOL     OW43221   8.608   7.655   5.201
10397SOL    HW143222   8.608   7.719   5.278
10397SOL    HW243223   8.636   7.703   5.118
10398SOL     OW43224   8.817   8.398   5.384
10398SOL    HW143225   8.856   8.487   5.404
10398SOL    HW243226   8.827   8.378   5.287
10399SOL     OW43227   7.607   8.585   5.190
10399SOL    HW143228   7.629   8.524   5.266
10399SOL    HW243229   7.617   8.536   5.104
10400SOL     OW43230   7.553   8.461   5.450
10400SOL    HW143231   7.476   8.428   5.504
10400SOL    HW243232   7.638   8.431   5.492
10401SOL     OW43233   8.120   7.651   5.213
10401SOL    HW143234   8.210   7.635   5.173
10401SOL    HW243235   8.128   7.656   5.312
10402SOL     OW43236   8.042   8.193   4.376
10402SOL    HW143237   8.092   8.278   4.357
10402SOL    HW243238   7.954   8.195   4.328
10403SOL     OW43239   9.178   8.382   5.241
10403SOL    HW143240   9.216   8.473   5.256
10403SOL    HW243241   9.170   8.365   5.142
10404SOL     OW43242   9.272   7.640   4.951
10404SOL    HW143243   9.268   7.550   4.995
10404SOL    HW243244   9.275   7.629   4.852
10405SOL     OW43245   7.876   7.872   4.244
10405SOL    HW143246   7.906   7.800   4.182
10405SOL    HW243247   7.837   7.832   4.327
10406SOL     OW43248   9.041   7.669   4.606
10406SOL    HW143249   8.957   7.668   4.660
10406SOL    HW243250   9.043   7.752   4.550
10407SOL     OW43251   7.678   8.076   5.699
10407SOL    HW143252   7.585   8.074   5.736
10407SOL    HW243253   7.679   8.037   5.607
10408SOL     OW43254   7.673   7.723   6.582
10408SOL    HW143255   7.708   7.706   6.674
10408SOL    HW243256   7.585   7.678   6.570
10409SOL     OW43257   7.467   7.816   6.233
10409SOL    HW143258   7.385   7.859   6.272
10409SOL    HW243259   7.439   7.743   6.170
10410SOL     OW43260   8.583   8.151   6.303
10410SOL    HW143261   8.640   8.229   6.278
10410SOL    HW243262   8.523   8.177   6.379
10411SOL     OW43263   9.203   8.055   5.817
10411SOL    HW143264   9.191   8.042   5.718
10411SOL    HW243265   9.173   7.974   5.866
10412SOL     OW43266   8.216   8.592   6.609
10412SOL    HW143267   8.138   8.609   6.669
10412SOL    HW243268   8.250   8.679   6.573
10413SOL     OW43269   8.133   8.460   6.251
10413SOL    HW143270   8.202   8.444   6.321
10413SOL    HW243271   8.060   8.517   6.289
10414SOL     OW43272   9.051   7.895   6.323
10414SOL    HW143273   8.977   7.941   6.273
10414SOL    HW243274   9.102   7.963   6.376
10415SOL     OW43275   7.688   8.539   6.472
10415SOL    HW143276   7.702   8.455   6.524
10415SOL    HW243277   7.633   8.603   6.527
10416SOL     OW43278   7.570   8.091   6.149
10416SOL    HW143279   7.525   8.003   6.166
10416SOL    HW243280   7.569   8.145   6.233
10417SOL     OW43281   8.257   7.452   6.088
10417SOL    HW143282   8.297   7.543   6.079
10417SOL    HW243283   8.157   7.460   6.094
10418SOL     OW43284   7.645   8.424   6.850
10418SOL    HW143285   7.734   8.379   6.836
10418SOL    HW243286   7.572   8.359   6.831
10419SOL     OW43287   8.973   8.447   5.776
10419SOL    HW143288   8.910   8.371   5.789
10419SOL    HW243289   9.021   8.465   5.862
10420SOL     OW43290   8.046   8.177   5.856
10420SOL    HW143291   8.070   8.246   5.788
10420SOL    HW243292   7.968   8.210   5.910
10421SOL     OW43293   8.729   7.793   6.530
10421SOL    HW143294   8.643   7.743   6.517
10421SOL    HW243295   8.791   7.739   6.586
10422SOL     OW43296   8.439   7.858   6.828
10422SOL    HW143297   8.362   7.892   6.882
10422SOL    HW243298   8.405   7.807   6.749
10423SOL     OW43299   8.489   8.149   6.015
10423SOL    HW143300   8.515   8.145   6.111
10423SOL    HW243301   8.404   8.098   6.001
10424SOL     OW43302   7.524   8.259   6.375
10424SOL    HW143303   7.623   8.247   6.384
10424SOL    HW243304   7.500   8.354   6.396
10425SOL     OW43305   8.313   7.796   5.781
10425SOL    HW143306   8.372   7.859   5.732
10425SOL    HW243307   8.332   7.702   5.752
10426SOL     OW43308   7.998   7.644   6.471
10426SOL    HW143309   7.993   7.639   6.571
10426SOL    HW243310   8.000   7.740   6.442
10427SOL     OW43311   8.906   8.183   6.314
10427SOL    HW143312   8.901   8.118   6.389
10427SOL    HW243313   8.986   8.242   6.327
10428SOL     OW43314   8.848   7.555   6.012
10428SOL    HW143315   8.824   7.518   5.922
10428SOL    HW243316   8.947   7.571   6.016
10429SOL     OW43317   7.830   8.148   6.066
10429SOL    HW143318   7.875   8.058   6.063
10429SOL    HW243319   7.736   8.137   6.099
10430SOL     OW43320   8.062   7.570   5.703
10430SOL    HW143321   8.160   7.548   5.710
10430SOL    HW243322   8.031   7.553   5.610
10431SOL     OW43323   8.370   7.951   6.485
10431SOL    HW143324   8.345   7.942   6.389
10431SOL    HW243325   8.418   7.869   6.516
10432SOL     OW43326   7.987   7.512   6.098
10432SOL    HW143327   7.906   7.513   6.156
10432SOL    HW243328   7.990   7.595   6.043
10433SOL     OW43329   7.745   7.483   5.757
10433SOL    HW143330   7.794   7.567   5.736
10433SOL    HW243331   7.807   7.418   5.802
10434SOL     OW43332   8.383   7.684   6.066
10434SOL    HW143333   8.335   7.725   5.988
10434SOL    HW243334   8.482   7.682   6.047
10435SOL     OW43335   8.480   7.997   5.602
10435SOL    HW143336   8.439   8.079   5.563
10435SOL    HW243337   8.544   8.023   5.675
10436SOL     OW43338   8.009   7.670   6.733
10436SOL    HW143339   8.047   7.586   6.770
10436SOL    HW243340   7.921   7.689   6.777
10437SOL     OW43341   8.314   7.902   6.228
10437SOL    HW143342   8.282   7.974   6.166
10437SOL    HW243343   8.338   7.821   6.175
10438SOL     OW43344   8.465   7.487   6.339
10438SOL    HW143345   8.393   7.492   6.270
10438SOL    HW243346   8.441   7.418   6.408
10439SOL     OW43347   8.914   8.038   6.578
10439SOL    HW143348   8.884   7.943   6.585
10439SOL    HW243349   8.987   8.054   6.644
10440SOL     OW43350   9.305   8.281   5.963
10440SOL    HW143351   9.347   8.217   6.027
10440SOL    HW243352   9.267   8.230   5.885
10441SOL     OW43353   8.838   8.023   5.664
10441SOL    HW143354   8.784   8.002   5.745
10441SOL    HW243355   8.929   7.982   5.673
10442SOL     OW43356   7.975   7.704   5.914
10442SOL    HW143357   8.002   7.645   5.839
10442SOL    HW243358   7.975   7.799   5.883
10443SOL     OW43359   9.086   8.547   6.665
10443SOL    HW143360   9.091   8.628   6.724
10443SOL    HW243361   9.000   8.549   6.614
10444SOL     OW43362   7.858   8.261   6.837
10444SOL    HW143363   7.944   8.273   6.887
10444SOL    HW243364   7.816   8.174   6.864
10445SOL     OW43365   8.722   7.834   6.848
10445SOL    HW143366   8.743   7.908   6.912
10445SOL    HW243367   8.633   7.851   6.805
10446SOL     OW43368   8.014   7.985   6.451
10446SOL    HW143369   8.026   8.051   6.377
10446SOL    HW243370   8.060   8.019   6.534
10447SOL     OW43371   9.030   8.087   6.058
10447SOL    HW143372   8.999   8.148   6.131
10447SOL    HW243373   9.080   8.139   5.989
10448SOL     OW43374   8.021   8.318   6.615
10448SOL    HW143375   8.065   8.407   6.606
10448SOL    HW243376   7.958   8.318   6.692
10449SOL     OW43377   8.808   8.310   6.631
10449SOL    HW143378   8.733   8.310   6.565
10449SOL    HW243379   8.845   8.218   6.640
10450SOL     OW43380   8.657   7.973   5.861
10450SOL    HW143381   8.670   7.889   5.915
10450SOL    HW243382   8.628   8.047   5.921
10451SOL     OW43383   7.755   7.661   6.817
10451SOL    HW143384   7.732   7.698   6.907
10451SOL    HW243385   7.725   7.566   6.811
10452SOL     OW43386   8.180   8.082   6.650
10452SOL    HW143387   8.239   8.056   6.574
10452SOL    HW243388   8.152   8.178   6.639
10453SOL     OW43389   7.755   7.511   6.204
10453SOL    HW143390   7.744   7.605   6.237
10453SOL    HW243391   7.750   7.448   6.281
10454SOL     OW43392   9.070   7.815   5.960
10454SOL    HW143393   9.072   7.739   6.024
10454SOL    HW243394   9.022   7.892   6.000
10455SOL     OW43395   8.471   8.214   6.552
10455SOL    HW143396   8.486   8.235   6.648
10455SOL    HW243397   8.441   8.119   6.543
10456SOL     OW43398   8.988   7.722   5.711
10456SOL    HW143399   8.927   7.647   5.734
10456SOL    HW243400   9.010   7.774   5.794
10457SOL     OW43401   8.751   8.286   5.628
10457SOL    HW143402   8.785   8.193   5.643
10457SOL    HW243403   8.769   8.313   5.533
10458SOL     OW43404   7.767   8.258   6.535
10458SOL    HW143405   7.860   8.294   6.540
10458SOL    HW243406   7.761   8.173   6.587
10459SOL     OW43407   7.787   7.957   6.592
10459SOL    HW143408   7.735   7.874   6.575
10459SOL    HW243409   7.864   7.962   6.528
10460SOL     OW43410   8.608   7.655   7.063
10460SOL    HW143411   8.608   7.719   7.140
10460SOL    HW243412   8.636   7.703   6.980
10461SOL     OW43413   8.450   8.244   6.824
10461SOL    HW143414   8.491   8.212   6.910
10461SOL    HW243415   8.354   8.217   6.821
10462SOL     OW43416   7.488   7.992   6.700
10462SOL    HW143417   7.573   7.959   6.659
10462SOL    HW243418   7.501   8.007   6.798
10463SOL     OW43419   8.263   8.020   5.911
10463SOL    HW143420   8.270   7.931   5.865
10463SOL    HW243421   8.169   8.054   5.903
10464SOL     OW43422   9.105   8.052   6.792
10464SOL    HW143423   9.067   7.983   6.854
10464SOL    HW243424   9.187   8.016   6.748
10465SOL     OW43425   8.119   7.912   6.855
10465SOL    HW143426   8.085   7.823   6.825
10465SOL    HW243427   8.145   7.966   6.775
10466SOL     OW43428   8.795   8.507   6.820
10466SOL    HW143429   8.819   8.444   6.746
10466SOL    HW243430   8.705   8.547   6.802
10467SOL     OW43431   8.750   8.303   5.895
10467SOL    HW143432   8.664   8.272   5.937
10467SOL    HW243433   8.746   8.289   5.796
10468SOL     OW43434   9.174   7.583   6.109
10468SOL    HW143435   9.247   7.566   6.042
10468SOL    HW243436   9.143   7.496   6.147
10469SOL     OW43437   8.728   8.375   6.258
10469SOL    HW143438   8.788   8.294   6.260
10469SOL    HW243439   8.768   8.444   6.198
10470SOL     OW43440   9.289   7.623   6.549
10470SOL    HW143441   9.328   7.538   6.513
10470SOL    HW243442   9.191   7.625   6.530
10471SOL     OW43443   7.711   7.774   6.306
10471SOL    HW143444   7.632   7.825   6.272
10471SOL    HW243445   7.702   7.759   6.404
10472SOL     OW43446   8.364   8.358   5.877
10472SOL    HW143447   8.427   8.396   5.809
10472SOL    HW243448   8.404   8.275   5.916
10473SOL     OW43449   8.462   7.684   6.557
10473SOL    HW143450   8.454   7.648   6.464
10473SOL    HW243451   8.460   7.608   6.622
10474SOL     OW43452   9.157   7.833   6.967
10474SOL    HW143453   9.230   7.902   6.971
10474SOL    HW243454   9.185   7.758   6.908
10475SOL     OW43455   7.523   7.793   5.619
10475SOL    HW143456   7.431   7.765   5.590
10475SOL    HW243457   7.554   7.870   5.563
10476SOL     OW43458   7.520   7.614   5.904
10476SOL    HW143459   7.503   7.697   5.850
10476SOL    HW243460   7.610   7.577   5.882
10477SOL     OW43461   9.122   8.331   6.840
10477SOL    HW143462   9.095   8.242   6.803
10477SOL    HW243463   9.123   8.399   6.767
10478SOL     OW43464   8.673   7.773   6.035
10478SOL    HW143465   8.738   7.699   6.024
10478SOL    HW243466   8.693   7.823   6.119
10479SOL     OW43467   8.042   8.193   6.238
10479SOL    HW143468   8.092   8.278   6.219
10479SOL    HW243469   7.954   8.195   6.190
10480SOL     OW43470   9.178   8.382   7.103
10480SOL    HW143471   9.216   8.473   7.118
10480SOL    HW243472   9.170   8.365   7.004
10481SOL     OW43473   8.531   8.432   5.673
10481SOL    HW143474   8.508   8.485   5.591
10481SOL    HW243475   8.612   8.376   5.654
10482SOL     OW43476   9.272   7.640   6.813
10482SOL    HW143477   9.268   7.550   6.857
10482SOL    HW243478   9.275   7.629   6.714
10483SOL     OW43479   7.876   7.872   6.106
10483SOL    HW143480   7.906   7.800   6.044
10483SOL    HW243481   7.837   7.832   6.189
10484SOL     OW43482   8.872   7.662   6.698
10484SOL    HW143483   8.924   7.597   6.753
10484SOL    HW243484   8.823   7.725   6.759
10485SOL     OW43485   8.449   7.482   6.740
10485SOL    HW143486   8.386   7.410   6.709
10485SOL    HW243487   8.542   7.446   6.740
10486SOL     OW43488   8.800   7.500   5.754
10486SOL    HW143489   8.835   7.459   5.670
10486SOL    HW243490   8.710   7.462   5.774
10487SOL     OW43491   8.748   7.901   6.277
10487SOL    HW143492   8.689   7.981   6.281
10487SOL    HW243493   8.763   7.866   6.370
10488SOL     OW43494   9.041   7.669   6.468
10488SOL    HW143495   8.957   7.668   6.522
10488SOL    HW243496   9.043   7.752   6.412
10489SOL     OW43497   9.432   0.643   0.563
10489SOL    HW143498   9.387   0.555   0.580
10489SOL    HW243499   9.431   0.697   0.647
10490SOL     OW43500   9.337   1.596   0.117
10490SOL    HW143501   9.318   1.500   0.138
10490SOL    HW243502   9.304   1.654   0.192
10491SOL     OW43503   9.617   0.063   0.618
10491SOL    HW143504   9.606   0.157   0.651
10491SOL    HW243505   9.612   0.000   0.695
10492SOL     OW43506   9.469   1.137   1.466
10492SOL    HW143507   9.491   1.076   1.542
10492SOL    HW243508   9.479   1.088   1.380
10493SOL     OW43509   9.541   1.713   2.345
10493SOL    HW143510   9.575   1.790   2.399
10493SOL    HW243511   9.585   1.713   2.255
10494SOL     OW43512   9.432   0.643   2.425
10494SOL    HW143513   9.387   0.555   2.442
10494SOL    HW243514   9.431   0.697   2.509
10495SOL     OW43515   9.617   0.063   2.480
10495SOL    HW143516   9.606   0.157   2.513
10495SOL    HW243517   9.612   0.000   2.557
10496SOL     OW43518   9.469   1.137   3.328
10496SOL    HW143519   9.491   1.076   3.404
10496SOL    HW243520   9.479   1.088   3.242
10497SOL     OW43521   9.617   0.063   4.342
10497SOL    HW143522   9.606   0.157   4.375
10497SOL    HW243523   9.612   0.000   4.419
10498SOL     OW43524   9.562   1.564   5.468
10498SOL    HW143525   9.532   1.621   5.544
10498SOL    HW243526   9.555   1.467   5.494
10499SOL     OW43527   9.541   1.713   6.069
10499SOL    HW143528   9.575   1.790   6.123
10499SOL    HW243529   9.585   1.713   5.979
10500SOL     OW43530   9.432   0.643   6.149
10500SOL    HW143531   9.387   0.555   6.166
10500SOL    HW243532   9.431   0.697   6.233
10501SOL     OW43533   9.337   1.596   5.703
10501SOL    HW143534   9.318   1.500   5.724
10501SOL    HW243535   9.304   1.654   5.778
10502SOL     OW43536   9.423   0.737   7.183
10502SOL    HW143537   9.511   0.724   7.228
10502SOL    HW243538   9.410   0.834   7.161
10503SOL     OW43539   9.388   0.556   6.972
10503SOL    HW143540   9.480   0.555   6.931
10503SOL    HW243541   9.382   0.630   7.039
10504SOL     OW43542   9.617   0.063   6.204
10504SOL    HW143543   9.606   0.157   6.237
10504SOL    HW243544   9.612   0.000   6.281
10505SOL     OW43545   9.432   2.505   0.563
10505SOL    HW143546   9.387   2.417   0.580
10505SOL    HW243547   9.431   2.559   0.647
10506SOL     OW43548   9.337   3.458   0.117
10506SOL    HW143549   9.318   3.362   0.138
10506SOL    HW243550   9.304   3.516   0.192
10507SOL     OW43551   9.617   2.075   1.231
10507SOL    HW143552   9.594   2.112   1.321
10507SOL    HW243553   9.587   1.980   1.225
10508SOL     OW43554   9.617   1.925   0.618
10508SOL    HW143555   9.606   2.019   0.651
10508SOL    HW243556   9.612   1.862   0.695
10509SOL     OW43557   9.541   3.575   2.345
10509SOL    HW143558   9.575   3.652   2.399
10509SOL    HW243559   9.585   3.575   2.255
10510SOL     OW43560   9.337   3.458   1.979
10510SOL    HW143561   9.318   3.362   2.000
10510SOL    HW243562   9.304   3.516   2.054
10511SOL     OW43563   9.562   3.426   3.606
10511SOL    HW143564   9.532   3.483   3.682
10511SOL    HW243565   9.555   3.329   3.632
10512SOL     OW43566   9.541   3.575   4.207
10512SOL    HW143567   9.575   3.652   4.261
10512SOL    HW243568   9.585   3.575   4.117
10513SOL     OW43569   9.432   2.505   6.149
10513SOL    HW143570   9.387   2.417   6.166
10513SOL    HW243571   9.431   2.559   6.233
10514SOL     OW43572   9.423   2.599   7.183
10514SOL    HW143573   9.511   2.586   7.228
10514SOL    HW243574   9.410   2.696   7.161
10515SOL     OW43575   9.388   2.418   6.972
10515SOL    HW143576   9.480   2.417   6.931
10515SOL    HW243577   9.382   2.492   7.039
10516SOL     OW43578   9.617   1.925   6.204
10516SOL    HW143579   9.606   2.019   6.237
10516SOL    HW243580   9.612   1.862   6.281
10517SOL     OW43581   9.432   4.367   0.563
10517SOL    HW143582   9.387   4.279   0.580
10517SOL    HW243583   9.431   4.421   0.647
10518SOL     OW43584   9.337   5.320   0.117
10518SOL    HW143585   9.318   5.224   0.138
10518SOL    HW243586   9.304   5.378   0.192
10519SOL     OW43587   9.617   3.937   1.231
10519SOL    HW143588   9.594   3.974   1.321
10519SOL    HW243589   9.587   3.842   1.225
10520SOL     OW43590   9.617   3.787   0.618
10520SOL    HW143591   9.606   3.881   0.651
10520SOL    HW243592   9.612   3.724   0.695
10521SOL     OW43593   9.562   5.288   1.744
10521SOL    HW143594   9.532   5.345   1.820
10521SOL    HW243595   9.555   5.191   1.770
10522SOL     OW43596   9.541   5.437   2.345
10522SOL    HW143597   9.575   5.514   2.399
10522SOL    HW243598   9.585   5.437   2.255
10523SOL     OW43599   9.617   3.937   3.093
10523SOL    HW143600   9.594   3.974   3.183
10523SOL    HW243601   9.587   3.842   3.087
10524SOL     OW43602   9.617   3.787   2.480
10524SOL    HW143603   9.606   3.881   2.513
10524SOL    HW243604   9.612   3.724   2.557
10525SOL     OW43605   9.469   4.861   3.328
10525SOL    HW143606   9.491   4.800   3.404
10525SOL    HW243607   9.479   4.812   3.242
10526SOL     OW43608   9.432   4.367   4.287
10526SOL    HW143609   9.387   4.279   4.304
10526SOL    HW243610   9.431   4.421   4.371
10527SOL     OW43611   9.337   5.320   3.841
10527SOL    HW143612   9.318   5.224   3.862
10527SOL    HW243613   9.304   5.378   3.916
10528SOL     OW43614   9.562   5.288   5.468
10528SOL    HW143615   9.532   5.345   5.544
10528SOL    HW243616   9.555   5.191   5.494
10529SOL     OW43617   9.469   4.861   5.190
10529SOL    HW143618   9.491   4.800   5.266
10529SOL    HW243619   9.479   4.812   5.104
10530SOL     OW43620   9.541   5.437   6.069
10530SOL    HW143621   9.575   5.514   6.123
10530SOL    HW243622   9.585   5.437   5.979
10531SOL     OW43623   9.432   4.367   6.149
10531SOL    HW143624   9.387   4.279   6.166
10531SOL    HW243625   9.431   4.421   6.233
10532SOL     OW43626   9.337   5.320   5.703
10532SOL    HW143627   9.318   5.224   5.724
10532SOL    HW243628   9.304   5.378   5.778
10533SOL     OW43629   9.423   4.461   7.183
10533SOL    HW143630   9.511   4.448   7.228
10533SOL    HW243631   9.410   4.558   7.161
10534SOL     OW43632   9.388   4.280   6.972
10534SOL    HW143633   9.480   4.279   6.931
10534SOL    HW243634   9.382   4.354   7.039
10535SOL     OW43635   9.617   3.787   6.204
10535SOL    HW143636   9.606   3.881   6.237
10535SOL    HW243637   9.612   3.724   6.281
10536SOL     OW43638   9.337   7.182   0.117
10536SOL    HW143639   9.318   7.086   0.138
10536SOL    HW243640   9.304   7.240   0.192
10537SOL     OW43641   9.617   5.799   1.231
10537SOL    HW143642   9.594   5.836   1.321
10537SOL    HW243643   9.587   5.704   1.225
10538SOL     OW43644   9.617   5.649   0.618
10538SOL    HW143645   9.606   5.743   0.651
10538SOL    HW243646   9.612   5.586   0.695
10539SOL     OW43647   9.469   6.723   1.466
10539SOL    HW143648   9.491   6.662   1.542
10539SOL    HW243649   9.479   6.674   1.380
10540SOL     OW43650   9.617   5.649   2.480
10540SOL    HW143651   9.606   5.743   2.513
10540SOL    HW243652   9.612   5.586   2.557
10541SOL     OW43653   9.617   5.799   4.955
10541SOL    HW143654   9.594   5.836   5.045
10541SOL    HW243655   9.587   5.704   4.949
10542SOL     OW43656   9.562   7.150   5.468
10542SOL    HW143657   9.532   7.207   5.544
10542SOL    HW243658   9.555   7.053   5.494
10543SOL     OW43659   9.469   6.723   5.190
10543SOL    HW143660   9.491   6.662   5.266
10543SOL    HW243661   9.479   6.674   5.104
10544SOL     OW43662   9.541   7.299   6.069
10544SOL    HW143663   9.575   7.376   6.123
10544SOL    HW243664   9.585   7.299   5.979
10545SOL     OW43665   9.432   6.229   6.149
10545SOL    HW143666   9.387   6.141   6.166
10545SOL    HW243667   9.431   6.283   6.233
10546SOL     OW43668   9.337   7.182   5.703
10546SOL    HW143669   9.318   7.086   5.724
10546SOL    HW243670   9.304   7.240   5.778
10547SOL     OW43671   9.423   6.323   7.183
10547SOL    HW143672   9.511   6.310   7.228
10547SOL    HW243673   9.410   6.420   7.161
10548SOL     OW43674   9.388   6.142   6.972
10548SOL    HW143675   9.480   6.141   6.931
10548SOL    HW243676   9.382   6.216   7.039
10549SOL     OW43677   9.617   5.649   6.204
10549SOL    HW143678   9.606   5.743   6.237
10549SOL    HW243679   9.612   5.586   6.281
10550SOL     OW43680   9.432   8.091   0.563
10550SOL    HW143681   9.387   8.003   0.580
10550SOL    HW243682   9.431   8.145   0.647
10551SOL     OW43683   9.617   7.661   1.231
10551SOL    HW143684   9.594   7.698   1.321
10551SOL    HW243685   9.587   7.566   1.225
10552SOL     OW43686   9.617   7.511   0.618
10552SOL    HW143687   9.606   7.605   0.651
10552SOL    HW243688   9.612   7.448   0.695
10553SOL     OW43689   9.469   8.585   1.466
10553SOL    HW143690   9.491   8.524   1.542
10553SOL    HW243691   9.479   8.536   1.380
10554SOL     OW43692   9.349   8.525   0.300
10554SOL    HW143693   9.448   8.514   0.291
10554SOL    HW243694   9.309   8.439   0.332
10555SOL     OW43695   9.617   7.511   2.480
10555SOL    HW143696   9.606   7.605   2.513
10555SOL    HW243697   9.612   7.448   2.557
10556SOL     OW43698   9.469   8.585   3.328
10556SOL    HW143699   9.491   8.524   3.404
10556SOL    HW243700   9.479   8.536   3.242
10557SOL     OW43701   9.349   8.525   2.162
10557SOL    HW143702   9.448   8.514   2.153
10557SOL    HW243703   9.309   8.439   2.194
10558SOL     OW43704   9.617   7.661   4.955
10558SOL    HW143705   9.594   7.698   5.045
10558SOL    HW243706   9.587   7.566   4.949
10559SOL     OW43707   9.318   8.774   3.924
10559SOL    HW143708   9.225   8.795   3.893
10559SOL    HW243709   9.328   8.675   3.937
10560SOL     OW43710   9.432   8.091   6.149
10560SOL    HW143711   9.387   8.003   6.166
10560SOL    HW243712   9.431   8.145   6.233
10561SOL     OW43713   9.423   8.185   7.183
10561SOL    HW143714   9.511   8.172   7.228
10561SOL    HW243715   9.410   8.282   7.161
10562SOL     OW43716   9.388   8.004   6.972
10562SOL    HW143717   9.480   8.003   6.931
10562SOL    HW243718   9.382   8.078   7.039
10563SOL     OW43719   9.712   8.199   7.184
10563SOL    HW143720   9.780   8.254   7.137
10563SOL    HW243721   9.752   8.111   7.211
10564SOL     OW43722   9.617   7.511   6.204
10564SOL    HW143723   9.606   7.605   6.237
10564SOL    HW243724   9.612   7.448   6.281
10565SOL     OW43725   9.318   8.774   5.786
10565SOL    HW143726   9.225   8.795   5.755
10565SOL    HW243727   9.328   8.675   5.799
10566SOL     OW43728   9.349   8.525   5.886
10566SOL    HW143729   9.448   8.514   5.877
10566SOL    HW243730   9.309   8.439   5.918
   9.48825   8.49895   6.94186
