256-Lipid DPPC Bilayer in water | solvent-stripped DPPC template
43003
    1DPPC    C1    1   5.809   5.563   5.552
    1DPPC    C2    2   5.821   5.721   5.387
    1DPPC    C3    3   5.683   5.541   5.335
    1DPPC    N4    4   5.727   5.626   5.447
    1DPPC    C5    5   5.620   5.699   5.516
    1DPPC    C6    6   5.531   5.797   5.441
    1DPPC    O7    7   5.586   5.924   5.406
    1DPPC    P8    8   5.463   6.027   5.399
    1DPPC    O9    9   5.548   6.147   5.389
    1DPPC   O10   10   5.390   5.988   5.522
    1DPPC   O11   11   5.380   6.000   5.263
    1DPPC   C12   12   5.406   6.111   5.177
    1DPPC   C13   13   5.362   6.089   5.032
    1DPPC   O14   14   5.227   6.129   5.004
    1DPPC   C15   15   5.209   6.261   4.980
    1DPPC   O16   16   5.296   6.336   5.025
    1DPPC   C17   17   5.073   6.309   4.930
    1DPPC   C18   18   5.077   6.427   4.833
    1DPPC   C19   19   4.962   6.436   4.733
    1DPPC   C20   20   4.964   6.559   4.641
    1DPPC   C21   21   5.079   6.543   4.541
    1DPPC   C22   22   5.074   6.645   4.427
    1DPPC   C23   23   5.184   6.592   4.334
    1DPPC   C24   24   5.176   6.674   4.206
    1DPPC   C25   25   5.258   6.595   4.103
    1DPPC   C26   26   5.242   6.671   3.971
    1DPPC   C27   27   5.301   6.602   3.848
    1DPPC   C28   28   5.268   6.679   3.719
    1DPPC   C29   29   5.326   6.610   3.596
    1DPPC   C30   30   5.276   6.660   3.461
    1DPPC   C31   31   5.303   6.811   3.452
    1DPPC   C32   32   5.409   5.949   4.990
    1DPPC   O33   33   5.503   5.958   4.884
    1DPPC   C34   34   5.592   5.855   4.871
    1DPPC   O35   35   5.592   5.772   4.962
    1DPPC   C36   36   5.683   5.853   4.748
    1DPPC   C37   37   5.665   5.720   4.675
    1DPPC   C38   38   5.752   5.709   4.550
    1DPPC   C39   39   5.896   5.707   4.603
    1DPPC   C40   40   6.002   5.702   4.493
    1DPPC   C41   41   5.995   5.577   4.406
    1DPPC   C42   42   6.048   5.615   4.267
    1DPPC   C43   43   6.033   5.491   4.179
    1DPPC   C44   44   6.088   5.520   4.039
    1DPPC   C45   45   6.065   5.411   3.934
    1DPPC   C46   46   6.106   5.475   3.801
    1DPPC   C47   47   6.018   5.591   3.753
    1DPPC   C48   48   6.082   5.658   3.631
    1DPPC   C49   49   5.991   5.758   3.559
    1DPPC   C50   50   5.966   5.868   3.663
    2DPPC    C1   51   3.473   0.842   1.699
    2DPPC    C2   52   3.629   0.950   1.570
    2DPPC    C3   53   3.424   1.056   1.626
    2DPPC    N4   54   3.534   0.975   1.680
    2DPPC    C5   55   3.583   1.026   1.808
    2DPPC    C6   56   3.647   1.165   1.808
    2DPPC    O7   57   3.668   1.213   1.941
    2DPPC    P8   58   3.762   1.343   1.948
    2DPPC    O9   59   3.698   1.433   1.850
    2DPPC   O10   60   3.905   1.308   1.963
    2DPPC   O11   61   3.711   1.383   2.096
    2DPPC   C12   62   3.781   1.311   2.199
    2DPPC   C13   63   3.763   1.349   2.346
    2DPPC   O14   64   3.868   1.285   2.421
    2DPPC   C15   65   3.992   1.333   2.395
    2DPPC   O16   66   4.007   1.451   2.364
    2DPPC   C17   67   4.106   1.251   2.455
    2DPPC   C18   68   4.073   1.185   2.589
    2DPPC   C19   69   4.174   1.075   2.621
    2DPPC   C20   70   4.152   1.014   2.760
    2DPPC   C21   71   4.274   0.924   2.778
    2DPPC   C22   72   4.250   0.847   2.908
    2DPPC   C23   73   4.205   0.935   3.025
    2DPPC   C24   74   4.181   0.834   3.138
    2DPPC   C25   75   4.153   0.914   3.265
    2DPPC   C26   76   4.050   0.840   3.350
    2DPPC   C27   77   3.995   0.943   3.450
    2DPPC   C28   78   3.914   0.862   3.551
    2DPPC   C29   79   3.907   0.954   3.673
    2DPPC   C30   80   3.827   0.885   3.783
    2DPPC   C31   81   3.683   0.871   3.733
    2DPPC   C32   82   3.619   1.312   2.380
    2DPPC   O33   83   3.594   1.352   2.515
    2DPPC   C34   84   3.467   1.331   2.559
    2DPPC   O35   85   3.373   1.312   2.482
    2DPPC   C36   86   3.438   1.370   2.704
    2DPPC   C37   87   3.306   1.319   2.763
    2DPPC   C38   88   3.296   1.362   2.909
    2DPPC   C39   89   3.424   1.321   2.982
    2DPPC   C40   90   3.417   1.406   3.109
    2DPPC   C41   91   3.415   1.555   3.074
    2DPPC   C42   92   3.451   1.654   3.185
    2DPPC   C43   93   3.408   1.796   3.148
    2DPPC   C44   94   3.256   1.800   3.129
    2DPPC   C45   95   3.207   1.944   3.113
    2DPPC   C46   96   3.071   1.945   3.043
    2DPPC   C47   97   3.036   2.087   2.999
    2DPPC   C48   98   2.910   2.059   2.918
    2DPPC   C49   99   2.785   2.002   2.985
    2DPPC   C50  100   2.683   1.962   2.878
    3DPPC    C1  101   6.441   4.485   5.148
    3DPPC    C2  102   6.465   4.495   5.388
    3DPPC    C3  103   6.535   4.312   5.270
    3DPPC    N4  104   6.530   4.459   5.262
    3DPPC    C5  105   6.651   4.538   5.235
    3DPPC    C6  106   6.652   4.683   5.283
    3DPPC    O7  107   6.564   4.773   5.216
    3DPPC    P8  108   6.577   4.922   5.277
    3DPPC    O9  109   6.626   4.904   5.415
    3DPPC   O10  110   6.460   5.004   5.236
    3DPPC   O11  111   6.711   4.965   5.198
    3DPPC   C12  112   6.667   4.989   5.064
    3DPPC   C13  113   6.779   5.038   4.971
    3DPPC   O14  114   6.725   5.081   4.845
    3DPPC   C15  115   6.790   5.163   4.758
    3DPPC   O16  116   6.874   5.238   4.808
    3DPPC   C17  117   6.726   5.185   4.621
    3DPPC   C18  118   6.812   5.170   4.496
    3DPPC   C19  119   6.747   5.149   4.359
    3DPPC   C20  120   6.827   5.222   4.251
    3DPPC   C21  121   6.798   5.148   4.120
    3DPPC   C22  122   6.865   5.213   3.999
    3DPPC   C23  123   6.830   5.130   3.876
    3DPPC   C24  124   6.877   4.985   3.893
    3DPPC   C25  125   6.824   4.900   3.778
    3DPPC   C26  126   6.890   4.763   3.762
    3DPPC   C27  127   6.833   4.673   3.652
    3DPPC   C28  128   6.878   4.527   3.662
    3DPPC   C29  129   6.838   4.470   3.798
    3DPPC   C30  130   6.887   4.327   3.819
    3DPPC   C31  131   6.810   4.244   3.716
    3DPPC   C32  132   6.874   4.918   4.974
    3DPPC   O33  133   6.817   4.815   4.892
    3DPPC   C34  134   6.889   4.702   4.873
    3DPPC   O35  135   7.003   4.699   4.920
    3DPPC   C36  136   6.852   4.595   4.770
    3DPPC   C37  137   6.751   4.502   4.836
    3DPPC   C38  138   6.712   4.383   4.747
    3DPPC   C39  139   6.666   4.443   4.614
    3DPPC   C40  140   6.651   4.332   4.509
    3DPPC   C41  141   6.647   4.384   4.365
    3DPPC   C42  142   6.776   4.461   4.337
    3DPPC   C43  143   6.798   4.509   4.193
    3DPPC   C44  144   6.853   4.650   4.171
    3DPPC   C45  145   7.004   4.656   4.196
    3DPPC   C46  146   7.058   4.798   4.209
    3DPPC   C47  147   7.199   4.805   4.267
    3DPPC   C48  148   7.202   4.760   4.413
    3DPPC   C49  149   7.163   4.875   4.507
    3DPPC   C50  150   7.166   4.833   4.654
    4DPPC    C1  151   8.532   4.077   1.685
    4DPPC    C2  152   8.440   4.205   1.541
    4DPPC    C3  153   8.347   3.979   1.545
    4DPPC    N4  154   8.399   4.091   1.625
    4DPPC    C5  155   8.303   4.135   1.728
    4DPPC    C6  156   8.165   4.170   1.672
    4DPPC    O7  157   8.144   4.275   1.577
    4DPPC    P8  158   7.992   4.270   1.523
    4DPPC    O9  159   7.942   4.131   1.534
    4DPPC   O10  160   7.985   4.351   1.400
    4DPPC   O11  161   7.906   4.346   1.635
    4DPPC   C12  162   7.969   4.474   1.652
    4DPPC   C13  163   7.883   4.588   1.597
    4DPPC   O14  164   7.940   4.717   1.627
    4DPPC   C15  165   7.871   4.827   1.588
    4DPPC   O16  166   7.786   4.814   1.499
    4DPPC   C17  167   7.927   4.960   1.636
    4DPPC   C18  168   7.844   5.015   1.752
    4DPPC   C19  169   7.819   4.917   1.867
    4DPPC   C20  170   7.946   4.893   1.949
    4DPPC   C21  171   7.901   4.818   2.075
    4DPPC   C22  172   7.822   4.928   2.147
    4DPPC   C23  173   7.765   4.869   2.276
    4DPPC   C24  174   7.699   4.980   2.358
    4DPPC   C25  175   7.621   4.923   2.476
    4DPPC   C26  176   7.498   4.851   2.419
    4DPPC   C27  177   7.412   4.785   2.527
    4DPPC   C28  178   7.342   4.887   2.617
    4DPPC   C29  179   7.275   4.799   2.723
    4DPPC   C30  180   7.176   4.896   2.787
    4DPPC   C31  181   7.057   4.810   2.829
    4DPPC   C32  182   7.744   4.556   1.654
    4DPPC   O33  183   7.730   4.578   1.794
    4DPPC   C34  184   7.619   4.521   1.847
    4DPPC   O35  185   7.567   4.421   1.797
    4DPPC   C36  186   7.578   4.568   1.986
    4DPPC   C37  187   7.525   4.447   2.064
    4DPPC   C38  188   7.541   4.450   2.216
    4DPPC   C39  189   7.496   4.310   2.258
    4DPPC   C40  190   7.506   4.286   2.409
    4DPPC   C41  191   7.426   4.372   2.508
    4DPPC   C42  192   7.446   4.325   2.652
    4DPPC   C43  193   7.348   4.407   2.736
    4DPPC   C44  194   7.354   4.361   2.881
    4DPPC   C45  195   7.322   4.212   2.896
    4DPPC   C46  196   7.305   4.174   3.043
    4DPPC   C47  197   7.415   4.216   3.141
    4DPPC   C48  198   7.415   4.155   3.281
    4DPPC   C49  199   7.274   4.162   3.340
    4DPPC   C50  200   7.279   4.185   3.491
    5DPPC    C1  201   8.665   4.759   5.545
    5DPPC    C2  202   8.842   4.914   5.559
    5DPPC    C3  203   8.823   4.745   5.717
    5DPPC    N4  204   8.809   4.772   5.573
    5DPPC    C5  205   8.894   4.687   5.488
    5DPPC    C6  206   8.841   4.547   5.458
    5DPPC    O7  207   8.825   4.459   5.569
    5DPPC    P8  208   8.751   4.324   5.523
    5DPPC    O9  209   8.713   4.220   5.621
    5DPPC   O10  210   8.778   4.290   5.381
    5DPPC   O11  211   8.615   4.410   5.519
    5DPPC   C12  212   8.530   4.320   5.446
    5DPPC   C13  213   8.399   4.377   5.394
    5DPPC   O14  214   8.319   4.270   5.341
    5DPPC   C15  215   8.190   4.287   5.301
    5DPPC   O16  216   8.139   4.398   5.286
    5DPPC   C17  217   8.118   4.162   5.250
    5DPPC   C18  218   8.152   4.141   5.102
    5DPPC   C19  219   8.079   4.017   5.049
    5DPPC   C20  220   8.116   3.992   4.903
    5DPPC   C21  221   8.263   3.949   4.907
    5DPPC   C22  222   8.313   3.936   4.763
    5DPPC   C23  223   8.304   4.074   4.698
    5DPPC   C24  224   8.299   4.062   4.545
    5DPPC   C25  225   8.443   4.032   4.501
    5DPPC   C26  226   8.429   4.039   4.349
    5DPPC   C27  227   8.556   3.994   4.277
    5DPPC   C28  228   8.524   3.992   4.127
    5DPPC   C29  229   8.638   3.923   4.052
    5DPPC   C30  230   8.599   3.900   3.906
    5DPPC   C31  231   8.684   3.794   3.834
    5DPPC   C32  232   8.449   4.491   5.304
    5DPPC   O33  233   8.513   4.443   5.186
    5DPPC   C34  234   8.596   4.529   5.122
    5DPPC   O35  235   8.644   4.619   5.191
    5DPPC   C36  236   8.657   4.488   4.988
    5DPPC   C37  237   8.806   4.507   4.962
    5DPPC   C38  238   8.845   4.474   4.817
    5DPPC   C39  239   8.997   4.469   4.800
    5DPPC   C40  240   9.049   4.405   4.672
    5DPPC   C41  241   9.020   4.255   4.665
    5DPPC   C42  242   9.123   4.190   4.574
    5DPPC   C43  243   9.127   4.253   4.434
    5DPPC   C44  244   9.021   4.193   4.341
    5DPPC   C45  245   9.021   4.287   4.220
    5DPPC   C46  246   8.898   4.252   4.137
    5DPPC   C47  247   8.914   4.315   3.998
    5DPPC   C48  248   8.909   4.200   3.896
    5DPPC   C49  249   8.892   4.261   3.757
    5DPPC   C50  250   8.888   4.162   3.640
    6DPPC    C1  251   6.199   0.628   5.470
    6DPPC    C2  252   6.203   0.811   5.330
    6DPPC    C3  253   6.394   0.678   5.336
    6DPPC    N4  254   6.247   0.672   5.338
    6DPPC    C5  255   6.205   0.593   5.222
    6DPPC    C6  256   6.171   0.446   5.247
    6DPPC    O7  257   6.290   0.377   5.285
    6DPPC    P8  258   6.251   0.222   5.308
    6DPPC    O9  259   6.177   0.166   5.193
    6DPPC   O10  260   6.184   0.235   5.440
    6DPPC   O11  261   6.393   0.149   5.326
    6DPPC   C12  262   6.422   0.080   5.204
    6DPPC   C13  263   6.562   0.018   5.206
    6DPPC   O14  264   6.655   0.082   5.118
    6DPPC   C15  265   6.787   0.086   5.149
    6DPPC   O16  266   6.833   0.048   5.257
    6DPPC   C17  267   6.864   0.184   5.059
    6DPPC   C18  268   7.016   0.167   5.062
    6DPPC   C19  269   7.080   0.253   4.954
    6DPPC   C20  270   7.231   0.262   4.977
    6DPPC   C21  271   7.309   0.337   4.869
    6DPPC   C22  272   7.418   0.424   4.932
    6DPPC   C23  273   7.467   0.525   4.828
    6DPPC   C24  274   7.515   0.462   4.697
    6DPPC   C25  275   7.550   0.582   4.609
    6DPPC   C26  276   7.596   0.545   4.467
    6DPPC   C27  277   7.652   0.664   4.388
    6DPPC   C28  278   7.787   0.706   4.445
    6DPPC   C29  279   7.858   0.823   4.377
    6DPPC   C30  280   7.986   0.845   4.458
    6DPPC   C31  281   7.956   0.911   4.593
    6DPPC   C32  282   6.536  -0.133   5.195
    6DPPC   O33  283   6.461  -0.154   5.075
    6DPPC   C34  284   6.445  -0.284   5.037
    6DPPC   O35  285   6.486  -0.371   5.113
    6DPPC   C36  286   6.361  -0.318   4.914
    6DPPC   C37  287   6.401  -0.265   4.776
    6DPPC   C38  288   6.301  -0.327   4.678
    6DPPC   C39  289   6.327  -0.297   4.531
    6DPPC   C40  290   6.211  -0.330   4.437
    6DPPC   C41  291   6.255  -0.382   4.300
    6DPPC   C42  292   6.343  -0.507   4.294
    6DPPC   C43  293   6.472  -0.484   4.216
    6DPPC   C44  294   6.501  -0.596   4.116
    6DPPC   C45  295   6.602  -0.561   4.007
    6DPPC   C46  296   6.632  -0.696   3.942
    6DPPC   C47  297   6.764  -0.691   3.864
    6DPPC   C48  298   6.763  -0.596   3.744
    6DPPC   C49  299   6.909  -0.576   3.702
    6DPPC   C50  300   6.904  -0.472   3.590
    7DPPC    C1  301   2.931   1.575   5.498
    7DPPC    C2  302   2.739   1.533   5.628
    7DPPC    C3  303   2.753   1.517   5.376
    7DPPC    N4  304   2.813   1.489   5.508
    7DPPC    C5  305   2.858   1.350   5.517
    7DPPC    C6  306   2.754   1.244   5.556
    7DPPC    O7  307   2.674   1.224   5.439
    7DPPC    P8  308   2.551   1.130   5.482
    7DPPC    O9  309   2.461   1.235   5.536
    7DPPC   O10  310   2.616   1.029   5.568
    7DPPC   O11  311   2.529   1.082   5.330
    7DPPC   C12  312   2.479   1.183   5.243
    7DPPC   C13  313   2.489   1.131   5.099
    7DPPC   O14  314   2.380   1.052   5.052
    7DPPC   C15  315   2.258   1.106   5.024
    7DPPC   O16  316   2.216   1.209   5.075
    7DPPC   C17  317   2.158   1.010   4.958
    7DPPC   C18  318   2.206   1.005   4.813
    7DPPC   C19  319   2.147   0.890   4.731
    7DPPC   C20  320   1.998   0.923   4.724
    7DPPC   C21  321   1.924   0.835   4.623
    7DPPC   C22  322   1.992   0.836   4.486
    7DPPC   C23  323   2.002   0.969   4.411
    7DPPC   C24  324   2.072   0.961   4.275
    7DPPC   C25  325   2.089   1.100   4.212
    7DPPC   C26  326   1.951   1.151   4.169
    7DPPC   C27  327   1.961   1.271   4.074
    7DPPC   C28  328   2.040   1.241   3.947
    7DPPC   C29  329   1.966   1.135   3.864
    7DPPC   C30  330   2.047   1.129   3.735
    7DPPC   C31  331   2.016   1.248   3.645
    7DPPC   C32  332   2.626   1.062   5.092
    7DPPC   O33  333   2.722   1.167   5.107
    7DPPC   C34  334   2.850   1.122   5.102
    7DPPC   O35  335   2.888   1.005   5.113
    7DPPC   C36  336   2.959   1.230   5.100
    7DPPC   C37  337   2.943   1.322   4.979
    7DPPC   C38  338   3.044   1.436   4.982
    7DPPC   C39  339   3.027   1.521   4.855
    7DPPC   C40  340   2.885   1.576   4.861
    7DPPC   C41  341   2.851   1.631   4.722
    7DPPC   C42  342   2.864   1.523   4.615
    7DPPC   C43  343   2.833   1.548   4.467
    7DPPC   C44  344   2.841   1.424   4.377
    7DPPC   C45  345   2.802   1.467   4.235
    7DPPC   C46  346   2.825   1.355   4.134
    7DPPC   C47  347   2.782   1.402   3.995
    7DPPC   C48  348   2.806   1.305   3.878
    7DPPC   C49  349   2.770   1.359   3.740
    7DPPC   C50  350   2.774   1.250   3.632
    8DPPC    C1  351   8.482   5.852   4.610
    8DPPC    C2  352   8.671   5.789   4.746
    8DPPC    C3  353   8.523   5.969   4.803
    8DPPC    N4  354   8.531   5.833   4.747
    8DPPC    C5  355   8.440   5.747   4.824
    8DPPC    C6  356   8.449   5.701   4.969
    8DPPC    O7  357   8.568   5.628   5.003
    8DPPC    P8  358   8.553   5.573   5.153
    8DPPC    O9  359   8.494   5.681   5.237
    8DPPC   O10  360   8.674   5.498   5.195
    8DPPC   O11  361   8.431   5.471   5.134
    8DPPC   C12  362   8.468   5.384   5.027
    8DPPC   C13  363   8.376   5.269   4.986
    8DPPC   O14  364   8.437   5.170   4.902
    8DPPC   C15  365   8.481   5.053   4.954
    8DPPC   O16  366   8.503   5.034   5.074
    8DPPC   C17  367   8.512   4.952   4.844
    8DPPC   C18  368   8.392   4.901   4.763
    8DPPC   C19  369   8.315   5.008   4.685
    8DPPC   C20  370   8.240   4.940   4.570
    8DPPC   C21  371   8.094   4.917   4.608
    8DPPC   C22  372   8.022   4.890   4.476
    8DPPC   C23  373   8.061   4.997   4.374
    8DPPC   C24  374   7.989   4.981   4.241
    8DPPC   C25  375   8.025   5.104   4.157
    8DPPC   C26  376   7.973   5.099   4.014
    8DPPC   C27  377   8.022   5.221   3.936
    8DPPC   C28  378   8.173   5.214   3.915
    8DPPC   C29  379   8.211   5.100   3.820
    8DPPC   C30  380   8.350   5.104   3.756
    8DPPC   C31  381   8.403   4.966   3.720
    8DPPC   C32  382   8.250   5.328   4.922
    8DPPC   O33  383   8.255   5.442   4.835
    8DPPC   C34  384   8.133   5.482   4.792
    8DPPC   O35  385   8.025   5.452   4.842
    8DPPC   C36  386   8.141   5.571   4.668
    8DPPC   C37  387   8.211   5.512   4.545
    8DPPC   C38  388   8.243   5.606   4.429
    8DPPC   C39  389   8.141   5.569   4.321
    8DPPC   C40  390   8.192   5.633   4.192
    8DPPC   C41  391   8.095   5.601   4.077
    8DPPC   C42  392   8.162   5.660   3.952
    8DPPC   C43  393   8.078   5.642   3.826
    8DPPC   C44  394   8.146   5.707   3.705
    8DPPC   C45  395   8.065   5.658   3.586
    8DPPC   C46  396   8.015   5.514   3.599
    8DPPC   C47  397   7.971   5.451   3.466
    8DPPC   C48  398   7.898   5.321   3.499
    8DPPC   C49  399   7.871   5.240   3.372
    8DPPC   C50  400   7.843   5.093   3.402
    9DPPC    C1  401   3.150   2.978   6.037
    9DPPC    C2  402   3.014   2.817   6.165
    9DPPC    C3  403   2.943   3.040   6.128
    9DPPC    N4  404   3.015   2.927   6.068
    9DPPC    C5  405   2.950   2.874   5.947
    9DPPC    C6  406   2.891   2.978   5.853
    9DPPC    O7  407   2.981   3.035   5.758
    9DPPC    P8  408   2.895   3.082   5.630
    9DPPC    O9  409   2.966   3.202   5.584
    9DPPC   O10  410   2.756   3.089   5.681
    9DPPC   O11  411   2.897   2.952   5.535
    9DPPC   C12  412   3.020   2.977   5.466
    9DPPC   C13  413   3.082   2.842   5.426
    9DPPC   O14  414   3.208   2.860   5.362
    9DPPC   C15  415   3.293   2.754   5.357
    9DPPC   O16  416   3.304   2.683   5.457
    9DPPC   C17  417   3.406   2.768   5.255
    9DPPC   C18  418   3.370   2.728   5.112
    9DPPC   C19  419   3.493   2.719   5.022
    9DPPC   C20  420   3.456   2.716   4.874
    9DPPC   C21  421   3.578   2.690   4.785
    9DPPC   C22  422   3.552   2.661   4.637
    9DPPC   C23  423   3.685   2.652   4.562
    9DPPC   C24  424   3.677   2.575   4.430
    9DPPC   C25  425   3.815   2.562   4.366
    9DPPC   C26  426   3.795   2.444   4.271
    9DPPC   C27  427   3.912   2.435   4.173
    9DPPC   C28  428   3.898   2.319   4.074
    9DPPC   C29  429   4.027   2.322   3.991
    9DPPC   C30  430   4.154   2.284   4.067
    9DPPC   C31  431   4.258   2.265   3.956
    9DPPC   C32  432   2.973   2.781   5.338
    9DPPC   O33  433   2.947   2.857   5.219
    9DPPC   C34  434   2.851   2.813   5.134
    9DPPC   O35  435   2.765   2.726   5.153
    9DPPC   C36  436   2.862   2.891   5.003
    9DPPC   C37  437   2.845   2.795   4.885
    9DPPC   C38  438   2.852   2.875   4.755
    9DPPC   C39  439   2.747   2.986   4.763
    9DPPC   C40  440   2.750   3.069   4.635
    9DPPC   C41  441   2.630   3.163   4.636
    9DPPC   C42  442   2.617   3.252   4.512
    9DPPC   C43  443   2.506   3.356   4.528
    9DPPC   C44  444   2.487   3.449   4.408
    9DPPC   C45  445   2.388   3.402   4.301
    9DPPC   C46  446   2.245   3.381   4.352
    9DPPC   C47  447   2.164   3.321   4.237
    9DPPC   C48  448   2.221   3.185   4.197
    9DPPC   C49  449   2.109   3.080   4.196
    9DPPC   C50  450   2.158   2.942   4.154
   10DPPC    C1  451   8.361   6.256   5.412
   10DPPC    C2  452   8.470   6.449   5.355
   10DPPC    C3  453   8.468   6.278   5.198
   10DPPC    N4  454   8.383   6.346   5.297
   10DPPC    C5  455   8.263   6.414   5.246
   10DPPC    C6  456   8.154   6.330   5.178
   10DPPC    O7  457   8.043   6.409   5.134
   10DPPC    P8  458   7.949   6.298   5.065
   10DPPC    O9  459   7.857   6.388   4.991
   10DPPC   O10  460   7.909   6.185   5.152
   10DPPC   O11  461   8.057   6.240   4.961
   10DPPC   C12  462   8.052   6.324   4.845
   10DPPC   C13  463   8.180   6.307   4.763
   10DPPC   O14  464   8.209   6.426   4.688
   10DPPC   C15  465   8.331   6.445   4.631
   10DPPC   O16  466   8.427   6.386   4.679
   10DPPC   C17  467   8.336   6.534   4.507
   10DPPC   C18  468   8.346   6.444   4.384
   10DPPC   C19  469   8.472   6.359   4.370
   10DPPC   C20  470   8.442   6.266   4.252
   10DPPC   C21  471   8.390   6.132   4.305
   10DPPC   C22  472   8.388   6.043   4.180
   10DPPC   C23  473   8.529   6.039   4.120
   10DPPC   C24  474   8.522   5.985   3.977
   10DPPC   C25  475   8.657   5.999   3.909
   10DPPC   C26  476   8.659   5.918   3.779
   10DPPC   C27  477   8.796   5.919   3.710
   10DPPC   C28  478   8.901   5.862   3.805
   10DPPC   C29  479   9.042   5.887   3.752
   10DPPC   C30  480   9.094   6.030   3.770
   10DPPC   C31  481   9.240   6.040   3.725
   10DPPC   C32  482   8.181   6.170   4.695
   10DPPC   O33  483   8.062   6.149   4.617
   10DPPC   C34  484   8.062   6.038   4.539
   10DPPC   O35  485   8.164   5.972   4.521
   10DPPC   C36  486   7.957   6.045   4.428
   10DPPC   C37  487   7.949   5.935   4.322
   10DPPC   C38  488   7.833   5.968   4.228
   10DPPC   C39  489   7.835   5.868   4.112
   10DPPC   C40  490   7.755   5.939   4.001
   10DPPC   C41  491   7.760   5.853   3.875
   10DPPC   C42  492   7.662   5.933   3.790
   10DPPC   C43  493   7.651   5.871   3.650
   10DPPC   C44  494   7.707   5.960   3.540
   10DPPC   C45  495   7.687   5.888   3.407
   10DPPC   C46  496   7.734   5.742   3.412
   10DPPC   C47  497   7.715   5.680   3.274
   10DPPC   C48  498   7.811   5.729   3.166
   10DPPC   C49  499   7.770   5.674   3.029
   10DPPC   C50  500   7.881   5.685   2.924
   11DPPC    C1  501   6.406   7.656   5.499
   11DPPC    C2  502   6.488   7.733   5.705
   11DPPC    C3  503   6.526   7.500   5.643
   11DPPC    N4  504   6.516   7.639   5.596
   11DPPC    C5  505   6.632   7.665   5.510
   11DPPC    C6  506   6.716   7.792   5.528
   11DPPC    O7  507   6.645   7.895   5.459
   11DPPC    P8  508   6.702   8.035   5.515
   11DPPC    O9  509   6.752   8.011   5.652
   11DPPC   O10  510   6.597   8.139   5.501
   11DPPC   O11  511   6.816   8.046   5.403
   11DPPC   C12  512   6.757   8.098   5.283
   11DPPC   C13  513   6.860   8.102   5.170
   11DPPC   O14  514   6.837   8.201   5.070
   11DPPC   C15  515   6.949   8.240   5.003
   11DPPC   O16  516   7.057   8.241   5.063
   11DPPC   C17  517   6.919   8.339   4.891
   11DPPC   C18  518   6.792   8.304   4.813
   11DPPC   C19  519   6.775   8.393   4.689
   11DPPC   C20  520   6.780   8.536   4.742
   11DPPC   C21  521   6.814   8.627   4.624
   11DPPC   C22  522   6.778   8.775   4.644
   11DPPC   C23  523   6.796   8.849   4.512
   11DPPC   C24  524   6.756   8.997   4.522
   11DPPC   C25  525   6.742   9.068   4.387
   11DPPC   C26  526   6.646   9.187   4.385
   11DPPC   C27  527   6.509   9.120   4.371
   11DPPC   C28  528   6.473   9.036   4.248
   11DPPC   C29  529   6.329   8.984   4.253
   11DPPC   C30  530   6.305   8.896   4.130
   11DPPC   C31  531   6.159   8.851   4.124
   11DPPC   C32  532   6.886   7.953   5.147
   11DPPC   O33  533   6.763   7.897   5.101
   11DPPC   C34  534   6.775   7.769   5.058
   11DPPC   O35  535   6.867   7.697   5.096
   11DPPC   C36  536   6.664   7.724   4.962
   11DPPC   C37  537   6.669   7.815   4.838
   11DPPC   C38  538   6.551   7.797   4.744
   11DPPC   C39  539   6.574   7.897   4.630
   11DPPC   C40  540   6.719   7.930   4.591
   11DPPC   C41  541   6.711   8.033   4.479
   11DPPC   C42  542   6.852   8.079   4.440
   11DPPC   C43  543   6.894   7.982   4.329
   11DPPC   C44  544   7.038   8.028   4.302
   11DPPC   C45  545   7.036   8.173   4.254
   11DPPC   C46  546   6.961   8.177   4.121
   11DPPC   C47  547   6.973   8.323   4.075
   11DPPC   C48  548   7.118   8.350   4.034
   11DPPC   C49  549   7.121   8.501   4.013
   11DPPC   C50  550   7.262   8.561   4.006
   12DPPC    C1  551   9.289   1.831   5.004
   12DPPC    C2  552   9.504   1.906   5.007
   12DPPC    C3  553   9.398   1.861   5.213
   12DPPC    N4  554   9.416   1.811   5.076
   12DPPC    C5  555   9.465   1.673   5.056
   12DPPC    C6  556   9.401   1.549   5.117
   12DPPC    O7  557   9.424   1.442   5.024
   12DPPC    P8  558   9.371   1.309   5.098
   12DPPC    O9  559   9.377   1.316   5.246
   12DPPC   O10  560   9.424   1.193   5.024
   12DPPC   O11  561   9.214   1.337   5.071
   12DPPC   C12  562   9.177   1.268   4.951
   12DPPC   C13  563   9.028   1.284   4.920
   12DPPC   O14  564   8.978   1.204   4.812
   12DPPC   C15  565   8.949   1.073   4.835
   12DPPC   O16  566   8.944   1.030   4.950
   12DPPC   C17  567   8.885   1.004   4.714
   12DPPC   C18  568   8.842   1.081   4.590
   12DPPC   C19  569   8.735   1.188   4.613
   12DPPC   C20  570   8.714   1.255   4.477
   12DPPC   C21  571   8.613   1.370   4.480
   12DPPC   C22  572   8.591   1.448   4.350
   12DPPC   C23  573   8.528   1.359   4.242
   12DPPC   C24  574   8.473   1.445   4.128
   12DPPC   C25  575   8.363   1.540   4.178
   12DPPC   C26  576   8.333   1.632   4.059
   12DPPC   C27  577   8.245   1.585   3.944
   12DPPC   C28  578   8.101   1.543   3.973
   12DPPC   C29  579   8.022   1.479   3.859
   12DPPC   C30  580   7.881   1.444   3.907
   12DPPC   C31  581   7.892   1.342   4.021
   12DPPC   C32  582   8.999   1.431   4.892
   12DPPC   O33  583   9.075   1.466   4.776
   12DPPC   C34  584   9.057   1.592   4.727
   12DPPC   O35  585   9.005   1.683   4.791
   12DPPC   C36  586   9.148   1.631   4.610
   12DPPC   C37  587   9.095   1.580   4.475
   12DPPC   C38  588   8.977   1.660   4.419
   12DPPC   C39  589   8.972   1.629   4.270
   12DPPC   C40  590   8.856   1.678   4.182
   12DPPC   C41  591   8.867   1.660   4.030
   12DPPC   C42  592   8.771   1.748   3.950
   12DPPC   C43  593   8.763   1.693   3.808
   12DPPC   C44  594   8.652   1.768   3.733
   12DPPC   C45  595   8.688   1.911   3.694
   12DPPC   C46  596   8.575   1.992   3.631
   12DPPC   C47  597   8.448   2.005   3.716
   12DPPC   C48  598   8.368   2.130   3.680
   12DPPC   C49  599   8.234   2.114   3.752
   12DPPC   C50  600   8.161   1.987   3.706
   13DPPC    C1  601   1.596   1.646   5.051
   13DPPC    C2  602   1.728   1.506   5.206
   13DPPC    C3  603   1.565   1.625   5.297
   13DPPC    N4  604   1.595   1.559   5.169
   13DPPC    C5  605   1.516   1.436   5.156
   13DPPC    C6  606   1.366   1.452   5.180
   13DPPC    O7  607   1.271   1.362   5.123
   13DPPC    P8  608   1.123   1.419   5.152
   13DPPC    O9  609   1.114   1.442   5.298
   13DPPC   O10  610   1.033   1.321   5.087
   13DPPC   O11  611   1.126   1.566   5.087
   13DPPC   C12  612   1.032   1.573   4.980
   13DPPC   C13  613   1.031   1.712   4.917
   13DPPC   O14  614   0.944   1.732   4.805
   13DPPC   C15  615   0.810   1.731   4.827
   13DPPC   O16  616   0.766   1.717   4.941
   13DPPC   C17  617   0.719   1.731   4.703
   13DPPC   C18  618   0.701   1.591   4.646
   13DPPC   C19  619   0.608   1.609   4.526
   13DPPC   C20  620   0.558   1.476   4.470
   13DPPC   C21  621   0.448   1.497   4.366
   13DPPC   C22  622   0.305   1.510   4.419
   13DPPC   C23  623   0.201   1.515   4.307
   13DPPC   C24  624   0.062   1.484   4.364
   13DPPC   C25  625  -0.032   1.510   4.246
   13DPPC   C26  626  -0.014   1.650   4.187
   13DPPC   C27  627  -0.106   1.648   4.064
   13DPPC   C28  628  -0.093   1.772   3.977
   13DPPC   C29  629  -0.227   1.795   3.906
   13DPPC   C30  630  -0.199   1.894   3.793
   13DPPC   C31  631  -0.154   2.031   3.843
   13DPPC   C32  632   1.179   1.730   4.881
   13DPPC   O33  633   1.237   1.622   4.808
   13DPPC   C34  634   1.349   1.657   4.739
   13DPPC   O35  635   1.424   1.744   4.781
   13DPPC   C36  636   1.387   1.562   4.624
   13DPPC   C37  637   1.313   1.602   4.496
   13DPPC   C38  638   1.182   1.524   4.483
   13DPPC   C39  639   1.107   1.556   4.354
   13DPPC   C40  640   0.975   1.478   4.346
   13DPPC   C41  641   0.896   1.516   4.221
   13DPPC   C42  642   0.776   1.421   4.216
   13DPPC   C43  643   0.742   1.409   4.068
   13DPPC   C44  644   0.619   1.319   4.056
   13DPPC   C45  645   0.646   1.180   4.114
   13DPPC   C46  646   0.723   1.090   4.017
   13DPPC   C47  647   0.741   0.955   4.088
   13DPPC   C48  648   0.796   0.850   3.992
   13DPPC   C49  649   0.802   0.705   4.042
   13DPPC   C50  650   0.878   0.692   4.174
   14DPPC    C1  651   8.468   3.425   5.556
   14DPPC    C2  652   8.431   3.593   5.725
   14DPPC    C3  653   8.644   3.520   5.668
   14DPPC    N4  654   8.513   3.554   5.610
   14DPPC    C5  655   8.514   3.669   5.518
   14DPPC    C6  656   8.585   3.656   5.384
   14DPPC    O7  657   8.723   3.620   5.398
   14DPPC    P8  658   8.767   3.527   5.274
   14DPPC    O9  659   8.663   3.421   5.274
   14DPPC   O10  660   8.911   3.494   5.275
   14DPPC   O11  661   8.752   3.649   5.170
   14DPPC   C12  662   8.680   3.601   5.055
   14DPPC   C13  663   8.554   3.685   5.034
   14DPPC   O14  664   8.470   3.625   4.934
   14DPPC   C15  665   8.371   3.544   4.979
   14DPPC   O16  666   8.348   3.536   5.100
   14DPPC   C17  667   8.296   3.467   4.871
   14DPPC   C18  668   8.387   3.361   4.809
   14DPPC   C19  669   8.336   3.294   4.681
   14DPPC   C20  670   8.332   3.390   4.562
   14DPPC   C21  671   8.280   3.336   4.429
   14DPPC   C22  672   8.256   3.447   4.327
   14DPPC   C23  673   8.384   3.527   4.301
   14DPPC   C24  674   8.359   3.636   4.196
   14DPPC   C25  675   8.305   3.569   4.070
   14DPPC   C26  676   8.312   3.674   3.959
   14DPPC   C27  677   8.282   3.621   3.819
   14DPPC   C28  678   8.268   3.726   3.707
   14DPPC   C29  679   8.167   3.833   3.747
   14DPPC   C30  680   8.138   3.904   3.615
   14DPPC   C31  681   8.273   3.954   3.563
   14DPPC   C32  682   8.608   3.817   4.980
   14DPPC   O33  683   8.720   3.812   4.891
   14DPPC   C34  684   8.758   3.936   4.850
   14DPPC   O35  685   8.709   4.035   4.904
   14DPPC   C36  686   8.879   3.935   4.757
   14DPPC   C37  687   8.885   3.819   4.657
   14DPPC   C38  688   8.789   3.855   4.544
   14DPPC   C39  689   8.829   3.774   4.421
   14DPPC   C40  690   8.807   3.623   4.434
   14DPPC   C41  691   8.876   3.553   4.316
   14DPPC   C42  692   8.824   3.410   4.295
   14DPPC   C43  693   8.873   3.347   4.165
   14DPPC   C44  694   8.783   3.238   4.106
   14DPPC   C45  695   8.853   3.109   4.064
   14DPPC   C46  696   8.757   3.032   3.973
   14DPPC   C47  697   8.828   2.900   3.943
   14DPPC   C48  698   8.872   2.893   3.797
   14DPPC   C49  699   8.952   2.765   3.767
   14DPPC   C50  700   8.979   2.734   3.620
   15DPPC    C1  701   5.264   8.182   4.988
   15DPPC    C2  702   5.437   8.295   4.862
   15DPPC    C3  703   5.208   8.375   4.906
   15DPPC    N4  704   5.328   8.311   4.960
   15DPPC    C5  705   5.356   8.371   5.091
   15DPPC    C6  706   5.435   8.286   5.189
   15DPPC    O7  707   5.574   8.276   5.159
   15DPPC    P8  708   5.639   8.142   5.219
   15DPPC    O9  709   5.548   8.036   5.171
   15DPPC   O10  710   5.640   8.185   5.361
   15DPPC   O11  711   5.779   8.155   5.140
   15DPPC   C12  712   5.733   8.141   5.006
   15DPPC   C13  713   5.843   8.197   4.915
   15DPPC   O14  714   5.806   8.214   4.777
   15DPPC   C15  715   5.890   8.278   4.691
   15DPPC   O16  716   5.975   8.350   4.742
   15DPPC   C17  717   5.829   8.306   4.553
   15DPPC   C18  718   5.831   8.455   4.519
   15DPPC   C19  719   5.758   8.536   4.627
   15DPPC   C20  720   5.762   8.685   4.591
   15DPPC   C21  721   5.908   8.729   4.575
   15DPPC   C22  722   5.924   8.876   4.535
   15DPPC   C23  723   5.857   8.897   4.399
   15DPPC   C24  724   5.890   9.041   4.360
   15DPPC   C25  725   5.821   9.073   4.227
   15DPPC   C26  726   5.669   9.074   4.241
   15DPPC   C27  727   5.620   9.116   4.102
   15DPPC   C28  728   5.471   9.149   4.107
   15DPPC   C29  729   5.437   9.228   3.980
   15DPPC   C30  730   5.291   9.267   3.960
   15DPPC   C31  731   5.248   9.352   4.079
   15DPPC   C32  732   5.967   8.111   4.938
   15DPPC   O33  733   5.974   7.991   4.861
   15DPPC   C34  734   6.078   7.906   4.884
   15DPPC   O35  735   6.155   7.930   4.977
   15DPPC   C36  736   6.079   7.781   4.797
   15DPPC   C37  737   6.043   7.652   4.872
   15DPPC   C38  738   6.027   7.530   4.782
   15DPPC   C39  739   5.943   7.567   4.659
   15DPPC   C40  740   5.893   7.449   4.576
   15DPPC   C41  741   6.001   7.346   4.544
   15DPPC   C42  742   5.922   7.235   4.475
   15DPPC   C43  743   6.003   7.153   4.375
   15DPPC   C44  744   5.907   7.056   4.306
   15DPPC   C45  745   5.991   6.960   4.221
   15DPPC   C46  746   6.032   7.037   4.096
   15DPPC   C47  747   5.921   7.098   4.010
   15DPPC   C48  748   5.976   7.168   3.886
   15DPPC   C49  749   5.867   7.233   3.801
   15DPPC   C50  750   5.808   7.349   3.880
   16DPPC    C1  751   9.219   0.907   5.057
   16DPPC    C2  752   9.165   0.910   5.297
   16DPPC    C3  753   9.044   0.767   5.134
   16DPPC    N4  754   9.170   0.831   5.173
   16DPPC    C5  755   9.261   0.717   5.189
   16DPPC    C6  756   9.242   0.625   5.311
   16DPPC    O7  757   9.303   0.496   5.309
   16DPPC    P8  758   9.202   0.389   5.374
   16DPPC    O9  759   9.144   0.471   5.483
   16DPPC   O10  760   9.263   0.258   5.404
   16DPPC   O11  761   9.112   0.366   5.243
   16DPPC   C12  762   9.193   0.298   5.147
   16DPPC   C13  763   9.159   0.338   5.003
   16DPPC   O14  764   9.221   0.459   4.958
   16DPPC   C15  765   9.345   0.447   4.902
   16DPPC   O16  766   9.420   0.360   4.944
   16DPPC   C17  767   9.406   0.558   4.816
   16DPPC   C18  768   9.327   0.688   4.801
   16DPPC   C19  769   9.363   0.760   4.670
   16DPPC   C20  770   9.280   0.700   4.557
   16DPPC   C21  771   9.133   0.717   4.597
   16DPPC   C22  772   9.031   0.659   4.499
   16DPPC   C23  773   9.003   0.745   4.375
   16DPPC   C24  774   8.898   0.669   4.294
   16DPPC   C25  775   8.821   0.727   4.175
   16DPPC   C26  776   8.759   0.616   4.090
   16DPPC   C27  777   8.699   0.683   3.965
   16DPPC   C28  778   8.570   0.605   3.940
   16DPPC   C29  779   8.488   0.634   3.814
   16DPPC   C30  780   8.574   0.582   3.698
   16DPPC   C31  781   8.519   0.608   3.557
   16DPPC   C32  782   9.006   0.345   5.000
   16DPPC   O33  783   8.947   0.215   5.003
   16DPPC   C34  784   8.814   0.208   4.976
   16DPPC   O35  785   8.741   0.283   5.041
   16DPPC   C36  786   8.767   0.066   4.942
   16DPPC   C37  787   8.716   0.082   4.799
   16DPPC   C38  788   8.741  -0.050   4.726
   16DPPC   C39  789   8.721  -0.043   4.574
   16DPPC   C40  790   8.786  -0.161   4.501
   16DPPC   C41  791   8.767  -0.156   4.349
   16DPPC   C42  792   8.623  -0.189   4.308
   16DPPC   C43  793   8.626  -0.219   4.158
   16DPPC   C44  794   8.497  -0.300   4.143
   16DPPC   C45  795   8.457  -0.326   3.997
   16DPPC   C46  796   8.316  -0.381   4.019
   16DPPC   C47  797   8.238  -0.426   3.895
   16DPPC   C48  798   8.108  -0.474   3.961
   16DPPC   C49  799   8.013  -0.548   3.867
   16DPPC   C50  800   7.894  -0.610   3.940
   17DPPC    C1  801   1.569   0.612   5.342
   17DPPC    C2  802   1.628   0.615   5.119
   17DPPC    C3  803   1.492   0.448   5.192
   17DPPC    N4  804   1.513   0.592   5.207
   17DPPC    C5  805   1.394   0.671   5.173
   17DPPC    C6  806   1.422   0.821   5.162
   17DPPC    O7  807   1.304   0.901   5.159
   17DPPC    P8  808   1.323   1.061   5.155
   17DPPC    O9  809   1.468   1.076   5.177
   17DPPC   O10  810   1.219   1.112   5.247
   17DPPC   O11  811   1.286   1.074   4.999
   17DPPC   C12  812   1.407   1.131   4.948
   17DPPC   C13  813   1.382   1.170   4.802
   17DPPC   O14  814   1.489   1.240   4.737
   17DPPC   C15  815   1.576   1.159   4.671
   17DPPC   O16  816   1.540   1.045   4.643
   17DPPC   C17  817   1.705   1.221   4.615
   17DPPC   C18  818   1.727   1.355   4.686
   17DPPC   C19  819   1.813   1.448   4.600
   17DPPC   C20  820   1.931   1.370   4.542
   17DPPC   C21  821   2.011   1.471   4.460
   17DPPC   C22  822   2.144   1.406   4.422
   17DPPC   C23  823   2.231   1.514   4.358
   17DPPC   C24  824   2.365   1.457   4.311
   17DPPC   C25  825   2.336   1.359   4.197
   17DPPC   C26  826   2.450   1.279   4.134
   17DPPC   C27  827   2.393   1.203   4.014
   17DPPC   C28  828   2.493   1.094   3.975
   17DPPC   C29  829   2.438   1.008   3.861
   17DPPC   C30  830   2.435   1.079   3.725
   17DPPC   C31  831   2.403   0.978   3.615
   17DPPC   C32  832   1.254   1.254   4.800
   17DPPC   O33  833   1.169   1.251   4.684
   17DPPC   C34  834   1.100   1.142   4.642
   17DPPC   O35  835   1.125   1.031   4.689
   17DPPC   C36  836   1.040   1.148   4.502
   17DPPC   C37  837   1.130   1.080   4.399
   17DPPC   C38  838   1.042   1.012   4.295
   17DPPC   C39  839   1.119   0.967   4.170
   17DPPC   C40  840   1.152   1.094   4.092
   17DPPC   C41  841   1.210   1.057   3.955
   17DPPC   C42  842   1.287   1.175   3.895
   17DPPC   C43  843   1.352   1.164   3.757
   17DPPC   C44  844   1.421   1.293   3.712
   17DPPC   C45  845   1.472   1.279   3.568
   17DPPC   C46  846   1.519   1.415   3.514
   17DPPC   C47  847   1.645   1.460   3.587
   17DPPC   C48  848   1.697   1.599   3.549
   17DPPC   C49  849   1.817   1.656   3.625
   17DPPC   C50  850   1.830   1.806   3.596
   18DPPC    C1  851   1.891   7.217   5.469
   18DPPC    C2  852   1.961   7.016   5.544
   18DPPC    C3  853   1.748   7.029   5.428
   18DPPC    N4  854   1.888   7.075   5.431
   18DPPC    C5  855   1.954   7.070   5.300
   18DPPC    C6  856   1.983   6.927   5.254
   18DPPC    O7  857   2.053   6.924   5.130
   18DPPC    P8  858   2.052   6.775   5.068
   18DPPC    O9  859   1.914   6.732   5.099
   18DPPC   O10  860   2.166   6.694   5.116
   18DPPC   O11  861   2.063   6.799   4.909
   18DPPC   C12  862   2.106   6.681   4.842
   18DPPC   C13  863   2.129   6.692   4.691
   18DPPC   O14  864   2.132   6.568   4.619
   18DPPC   C15  865   2.015   6.506   4.589
   18DPPC   O16  866   1.912   6.508   4.656
   18DPPC   C17  867   2.024   6.384   4.498
   18DPPC   C18  868   1.902   6.381   4.405
   18DPPC   C19  869   1.945   6.320   4.271
   18DPPC   C20  870   1.822   6.302   4.182
   18DPPC   C21  871   1.851   6.216   4.058
   18DPPC   C22  872   1.720   6.205   3.981
   18DPPC   C23  873   1.741   6.112   3.861
   18DPPC   C24  874   1.612   6.112   3.779
   18DPPC   C25  875   1.480   6.082   3.852
   18DPPC   C26  876   1.462   5.939   3.903
   18DPPC   C27  877   1.339   5.948   3.994
   18DPPC   C28  878   1.213   5.985   3.916
   18DPPC   C29  879   1.165   5.881   3.815
   18DPPC   C30  880   1.035   5.921   3.746
   18DPPC   C31  881   1.004   5.801   3.655
   18DPPC   C32  882   2.246   6.789   4.675
   18DPPC   O33  883   2.278   6.819   4.538
   18DPPC   C34  884   2.408   6.853   4.517
   18DPPC   O35  885   2.485   6.857   4.612
   18DPPC   C36  886   2.432   6.883   4.368
   18DPPC   C37  887   2.485   6.759   4.295
   18DPPC   C38  888   2.507   6.800   4.149
   18DPPC   C39  889   2.587   6.702   4.062
   18DPPC   C40  890   2.731   6.679   4.106
   18DPPC   C41  891   2.797   6.585   4.005
   18DPPC   C42  892   2.882   6.475   4.068
   18DPPC   C43  893   2.949   6.395   3.956
   18DPPC   C44  894   2.996   6.258   4.004
   18DPPC   C45  895   3.110   6.279   4.103
   18DPPC   C46  896   3.156   6.165   4.194
   18DPPC   C47  897   3.263   6.213   4.292
   18DPPC   C48  898   3.202   6.301   4.402
   18DPPC   C49  899   3.318   6.340   4.494
   18DPPC   C50  900   3.278   6.420   4.618
   19DPPC    C1  901   2.618   5.762   5.604
   19DPPC    C2  902   2.405   5.814   5.546
   19DPPC    C3  903   2.576   5.822   5.375
   19DPPC    N4  904   2.524   5.749   5.492
   19DPPC    C5  905   2.485   5.612   5.455
   19DPPC    C6  906   2.590   5.508   5.417
   19DPPC    O7  907   2.663   5.530   5.296
   19DPPC    P8  908   2.793   5.435   5.294
   19DPPC    O9  909   2.832   5.431   5.437
   19DPPC   O10  910   2.874   5.496   5.186
   19DPPC   O11  911   2.726   5.308   5.222
   19DPPC   C12  912   2.764   5.291   5.085
   19DPPC   C13  913   2.682   5.175   5.028
   19DPPC   O14  914   2.757   5.094   4.937
   19DPPC   C15  915   2.722   4.962   4.938
   19DPPC   O16  916   2.646   4.908   5.018
   19DPPC   C17  917   2.796   4.877   4.834
   19DPPC   C18  918   2.929   4.815   4.878
   19DPPC   C19  919   2.990   4.747   4.756
   19DPPC   C20  920   2.909   4.621   4.727
   19DPPC   C21  921   2.973   4.544   4.611
   19DPPC   C22  922   2.891   4.419   4.577
   19DPPC   C23  923   2.958   4.362   4.452
   19DPPC   C24  924   3.101   4.310   4.466
   19DPPC   C25  925   3.160   4.270   4.331
   19DPPC   C26  926   3.129   4.379   4.228
   19DPPC   C27  927   3.192   4.335   4.095
   19DPPC   C28  928   3.140   4.424   3.983
   19DPPC   C29  929   3.208   4.390   3.850
   19DPPC   C30  930   3.130   4.439   3.729
   19DPPC   C31  931   3.125   4.591   3.742
   19DPPC   C32  932   2.542   5.227   4.993
   19DPPC   O33  933   2.548   5.326   4.891
   19DPPC   C34  934   2.438   5.356   4.816
   19DPPC   O35  935   2.332   5.298   4.839
   19DPPC   C36  936   2.448   5.460   4.704
   19DPPC   C37  937   2.340   5.427   4.601
   19DPPC   C38  938   2.374   5.473   4.459
   19DPPC   C39  939   2.267   5.469   4.350
   19DPPC   C40  940   2.305   5.553   4.228
   19DPPC   C41  941   2.207   5.576   4.113
   19DPPC   C42  942   2.262   5.678   4.013
   19DPPC   C43  943   2.408   5.638   3.989
   19DPPC   C44  944   2.471   5.728   3.883
   19DPPC   C45  945   2.615   5.677   3.869
   19DPPC   C46  946   2.675   5.737   3.742
   19DPPC   C47  947   2.826   5.711   3.731
   19DPPC   C48  948   2.895   5.765   3.856
   19DPPC   C49  949   3.048   5.770   3.840
   19DPPC   C50  950   3.123   5.814   3.966
   20DPPC    C1  951   6.768   5.505   5.027
   20DPPC    C2  952   6.585   5.463   4.886
   20DPPC    C3  953   6.570   5.374   5.095
   20DPPC    N4  954   6.622   5.492   5.025
   20DPPC    C5  955   6.543   5.607   5.074
   20DPPC    C6  956   6.614   5.727   5.135
   20DPPC    O7  957   6.690   5.811   5.047
   20DPPC    P8  958   6.774   5.920   5.128
   20DPPC    O9  959   6.852   5.823   5.208
   20DPPC   O10  960   6.681   6.019   5.187
   20DPPC   O11  961   6.872   5.999   5.027
   20DPPC   C12  962   6.969   5.902   4.988
   20DPPC   C13  963   7.097   5.950   4.918
   20DPPC   O14  964   7.085   6.036   4.804
   20DPPC   C15  965   7.086   6.172   4.792
   20DPPC   O16  966   7.126   6.236   4.888
   20DPPC   C17  967   7.062   6.237   4.655
   20DPPC   C18  968   7.137   6.366   4.619
   20DPPC   C19  969   7.082   6.407   4.482
   20DPPC   C20  970   6.931   6.430   4.495
   20DPPC   C21  971   6.880   6.474   4.358
   20DPPC   C22  972   6.955   6.597   4.306
   20DPPC   C23  973   6.945   6.615   4.154
   20DPPC   C24  974   7.031   6.725   4.092
   20DPPC   C25  975   7.038   6.699   3.941
   20DPPC   C26  976   7.119   6.794   3.852
   20DPPC   C27  977   7.266   6.782   3.894
   20DPPC   C28  978   7.355   6.874   3.812
   20DPPC   C29  979   7.504   6.839   3.813
   20DPPC   C30  980   7.593   6.924   3.722
   20DPPC   C31  981   7.733   6.862   3.722
   20DPPC   C32  982   7.183   5.826   4.896
   20DPPC   O33  983   7.108   5.715   4.848
   20DPPC   C34  984   7.166   5.592   4.848
   20DPPC   O35  985   7.266   5.561   4.913
   20DPPC   C36  986   7.110   5.504   4.736
   20DPPC   C37  987   7.225   5.434   4.664
   20DPPC   C38  988   7.170   5.374   4.534
   20DPPC   C39  989   7.271   5.297   4.448
   20DPPC   C40  990   7.227   5.278   4.303
   20DPPC   C41  991   7.331   5.216   4.209
   20DPPC   C42  992   7.251   5.206   4.079
   20DPPC   C43  993   7.342   5.150   3.969
   20DPPC   C44  994   7.260   5.093   3.853
   20DPPC   C45  995   7.349   5.020   3.753
   20DPPC   C46  996   7.262   4.972   3.637
   20DPPC   C47  997   7.192   5.084   3.560
   20DPPC   C48  998   7.096   5.023   3.458
   20DPPC   C49  999   7.003   5.119   3.384
   20DPPC   C50 1000   7.084   5.207   3.288
   21DPPC    C1 1001   3.223   2.262   6.170
   21DPPC    C2 1002   3.388   2.211   6.003
   21DPPC    C3 1003   3.433   2.156   6.223
   21DPPC    N4 1004   3.323   2.164   6.126
   21DPPC    C5 1005   3.273   2.026   6.116
   21DPPC    C6 1006   3.136   2.000   6.051
   21DPPC    O7 1007   3.132   2.013   5.909
   21DPPC    P8 1008   2.985   2.049   5.852
   21DPPC    O9 1009   2.916   2.140   5.945
   21DPPC   O10 1010   2.944   1.914   5.808
   21DPPC   O11 1011   3.032   2.122   5.716
   21DPPC   C12 1012   3.041   2.018   5.619
   21DPPC   C13 1013   3.039   2.076   5.477
   21DPPC   O14 1014   3.027   1.982   5.369
   21DPPC   C15 1015   2.901   1.946   5.336
   21DPPC   O16 1016   2.811   1.938   5.421
   21DPPC   C17 1017   2.896   1.880   5.198
   21DPPC   C18 1018   2.992   1.957   5.106
   21DPPC   C19 1019   2.961   1.924   4.960
   21DPPC   C20 1020   3.033   2.025   4.871
   21DPPC   C21 1021   2.971   2.005   4.733
   21DPPC   C22 1022   3.029   2.104   4.631
   21DPPC   C23 1023   2.975   2.078   4.490
   21DPPC   C24 1024   3.059   2.140   4.379
   21DPPC   C25 1025   2.972   2.145   4.253
   21DPPC   C26 1026   3.047   2.186   4.126
   21DPPC   C27 1027   2.966   2.174   3.997
   21DPPC   C28 1028   3.055   2.208   3.878
   21DPPC   C29 1029   2.987   2.193   3.742
   21DPPC   C30 1030   3.098   2.156   3.644
   21DPPC   C31 1031   3.064   2.164   3.495
   21DPPC   C32 1032   3.167   2.159   5.472
   21DPPC   O33 1033   3.196   2.242   5.359
   21DPPC   C34 1034   3.128   2.358   5.337
   21DPPC   O35 1035   3.032   2.393   5.406
   21DPPC   C36 1036   3.168   2.434   5.210
   21DPPC   C37 1037   3.086   2.399   5.086
   21DPPC   C38 1038   3.133   2.486   4.970
   21DPPC   C39 1039   3.050   2.449   4.846
   21DPPC   C40 1040   3.081   2.532   4.722
   21DPPC   C41 1041   2.995   2.491   4.602
   21DPPC   C42 1042   3.048   2.549   4.471
   21DPPC   C43 1043   3.200   2.546   4.452
   21DPPC   C44 1044   3.254   2.631   4.337
   21DPPC   C45 1045   3.207   2.578   4.201
   21DPPC   C46 1046   3.237   2.670   4.082
   21DPPC   C47 1047   3.194   2.610   3.949
   21DPPC   C48 1048   3.248   2.697   3.835
   21DPPC   C49 1049   3.177   2.646   3.710
   21DPPC   C50 1050   3.185   2.744   3.593
   22DPPC    C1 1051   1.644   2.057   5.553
   22DPPC    C2 1052   1.828   2.151   5.433
   22DPPC    C3 1053   1.863   2.046   5.652
   22DPPC    N4 1054   1.787   2.044   5.525
   22DPPC    C5 1055   1.803   1.918   5.452
   22DPPC    C6 1056   1.930   1.886   5.372
   22DPPC    O7 1057   1.918   1.767   5.294
   22DPPC    P8 1058   2.065   1.731   5.238
   22DPPC    O9 1059   2.054   1.607   5.158
   22DPPC   O10 1060   2.159   1.743   5.351
   22DPPC   O11 1061   2.069   1.862   5.144
   22DPPC   C12 1062   2.015   1.840   5.013
   22DPPC   C13 1063   1.997   1.975   4.945
   22DPPC   O14 1064   1.937   1.965   4.814
   22DPPC   C15 1065   1.803   1.948   4.807
   22DPPC   O16 1066   1.735   1.934   4.909
   22DPPC   C17 1067   1.743   1.952   4.666
   22DPPC   C18 1068   1.804   1.847   4.574
   22DPPC   C19 1069   1.739   1.851   4.436
   22DPPC   C20 1070   1.781   1.738   4.342
   22DPPC   C21 1071   1.678   1.720   4.230
   22DPPC   C22 1072   1.699   1.591   4.149
   22DPPC   C23 1073   1.570   1.560   4.073
   22DPPC   C24 1074   1.525   1.669   3.975
   22DPPC   C25 1075   1.408   1.597   3.907
   22DPPC   C26 1076   1.358   1.697   3.803
   22DPPC   C27 1077   1.224   1.651   3.745
   22DPPC   C28 1078   1.122   1.621   3.854
   22DPPC   C29 1079   0.995   1.562   3.792
   22DPPC   C30 1080   1.020   1.431   3.717
   22DPPC   C31 1081   0.899   1.368   3.648
   22DPPC   C32 1082   2.129   2.053   4.951
   22DPPC   O33 1083   2.245   1.979   4.915
   22DPPC   C34 1084   2.356   2.056   4.905
   22DPPC   O35 1085   2.339   2.178   4.910
   22DPPC   C36 1086   2.477   2.002   4.829
   22DPPC   C37 1087   2.447   1.887   4.733
   22DPPC   C38 1088   2.550   1.900   4.621
   22DPPC   C39 1089   2.526   1.804   4.504
   22DPPC   C40 1090   2.608   1.847   4.383
   22DPPC   C41 1091   2.580   1.767   4.255
   22DPPC   C42 1092   2.665   1.807   4.135
   22DPPC   C43 1093   2.628   1.735   4.005
   22DPPC   C44 1094   2.727   1.791   3.903
   22DPPC   C45 1095   2.703   1.739   3.761
   22DPPC   C46 1096   2.762   1.823   3.647
   22DPPC   C47 1097   2.724   1.763   3.511
   22DPPC   C48 1098   2.797   1.634   3.472
   22DPPC   C49 1099   2.772   1.579   3.331
   22DPPC   C50 1100   2.808   1.682   3.223
   23DPPC    C1 1101   1.402   7.359   5.035
   23DPPC    C2 1102   1.497   7.161   5.097
   23DPPC    C3 1103   1.348   7.145   4.924
   23DPPC    N4 1104   1.452   7.233   4.977
   23DPPC    C5 1105   1.564   7.245   4.883
   23DPPC    C6 1106   1.560   7.320   4.749
   23DPPC    O7 1107   1.483   7.273   4.638
   23DPPC    P8 1108   1.419   7.395   4.554
   23DPPC    O9 1109   1.464   7.523   4.615
   23DPPC   O10 1110   1.279   7.361   4.525
   23DPPC   O11 1111   1.509   7.369   4.424
   23DPPC   C12 1112   1.463   7.250   4.359
   23DPPC   C13 1113   1.491   7.240   4.209
   23DPPC   O14 1114   1.631   7.243   4.181
   23DPPC   C15 1115   1.676   7.133   4.114
   23DPPC   O16 1116   1.611   7.029   4.118
   23DPPC   C17 1117   1.821   7.157   4.069
   23DPPC   C18 1118   1.837   7.251   3.950
   23DPPC   C19 1119   1.975   7.313   3.933
   23DPPC   C20 1120   1.981   7.429   3.834
   23DPPC   C21 1121   1.963   7.562   3.908
   23DPPC   C22 1122   1.950   7.660   3.792
   23DPPC   C23 1123   1.924   7.804   3.837
   23DPPC   C24 1124   1.901   7.902   3.722
   23DPPC   C25 1125   1.874   8.037   3.788
   23DPPC   C26 1126   1.881   8.152   3.686
   23DPPC   C27 1127   1.836   8.292   3.728
   23DPPC   C28 1128   1.685   8.288   3.749
   23DPPC   C29 1129   1.632   8.272   3.607
   23DPPC   C30 1130   1.481   8.248   3.618
   23DPPC   C31 1131   1.420   8.240   3.477
   23DPPC   C32 1132   1.419   7.365   4.157
   23DPPC   O33 1133   1.449   7.390   4.020
   23DPPC   C34 1134   1.389   7.493   3.955
   23DPPC   O35 1135   1.310   7.562   4.018
   23DPPC   C36 1136   1.441   7.519   3.813
   23DPPC   C37 1137   1.555   7.621   3.810
   23DPPC   C38 1138   1.609   7.642   3.668
   23DPPC   C39 1139   1.666   7.509   3.619
   23DPPC   C40 1140   1.696   7.526   3.470
   23DPPC   C41 1141   1.749   7.400   3.401
   23DPPC   C42 1142   1.633   7.303   3.376
   23DPPC   C43 1143   1.670   7.155   3.385
   23DPPC   C44 1144   1.558   7.071   3.324
   23DPPC   C45 1145   1.531   7.128   3.184
   23DPPC   C46 1146   1.429   7.035   3.119
   23DPPC   C47 1147   1.399   7.073   2.973
   23DPPC   C48 1148   1.310   6.983   2.888
   23DPPC   C49 1149   1.177   6.943   2.952
   23DPPC   C50 1150   1.061   6.990   2.865
   24DPPC    C1 1151   3.207   5.411   5.157
   24DPPC    C2 1152   3.367   5.448   5.326
   24DPPC    C3 1153   3.210   5.614   5.279
   24DPPC    N4 1154   3.225   5.469   5.291
   24DPPC    C5 1155   3.142   5.408   5.396
   24DPPC    C6 1156   3.157   5.258   5.421
   24DPPC    O7 1157   3.059   5.181   5.350
   24DPPC    P8 1158   3.095   5.027   5.379
   24DPPC    O9 1159   2.989   4.949   5.311
   24DPPC   O10 1160   3.129   5.023   5.523
   24DPPC   O11 1161   3.234   5.012   5.300
   24DPPC   C12 1162   3.196   4.991   5.163
   24DPPC   C13 1163   3.315   4.985   5.067
   24DPPC   O14 1164   3.256   4.998   4.937
   24DPPC   C15 1165   3.228   5.119   4.882
   24DPPC   O16 1166   3.286   5.221   4.919
   24DPPC   C17 1167   3.160   5.112   4.745
   24DPPC   C18 1168   3.253   5.155   4.632
   24DPPC   C19 1169   3.350   5.047   4.584
   24DPPC   C20 1170   3.492   5.106   4.592
   24DPPC   C21 1171   3.579   5.009   4.511
   24DPPC   C22 1172   3.721   5.057   4.481
   24DPPC   C23 1173   3.784   4.971   4.372
   24DPPC   C24 1174   3.922   5.018   4.328
   24DPPC   C25 1175   3.979   4.957   4.199
   24DPPC   C26 1176   4.106   5.035   4.166
   24DPPC   C27 1177   4.169   4.989   4.034
   24DPPC   C28 1178   4.276   5.091   3.996
   24DPPC   C29 1179   4.372   5.032   3.892
   24DPPC   C30 1180   4.485   5.129   3.859
   24DPPC   C31 1181   4.586   5.174   3.965
   24DPPC   C32 1182   3.368   4.844   5.088
   24DPPC   O33 1183   3.280   4.732   5.080
   24DPPC   C34 1184   3.333   4.607   5.089
   24DPPC   O35 1185   3.448   4.593   5.130
   24DPPC   C36 1186   3.257   4.487   5.033
   24DPPC   C37 1187   3.313   4.439   4.899
   24DPPC   C38 1188   3.307   4.548   4.792
   24DPPC   C39 1189   3.356   4.498   4.656
   24DPPC   C40 1190   3.394   4.610   4.558
   24DPPC   C41 1191   3.416   4.553   4.418
   24DPPC   C42 1192   3.480   4.660   4.330
   24DPPC   C43 1193   3.533   4.605   4.197
   24DPPC   C44 1194   3.618   4.713   4.131
   24DPPC   C45 1195   3.692   4.681   4.000
   24DPPC   C46 1196   3.788   4.790   3.953
   24DPPC   C47 1197   3.883   4.735   3.846
   24DPPC   C48 1198   3.944   4.839   3.752
   24DPPC   C49 1199   4.017   4.778   3.632
   24DPPC   C50 1200   4.105   4.666   3.687
   25DPPC    C1 1201   3.936   5.440   5.279
   25DPPC    C2 1202   3.889   5.602   5.112
   25DPPC    C3 1203   3.746   5.410   5.167
   25DPPC    N4 1204   3.829   5.520   5.218
   25DPPC    C5 1205   3.774   5.597   5.331
   25DPPC    C6 1206   3.708   5.732   5.300
   25DPPC    O7 1207   3.595   5.711   5.214
   25DPPC    P8 1208   3.499   5.836   5.185
   25DPPC    O9 1209   3.600   5.923   5.120
   25DPPC   O10 1210   3.420   5.885   5.301
   25DPPC   O11 1211   3.410   5.753   5.080
   25DPPC   C12 1212   3.504   5.719   4.978
   25DPPC   C13 1213   3.465   5.659   4.843
   25DPPC   O14 1214   3.570   5.595   4.769
   25DPPC   C15 1215   3.627   5.476   4.802
   25DPPC   O16 1216   3.603   5.427   4.912
   25DPPC   C17 1217   3.717   5.412   4.696
   25DPPC   C18 1218   3.794   5.524   4.627
   25DPPC   C19 1219   3.829   5.465   4.490
   25DPPC   C20 1220   3.942   5.362   4.500
   25DPPC   C21 1221   4.087   5.411   4.509
   25DPPC   C22 1222   4.182   5.303   4.458
   25DPPC   C23 1223   4.316   5.325   4.529
   25DPPC   C24 1224   4.433   5.254   4.462
   25DPPC   C25 1225   4.556   5.230   4.550
   25DPPC   C26 1226   4.674   5.205   4.456
   25DPPC   C27 1227   4.771   5.323   4.450
   25DPPC   C28 1228   4.888   5.277   4.363
   25DPPC   C29 1229   4.971   5.403   4.336
   25DPPC   C30 1230   5.069   5.354   4.229
   25DPPC   C31 1231   4.998   5.285   4.113
   25DPPC   C32 1232   3.404   5.781   4.773
   25DPPC   O33 1233   3.496   5.889   4.756
   25DPPC   C34 1234   3.439   6.003   4.707
   25DPPC   O35 1235   3.325   6.039   4.737
   25DPPC   C36 1236   3.542   6.105   4.660
   25DPPC   C37 1237   3.557   6.090   4.509
   25DPPC   C38 1238   3.655   5.976   4.476
   25DPPC   C39 1239   3.715   5.979   4.335
   25DPPC   C40 1240   3.621   5.918   4.231
   25DPPC   C41 1241   3.678   5.914   4.089
   25DPPC   C42 1242   3.808   5.835   4.081
   25DPPC   C43 1243   3.802   5.687   4.119
   25DPPC   C44 1244   3.921   5.596   4.088
   25DPPC   C45 1245   3.940   5.569   3.939
   25DPPC   C46 1246   4.059   5.483   3.896
   25DPPC   C47 1247   4.044   5.423   3.756
   25DPPC   C48 1248   4.161   5.335   3.711
   25DPPC   C49 1249   4.130   5.251   3.587
   25DPPC   C50 1250   4.261   5.184   3.544
   26DPPC    C1 1251   3.625   2.707   5.816
   26DPPC    C2 1252   3.620   2.558   5.642
   26DPPC    C3 1253   3.619   2.775   5.581
   26DPPC    N4 1254   3.680   2.686   5.680
   26DPPC    C5 1255   3.825   2.677   5.663
   26DPPC    C6 1256   3.901   2.806   5.697
   26DPPC    O7 1257   3.914   2.901   5.590
   26DPPC    P8 1258   3.972   3.036   5.655
   26DPPC    O9 1259   3.942   3.032   5.800
   26DPPC   O10 1260   3.973   3.162   5.577
   26DPPC   O11 1261   4.123   2.979   5.656
   26DPPC   C12 1262   4.210   3.030   5.555
   26DPPC   C13 1263   4.347   2.963   5.557
   26DPPC   O14 1264   4.423   2.998   5.440
   26DPPC   C15 1265   4.490   3.114   5.418
   26DPPC   O16 1266   4.474   3.200   5.504
   26DPPC   C17 1267   4.536   3.144   5.275
   26DPPC   C18 1268   4.686   3.174   5.279
   26DPPC   C19 1269   4.739   3.197   5.137
   26DPPC   C20 1270   4.887   3.234   5.125
   26DPPC   C21 1271   4.914   3.223   4.974
   26DPPC   C22 1272   4.912   3.076   4.932
   26DPPC   C23 1273   4.925   3.075   4.780
   26DPPC   C24 1274   4.895   2.945   4.704
   26DPPC   C25 1275   4.927   2.945   4.554
   26DPPC   C26 1276   4.890   2.813   4.486
   26DPPC   C27 1277   4.904   2.823   4.334
   26DPPC   C28 1278   4.865   2.704   4.246
   26DPPC   C29 1279   4.852   2.750   4.101
   26DPPC   C30 1280   4.827   2.629   4.011
   26DPPC   C31 1281   4.848   2.655   3.862
   26DPPC   C32 1282   4.314   2.814   5.557
   26DPPC   O33 1283   4.227   2.770   5.453
   26DPPC   C34 1284   4.171   2.646   5.465
   26DPPC   O35 1285   4.174   2.603   5.580
   26DPPC   C36 1286   4.095   2.601   5.340
   26DPPC   C37 1287   4.176   2.514   5.243
   26DPPC   C38 1288   4.091   2.489   5.119
   26DPPC   C39 1289   4.045   2.621   5.058
   26DPPC   C40 1290   4.026   2.590   4.909
   26DPPC   C41 1291   3.998   2.718   4.830
   26DPPC   C42 1292   4.001   2.685   4.681
   26DPPC   C43 1293   4.003   2.817   4.605
   26DPPC   C44 1294   4.143   2.877   4.609
   26DPPC   C45 1295   4.141   3.000   4.519
   26DPPC   C46 1296   4.088   2.962   4.380
   26DPPC   C47 1297   4.044   3.076   4.288
   26DPPC   C48 1298   3.992   3.039   4.149
   26DPPC   C49 1299   3.962   3.156   4.054
   26DPPC   C50 1300   3.873   3.265   4.115
   27DPPC    C1 1301   3.723   0.244   5.365
   27DPPC    C2 1302   3.611   0.430   5.294
   27DPPC    C3 1303   3.793   0.360   5.159
   27DPPC    N4 1304   3.682   0.311   5.241
   27DPPC    C5 1305   3.585   0.221   5.178
   27DPPC    C6 1306   3.629   0.082   5.132
   27DPPC    O7 1307   3.741   0.075   5.043
   27DPPC    P8 1308   3.790  -0.078   5.053
   27DPPC    O9 1309   3.680  -0.158   5.112
   27DPPC   O10 1310   3.927  -0.074   5.109
   27DPPC   O11 1311   3.797  -0.121   4.898
   27DPPC   C12 1312   3.906  -0.048   4.841
   27DPPC   C13 1313   3.901  -0.030   4.689
   27DPPC   O14 1314   3.831   0.090   4.654
   27DPPC   C15 1315   3.907   0.182   4.589
   27DPPC   O16 1316   4.021   0.206   4.630
   27DPPC   C17 1317   3.822   0.298   4.536
   27DPPC   C18 1318   3.883   0.366   4.413
   27DPPC   C19 1319   3.798   0.487   4.372
   27DPPC   C20 1320   3.865   0.546   4.248
   27DPPC   C21 1321   3.844   0.453   4.128
   27DPPC   C22 1322   3.953   0.475   4.022
   27DPPC   C23 1323   3.953   0.417   3.881
   27DPPC   C24 1324   4.054   0.487   3.790
   27DPPC   C25 1325   4.055   0.408   3.659
   27DPPC   C26 1326   4.136   0.283   3.692
   27DPPC   C27 1327   4.122   0.179   3.581
   27DPPC   C28 1328   4.193   0.045   3.599
   27DPPC   C29 1329   4.173  -0.069   3.498
   27DPPC   C30 1330   4.022  -0.070   3.474
   27DPPC   C31 1331   3.965  -0.209   3.503
   27DPPC   C32 1332   3.831  -0.155   4.636
   27DPPC   O33 1333   3.902  -0.278   4.644
   27DPPC   C34 1334   3.832  -0.392   4.619
   27DPPC   O35 1335   3.710  -0.408   4.611
   27DPPC   C36 1336   3.924  -0.514   4.610
   27DPPC   C37 1337   3.972  -0.562   4.473
   27DPPC   C38 1338   4.055  -0.452   4.407
   27DPPC   C39 1339   4.094  -0.499   4.267
   27DPPC   C40 1340   4.203  -0.398   4.228
   27DPPC   C41 1341   4.260  -0.437   4.091
   27DPPC   C42 1342   4.345  -0.321   4.038
   27DPPC   C43 1343   4.417  -0.361   3.909
   27DPPC   C44 1344   4.514  -0.253   3.860
   27DPPC   C45 1345   4.573  -0.308   3.729
   27DPPC   C46 1346   4.471  -0.295   3.616
   27DPPC   C47 1347   4.538  -0.350   3.490
   27DPPC   C48 1348   4.453  -0.349   3.363
   27DPPC   C49 1349   4.561  -0.397   3.267
   27DPPC   C50 1350   4.580  -0.549   3.255
   28DPPC    C1 1351   8.696   2.528   5.445
   28DPPC    C2 1352   8.754   2.530   5.674
   28DPPC    C3 1353   8.702   2.734   5.563
   28DPPC    N4 1354   8.666   2.592   5.574
   28DPPC    C5 1355   8.536   2.538   5.617
   28DPPC    C6 1356   8.411   2.602   5.556
   28DPPC    O7 1357   8.364   2.695   5.654
   28DPPC    P8 1358   8.237   2.783   5.609
   28DPPC    O9 1359   8.248   2.899   5.700
   28DPPC   O10 1360   8.131   2.680   5.615
   28DPPC   O11 1361   8.309   2.811   5.468
   28DPPC   C12 1362   8.213   2.836   5.365
   28DPPC   C13 1363   8.287   2.900   5.247
   28DPPC   O14 1364   8.202   2.959   5.147
   28DPPC   C15 1365   8.240   3.075   5.087
   28DPPC   O16 1366   8.356   3.114   5.102
   28DPPC   C17 1367   8.151   3.123   4.972
   28DPPC   C18 1368   8.011   3.162   5.020
   28DPPC   C19 1369   7.903   3.165   4.912
   28DPPC   C20 1370   7.935   3.263   4.800
   28DPPC   C21 1371   7.847   3.238   4.677
   28DPPC   C22 1372   7.881   3.345   4.574
   28DPPC   C23 1373   7.796   3.306   4.453
   28DPPC   C24 1374   7.790   3.426   4.359
   28DPPC   C25 1375   7.737   3.389   4.220
   28DPPC   C26 1376   7.787   3.498   4.125
   28DPPC   C27 1377   7.720   3.488   3.988
   28DPPC   C28 1378   7.739   3.618   3.909
   28DPPC   C29 1379   7.627   3.631   3.806
   28DPPC   C30 1380   7.650   3.752   3.715
   28DPPC   C31 1381   7.542   3.747   3.606
   28DPPC   C32 1382   8.386   2.795   5.196
   28DPPC   O33 1383   8.322   2.674   5.157
   28DPPC   C34 1384   8.395   2.567   5.113
   28DPPC   O35 1385   8.510   2.552   5.154
   28DPPC   C36 1386   8.316   2.450   5.053
   28DPPC   C37 1387   8.290   2.471   4.904
   28DPPC   C38 1388   8.183   2.576   4.873
   28DPPC   C39 1389   8.166   2.586   4.722
   28DPPC   C40 1390   8.076   2.704   4.684
   28DPPC   C41 1391   8.046   2.710   4.534
   28DPPC   C42 1392   7.976   2.844   4.510
   28DPPC   C43 1393   7.928   2.863   4.366
   28DPPC   C44 1394   7.999   2.982   4.302
   28DPPC   C45 1395   7.969   3.004   4.153
   28DPPC   C46 1396   8.022   3.138   4.100
   28DPPC   C47 1397   7.986   3.127   3.951
   28DPPC   C48 1398   8.017   3.263   3.889
   28DPPC   C49 1399   7.961   3.257   3.747
   28DPPC   C50 1400   7.999   3.374   3.656
   29DPPC    C1 1401   0.497   4.854   5.148
   29DPPC    C2 1402   0.434   4.765   4.948
   29DPPC    C3 1403   0.269   4.858   5.047
   29DPPC    N4 1404   0.413   4.884   5.032
   29DPPC    C5 1405   0.452   5.003   4.955
   29DPPC    C6 1406   0.430   5.136   5.027
   29DPPC    O7 1407   0.497   5.241   4.957
   29DPPC    P8 1408   0.445   5.385   5.008
   29DPPC    O9 1409   0.554   5.430   5.098
   29DPPC   O10 1410   0.315   5.354   5.071
   29DPPC   O11 1411   0.462   5.456   4.865
   29DPPC   C12 1412   0.373   5.404   4.766
   29DPPC   C13 1413   0.396   5.468   4.630
   29DPPC   O14 1414   0.293   5.430   4.537
   29DPPC   C15 1415   0.185   5.510   4.516
   29DPPC   O16 1416   0.163   5.610   4.584
   29DPPC   C17 1417   0.099   5.483   4.392
   29DPPC   C18 1418   0.176   5.522   4.266
   29DPPC   C19 1419   0.105   5.461   4.145
   29DPPC   C20 1420   0.203   5.446   4.028
   29DPPC   C21 1421   0.135   5.423   3.893
   29DPPC   C22 1422   0.019   5.518   3.862
   29DPPC   C23 1423  -0.069   5.492   3.740
   29DPPC   C24 1424  -0.150   5.612   3.691
   29DPPC   C25 1425  -0.211   5.610   3.551
   29DPPC   C26 1426  -0.333   5.519   3.535
   29DPPC   C27 1427  -0.414   5.530   3.406
   29DPPC   C28 1428  -0.538   5.440   3.395
   29DPPC   C29 1429  -0.606   5.460   3.260
   29DPPC   C30 1430  -0.665   5.601   3.270
   29DPPC   C31 1431  -0.746   5.646   3.148
   29DPPC   C32 1432   0.540   5.433   4.592
   29DPPC   O33 1433   0.578   5.295   4.588
   29DPPC   C34 1434   0.705   5.274   4.546
   29DPPC   O35 1435   0.769   5.369   4.499
   29DPPC   C36 1436   0.758   5.132   4.566
   29DPPC   C37 1437   0.842   5.095   4.444
   29DPPC   C38 1438   0.927   4.969   4.455
   29DPPC   C39 1439   1.016   4.951   4.332
   29DPPC   C40 1440   0.943   4.941   4.198
   29DPPC   C41 1441   1.039   4.906   4.084
   29DPPC   C42 1442   0.970   4.930   3.949
   29DPPC   C43 1443   1.060   4.917   3.826
   29DPPC   C44 1444   0.987   4.954   3.697
   29DPPC   C45 1445   1.068   4.930   3.569
   29DPPC   C46 1446   0.997   5.003   3.455
   29DPPC   C47 1447   1.067   4.977   3.322
   29DPPC   C48 1448   1.020   5.067   3.208
   29DPPC   C49 1449   1.114   5.056   3.088
   29DPPC   C50 1450   1.068   5.137   2.967
   30DPPC    C1 1451   6.783   1.967   6.029
   30DPPC    C2 1452   6.967   1.945   5.869
   30DPPC    C3 1453   6.771   2.020   5.786
   30DPPC    N4 1454   6.849   2.022   5.910
   30DPPC    C5 1455   6.903   2.157   5.934
   30DPPC    C6 1456   6.806   2.258   5.995
   30DPPC    O7 1457   6.862   2.390   6.003
   30DPPC    P8 1458   6.764   2.489   5.922
   30DPPC    O9 1459   6.811   2.627   5.945
   30DPPC   O10 1460   6.621   2.460   5.945
   30DPPC   O11 1461   6.793   2.454   5.768
   30DPPC   C12 1462   6.748   2.569   5.696
   30DPPC   C13 1463   6.824   2.574   5.564
   30DPPC   O14 1464   6.779   2.670   5.467
   30DPPC   C15 1465   6.857   2.781   5.456
   30DPPC   O16 1466   6.935   2.818   5.544
   30DPPC   C17 1467   6.830   2.868   5.332
   30DPPC   C18 1468   6.772   3.008   5.355
   30DPPC   C19 1469   6.753   3.094   5.231
   30DPPC   C20 1470   6.887   3.151   5.183
   30DPPC   C21 1471   6.875   3.221   5.047
   30DPPC   C22 1472   7.005   3.295   5.014
   30DPPC   C23 1473   6.978   3.386   4.894
   30DPPC   C24 1474   6.854   3.475   4.909
   30DPPC   C25 1475   6.860   3.561   4.783
   30DPPC   C26 1476   6.928   3.693   4.820
   30DPPC   C27 1477   6.961   3.767   4.690
   30DPPC   C28 1478   6.839   3.799   4.604
   30DPPC   C29 1479   6.760   3.903   4.683
   30DPPC   C30 1480   6.609   3.880   4.669
   30DPPC   C31 1481   6.573   3.896   4.522
   30DPPC   C32 1482   6.818   2.436   5.497
   30DPPC   O33 1483   6.896   2.411   5.380
   30DPPC   C34 1484   6.920   2.283   5.340
   30DPPC   O35 1485   6.829   2.212   5.382
   30DPPC   C36 1486   7.043   2.251   5.255
   30DPPC   C37 1487   7.012   2.225   5.108
   30DPPC   C38 1488   6.988   2.349   5.020
   30DPPC   C39 1489   6.989   2.310   4.872
   30DPPC   C40 1490   6.967   2.437   4.790
   30DPPC   C41 1491   6.933   2.392   4.648
   30DPPC   C42 1492   6.824   2.488   4.599
   30DPPC   C43 1493   6.794   2.496   4.449
   30DPPC   C44 1494   6.676   2.590   4.426
   30DPPC   C45 1495   6.662   2.619   4.276
   30DPPC   C46 1496   6.535   2.697   4.245
   30DPPC   C47 1497   6.520   2.815   4.341
   30DPPC   C48 1498   6.406   2.909   4.302
   30DPPC   C49 1499   6.414   3.032   4.394
   30DPPC   C50 1500   6.305   3.125   4.342
   31DPPC    C1 1501   5.956   7.132   5.157
   31DPPC    C2 1502   6.090   7.128   4.959
   31DPPC    C3 1503   6.175   7.154   5.187
   31DPPC    N4 1504   6.082   7.082   5.099
   31DPPC    C5 1505   6.094   6.939   5.131
   31DPPC    C6 1506   6.030   6.834   5.041
   31DPPC    O7 1507   5.888   6.846   5.047
   31DPPC    P8 1508   5.806   6.768   5.161
   31DPPC    O9 1509   5.795   6.867   5.271
   31DPPC   O10 1510   5.889   6.649   5.191
   31DPPC   O11 1511   5.665   6.739   5.090
   31DPPC   C12 1512   5.694   6.672   4.967
   31DPPC   C13 1513   5.601   6.555   4.934
   31DPPC   O14 1514   5.640   6.472   4.823
   31DPPC   C15 1515   5.631   6.339   4.847
   31DPPC   O16 1516   5.660   6.305   4.962
   31DPPC   C17 1517   5.647   6.250   4.723
   31DPPC   C18 1518   5.511   6.222   4.660
   31DPPC   C19 1519   5.541   6.181   4.515
   31DPPC   C20 1520   5.421   6.174   4.421
   31DPPC   C21 1521   5.464   6.121   4.284
   31DPPC   C22 1522   5.334   6.089   4.210
   31DPPC   C23 1523   5.243   6.212   4.208
   31DPPC   C24 1524   5.132   6.187   4.107
   31DPPC   C25 1525   5.052   6.317   4.093
   31DPPC   C26 1526   4.979   6.308   3.959
   31DPPC   C27 1527   4.934   6.452   3.932
   31DPPC   C28 1528   4.829   6.487   4.038
   31DPPC   C29 1529   4.757   6.616   3.996
   31DPPC   C30 1530   4.641   6.639   4.092
   31DPPC   C31 1531   4.702   6.678   4.227
   31DPPC   C32 1532   5.461   6.616   4.933
   31DPPC   O33 1533   5.443   6.718   4.835
   31DPPC   C34 1534   5.333   6.798   4.839
   31DPPC   O35 1535   5.238   6.767   4.911
   31DPPC   C36 1536   5.341   6.917   4.744
   31DPPC   C37 1537   5.304   6.881   4.600
   31DPPC   C38 1538   5.320   7.007   4.515
   31DPPC   C39 1539   5.283   6.959   4.374
   31DPPC   C40 1540   5.304   7.062   4.263
   31DPPC   C41 1541   5.429   7.144   4.293
   31DPPC   C42 1542   5.451   7.248   4.183
   31DPPC   C43 1543   5.591   7.311   4.179
   31DPPC   C44 1544   5.621   7.410   4.291
   31DPPC   C45 1545   5.523   7.526   4.268
   31DPPC   C46 1546   5.544   7.626   4.382
   31DPPC   C47 1547   5.492   7.572   4.515
   31DPPC   C48 1548   5.347   7.525   4.504
   31DPPC   C49 1549   5.278   7.541   4.639
   31DPPC   C50 1550   5.146   7.463   4.644
   32DPPC    C1 1551   1.092   7.650   4.702
   32DPPC    C2 1552   0.975   7.855   4.684
   32DPPC    C3 1553   0.960   7.676   4.517
   32DPPC    N4 1554   0.965   7.710   4.660
   32DPPC    C5 1555   0.861   7.640   4.737
   32DPPC    C6 1556   0.729   7.711   4.765
   32DPPC    O7 1557   0.655   7.736   4.645
   32DPPC    P8 1558   0.543   7.850   4.666
   32DPPC    O9 1559   0.613   7.980   4.674
   32DPPC   O10 1560   0.441   7.810   4.765
   32DPPC   O11 1561   0.482   7.828   4.518
   32DPPC   C12 1562   0.578   7.867   4.421
   32DPPC   C13 1563   0.544   7.809   4.283
   32DPPC   O14 1564   0.641   7.827   4.178
   32DPPC   C15 1565   0.618   7.744   4.074
   32DPPC   O16 1566   0.563   7.637   4.099
   32DPPC   C17 1567   0.684   7.773   3.939
   32DPPC   C18 1568   0.797   7.675   3.910
   32DPPC   C19 1569   0.878   7.705   3.784
   32DPPC   C20 1570   1.028   7.712   3.812
   32DPPC   C21 1571   1.116   7.726   3.688
   32DPPC   C22 1572   1.094   7.608   3.593
   32DPPC   C23 1573   1.188   7.607   3.473
   32DPPC   C24 1574   1.160   7.500   3.367
   32DPPC   C25 1575   1.165   7.367   3.443
   32DPPC   C26 1576   1.140   7.258   3.339
   32DPPC   C27 1577   0.999   7.277   3.282
   32DPPC   C28 1578   0.961   7.162   3.188
   32DPPC   C29 1579   0.951   7.031   3.267
   32DPPC   C30 1580   0.819   7.026   3.344
   32DPPC   C31 1581   0.810   6.880   3.391
   32DPPC   C32 1582   0.403   7.857   4.248
   32DPPC   O33 1583   0.395   7.995   4.212
   32DPPC   C34 1584   0.268   8.037   4.187
   32DPPC   O35 1585   0.174   7.958   4.176
   32DPPC   C36 1586   0.248   8.188   4.170
   32DPPC   C37 1587   0.144   8.232   4.067
   32DPPC   C38 1588   0.157   8.381   4.037
   32DPPC   C39 1589   0.034   8.414   3.952
   32DPPC   C40 1590   0.041   8.558   3.899
   32DPPC   C41 1591  -0.015   8.572   3.757
   32DPPC   C42 1592  -0.020   8.716   3.708
   32DPPC   C43 1593  -0.039   8.727   3.556
   32DPPC   C44 1594  -0.174   8.678   3.505
   32DPPC   C45 1595  -0.164   8.695   3.354
   32DPPC   C46 1596  -0.294   8.668   3.277
   32DPPC   C47 1597  -0.272   8.683   3.126
   32DPPC   C48 1598  -0.397   8.643   3.046
   32DPPC   C49 1599  -0.379   8.624   2.896
   32DPPC   C50 1600  -0.269   8.518   2.884
   33DPPC    C1 1601   2.305   2.398   5.217
   33DPPC    C2 1602   2.186   2.586   5.174
   33DPPC    C3 1603   2.302   2.493   4.991
   33DPPC    N4 1604   2.224   2.459   5.111
   33DPPC    C5 1605   2.114   2.377   5.057
   33DPPC    C6 1606   2.001   2.329   5.148
   33DPPC    O7 1607   1.886   2.269   5.088
   33DPPC    P8 1608   1.762   2.368   5.060
   33DPPC    O9 1609   1.786   2.473   5.161
   33DPPC   O10 1610   1.644   2.279   5.057
   33DPPC   O11 1611   1.804   2.423   4.915
   33DPPC   C12 1612   1.760   2.335   4.811
   33DPPC   C13 1613   1.772   2.400   4.673
   33DPPC   O14 1614   1.697   2.329   4.572
   33DPPC   C15 1615   1.574   2.384   4.552
   33DPPC   O16 1616   1.551   2.490   4.609
   33DPPC   C17 1617   1.497   2.338   4.428
   33DPPC   C18 1618   1.419   2.449   4.356
   33DPPC   C19 1619   1.361   2.420   4.218
   33DPPC   C20 1620   1.280   2.539   4.167
   33DPPC   C21 1621   1.196   2.505   4.043
   33DPPC   C22 1622   1.095   2.392   4.063
   33DPPC   C23 1623   1.022   2.382   3.929
   33DPPC   C24 1624   1.117   2.337   3.818
   33DPPC   C25 1625   1.032   2.337   3.691
   33DPPC   C26 1626   1.105   2.251   3.588
   33DPPC   C27 1627   1.249   2.300   3.608
   33DPPC   C28 1628   1.341   2.228   3.509
   33DPPC   C29 1629   1.492   2.237   3.529
   33DPPC   C30 1630   1.564   2.153   3.422
   33DPPC   C31 1631   1.649   2.230   3.320
   33DPPC   C32 1632   1.923   2.409   4.651
   33DPPC   O33 1633   2.002   2.290   4.663
   33DPPC   C34 1634   2.137   2.304   4.654
   33DPPC   O35 1635   2.185   2.416   4.672
   33DPPC   C36 1636   2.234   2.197   4.604
   33DPPC   C37 1637   2.162   2.072   4.552
   33DPPC   C38 1638   2.143   2.080   4.400
   33DPPC   C39 1639   2.093   1.946   4.345
   33DPPC   C40 1640   2.088   1.949   4.193
   33DPPC   C41 1641   2.072   1.809   4.133
   33DPPC   C42 1642   2.065   1.826   3.981
   33DPPC   C43 1643   2.192   1.901   3.939
   33DPPC   C44 1644   2.208   1.900   3.786
   33DPPC   C45 1645   2.127   2.022   3.742
   33DPPC   C46 1646   2.161   2.059   3.597
   33DPPC   C47 1647   2.086   2.180   3.540
   33DPPC   C48 1648   2.137   2.218   3.401
   33DPPC   C49 1649   2.039   2.326   3.354
   33DPPC   C50 1650   2.055   2.350   3.203
   34DPPC    C1 1651   2.936   4.433   5.399
   34DPPC    C2 1652   2.858   4.566   5.237
   34DPPC    C3 1653   2.870   4.675   5.449
   34DPPC    N4 1654   2.935   4.575   5.362
   34DPPC    C5 1655   3.068   4.628   5.330
   34DPPC    C6 1656   3.170   4.613   5.443
   34DPPC    O7 1657   3.276   4.705   5.418
   34DPPC    P8 1658   3.379   4.696   5.541
   34DPPC    O9 1659   3.302   4.693   5.668
   34DPPC   O10 1660   3.511   4.762   5.532
   34DPPC   O11 1661   3.403   4.538   5.521
   34DPPC   C12 1662   3.505   4.512   5.423
   34DPPC   C13 1663   3.569   4.374   5.426
   34DPPC   O14 1664   3.664   4.336   5.325
   34DPPC   C15 1665   3.788   4.390   5.331
   34DPPC   O16 1666   3.816   4.485   5.404
   34DPPC   C17 1667   3.899   4.338   5.239
   34DPPC   C18 1668   3.936   4.413   5.110
   34DPPC   C19 1669   3.818   4.430   5.015
   34DPPC   C20 1670   3.844   4.518   4.893
   34DPPC   C21 1671   3.715   4.559   4.822
   34DPPC   C22 1672   3.743   4.625   4.688
   34DPPC   C23 1673   3.795   4.528   4.582
   34DPPC   C24 1674   3.838   4.611   4.461
   34DPPC   C25 1675   3.886   4.521   4.346
   34DPPC   C26 1676   4.022   4.564   4.292
   34DPPC   C27 1677   4.092   4.451   4.216
   34DPPC   C28 1678   4.225   4.506   4.164
   34DPPC   C29 1679   4.298   4.415   4.065
   34DPPC   C30 1680   4.446   4.447   4.038
   34DPPC   C31 1681   4.457   4.586   3.974
   34DPPC   C32 1682   3.451   4.279   5.452
   34DPPC   O33 1683   3.346   4.278   5.354
   34DPPC   C34 1684   3.255   4.178   5.358
   34DPPC   O35 1685   3.221   4.149   5.473
   34DPPC   C36 1686   3.176   4.160   5.228
   34DPPC   C37 1687   3.177   4.013   5.185
   34DPPC   C38 1688   3.117   4.017   5.044
   34DPPC   C39 1689   3.222   4.067   4.945
   34DPPC   C40 1690   3.166   4.057   4.803
   34DPPC   C41 1691   3.250   3.969   4.711
   34DPPC   C42 1692   3.161   3.930   4.593
   34DPPC   C43 1693   3.258   3.879   4.486
   34DPPC   C44 1694   3.200   3.863   4.345
   34DPPC   C45 1695   3.311   3.797   4.264
   34DPPC   C46 1696   3.266   3.790   4.117
   34DPPC   C47 1697   3.283   3.927   4.052
   34DPPC   C48 1698   3.250   3.920   3.903
   34DPPC   C49 1699   3.297   4.052   3.841
   34DPPC   C50 1700   3.287   4.045   3.688
   35DPPC    C1 1701   1.456   2.749   1.352
   35DPPC    C2 1702   1.357   2.952   1.438
   35DPPC    C3 1703   1.420   2.770   1.584
   35DPPC    N4 1704   1.455   2.845   1.463
   35DPPC    C5 1705   1.590   2.902   1.475
   35DPPC    C6 1706   1.648   2.979   1.356
   35DPPC    O7 1707   1.765   3.053   1.391
   35DPPC    P8 1708   1.765   3.187   1.303
   35DPPC    O9 1709   1.685   3.171   1.180
   35DPPC   O10 1710   1.880   3.280   1.313
   35DPPC   O11 1711   1.643   3.249   1.388
   35DPPC   C12 1712   1.698   3.312   1.505
   35DPPC   C13 1713   1.573   3.374   1.567
   35DPPC   O14 1714   1.604   3.490   1.646
   35DPPC   C15 1715   1.671   3.595   1.592
   35DPPC   O16 1716   1.653   3.614   1.472
   35DPPC   C17 1717   1.724   3.699   1.692
   35DPPC   C18 1718   1.612   3.739   1.788
   35DPPC   C19 1719   1.675   3.767   1.925
   35DPPC   C20 1720   1.576   3.816   2.031
   35DPPC   C21 1721   1.655   3.829   2.161
   35DPPC   C22 1722   1.560   3.854   2.279
   35DPPC   C23 1723   1.643   3.882   2.405
   35DPPC   C24 1724   1.546   3.947   2.504
   35DPPC   C25 1725   1.623   4.045   2.593
   35DPPC   C26 1726   1.525   4.134   2.670
   35DPPC   C27 1727   1.465   4.047   2.781
   35DPPC   C28 1728   1.371   4.128   2.871
   35DPPC   C29 1729   1.333   4.040   2.990
   35DPPC   C30 1730   1.262   4.127   3.094
   35DPPC   C31 1731   1.350   4.248   3.125
   35DPPC   C32 1732   1.490   3.273   1.647
   35DPPC   O33 1733   1.570   3.173   1.711
   35DPPC   C34 1734   1.498   3.076   1.772
   35DPPC   O35 1735   1.386   3.046   1.729
   35DPPC   C36 1736   1.571   2.983   1.869
   35DPPC   C37 1737   1.675   3.054   1.956
   35DPPC   C38 1738   1.604   3.159   2.041
   35DPPC   C39 1739   1.707   3.212   2.141
   35DPPC   C40 1740   1.640   3.321   2.226
   35DPPC   C41 1741   1.677   3.327   2.374
   35DPPC   C42 1742   1.586   3.438   2.428
   35DPPC   C43 1743   1.580   3.435   2.580
   35DPPC   C44 1744   1.486   3.535   2.647
   35DPPC   C45 1745   1.487   3.527   2.800
   35DPPC   C46 1746   1.401   3.650   2.832
   35DPPC   C47 1747   1.256   3.607   2.809
   35DPPC   C48 1748   1.162   3.727   2.794
   35DPPC   C49 1749   1.020   3.670   2.789
   35DPPC   C50 1750   0.965   3.621   2.923
   36DPPC    C1 1751   6.132   6.432   1.707
   36DPPC    C2 1752   6.293   6.433   1.867
   36DPPC    C3 1753   6.309   6.595   1.683
   36DPPC    N4 1754   6.221   6.525   1.778
   36DPPC    C5 1755   6.144   6.617   1.864
   36DPPC    C6 1756   6.062   6.733   1.806
   36DPPC    O7 1757   6.135   6.840   1.746
   36DPPC    P8 1758   6.023   6.953   1.721
   36DPPC    O9 1759   5.897   6.881   1.691
   36DPPC   O10 1760   6.080   7.050   1.625
   36DPPC   O11 1761   6.013   7.011   1.871
   36DPPC   C12 1762   6.144   7.032   1.925
   36DPPC   C13 1763   6.159   7.105   2.059
   36DPPC   O14 1764   6.289   7.078   2.113
   36DPPC   C15 1765   6.382   7.175   2.091
   36DPPC   O16 1766   6.379   7.255   1.997
   36DPPC   C17 1767   6.516   7.171   2.164
   36DPPC   C18 1768   6.476   7.165   2.312
   36DPPC   C19 1769   6.601   7.157   2.399
   36DPPC   C20 1770   6.574   7.170   2.549
   36DPPC   C21 1771   6.690   7.167   2.649
   36DPPC   C22 1772   6.638   7.183   2.792
   36DPPC   C23 1773   6.757   7.171   2.886
   36DPPC   C24 1774   6.730   7.228   3.025
   36DPPC   C25 1775   6.854   7.292   3.088
   36DPPC   C26 1776   6.815   7.355   3.222
   36DPPC   C27 1777   6.741   7.252   3.309
   36DPPC   C28 1778   6.673   7.303   3.436
   36DPPC   C29 1779   6.765   7.367   3.540
   36DPPC   C30 1780   6.693   7.412   3.667
   36DPPC   C31 1781   6.805   7.464   3.757
   36DPPC   C32 1782   6.040   7.050   2.137
   36DPPC   O33 1783   5.996   7.131   2.246
   36DPPC   C34 1784   5.917   7.080   2.344
   36DPPC   O35 1785   5.851   6.980   2.316
   36DPPC   C36 1786   5.896   7.158   2.474
   36DPPC   C37 1787   6.017   7.138   2.566
   36DPPC   C38 1788   6.000   7.186   2.710
   36DPPC   C39 1789   5.886   7.108   2.774
   36DPPC   C40 1790   5.937   7.087   2.917
   36DPPC   C41 1791   5.821   7.036   3.002
   36DPPC   C42 1792   5.841   7.034   3.154
   36DPPC   C43 1793   5.753   6.928   3.222
   36DPPC   C44 1794   5.788   6.920   3.371
   36DPPC   C45 1795   5.677   6.858   3.456
   36DPPC   C46 1796   5.735   6.821   3.592
   36DPPC   C47 1797   5.635   6.874   3.696
   36DPPC   C48 1798   5.647   6.792   3.825
   36DPPC   C49 1799   5.564   6.863   3.932
   36DPPC   C50 1800   5.604   6.793   4.061
   37DPPC    C1 1801   8.450   3.090   1.583
   37DPPC    C2 1802   8.529   3.078   1.364
   37DPPC    C3 1803   8.338   3.208   1.393
   37DPPC    N4 1804   8.463   3.168   1.459
   37DPPC    C5 1805   8.557   3.279   1.477
   37DPPC    C6 1806   8.506   3.388   1.571
   37DPPC    O7 1807   8.600   3.496   1.577
   37DPPC    P8 1808   8.527   3.622   1.645
   37DPPC    O9 1809   8.422   3.561   1.729
   37DPPC   O10 1810   8.494   3.688   1.516
   37DPPC   O11 1811   8.655   3.689   1.716
   37DPPC   C12 1812   8.677   3.612   1.834
   37DPPC   C13 1813   8.741   3.687   1.951
   37DPPC   O14 1814   8.798   3.605   2.054
   37DPPC   C15 1815   8.906   3.525   2.031
   37DPPC   O16 1816   8.962   3.529   1.921
   37DPPC   C17 1817   8.957   3.436   2.144
   37DPPC   C18 1818   9.058   3.328   2.105
   37DPPC   C19 1819   9.091   3.251   2.234
   37DPPC   C20 1820   9.169   3.128   2.189
   37DPPC   C21 1821   9.193   3.022   2.297
   37DPPC   C22 1822   9.298   2.925   2.244
   37DPPC   C23 1823   9.326   2.832   2.362
   37DPPC   C24 1824   9.393   2.892   2.486
   37DPPC   C25 1825   9.537   2.935   2.461
   37DPPC   C26 1826   9.609   2.969   2.591
   37DPPC   C27 1827   9.654   2.852   2.678
   37DPPC   C28 1828   9.685   2.902   2.819
   37DPPC   C29 1829   9.702   2.785   2.916
   37DPPC   C30 1830   9.765   2.804   3.055
   37DPPC   C31 1831   9.673   2.889   3.142
   37DPPC   C32 1832   8.634   3.789   1.991
   37DPPC   O33 1833   8.512   3.723   2.025
   37DPPC   C34 1834   8.405   3.777   1.962
   37DPPC   O35 1835   8.412   3.848   1.861
   37DPPC   C36 1836   8.264   3.735   2.004
   37DPPC   C37 1837   8.255   3.732   2.156
   37DPPC   C38 1838   8.306   3.859   2.226
   37DPPC   C39 1839   8.248   3.888   2.364
   37DPPC   C40 1840   8.292   3.778   2.460
   37DPPC   C41 1841   8.204   3.781   2.585
   37DPPC   C42 1842   8.293   3.710   2.689
   37DPPC   C43 1843   8.246   3.727   2.834
   37DPPC   C44 1844   8.364   3.673   2.915
   37DPPC   C45 1845   8.344   3.711   3.062
   37DPPC   C46 1846   8.461   3.654   3.142
   37DPPC   C47 1847   8.462   3.692   3.290
   37DPPC   C48 1848   8.572   3.619   3.367
   37DPPC   C49 1849   8.680   3.723   3.396
   37DPPC   C50 1850   8.804   3.647   3.444
   38DPPC    C1 1851   3.409   4.326   1.405
   38DPPC    C2 1852   3.405   4.560   1.345
   38DPPC    C3 1853   3.225   4.427   1.279
   38DPPC    N4 1854   3.324   4.444   1.386
   38DPPC    C5 1855   3.246   4.487   1.503
   38DPPC    C6 1856   3.153   4.391   1.578
   38DPPC    O7 1857   3.225   4.287   1.645
   38DPPC    P8 1858   3.122   4.173   1.692
   38DPPC    O9 1859   3.191   4.072   1.775
   38DPPC   O10 1860   3.055   4.136   1.565
   38DPPC   O11 1861   3.024   4.267   1.779
   38DPPC   C12 1862   3.063   4.275   1.917
   38DPPC   C13 1863   3.161   4.389   1.941
   38DPPC   O14 1864   3.238   4.362   2.059
   38DPPC   C15 1865   3.329   4.445   2.115
   38DPPC   O16 1866   3.388   4.532   2.050
   38DPPC   C17 1867   3.373   4.395   2.253
   38DPPC   C18 1868   3.370   4.511   2.353
   38DPPC   C19 1869   3.432   4.467   2.485
   38DPPC   C20 1870   3.427   4.588   2.579
   38DPPC   C21 1871   3.490   4.545   2.711
   38DPPC   C22 1872   3.412   4.441   2.792
   38DPPC   C23 1873   3.471   4.387   2.922
   38DPPC   C24 1874   3.516   4.505   3.009
   38DPPC   C25 1875   3.399   4.597   3.044
   38DPPC   C26 1876   3.462   4.703   3.136
   38DPPC   C27 1877   3.357   4.810   3.165
   38DPPC   C28 1878   3.412   4.923   3.253
   38DPPC   C29 1879   3.314   5.040   3.256
   38DPPC   C30 1880   3.363   5.141   3.360
   38DPPC   C31 1881   3.248   5.237   3.391
   38DPPC   C32 1882   3.087   4.523   1.931
   38DPPC   O33 1883   2.976   4.532   2.020
   38DPPC   C34 1884   2.916   4.654   2.029
   38DPPC   O35 1885   2.963   4.763   1.996
   38DPPC   C36 1886   2.792   4.645   2.119
   38DPPC   C37 1887   2.807   4.618   2.269
   38DPPC   C38 1888   2.711   4.508   2.313
   38DPPC   C39 1889   2.763   4.445   2.442
   38DPPC   C40 1890   2.656   4.347   2.493
   38DPPC   C41 1891   2.705   4.254   2.604
   38DPPC   C42 1892   2.768   4.323   2.725
   38DPPC   C43 1893   2.784   4.231   2.846
   38DPPC   C44 1894   2.848   4.321   2.952
   38DPPC   C45 1895   3.001   4.329   2.943
   38DPPC   C46 1896   3.052   4.423   3.052
   38DPPC   C47 1897   3.018   4.370   3.192
   38DPPC   C48 1898   3.084   4.460   3.297
   38DPPC   C49 1899   3.018   4.598   3.287
   38DPPC   C50 1900   3.050   4.691   3.404
   39DPPC    C1 1901   4.209   8.061   1.918
   39DPPC    C2 1902   4.290   8.079   1.686
   39DPPC    C3 1903   4.246   7.867   1.802
   39DPPC    N4 1904   4.204   8.006   1.781
   39DPPC    C5 1905   4.071   8.008   1.721
   39DPPC    C6 1906   3.979   8.129   1.738
   39DPPC    O7 1907   3.850   8.109   1.679
   39DPPC    P8 1908   3.731   8.187   1.754
   39DPPC    O9 1909   3.618   8.202   1.660
   39DPPC   O10 1910   3.778   8.316   1.811
   39DPPC   O11 1911   3.691   8.074   1.862
   39DPPC   C12 1912   3.549   8.069   1.875
   39DPPC   C13 1913   3.494   8.013   2.007
   39DPPC   O14 1914   3.352   8.022   2.023
   39DPPC   C15 1915   3.289   7.903   2.036
   39DPPC   O16 1916   3.332   7.811   1.966
   39DPPC   C17 1917   3.146   7.915   2.088
   39DPPC   C18 1918   3.101   7.780   2.145
   39DPPC   C19 1919   2.950   7.780   2.172
   39DPPC   C20 1920   2.889   7.650   2.225
   39DPPC   C21 1921   2.756   7.677   2.296
   39DPPC   C22 1922   2.715   7.547   2.365
   39DPPC   C23 1923   2.572   7.567   2.417
   39DPPC   C24 1924   2.479   7.607   2.302
   39DPPC   C25 1925   2.343   7.647   2.359
   39DPPC   C26 1926   2.280   7.536   2.443
   39DPPC   C27 1927   2.134   7.519   2.400
   39DPPC   C28 1928   2.053   7.398   2.448
   39DPPC   C29 1929   1.907   7.413   2.403
   39DPPC   C30 1930   1.887   7.424   2.252
   39DPPC   C31 1931   1.740   7.412   2.211
   39DPPC   C32 1932   3.589   8.079   2.108
   39DPPC   O33 1933   3.580   8.221   2.120
   39DPPC   C34 1934   3.641   8.267   2.232
   39DPPC   O35 1935   3.729   8.204   2.290
   39DPPC   C36 1936   3.609   8.405   2.290
   39DPPC   C37 1937   3.482   8.411   2.375
   39DPPC   C38 1938   3.508   8.335   2.506
   39DPPC   C39 1939   3.381   8.328   2.591
   39DPPC   C40 1940   3.386   8.285   2.738
   39DPPC   C41 1941   3.259   8.315   2.818
   39DPPC   C42 1942   3.240   8.239   2.950
   39DPPC   C43 1943   3.104   8.279   3.008
   39DPPC   C44 1944   3.109   8.247   3.157
   39DPPC   C45 1945   2.986   8.311   3.222
   39DPPC   C46 1946   2.940   8.237   3.348
   39DPPC   C47 1947   2.815   8.304   3.406
   39DPPC   C48 1948   2.757   8.222   3.522
   39DPPC   C49 1949   2.832   8.247   3.653
   39DPPC   C50 1950   2.789   8.155   3.768
   40DPPC    C1 1951   3.140   7.222   2.103
   40DPPC    C2 1952   3.259   7.128   1.935
   40DPPC    C3 1953   3.231   7.008   2.146
   40DPPC    N4 1954   3.166   7.091   2.044
   40DPPC    C5 1955   3.043   7.030   1.993
   40DPPC    C6 1956   3.034   6.932   1.875
   40DPPC    O7 1957   3.118   6.818   1.895
   40DPPC    P8 1958   3.092   6.700   1.789
   40DPPC    O9 1959   3.206   6.607   1.803
   40DPPC   O10 1960   3.033   6.729   1.657
   40DPPC   O11 1961   2.974   6.649   1.887
   40DPPC   C12 1962   3.039   6.560   1.979
   40DPPC   C13 1963   2.954   6.528   2.102
   40DPPC   O14 1964   2.848   6.440   2.062
   40DPPC   C15 1965   2.873   6.307   2.044
   40DPPC   O16 1966   2.982   6.250   2.034
   40DPPC   C17 1967   2.741   6.231   2.039
   40DPPC   C18 1968   2.677   6.230   2.178
   40DPPC   C19 1969   2.542   6.159   2.175
   40DPPC   C20 1970   2.495   6.140   2.319
   40DPPC   C21 1971   2.484   6.265   2.407
   40DPPC   C22 1972   2.437   6.224   2.547
   40DPPC   C23 1973   2.436   6.338   2.649
   40DPPC   C24 1974   2.377   6.289   2.781
   40DPPC   C25 1975   2.369   6.409   2.876
   40DPPC   C26 1976   2.262   6.503   2.820
   40DPPC   C27 1977   2.219   6.582   2.944
   40DPPC   C28 1978   2.146   6.496   3.046
   40DPPC   C29 1979   2.198   6.490   3.190
   40DPPC   C30 1980   2.141   6.391   3.291
   40DPPC   C31 1981   2.165   6.430   3.437
   40DPPC   C32 1982   2.906   6.659   2.164
   40DPPC   O33 1983   2.979   6.688   2.284
   40DPPC   C34 1984   2.965   6.818   2.322
   40DPPC   O35 1985   2.933   6.912   2.250
   40DPPC   C36 1986   3.010   6.849   2.465
   40DPPC   C37 1987   2.970   6.989   2.513
   40DPPC   C38 1988   3.004   7.001   2.662
   40DPPC   C39 1989   2.873   7.027   2.737
   40DPPC   C40 1990   2.896   7.042   2.888
   40DPPC   C41 1991   2.750   7.072   2.923
   40DPPC   C42 1992   2.737   7.129   3.065
   40DPPC   C43 1993   2.809   7.033   3.160
   40DPPC   C44 1994   2.803   7.096   3.299
   40DPPC   C45 1995   2.659   7.137   3.333
   40DPPC   C46 1996   2.643   7.187   3.477
   40DPPC   C47 1997   2.507   7.254   3.494
   40DPPC   C48 1998   2.499   7.327   3.629
   40DPPC   C49 1999   2.363   7.391   3.657
   40DPPC   C50 2000   2.323   7.507   3.566
   41DPPC    C1 2001   3.096   5.787   1.776
   41DPPC    C2 2002   2.987   5.980   1.805
   41DPPC    C3 2003   3.215   5.980   1.729
   41DPPC    N4 2004   3.083   5.919   1.712
   41DPPC    C5 2005   3.052   5.907   1.568
   41DPPC    C6 2006   2.950   5.812   1.506
   41DPPC    O7 2007   2.812   5.835   1.537
   41DPPC    P8 2008   2.717   5.762   1.429
   41DPPC    O9 2009   2.799   5.740   1.308
   41DPPC   O10 2010   2.594   5.843   1.426
   41DPPC   O11 2011   2.691   5.619   1.499
   41DPPC   C12 2012   2.598   5.618   1.608
   41DPPC   C13 2013   2.528   5.485   1.635
   41DPPC   O14 2014   2.402   5.484   1.704
   41DPPC   C15 2015   2.283   5.537   1.664
   41DPPC   O16 2016   2.289   5.607   1.563
   41DPPC   C17 2017   2.178   5.547   1.775
   41DPPC   C18 2018   2.171   5.407   1.836
   41DPPC   C19 2019   2.061   5.398   1.941
   41DPPC   C20 2020   2.048   5.269   2.022
   41DPPC   C21 2021   1.913   5.283   2.092
   41DPPC   C22 2022   1.867   5.149   2.150
   41DPPC   C23 2023   1.742   5.181   2.233
   41DPPC   C24 2024   1.672   5.060   2.295
   41DPPC   C25 2025   1.560   5.096   2.393
   41DPPC   C26 2026   1.509   4.963   2.450
   41DPPC   C27 2027   1.418   5.005   2.565
   41DPPC   C28 2028   1.513   5.078   2.660
   41DPPC   C29 2029   1.441   5.113   2.790
   41DPPC   C30 2030   1.540   5.138   2.903
   41DPPC   C31 2031   1.470   5.141   3.039
   41DPPC   C32 2032   2.635   5.402   1.707
   41DPPC   O33 2033   2.713   5.483   1.796
   41DPPC   C34 2034   2.818   5.417   1.850
   41DPPC   O35 2035   2.861   5.305   1.823
   41DPPC   C36 2036   2.889   5.490   1.964
   41DPPC   C37 2037   2.871   5.394   2.082
   41DPPC   C38 2038   2.939   5.447   2.209
   41DPPC   C39 2039   2.918   5.362   2.335
   41DPPC   C40 2040   3.021   5.393   2.444
   41DPPC   C41 2041   2.973   5.297   2.554
   41DPPC   C42 2042   3.061   5.301   2.679
   41DPPC   C43 2043   3.185   5.213   2.667
   41DPPC   C44 2044   3.268   5.237   2.794
   41DPPC   C45 2045   3.380   5.133   2.792
   41DPPC   C46 2046   3.467   5.143   2.666
   41DPPC   C47 2047   3.568   5.028   2.671
   41DPPC   C48 2048   3.690   5.071   2.590
   41DPPC   C49 2049   3.771   5.185   2.653
   41DPPC   C50 2050   3.892   5.207   2.561
   42DPPC    C1 2051   1.939   4.526   1.799
   42DPPC    C2 2052   2.080   4.555   1.597
   42DPPC    C3 2053   2.081   4.358   1.717
   42DPPC    N4 2054   1.992   4.467   1.675
   42DPPC    C5 2055   1.887   4.411   1.588
   42DPPC    C6 2056   1.772   4.505   1.552
   42DPPC    O7 2057   1.800   4.606   1.454
   42DPPC    P8 2058   1.665   4.691   1.436
   42DPPC    O9 2059   1.548   4.602   1.420
   42DPPC   O10 2060   1.699   4.790   1.332
   42DPPC   O11 2061   1.678   4.757   1.583
   42DPPC   C12 2062   1.749   4.881   1.575
   42DPPC   C13 2063   1.788   4.932   1.713
   42DPPC   O14 2064   1.899   4.872   1.782
   42DPPC   C15 2065   2.026   4.903   1.747
   42DPPC   O16 2066   2.055   4.951   1.637
   42DPPC   C17 2067   2.130   4.866   1.853
   42DPPC   C18 2068   2.091   4.896   1.998
   42DPPC   C19 2069   2.004   4.782   2.050
   42DPPC   C20 2070   2.004   4.767   2.203
   42DPPC   C21 2071   1.932   4.635   2.231
   42DPPC   C22 2072   1.934   4.632   2.383
   42DPPC   C23 2073   1.883   4.504   2.448
   42DPPC   C24 2074   1.863   4.539   2.596
   42DPPC   C25 2075   1.819   4.415   2.673
   42DPPC   C26 2076   1.816   4.446   2.823
   42DPPC   C27 2077   1.774   4.333   2.918
   42DPPC   C28 2078   1.765   4.379   3.063
   42DPPC   C29 2079   1.902   4.429   3.110
   42DPPC   C30 2080   1.901   4.474   3.256
   42DPPC   C31 2081   1.845   4.616   3.256
   42DPPC   C32 2082   1.661   4.949   1.797
   42DPPC   O33 2083   1.594   5.073   1.772
   42DPPC   C34 2084   1.494   5.085   1.863
   42DPPC   O35 2085   1.445   4.986   1.917
   42DPPC   C36 2086   1.434   5.223   1.890
   42DPPC   C37 2087   1.374   5.237   2.030
   42DPPC   C38 2088   1.349   5.382   2.072
   42DPPC   C39 2089   1.222   5.435   2.004
   42DPPC   C40 2090   1.174   5.553   2.088
   42DPPC   C41 2091   1.038   5.518   2.150
   42DPPC   C42 2092   1.024   5.609   2.272
   42DPPC   C43 2093   0.912   5.569   2.369
   42DPPC   C44 2094   0.922   5.656   2.495
   42DPPC   C45 2095   0.839   5.588   2.605
   42DPPC   C46 2096   0.829   5.663   2.738
   42DPPC   C47 2097   0.719   5.604   2.826
   42DPPC   C48 2098   0.722   5.685   2.956
   42DPPC   C49 2099   0.606   5.669   3.054
   42DPPC   C50 2100   0.629   5.749   3.182
   43DPPC    C1 2101   1.676   6.537   1.598
   43DPPC    C2 2102   1.453   6.614   1.589
   43DPPC    C3 2103   1.636   6.738   1.691
   43DPPC    N4 2104   1.593   6.656   1.577
   43DPPC    C5 2105   1.647   6.714   1.453
   43DPPC    C6 2106   1.560   6.822   1.388
   43DPPC    O7 2107   1.530   6.926   1.481
   43DPPC    P8 2108   1.397   7.002   1.433
   43DPPC    O9 2109   1.336   6.944   1.311
   43DPPC   O10 2110   1.421   7.148   1.438
   43DPPC   O11 2111   1.316   6.951   1.562
   43DPPC   C12 2112   1.212   7.038   1.608
   43DPPC   C13 2113   1.141   6.980   1.730
   43DPPC   O14 2114   1.085   7.079   1.820
   43DPPC   C15 2115   0.951   7.076   1.839
   43DPPC   O16 2116   0.879   7.039   1.747
   43DPPC   C17 2117   0.908   7.162   1.958
   43DPPC   C18 2118   0.959   7.306   1.948
   43DPPC   C19 2119   0.903   7.385   2.066
   43DPPC   C20 2120   0.983   7.514   2.078
   43DPPC   C21 2121   0.911   7.604   2.178
   43DPPC   C22 2122   0.892   7.527   2.309
   43DPPC   C23 2123   0.811   7.605   2.412
   43DPPC   C24 2124   0.828   7.529   2.543
   43DPPC   C25 2125   0.974   7.523   2.588
   43DPPC   C26 2126   0.962   7.471   2.732
   43DPPC   C27 2127   1.090   7.412   2.791
   43DPPC   C28 2128   1.196   7.509   2.845
   43DPPC   C29 2129   1.307   7.439   2.924
   43DPPC   C30 2130   1.415   7.538   2.968
   43DPPC   C31 2131   1.517   7.475   3.063
   43DPPC   C32 2132   1.244   6.892   1.800
   43DPPC   O33 2133   1.215   6.799   1.905
   43DPPC   C34 2134   1.309   6.731   1.975
   43DPPC   O35 2135   1.412   6.688   1.922
   43DPPC   C36 2136   1.261   6.651   2.096
   43DPPC   C37 2137   1.263   6.732   2.226
   43DPPC   C38 2138   1.180   6.645   2.321
   43DPPC   C39 2139   1.129   6.732   2.436
   43DPPC   C40 2140   1.046   6.846   2.376
   43DPPC   C41 2141   0.975   6.933   2.479
   43DPPC   C42 2142   0.858   7.007   2.414
   43DPPC   C43 2143   0.762   7.070   2.515
   43DPPC   C44 2144   0.716   6.985   2.633
   43DPPC   C45 2145   0.631   7.083   2.714
   43DPPC   C46 2146   0.699   7.156   2.830
   43DPPC   C47 2147   0.596   7.227   2.918
   43DPPC   C48 2148   0.681   7.311   3.014
   43DPPC   C49 2149   0.598   7.429   3.062
   43DPPC   C50 2150   0.568   7.524   2.945
   44DPPC    C1 2151   4.884   1.727   1.409
   44DPPC    C2 2152   4.671   1.810   1.376
   44DPPC    C3 2153   4.758   1.812   1.590
   44DPPC    N4 2154   4.795   1.836   1.450
   44DPPC    C5 2155   4.864   1.965   1.434
   44DPPC    C6 2156   4.784   2.095   1.453
   44DPPC    O7 2157   4.733   2.121   1.584
   44DPPC    P8 2158   4.713   2.281   1.588
   44DPPC    O9 2159   4.604   2.301   1.687
   44DPPC   O10 2160   4.686   2.333   1.452
   44DPPC   O11 2161   4.860   2.319   1.642
   44DPPC   C12 2162   4.872   2.289   1.781
   44DPPC   C13 2163   5.020   2.260   1.804
   44DPPC   O14 2164   5.049   2.179   1.919
   44DPPC   C15 2165   5.170   2.117   1.922
   44DPPC   O16 2166   5.224   2.110   1.812
   44DPPC   C17 2167   5.210   2.033   2.044
   44DPPC   C18 2168   5.362   2.039   2.061
   44DPPC   C19 2169   5.389   2.002   2.207
   44DPPC   C20 2170   5.541   2.003   2.230
   44DPPC   C21 2171   5.583   1.985   2.376
   44DPPC   C22 2172   5.734   1.982   2.404
   44DPPC   C23 2173   5.764   1.963   2.553
   44DPPC   C24 2174   5.705   1.838   2.618
   44DPPC   C25 2175   5.720   1.838   2.770
   44DPPC   C26 2176   5.845   1.768   2.823
   44DPPC   C27 2177   5.829   1.735   2.971
   44DPPC   C28 2178   5.929   1.624   3.007
   44DPPC   C29 2179   5.930   1.583   3.154
   44DPPC   C30 2180   6.047   1.486   3.171
   44DPPC   C31 2181   6.060   1.437   3.315
   44DPPC   C32 2182   5.080   2.401   1.807
   44DPPC   O33 2183   5.015   2.492   1.896
   44DPPC   C34 2184   5.065   2.618   1.903
   44DPPC   O35 2185   5.156   2.659   1.831
   44DPPC   C36 2186   4.995   2.706   2.007
   44DPPC   C37 2187   5.074   2.831   2.045
   44DPPC   C38 2188   5.174   2.783   2.150
   44DPPC   C39 2189   5.102   2.765   2.284
   44DPPC   C40 2190   5.212   2.718   2.379
   44DPPC   C41 2191   5.146   2.684   2.513
   44DPPC   C42 2192   5.260   2.654   2.611
   44DPPC   C43 2193   5.202   2.582   2.733
   44DPPC   C44 2194   5.315   2.556   2.832
   44DPPC   C45 2195   5.262   2.500   2.964
   44DPPC   C46 2196   5.371   2.512   3.071
   44DPPC   C47 2197   5.326   2.426   3.190
   44DPPC   C48 2198   5.437   2.456   3.291
   44DPPC   C49 2199   5.566   2.421   3.217
   44DPPC   C50 2200   5.682   2.407   3.316
   45DPPC    C1 2201   0.215   4.354   1.293
   45DPPC    C2 2202   0.255   4.415   1.068
   45DPPC    C3 2203   0.434   4.389   1.222
   45DPPC    N4 2204   0.305   4.332   1.179
   45DPPC    C5 2205   0.322   4.189   1.148
   45DPPC    C6 2206   0.346   4.096   1.267
   45DPPC    O7 2207   0.483   4.060   1.290
   45DPPC    P8 2208   0.491   3.958   1.414
   45DPPC    O9 2209   0.637   3.935   1.412
   45DPPC   O10 2210   0.389   3.858   1.373
   45DPPC   O11 2211   0.440   4.031   1.547
   45DPPC   C12 2212   0.552   4.051   1.633
   45DPPC   C13 2213   0.529   4.151   1.747
   45DPPC   O14 2214   0.624   4.146   1.854
   45DPPC   C15 2215   0.721   4.242   1.851
   45DPPC   O16 2216   0.785   4.260   1.748
   45DPPC   C17 2217   0.773   4.264   1.993
   45DPPC   C18 2218   0.674   4.357   2.064
   45DPPC   C19 2219   0.703   4.378   2.213
   45DPPC   C20 2220   0.597   4.475   2.265
   45DPPC   C21 2221   0.633   4.570   2.379
   45DPPC   C22 2222   0.518   4.671   2.389
   45DPPC   C23 2223   0.383   4.607   2.419
   45DPPC   C24 2224   0.270   4.710   2.413
   45DPPC   C25 2225   0.164   4.635   2.494
   45DPPC   C26 2226   0.046   4.732   2.501
   45DPPC   C27 2227  -0.051   4.679   2.607
   45DPPC   C28 2228   0.025   4.634   2.732
   45DPPC   C29 2229  -0.061   4.590   2.851
   45DPPC   C30 2230   0.021   4.555   2.975
   45DPPC   C31 2231  -0.053   4.463   3.072
   45DPPC   C32 2232   0.385   4.130   1.793
   45DPPC   O33 2233   0.347   4.239   1.878
   45DPPC   C34 2234   0.219   4.234   1.924
   45DPPC   O35 2235   0.138   4.157   1.873
   45DPPC   C36 2236   0.189   4.333   2.037
   45DPPC   C37 2237   0.092   4.270   2.137
   45DPPC   C38 2238   0.107   4.348   2.267
   45DPPC   C39 2239   0.013   4.289   2.373
   45DPPC   C40 2240   0.048   4.148   2.421
   45DPPC   C41 2241  -0.054   4.102   2.525
   45DPPC   C42 2242  -0.079   4.176   2.657
   45DPPC   C43 2243  -0.178   4.086   2.731
   45DPPC   C44 2244  -0.115   3.946   2.730
   45DPPC   C45 2245  -0.224   3.848   2.776
   45DPPC   C46 2246  -0.272   3.887   2.916
   45DPPC   C47 2247  -0.369   3.789   2.983
   45DPPC   C48 2248  -0.510   3.790   2.923
   45DPPC   C49 2249  -0.583   3.659   2.951
   45DPPC   C50 2250  -0.714   3.642   2.873
   46DPPC    C1 2251   9.333   1.777   1.189
   46DPPC    C2 2252   9.338   1.833   1.405
   46DPPC    C3 2253   9.545   1.823   1.267
   46DPPC    N4 2254   9.406   1.867   1.279
   46DPPC    C5 2255   9.392   2.007   1.237
   46DPPC    C6 2256   9.374   2.129   1.328
   46DPPC    O7 2257   9.257   2.137   1.410
   46DPPC    P8 2258   9.250   2.282   1.480
   46DPPC    O9 2259   9.114   2.310   1.533
   46DPPC   O10 2260   9.331   2.378   1.403
   46DPPC   O11 2261   9.345   2.254   1.607
   46DPPC   C12 2262   9.279   2.183   1.712
   46DPPC   C13 2263   9.384   2.165   1.821
   46DPPC   O14 2264   9.370   2.045   1.899
   46DPPC   C15 2265   9.423   1.932   1.845
   46DPPC   O16 2266   9.459   1.923   1.728
   46DPPC   C17 2267   9.423   1.812   1.940
   46DPPC   C18 2268   9.356   1.829   2.077
   46DPPC   C19 2269   9.305   1.698   2.137
   46DPPC   C20 2270   9.253   1.726   2.278
   46DPPC   C21 2271   9.208   1.595   2.344
   46DPPC   C22 2272   9.127   1.611   2.473
   46DPPC   C23 2273   9.087   1.471   2.519
   46DPPC   C24 2274   8.989   1.448   2.634
   46DPPC   C25 2275   9.036   1.506   2.768
   46DPPC   C26 2276   8.946   1.449   2.878
   46DPPC   C27 2277   8.925   1.558   2.982
   46DPPC   C28 2278   9.063   1.578   3.044
   46DPPC   C29 2279   9.047   1.656   3.175
   46DPPC   C30 2280   8.944   1.592   3.268
   46DPPC   C31 2281   8.939   1.664   3.404
   46DPPC   C32 2282   9.391   2.298   1.894
   46DPPC   O33 2283   9.273   2.336   1.965
   46DPPC   C34 2284   9.273   2.460   2.020
   46DPPC   O35 2285   9.372   2.529   1.993
   46DPPC   C36 2286   9.144   2.512   2.084
   46DPPC   C37 2287   9.131   2.456   2.225
   46DPPC   C38 2288   9.055   2.573   2.289
   46DPPC   C39 2289   9.032   2.541   2.436
   46DPPC   C40 2290   8.895   2.477   2.463
   46DPPC   C41 2291   8.874   2.427   2.606
   46DPPC   C42 2292   8.748   2.341   2.618
   46DPPC   C43 2293   8.715   2.296   2.760
   46DPPC   C44 2294   8.588   2.212   2.781
   46DPPC   C45 2295   8.557   2.196   2.930
   46DPPC   C46 2296   8.415   2.204   2.987
   46DPPC   C47 2297   8.402   2.188   3.139
   46DPPC   C48 2298   8.490   2.300   3.196
   46DPPC   C49 2299   8.477   2.293   3.348
   46DPPC   C50 2300   8.591   2.373   3.411
   47DPPC    C1 2301   7.658   2.077   1.222
   47DPPC    C2 2302   7.673   1.908   1.058
   47DPPC    C3 2303   7.724   1.861   1.286
   47DPPC    N4 2304   7.633   1.935   1.197
   47DPPC    C5 2305   7.491   1.897   1.197
   47DPPC    C6 2306   7.432   1.836   1.325
   47DPPC    O7 2307   7.423   1.912   1.446
   47DPPC    P8 2308   7.405   1.828   1.582
   47DPPC    O9 2309   7.357   1.698   1.530
   47DPPC   O10 2310   7.324   1.908   1.676
   47DPPC   O11 2311   7.562   1.825   1.613
   47DPPC   C12 2312   7.602   1.769   1.739
   47DPPC   C13 2313   7.733   1.823   1.797
   47DPPC   O14 2314   7.800   1.734   1.887
   47DPPC   C15 2315   7.861   1.624   1.835
   47DPPC   O16 2316   7.885   1.609   1.716
   47DPPC   C17 2317   7.887   1.511   1.935
   47DPPC   C18 2318   7.793   1.393   1.910
   47DPPC   C19 2319   7.790   1.312   2.040
   47DPPC   C20 2320   7.740   1.393   2.160
   47DPPC   C21 2321   7.602   1.452   2.130
   47DPPC   C22 2322   7.555   1.523   2.256
   47DPPC   C23 2323   7.627   1.655   2.282
   47DPPC   C24 2324   7.537   1.730   2.380
   47DPPC   C25 2325   7.399   1.767   2.324
   47DPPC   C26 2326   7.324   1.841   2.435
   47DPPC   C27 2327   7.328   1.778   2.575
   47DPPC   C28 2328   7.263   1.876   2.673
   47DPPC   C29 2329   7.246   1.802   2.806
   47DPPC   C30 2330   7.155   1.873   2.906
   47DPPC   C31 2331   7.139   1.806   3.043
   47DPPC   C32 2332   7.694   1.960   1.855
   47DPPC   O33 2333   7.565   1.965   1.917
   47DPPC   C34 2334   7.509   2.081   1.959
   47DPPC   O35 2335   7.561   2.193   1.951
   47DPPC   C36 2336   7.383   2.052   2.041
   47DPPC   C37 2337   7.366   2.119   2.177
   47DPPC   C38 2338   7.218   2.130   2.211
   47DPPC   C39 2339   7.190   2.204   2.342
   47DPPC   C40 2340   7.051   2.170   2.395
   47DPPC   C41 2341   7.020   2.023   2.423
   47DPPC   C42 2342   6.888   2.006   2.498
   47DPPC   C43 2343   6.899   1.865   2.558
   47DPPC   C44 2344   6.775   1.861   2.647
   47DPPC   C45 2345   6.767   1.750   2.752
   47DPPC   C46 2346   6.704   1.807   2.878
   47DPPC   C47 2347   6.740   1.716   2.996
   47DPPC   C48 2348   6.697   1.763   3.135
   47DPPC   C49 2349   6.779   1.887   3.169
   47DPPC   C50 2350   6.767   1.909   3.320
   48DPPC    C1 2351   8.579   0.552   0.792
   48DPPC    C2 2352   8.403   0.584   0.642
   48DPPC    C3 2353   8.488   0.362   0.671
   48DPPC    N4 2354   8.457   0.488   0.739
   48DPPC    C5 2355   8.373   0.473   0.858
   48DPPC    C6 2356   8.299   0.346   0.900
   48DPPC    O7 2357   8.265   0.365   1.038
   48DPPC    P8 2358   8.185   0.231   1.078
   48DPPC    O9 2359   8.247   0.114   1.011
   48DPPC   O10 2360   8.043   0.262   1.049
   48DPPC   O11 2361   8.215   0.242   1.236
   48DPPC   C12 2362   8.353   0.240   1.275
   48DPPC   C13 2363   8.355   0.284   1.422
   48DPPC   O14 2364   8.478   0.287   1.496
   48DPPC   C15 2365   8.564   0.392   1.485
   48DPPC   O16 2366   8.541   0.469   1.393
   48DPPC   C17 2367   8.699   0.400   1.557
   48DPPC   C18 2368   8.690   0.321   1.688
   48DPPC   C19 2369   8.829   0.328   1.751
   48DPPC   C20 2370   8.843   0.269   1.891
   48DPPC   C21 2371   8.756   0.342   1.994
   48DPPC   C22 2372   8.781   0.268   2.126
   48DPPC   C23 2373   8.681   0.153   2.110
   48DPPC   C24 2374   8.672   0.059   2.229
   48DPPC   C25 2375   8.655   0.139   2.358
   48DPPC   C26 2376   8.639   0.048   2.480
   48DPPC   C27 2377   8.493   0.003   2.490
   48DPPC   C28 2378   8.445  -0.065   2.618
   48DPPC   C29 2379   8.318  -0.149   2.600
   48DPPC   C30 2380   8.257  -0.205   2.729
   48DPPC   C31 2381   8.156  -0.311   2.683
   48DPPC   C32 2382   8.245   0.203   1.489
   48DPPC   O33 2383   8.221   0.209   1.630
   48DPPC   C34 2384   8.154   0.317   1.675
   48DPPC   O35 2385   8.138   0.410   1.596
   48DPPC   C36 2386   8.109   0.323   1.821
   48DPPC   C37 2387   8.218   0.347   1.926
   48DPPC   C38 2388   8.150   0.360   2.062
   48DPPC   C39 2389   8.263   0.381   2.162
   48DPPC   C40 2390   8.213   0.374   2.307
   48DPPC   C41 2391   8.148   0.504   2.352
   48DPPC   C42 2392   8.114   0.489   2.500
   48DPPC   C43 2393   8.091   0.627   2.562
   48DPPC   C44 2394   8.039   0.630   2.706
   48DPPC   C45 2395   8.034   0.777   2.748
   48DPPC   C46 2396   8.011   0.804   2.897
   48DPPC   C47 2397   8.119   0.732   2.978
   48DPPC   C48 2398   8.125   0.761   3.129
   48DPPC   C49 2399   8.163   0.906   3.156
   48DPPC   C50 2400   8.171   0.923   3.308
   49DPPC    C1 2401   4.268   7.384   2.187
   49DPPC    C2 2402   4.201   7.395   2.425
   49DPPC    C3 2403   4.228   7.584   2.293
   49DPPC    N4 2404   4.181   7.445   2.288
   49DPPC    C5 2405   4.043   7.449   2.236
   49DPPC    C6 2406   3.973   7.316   2.206
   49DPPC    O7 2407   3.844   7.339   2.150
   49DPPC    P8 2408   3.797   7.245   2.028
   49DPPC    O9 2409   3.916   7.251   1.940
   49DPPC   O10 2410   3.672   7.315   1.990
   49DPPC   O11 2411   3.798   7.118   2.126
   49DPPC   C12 2412   3.672   7.050   2.123
   49DPPC   C13 2413   3.668   6.922   2.208
   49DPPC   O14 2414   3.552   6.839   2.197
   49DPPC   C15 2415   3.535   6.764   2.085
   49DPPC   O16 2416   3.613   6.765   1.990
   49DPPC   C17 2417   3.422   6.661   2.096
   49DPPC   C18 2418   3.481   6.539   2.167
   49DPPC   C19 2419   3.375   6.432   2.195
   49DPPC   C20 2420   3.273   6.474   2.301
   49DPPC   C21 2421   3.163   6.368   2.311
   49DPPC   C22 2422   3.068   6.395   2.428
   49DPPC   C23 2423   2.942   6.308   2.419
   49DPPC   C24 2424   2.962   6.156   2.421
   49DPPC   C25 2425   2.833   6.087   2.467
   49DPPC   C26 2426   2.845   5.936   2.447
   49DPPC   C27 2427   2.747   5.848   2.525
   49DPPC   C28 2428   2.777   5.699   2.505
   49DPPC   C29 2429   2.679   5.616   2.589
   49DPPC   C30 2430   2.692   5.615   2.741
   49DPPC   C31 2431   2.702   5.471   2.791
   49DPPC   C32 2432   3.711   6.974   2.345
   49DPPC   O33 2433   3.611   7.060   2.401
   49DPPC   C34 2434   3.638   7.109   2.525
   49DPPC   O35 2435   3.738   7.081   2.591
   49DPPC   C36 2436   3.512   7.168   2.589
   49DPPC   C37 2437   3.509   7.318   2.561
   49DPPC   C38 2438   3.397   7.382   2.644
   49DPPC   C39 2439   3.353   7.515   2.583
   49DPPC   C40 2440   3.245   7.581   2.670
   49DPPC   C41 2441   3.114   7.503   2.663
   49DPPC   C42 2442   3.000   7.554   2.752
   49DPPC   C43 2443   2.879   7.462   2.732
   49DPPC   C44 2444   2.751   7.535   2.773
   49DPPC   C45 2445   2.755   7.575   2.921
   49DPPC   C46 2446   2.619   7.632   2.962
   49DPPC   C47 2447   2.508   7.530   2.937
   49DPPC   C48 2448   2.372   7.586   2.981
   49DPPC   C49 2449   2.246   7.513   2.935
   49DPPC   C50 2450   2.249   7.495   2.784
   50DPPC    C1 2451   5.546   1.971   1.379
   50DPPC    C2 2452   5.595   1.785   1.218
   50DPPC    C3 2453   5.756   1.925   1.301
   50DPPC    N4 2454   5.631   1.858   1.341
   50DPPC    C5 2455   5.663   1.752   1.436
   50DPPC    C6 2456   5.556   1.694   1.529
   50DPPC    O7 2457   5.609   1.588   1.608
   50DPPC    P8 2458   5.486   1.487   1.631
   50DPPC    O9 2459   5.572   1.377   1.678
   50DPPC   O10 2460   5.418   1.476   1.499
   50DPPC   O11 2461   5.415   1.576   1.745
   50DPPC   C12 2462   5.472   1.540   1.871
   50DPPC   C13 2463   5.396   1.599   1.990
   50DPPC   O14 2464   5.445   1.557   2.118
   50DPPC   C15 2465   5.542   1.625   2.185
   50DPPC   O16 2466   5.617   1.703   2.126
   50DPPC   C17 2467   5.600   1.553   2.307
   50DPPC   C18 2468   5.507   1.575   2.426
   50DPPC   C19 2469   5.561   1.489   2.540
   50DPPC   C20 2470   5.477   1.497   2.667
   50DPPC   C21 2471   5.556   1.448   2.788
   50DPPC   C22 2472   5.497   1.477   2.926
   50DPPC   C23 2473   5.583   1.417   3.037
   50DPPC   C24 2474   5.517   1.455   3.170
   50DPPC   C25 2475   5.378   1.390   3.178
   50DPPC   C26 2476   5.294   1.457   3.286
   50DPPC   C27 2477   5.236   1.592   3.245
   50DPPC   C28 2478   5.146   1.669   3.342
   50DPPC   C29 2479   5.146   1.816   3.302
   50DPPC   C30 2480   5.073   1.893   3.412
   50DPPC   C31 2481   5.093   2.043   3.395
   50DPPC   C32 2482   5.246   1.586   1.964
   50DPPC   O33 2483   5.161   1.666   2.048
   50DPPC   C34 2484   5.134   1.624   2.174
   50DPPC   O35 2485   5.105   1.504   2.184
   50DPPC   C36 2486   5.052   1.732   2.245
   50DPPC   C37 2487   5.116   1.782   2.374
   50DPPC   C38 2488   5.049   1.904   2.437
   50DPPC   C39 2489   4.906   1.869   2.479
   50DPPC   C40 2490   4.856   2.008   2.520
   50DPPC   C41 2491   4.707   2.017   2.556
   50DPPC   C42 2492   4.675   1.911   2.662
   50DPPC   C43 2493   4.582   1.947   2.778
   50DPPC   C44 2494   4.565   1.824   2.866
   50DPPC   C45 2495   4.492   1.844   2.999
   50DPPC   C46 2496   4.473   1.707   3.065
   50DPPC   C47 2497   4.371   1.709   3.179
   50DPPC   C48 2498   4.438   1.783   3.295
   50DPPC   C49 2499   4.339   1.807   3.409
   50DPPC   C50 2500   4.393   1.878   3.533
   51DPPC    C1 2501   4.057   5.679   1.834
   51DPPC    C2 2502   4.256   5.795   1.828
   51DPPC    C3 2503   4.092   5.849   1.669
   51DPPC    N4 2504   4.111   5.813   1.811
   51DPPC    C5 2505   4.066   5.910   1.912
   51DPPC    C6 2506   3.920   5.953   1.897
   51DPPC    O7 2507   3.824   5.857   1.942
   51DPPC    P8 2508   3.678   5.905   1.893
   51DPPC    O9 2509   3.591   5.789   1.864
   51DPPC   O10 2510   3.680   6.004   1.783
   51DPPC   O11 2511   3.626   5.982   2.025
   51DPPC   C12 2512   3.636   5.893   2.136
   51DPPC   C13 2513   3.747   5.933   2.234
   51DPPC   O14 2514   3.781   5.826   2.323
   51DPPC   C15 2515   3.902   5.764   2.328
   51DPPC   O16 2516   3.991   5.772   2.244
   51DPPC   C17 2517   3.902   5.649   2.429
   51DPPC   C18 2518   3.943   5.704   2.566
   51DPPC   C19 2519   3.981   5.580   2.647
   51DPPC   C20 2520   4.015   5.644   2.782
   51DPPC   C21 2521   3.994   5.557   2.906
   51DPPC   C22 2522   4.073   5.427   2.886
   51DPPC   C23 2523   4.070   5.338   3.010
   51DPPC   C24 2524   4.131   5.199   2.986
   51DPPC   C25 2525   4.196   5.144   3.113
   51DPPC   C26 2526   4.254   5.003   3.105
   51DPPC   C27 2527   4.352   4.987   3.222
   51DPPC   C28 2528   4.431   4.858   3.198
   51DPPC   C29 2529   4.338   4.737   3.204
   51DPPC   C30 2530   4.419   4.609   3.185
   51DPPC   C31 2531   4.478   4.598   3.044
   51DPPC   C32 2532   3.720   6.072   2.292
   51DPPC   O33 2533   3.592   6.077   2.358
   51DPPC   C34 2534   3.555   6.190   2.423
   51DPPC   O35 2535   3.631   6.285   2.440
   51DPPC   C36 2536   3.416   6.195   2.488
   51DPPC   C37 2537   3.449   6.171   2.636
   51DPPC   C38 2538   3.327   6.148   2.725
   51DPPC   C39 2539   3.223   6.260   2.729
   51DPPC   C40 2540   3.113   6.248   2.835
   51DPPC   C41 2541   3.181   6.218   2.969
   51DPPC   C42 2542   3.083   6.232   3.085
   51DPPC   C43 2543   3.138   6.155   3.205
   51DPPC   C44 2544   3.096   6.214   3.340
   51DPPC   C45 2545   3.150   6.123   3.450
   51DPPC   C46 2546   3.087   6.173   3.580
   51DPPC   C47 2547   2.943   6.126   3.560
   51DPPC   C48 2548   2.857   6.184   3.673
   51DPPC   C49 2549   2.716   6.125   3.671
   51DPPC   C50 2550   2.653   6.184   3.797
   52DPPC    C1 2551   0.792   6.103   1.366
   52DPPC    C2 2552   0.846   6.177   1.576
   52DPPC    C3 2553   1.022   6.135   1.428
   52DPPC    N4 2554   0.887   6.192   1.436
   52DPPC    C5 2555   0.850   6.329   1.396
   52DPPC    C6 2556   0.938   6.441   1.450
   52DPPC    O7 2557   0.908   6.479   1.585
   52DPPC    P8 2558   1.016   6.567   1.665
   52DPPC    O9 2559   0.943   6.600   1.790
   52DPPC   O10 2560   1.066   6.672   1.573
   52DPPC   O11 2561   1.121   6.446   1.668
   52DPPC   C12 2562   1.096   6.368   1.786
   52DPPC   C13 2563   1.169   6.236   1.760
   52DPPC   O14 2564   1.112   6.137   1.846
   52DPPC   C15 2565   1.107   6.003   1.820
   52DPPC   O16 2566   1.158   5.956   1.718
   52DPPC   C17 2567   1.033   5.929   1.931
   52DPPC   C18 2568   0.888   5.891   1.898
   52DPPC   C19 2569   0.834   5.803   2.010
   52DPPC   C20 2570   0.685   5.783   1.986
   52DPPC   C21 2571   0.637   5.646   2.036
   52DPPC   C22 2572   0.629   5.640   2.189
   52DPPC   C23 2573   0.590   5.499   2.232
   52DPPC   C24 2574   0.561   5.483   2.381
   52DPPC   C25 2575   0.446   5.568   2.436
   52DPPC   C26 2576   0.416   5.550   2.584
   52DPPC   C27 2577   0.291   5.634   2.612
   52DPPC   C28 2578   0.245   5.621   2.757
   52DPPC   C29 2579   0.136   5.726   2.782
   52DPPC   C30 2580   0.109   5.718   2.932
   52DPPC   C31 2581  -0.006   5.814   2.964
   52DPPC   C32 2582   1.319   6.260   1.775
   52DPPC   O33 2583   1.363   6.304   1.904
   52DPPC   C34 2584   1.493   6.321   1.938
   52DPPC   O35 2585   1.581   6.316   1.852
   52DPPC   C36 2586   1.514   6.384   2.076
   52DPPC   C37 2587   1.631   6.326   2.156
   52DPPC   C38 2588   1.624   6.174   2.140
   52DPPC   C39 2589   1.756   6.109   2.181
   52DPPC   C40 2590   1.775   6.137   2.330
   52DPPC   C41 2591   1.896   6.065   2.389
   52DPPC   C42 2592   1.966   6.154   2.492
   52DPPC   C43 2593   1.888   6.178   2.621
   52DPPC   C44 2594   1.847   6.043   2.680
   52DPPC   C45 2595   1.754   6.061   2.800
   52DPPC   C46 2596   1.717   5.922   2.851
   52DPPC   C47 2597   1.719   5.921   3.004
   52DPPC   C48 2598   1.851   5.980   3.053
   52DPPC   C49 2599   1.870   6.019   3.200
   52DPPC   C50 2600   2.018   6.057   3.204
   53DPPC    C1 2601   4.682   3.320   1.260
   53DPPC    C2 2602   4.465   3.230   1.331
   53DPPC    C3 2603   4.549   3.189   1.116
   53DPPC    N4 2604   4.589   3.206   1.256
   53DPPC    C5 2605   4.655   3.083   1.304
   53DPPC    C6 2606   4.704   3.081   1.449
   53DPPC    O7 2607   4.779   2.961   1.470
   53DPPC    P8 2608   4.736   2.917   1.619
   53DPPC    O9 2609   4.803   2.787   1.644
   53DPPC   O10 2610   4.591   2.940   1.635
   53DPPC   O11 2611   4.809   3.051   1.671
   53DPPC   C12 2612   4.907   3.035   1.774
   53DPPC   C13 2613   4.989   3.159   1.808
   53DPPC   O14 2614   5.106   3.133   1.886
   53DPPC   C15 2615   5.207   3.224   1.889
   53DPPC   O16 2616   5.203   3.326   1.820
   53DPPC   C17 2617   5.301   3.221   2.010
   53DPPC   C18 2618   5.220   3.197   2.137
   53DPPC   C19 2619   5.121   3.310   2.165
   53DPPC   C20 2620   5.029   3.282   2.284
   53DPPC   C21 2621   4.963   3.144   2.272
   53DPPC   C22 2622   4.911   3.095   2.407
   53DPPC   C23 2623   4.831   3.204   2.480
   53DPPC   C24 2624   4.817   3.171   2.629
   53DPPC   C25 2625   4.726   3.270   2.701
   53DPPC   C26 2626   4.731   3.232   2.850
   53DPPC   C27 2627   4.626   3.313   2.926
   53DPPC   C28 2628   4.634   3.274   3.074
   53DPPC   C29 2629   4.624   3.129   3.124
   53DPPC   C30 2630   4.620   3.127   3.277
   53DPPC   C31 2631   4.583   2.989   3.333
   53DPPC   C32 2632   4.894   3.272   1.849
   53DPPC   O33 2633   4.791   3.251   1.946
   53DPPC   C34 2634   4.709   3.358   1.965
   53DPPC   O35 2635   4.741   3.469   1.923
   53DPPC   C36 2636   4.580   3.323   2.039
   53DPPC   C37 2637   4.601   3.299   2.189
   53DPPC   C38 2638   4.461   3.274   2.245
   53DPPC   C39 2639   4.471   3.283   2.397
   53DPPC   C40 2640   4.348   3.235   2.474
   53DPPC   C41 2641   4.370   3.237   2.625
   53DPPC   C42 2642   4.236   3.212   2.693
   53DPPC   C43 2643   4.261   3.235   2.842
   53DPPC   C44 2644   4.138   3.181   2.915
   53DPPC   C45 2645   4.187   3.203   3.059
   53DPPC   C46 2646   4.081   3.170   3.164
   53DPPC   C47 2647   4.158   3.204   3.291
   53DPPC   C48 2648   4.097   3.150   3.421
   53DPPC   C49 2649   4.200   3.164   3.533
   53DPPC   C50 2650   4.148   3.092   3.658
   54DPPC    C1 2651   6.227   0.313   1.738
   54DPPC    C2 2652   6.162   0.243   1.520
   54DPPC    C3 2653   6.332   0.417   1.542
   54DPPC    N4 2654   6.275   0.294   1.600
   54DPPC    C5 2655   6.368   0.181   1.601
   54DPPC    C6 2656   6.507   0.199   1.662
   54DPPC    O7 2657   6.514   0.214   1.804
   54DPPC    P8 2658   6.644   0.295   1.854
   54DPPC    O9 2659   6.613   0.427   1.794
   54DPPC   O10 2660   6.753   0.204   1.814
   54DPPC   O11 2661   6.608   0.284   2.010
   54DPPC   C12 2662   6.485   0.355   2.029
   54DPPC   C13 2663   6.463   0.392   2.176
   54DPPC   O14 2664   6.539   0.511   2.206
   54DPPC   C15 2665   6.496   0.634   2.166
   54DPPC   O16 2666   6.391   0.648   2.104
   54DPPC   C17 2667   6.596   0.743   2.205
   54DPPC   C18 2668   6.657   0.723   2.343
   54DPPC   C19 2669   6.558   0.718   2.460
   54DPPC   C20 2670   6.608   0.691   2.602
   54DPPC   C21 2671   6.500   0.674   2.709
   54DPPC   C22 2672   6.554   0.649   2.849
   54DPPC   C23 2673   6.439   0.647   2.950
   54DPPC   C24 2674   6.473   0.625   3.097
   54DPPC   C25 2675   6.344   0.599   3.174
   54DPPC   C26 2676   6.248   0.718   3.162
   54DPPC   C27 2677   6.301   0.838   3.241
   54DPPC   C28 2678   6.182   0.926   3.280
   54DPPC   C29 2679   6.217   1.029   3.388
   54DPPC   C30 2680   6.116   1.034   3.503
   54DPPC   C31 2681   6.171   1.111   3.623
   54DPPC   C32 2682   6.497   0.262   2.249
   54DPPC   O33 2683   6.481   0.261   2.391
   54DPPC   C34 2684   6.505   0.139   2.446
   54DPPC   O35 2685   6.580   0.068   2.380
   54DPPC   C36 2686   6.464   0.097   2.588
   54DPPC   C37 2687   6.481   0.205   2.695
   54DPPC   C38 2688   6.526   0.134   2.823
   54DPPC   C39 2689   6.531   0.244   2.930
   54DPPC   C40 2690   6.592   0.190   3.059
   54DPPC   C41 2691   6.603   0.298   3.166
   54DPPC   C42 2692   6.645   0.232   3.298
   54DPPC   C43 2693   6.654   0.333   3.413
   54DPPC   C44 2694   6.676   0.261   3.546
   54DPPC   C45 2695   6.688   0.356   3.666
   54DPPC   C46 2696   6.718   0.278   3.794
   54DPPC   C47 2697   6.701   0.366   3.918
   54DPPC   C48 2698   6.747   0.308   4.051
   54DPPC   C49 2699   6.896   0.274   4.059
   54DPPC   C50 2700   6.958   0.281   4.199
   55DPPC    C1 2701   0.254   7.192   1.685
   55DPPC    C2 2702   0.366   7.388   1.760
   55DPPC    C3 2703   0.399   7.296   1.535
   55DPPC    N4 2704   0.304   7.323   1.644
   55DPPC    C5 2705   0.190   7.409   1.606
   55DPPC    C6 2706   0.110   7.400   1.476
   55DPPC    O7 2707   0.013   7.504   1.464
   55DPPC    P8 2708  -0.064   7.497   1.323
   55DPPC    O9 2709   0.019   7.407   1.240
   55DPPC   O10 2710  -0.115   7.630   1.282
   55DPPC   O11 2711  -0.186   7.416   1.390
   55DPPC   C12 2712  -0.245   7.499   1.491
   55DPPC   C13 2713  -0.328   7.407   1.581
   55DPPC   O14 2714  -0.411   7.469   1.680
   55DPPC   C15 2715  -0.543   7.437   1.671
   55DPPC   O16 2716  -0.596   7.387   1.572
   55DPPC   C17 2717  -0.636   7.473   1.787
   55DPPC   C18 2718  -0.650   7.371   1.900
   55DPPC   C19 2719  -0.680   7.228   1.855
   55DPPC   C20 2720  -0.661   7.141   1.980
   55DPPC   C21 2721  -0.667   6.992   1.946
   55DPPC   C22 2722  -0.642   6.910   2.073
   55DPPC   C23 2723  -0.755   6.943   2.171
   55DPPC   C24 2724  -0.709   6.902   2.311
   55DPPC   C25 2725  -0.592   6.977   2.376
   55DPPC   C26 2726  -0.564   6.927   2.518
   55DPPC   C27 2727  -0.438   6.984   2.583
   55DPPC   C28 2728  -0.449   6.938   2.729
   55DPPC   C29 2729  -0.324   6.949   2.816
   55DPPC   C30 2730  -0.346   6.897   2.959
   55DPPC   C31 2731  -0.446   6.997   3.017
   55DPPC   C32 2732  -0.218   7.319   1.642
   55DPPC   O33 2733  -0.247   7.225   1.746
   55DPPC   C34 2734  -0.139   7.160   1.797
   55DPPC   O35 2735  -0.029   7.159   1.743
   55DPPC   C36 2736  -0.168   7.053   1.903
   55DPPC   C37 2737  -0.221   7.115   2.032
   55DPPC   C38 2738  -0.134   7.223   2.097
   55DPPC   C39 2739  -0.195   7.246   2.236
   55DPPC   C40 2740  -0.342   7.289   2.229
   55DPPC   C41 2741  -0.383   7.301   2.376
   55DPPC   C42 2742  -0.278   7.372   2.461
   55DPPC   C43 2743  -0.314   7.390   2.609
   55DPPC   C44 2744  -0.202   7.467   2.678
   55DPPC   C45 2745  -0.208   7.454   2.830
   55DPPC   C46 2746  -0.191   7.307   2.870
   55DPPC   C47 2747  -0.176   7.292   3.021
   55DPPC   C48 2748  -0.305   7.350   3.080
   55DPPC   C49 2749  -0.308   7.308   3.227
   55DPPC   C50 2750  -0.207   7.383   3.314
   56DPPC    C1 2751   4.208   1.925   2.277
   56DPPC    C2 2752   4.259   1.871   2.500
   56DPPC    C3 2753   4.289   1.710   2.322
   56DPPC    N4 2754   4.303   1.851   2.361
   56DPPC    C5 2755   4.439   1.904   2.342
   56DPPC    C6 2756   4.516   1.871   2.214
   56DPPC    O7 2757   4.630   1.957   2.208
   56DPPC    P8 2758   4.684   1.968   2.057
   56DPPC    O9 2759   4.562   1.978   1.974
   56DPPC   O10 2760   4.790   1.868   2.033
   56DPPC   O11 2761   4.756   2.112   2.063
   56DPPC   C12 2762   4.826   2.128   2.186
   56DPPC   C13 2763   4.916   2.251   2.193
   56DPPC   O14 2764   5.011   2.242   2.300
   56DPPC   C15 2765   5.105   2.338   2.322
   56DPPC   O16 2766   5.120   2.430   2.242
   56DPPC   C17 2767   5.169   2.331   2.461
   56DPPC   C18 2768   5.319   2.307   2.439
   56DPPC   C19 2769   5.388   2.298   2.575
   56DPPC   C20 2770   5.366   2.174   2.661
   56DPPC   C21 2771   5.442   2.194   2.792
   56DPPC   C22 2772   5.432   2.081   2.894
   56DPPC   C23 2773   5.515   2.104   3.021
   56DPPC   C24 2774   5.541   1.977   3.101
   56DPPC   C25 2775   5.640   2.019   3.210
   56DPPC   C26 2776   5.657   1.889   3.289
   56DPPC   C27 2777   5.736   1.907   3.419
   56DPPC   C28 2778   5.652   1.992   3.514
   56DPPC   C29 2779   5.716   2.025   3.648
   56DPPC   C30 2780   5.606   2.053   3.751
   56DPPC   C31 2781   5.515   2.149   3.674
   56DPPC   C32 2782   4.826   2.375   2.181
   56DPPC   O33 2783   4.711   2.361   2.264
   56DPPC   C34 2784   4.610   2.450   2.243
   56DPPC   O35 2785   4.628   2.546   2.168
   56DPPC   C36 2786   4.467   2.412   2.283
   56DPPC   C37 2787   4.475   2.339   2.418
   56DPPC   C38 2788   4.342   2.285   2.469
   56DPPC   C39 2789   4.354   2.287   2.621
   56DPPC   C40 2790   4.395   2.429   2.662
   56DPPC   C41 2791   4.376   2.427   2.814
   56DPPC   C42 2792   4.483   2.339   2.878
   56DPPC   C43 2793   4.454   2.339   3.028
   56DPPC   C44 2794   4.535   2.241   3.113
   56DPPC   C45 2795   4.488   2.236   3.258
   56DPPC   C46 2796   4.492   2.378   3.316
   56DPPC   C47 2797   4.468   2.389   3.467
   56DPPC   C48 2798   4.451   2.533   3.515
   56DPPC   C49 2799   4.444   2.511   3.666
   56DPPC   C50 2800   4.566   2.442   3.727
   57DPPC    C1 2801   5.715   7.076   1.966
   57DPPC    C2 2802   5.524   6.958   2.021
   57DPPC    C3 2803   5.609   6.940   1.791
   57DPPC    N4 2804   5.642   6.952   1.934
   57DPPC    C5 2805   5.735   6.844   1.972
   57DPPC    C6 2806   5.686   6.699   1.960
   57DPPC    O7 2807   5.793   6.604   1.949
   57DPPC    P8 2808   5.734   6.463   1.900
   57DPPC    O9 2809   5.850   6.393   1.841
   57DPPC   O10 2810   5.613   6.491   1.821
   57DPPC   O11 2811   5.691   6.404   2.044
   57DPPC   C12 2812   5.815   6.376   2.110
   57DPPC   C13 2813   5.822   6.425   2.254
   57DPPC   O14 2814   5.949   6.379   2.305
   57DPPC   C15 2815   6.028   6.477   2.356
   57DPPC   O16 2816   5.971   6.586   2.351
   57DPPC   C17 2817   6.169   6.441   2.403
   57DPPC   C18 2818   6.174   6.394   2.548
   57DPPC   C19 2819   6.133   6.511   2.637
   57DPPC   C20 2820   6.112   6.473   2.784
   57DPPC   C21 2821   6.029   6.577   2.859
   57DPPC   C22 2822   6.015   6.530   3.004
   57DPPC   C23 2823   5.939   6.620   3.101
   57DPPC   C24 2824   5.968   6.583   3.247
   57DPPC   C25 2825   5.902   6.446   3.261
   57DPPC   C26 2826   5.919   6.379   3.398
   57DPPC   C27 2827   5.844   6.446   3.513
   57DPPC   C28 2828   5.856   6.366   3.642
   57DPPC   C29 2829   5.744   6.386   3.745
   57DPPC   C30 2830   5.764   6.335   3.888
   57DPPC   C31 2831   5.627   6.320   3.954
   57DPPC   C32 2832   5.704   6.368   2.333
   57DPPC   O33 2833   5.715   6.233   2.380
   57DPPC   C34 2834   5.597   6.171   2.405
   57DPPC   O35 2835   5.496   6.219   2.353
   57DPPC   C36 2836   5.603   6.034   2.472
   57DPPC   C37 2837   5.479   6.039   2.562
   57DPPC   C38 2838   5.493   5.943   2.680
   57DPPC   C39 2839   5.367   5.942   2.766
   57DPPC   C40 2840   5.387   5.864   2.895
   57DPPC   C41 2841   5.254   5.873   2.971
   57DPPC   C42 2842   5.265   5.817   3.113
   57DPPC   C43 2843   5.132   5.802   3.188
   57DPPC   C44 2844   5.151   5.719   3.315
   57DPPC   C45 2845   5.014   5.696   3.378
   57DPPC   C46 2846   5.038   5.614   3.505
   57DPPC   C47 2847   5.072   5.468   3.473
   57DPPC   C48 2848   5.175   5.419   3.575
   57DPPC   C49 2849   5.124   5.398   3.717
   57DPPC   C50 2850   5.238   5.397   3.820
   58DPPC    C1 2851   8.469   6.932   1.301
   58DPPC    C2 2852   8.492   7.145   1.195
   58DPPC    C3 2853   8.287   7.096   1.302
   58DPPC    N4 2854   8.432   7.075   1.309
   58DPPC    C5 2855   8.480   7.128   1.438
   58DPPC    C6 2856   8.418   7.256   1.493
   58DPPC    O7 2857   8.461   7.377   1.428
   58DPPC    P8 2858   8.338   7.480   1.429
   58DPPC    O9 2859   8.220   7.402   1.385
   58DPPC   O10 2860   8.375   7.605   1.360
   58DPPC   O11 2861   8.336   7.495   1.590
   58DPPC   C12 2862   8.422   7.602   1.630
   58DPPC   C13 2863   8.439   7.632   1.779
   58DPPC   O14 2864   8.541   7.732   1.786
   58DPPC   C15 2865   8.496   7.860   1.780
   58DPPC   O16 2866   8.380   7.895   1.758
   58DPPC   C17 2867   8.607   7.964   1.794
   58DPPC   C18 2868   8.571   8.050   1.915
   58DPPC   C19 2869   8.671   8.155   1.964
   58DPPC   C20 2870   8.636   8.214   2.100
   58DPPC   C21 2871   8.638   8.108   2.211
   58DPPC   C22 2872   8.615   8.167   2.350
   58DPPC   C23 2873   8.580   8.051   2.443
   58DPPC   C24 2874   8.596   8.083   2.592
   58DPPC   C25 2875   8.520   7.983   2.678
   58DPPC   C26 2876   8.507   8.030   2.823
   58DPPC   C27 2877   8.441   7.925   2.913
   58DPPC   C28 2878   8.463   7.943   3.063
   58DPPC   C29 2879   8.609   7.910   3.095
   58DPPC   C30 2880   8.631   7.903   3.246
   58DPPC   C31 2881   8.781   7.912   3.273
   58DPPC   C32 2882   8.474   7.497   1.841
   58DPPC   O33 2883   8.444   7.488   1.981
   58DPPC   C34 2884   8.443   7.360   2.024
   58DPPC   O35 2885   8.453   7.270   1.941
   58DPPC   C36 2886   8.446   7.342   2.176
   58DPPC   C37 2887   8.592   7.318   2.218
   58DPPC   C38 2888   8.589   7.310   2.371
   58DPPC   C39 2889   8.727   7.272   2.427
   58DPPC   C40 2890   8.751   7.329   2.567
   58DPPC   C41 2891   8.648   7.280   2.668
   58DPPC   C42 2892   8.722   7.292   2.801
   58DPPC   C43 2893   8.664   7.178   2.884
   58DPPC   C44 2894   8.708   7.041   2.832
   58DPPC   C45 2895   8.643   6.933   2.918
   58DPPC   C46 2896   8.656   6.942   3.070
   58DPPC   C47 2897   8.586   6.831   3.149
   58DPPC   C48 2898   8.642   6.809   3.290
   58DPPC   C49 2899   8.588   6.682   3.356
   58DPPC   C50 2900   8.647   6.661   3.496
   59DPPC    C1 2901   0.920   5.345   1.809
   59DPPC    C2 2902   0.746   5.177   1.822
   59DPPC    C3 2903   0.721   5.377   1.696
   59DPPC    N4 2904   0.817   5.272   1.734
   59DPPC    C5 2905   0.881   5.206   1.620
   59DPPC    C6 2906   0.804   5.097   1.546
   59DPPC    O7 2907   0.664   5.115   1.523
   59DPPC    P8 2908   0.604   4.977   1.466
   59DPPC    O9 2909   0.712   4.878   1.444
   59DPPC   O10 2910   0.495   5.002   1.368
   59DPPC   O11 2911   0.527   4.924   1.597
   59DPPC   C12 2912   0.408   5.002   1.608
   59DPPC   C13 2913   0.346   5.020   1.747
   59DPPC   O14 2914   0.410   5.096   1.850
   59DPPC   C15 2915   0.330   5.197   1.892
   59DPPC   O16 2916   0.289   5.288   1.821
   59DPPC   C17 2917   0.371   5.236   2.035
   59DPPC   C18 2918   0.264   5.260   2.141
   59DPPC   C19 2919   0.191   5.128   2.167
   59DPPC   C20 2920   0.120   5.111   2.302
   59DPPC   C21 2921   0.234   5.128   2.402
   59DPPC   C22 2922   0.191   5.119   2.549
   59DPPC   C23 2923   0.311   5.176   2.624
   59DPPC   C24 2924   0.444   5.101   2.615
   59DPPC   C25 2925   0.555   5.197   2.659
   59DPPC   C26 2926   0.691   5.127   2.656
   59DPPC   C27 2927   0.683   4.998   2.739
   59DPPC   C28 2928   0.813   4.921   2.765
   59DPPC   C29 2929   0.865   4.879   2.628
   59DPPC   C30 2930   0.999   4.806   2.631
   59DPPC   C31 2931   1.026   4.734   2.498
   59DPPC   C32 2932   0.339   4.873   1.789
   59DPPC   O33 2933   0.231   4.847   1.879
   59DPPC   C34 2934   0.200   4.715   1.892
   59DPPC   O35 2935   0.244   4.638   1.806
   59DPPC   C36 2936   0.093   4.672   1.992
   59DPPC   C37 2937   0.033   4.797   2.056
   59DPPC   C38 2938  -0.105   4.763   2.113
   59DPPC   C39 2939  -0.179   4.892   2.148
   59DPPC   C40 2940  -0.305   4.878   2.234
   59DPPC   C41 2941  -0.362   5.017   2.259
   59DPPC   C42 2942  -0.483   5.014   2.352
   59DPPC   C43 2943  -0.436   4.956   2.485
   59DPPC   C44 2944  -0.550   4.938   2.585
   59DPPC   C45 2945  -0.495   4.848   2.696
   59DPPC   C46 2946  -0.386   4.918   2.777
   59DPPC   C47 2947  -0.304   4.817   2.859
   59DPPC   C48 2948  -0.405   4.784   2.969
   59DPPC   C49 2949  -0.453   4.904   3.052
   59DPPC   C50 2950  -0.542   4.843   3.160
   60DPPC    C1 2951   6.874   4.844   1.216
   60DPPC    C2 2952   6.664   4.751   1.303
   60DPPC    C3 2953   6.792   4.889   1.431
   60DPPC    N4 2954   6.751   4.869   1.291
   60DPPC    C5 2955   6.696   4.988   1.224
   60DPPC    C6 2956   6.573   5.052   1.289
   60DPPC    O7 2957   6.554   5.188   1.248
   60DPPC    P8 2958   6.498   5.280   1.368
   60DPPC    O9 2959   6.412   5.185   1.441
   60DPPC   O10 2960   6.458   5.401   1.293
   60DPPC   O11 2961   6.638   5.308   1.443
   60DPPC   C12 2962   6.652   5.244   1.570
   60DPPC   C13 2963   6.773   5.279   1.658
   60DPPC   O14 2964   6.785   5.188   1.768
   60DPPC   C15 2965   6.877   5.088   1.755
   60DPPC   O16 2966   6.941   5.076   1.651
   60DPPC   C17 2967   6.887   5.002   1.880
   60DPPC   C18 2968   6.800   4.878   1.859
   60DPPC   C19 2969   6.807   4.780   1.976
   60DPPC   C20 2970   6.701   4.672   1.955
   60DPPC   C21 2971   6.681   4.573   2.070
   60DPPC   C22 2972   6.620   4.648   2.188
   60DPPC   C23 2973   6.615   4.546   2.302
   60DPPC   C24 2974   6.574   4.611   2.434
   60DPPC   C25 2975   6.526   4.507   2.536
   60DPPC   C26 2976   6.513   4.562   2.679
   60DPPC   C27 2977   6.443   4.463   2.773
   60DPPC   C28 2978   6.512   4.327   2.756
   60DPPC   C29 2979   6.465   4.233   2.867
   60DPPC   C30 2980   6.494   4.084   2.849
   60DPPC   C31 2981   6.490   4.009   2.983
   60DPPC   C32 2982   6.763   5.427   1.699
   60DPPC   O33 2983   6.631   5.460   1.744
   60DPPC   C34 2984   6.618   5.591   1.777
   60DPPC   O35 2985   6.698   5.676   1.738
   60DPPC   C36 2986   6.496   5.630   1.861
   60DPPC   C37 2987   6.505   5.613   2.013
   60DPPC   C38 2988   6.372   5.667   2.066
   60DPPC   C39 2989   6.397   5.751   2.192
   60DPPC   C40 2990   6.261   5.800   2.240
   60DPPC   C41 2991   6.264   5.891   2.363
   60DPPC   C42 2992   6.119   5.908   2.406
   60DPPC   C43 2993   6.109   6.000   2.528
   60DPPC   C44 2994   5.964   6.007   2.577
   60DPPC   C45 2995   5.971   6.104   2.696
   60DPPC   C46 2996   6.062   6.054   2.808
   60DPPC   C47 2997   6.063   6.131   2.941
   60DPPC   C48 2998   6.145   6.052   3.043
   60DPPC   C49 2999   6.146   6.157   3.153
   60DPPC   C50 3000   6.207   6.104   3.283
   61DPPC    C1 3001   3.996   0.331   2.135
   61DPPC    C2 3002   4.029   0.224   1.943
   61DPPC    C3 3003   3.801   0.254   2.000
   61DPPC    N4 3004   3.933   0.319   2.003
   61DPPC    C5 3005   3.929   0.446   1.930
   61DPPC    C6 3006   3.838   0.558   1.980
   61DPPC    O7 3007   3.900   0.655   2.066
   61DPPC    P8 3008   3.788   0.766   2.094
   61DPPC    O9 3009   3.662   0.711   2.148
   61DPPC   O10 3010   3.803   0.877   1.998
   61DPPC   O11 3011   3.867   0.826   2.221
   61DPPC   C12 3012   3.887   0.717   2.312
   61DPPC   C13 3013   3.925   0.763   2.452
   61DPPC   O14 3014   3.963   0.654   2.538
   61DPPC   C15 3015   4.096   0.644   2.562
   61DPPC   O16 3016   4.167   0.684   2.470
   61DPPC   C17 3017   4.142   0.535   2.659
   61DPPC   C18 3018   4.058   0.407   2.670
   61DPPC   C19 3019   4.127   0.303   2.758
   61DPPC   C20 3020   4.263   0.246   2.717
   61DPPC   C21 3021   4.272   0.109   2.784
   61DPPC   C22 3022   4.398   0.032   2.743
   61DPPC   C23 3023   4.525   0.112   2.772
   61DPPC   C24 3024   4.651   0.039   2.724
   61DPPC   C25 3025   4.773   0.129   2.703
   61DPPC   C26 3026   4.912   0.074   2.735
   61DPPC   C27 3027   5.018   0.108   2.630
   61DPPC   C28 3028   5.149   0.034   2.655
   61DPPC   C29 3029   5.135  -0.116   2.682
   61DPPC   C30 3030   5.050  -0.199   2.586
   61DPPC   C31 3031   5.061  -0.344   2.635
   61DPPC   C32 3032   3.811   0.857   2.492
   61DPPC   O33 3033   3.841   0.941   2.604
   61DPPC   C34 3034   3.743   1.024   2.649
   61DPPC   O35 3035   3.643   1.039   2.578
   61DPPC   C36 3036   3.778   1.121   2.762
   61DPPC   C37 3037   3.742   1.062   2.898
   61DPPC   C38 3038   3.769   1.169   3.003
   61DPPC   C39 3039   3.741   1.118   3.145
   61DPPC   C40 3040   3.596   1.071   3.156
   61DPPC   C41 3041   3.590   0.946   3.245
   61DPPC   C42 3042   3.442   0.907   3.250
   61DPPC   C43 3043   3.439   0.793   3.352
   61DPPC   C44 3044   3.306   0.717   3.358
   61DPPC   C45 3045   3.325   0.610   3.465
   61DPPC   C46 3046   3.363   0.664   3.603
   61DPPC   C47 3047   3.264   0.760   3.670
   61DPPC   C48 3048   3.321   0.779   3.811
   61DPPC   C49 3049   3.213   0.847   3.895
   61DPPC   C50 3050   3.243   0.839   4.044
   62DPPC    C1 3051   7.796   4.457   1.023
   62DPPC    C2 3052   7.609   4.303   1.087
   62DPPC    C3 3053   7.735   4.422   1.244
   62DPPC    N4 3054   7.680   4.430   1.108
   62DPPC    C5 3055   7.598   4.550   1.084
   62DPPC    C6 3056   7.452   4.551   1.129
   62DPPC    O7 3057   7.446   4.573   1.270
   62DPPC    P8 3058   7.299   4.556   1.333
   62DPPC    O9 3059   7.310   4.450   1.436
   62DPPC   O10 3060   7.213   4.556   1.212
   62DPPC   O11 3061   7.293   4.705   1.394
   62DPPC   C12 3062   7.385   4.714   1.502
   62DPPC   C13 3063   7.345   4.830   1.595
   62DPPC   O14 3064   7.430   4.853   1.708
   62DPPC   C15 3065   7.422   4.978   1.761
   62DPPC   O16 3066   7.409   5.074   1.685
   62DPPC   C17 3067   7.476   4.989   1.904
   62DPPC   C18 3068   7.379   5.027   2.016
   62DPPC   C19 3069   7.262   4.928   2.022
   62DPPC   C20 3070   7.210   4.953   2.164
   62DPPC   C21 3071   7.064   4.913   2.188
   62DPPC   C22 3072   7.023   4.951   2.331
   62DPPC   C23 3073   6.886   4.899   2.373
   62DPPC   C24 3074   6.843   4.941   2.513
   62DPPC   C25 3075   6.699   4.913   2.554
   62DPPC   C26 3076   6.593   4.964   2.456
   62DPPC   C27 3077   6.449   4.937   2.502
   62DPPC   C28 3078   6.331   4.952   2.405
   62DPPC   C29 3079   6.198   4.929   2.476
   62DPPC   C30 3080   6.211   4.797   2.554
   62DPPC   C31 3081   6.074   4.765   2.614
   62DPPC   C32 3082   7.195   4.821   1.623
   62DPPC   O33 3083   7.173   4.695   1.688
   62DPPC   C34 3084   7.045   4.650   1.694
   62DPPC   O35 3085   6.964   4.685   1.608
   62DPPC   C36 3086   7.030   4.528   1.785
   62DPPC   C37 3087   7.125   4.531   1.905
   62DPPC   C38 3088   7.094   4.423   2.009
   62DPPC   C39 3089   7.180   4.442   2.134
   62DPPC   C40 3090   7.126   4.383   2.265
   62DPPC   C41 3091   6.986   4.437   2.294
   62DPPC   C42 3092   6.934   4.399   2.433
   62DPPC   C43 3093   7.034   4.437   2.543
   62DPPC   C44 3094   6.973   4.411   2.680
   62DPPC   C45 3095   6.937   4.262   2.677
   62DPPC   C46 3096   6.901   4.214   2.818
   62DPPC   C47 3097   6.873   4.066   2.845
   62DPPC   C48 3098   6.834   4.051   2.992
   62DPPC   C49 3099   6.918   4.125   3.096
   62DPPC   C50 3100   6.846   4.128   3.231
   63DPPC    C1 3101   7.812   8.498   0.942
   63DPPC    C2 3102   7.787   8.275   0.926
   63DPPC    C3 3103   7.981   8.349   1.035
   63DPPC    N4 3104   7.837   8.376   1.021
   63DPPC    C5 3105   7.753   8.364   1.141
   63DPPC    C6 3106   7.813   8.416   1.272
   63DPPC    O7 3107   7.823   8.556   1.300
   63DPPC    P8 3108   7.892   8.551   1.446
   63DPPC    O9 3109   7.927   8.692   1.469
   63DPPC   O10 3110   7.996   8.446   1.434
   63DPPC   O11 3111   7.769   8.494   1.533
   63DPPC   C12 3112   7.707   8.605   1.597
   63DPPC   C13 3113   7.583   8.571   1.680
   63DPPC   O14 3114   7.511   8.686   1.725
   63DPPC   C15 3115   7.399   8.714   1.653
   63DPPC   O16 3116   7.372   8.660   1.546
   63DPPC   C17 3117   7.310   8.824   1.711
   63DPPC   C18 3118   7.381   8.898   1.825
   63DPPC   C19 3119   7.277   8.970   1.910
   63DPPC   C20 3120   7.332   9.043   2.033
   63DPPC   C21 3121   7.237   9.085   2.145
   63DPPC   C22 3122   7.300   9.061   2.283
   63DPPC   C23 3123   7.203   9.125   2.382
   63DPPC   C24 3124   7.194   9.075   2.526
   63DPPC   C25 3125   7.088   9.159   2.598
   63DPPC   C26 3126   7.040   9.104   2.732
   63DPPC   C27 3127   7.147   9.109   2.841
   63DPPC   C28 3128   7.101   9.070   2.982
   63DPPC   C29 3129   7.062   8.924   3.004
   63DPPC   C30 3130   7.025   8.898   3.151
   63DPPC   C31 3131   7.140   8.812   3.204
   63DPPC   C32 3132   7.636   8.494   1.801
   63DPPC   O33 3133   7.752   8.552   1.862
   63DPPC   C34 3134   7.801   8.482   1.968
   63DPPC   O35 3135   7.732   8.398   2.026
   63DPPC   C36 3136   7.924   8.551   2.027
   63DPPC   C37 3137   7.906   8.601   2.171
   63DPPC   C38 3138   7.836   8.737   2.176
   63DPPC   C39 3139   7.812   8.776   2.322
   63DPPC   C40 3140   7.743   8.912   2.337
   63DPPC   C41 3141   7.728   8.954   2.483
   63DPPC   C42 3142   7.658   9.090   2.484
   63DPPC   C43 3143   7.620   9.138   2.624
   63DPPC   C44 3144   7.548   9.272   2.635
   63DPPC   C45 3145   7.570   9.344   2.768
   63DPPC   C46 3146   7.498   9.260   2.873
   63DPPC   C47 3147   7.506   9.329   3.010
   63DPPC   C48 3148   7.424   9.263   3.121
   63DPPC   C49 3149   7.435   9.342   3.251
   63DPPC   C50 3150   7.355   9.279   3.365
   64DPPC    C1 3151   3.421   0.059   1.877
   64DPPC    C2 3152   3.342  -0.008   1.664
   64DPPC    C3 3153   3.218   0.162   1.785
   64DPPC    N4 3154   3.351   0.106   1.757
   64DPPC    C5 3155   3.446   0.194   1.687
   64DPPC    C6 3156   3.513   0.313   1.755
   64DPPC    O7 3157   3.421   0.408   1.808
   64DPPC    P8 3158   3.486   0.527   1.894
   64DPPC    O9 3159   3.377   0.615   1.940
   64DPPC   O10 3160   3.598   0.573   1.808
   64DPPC   O11 3161   3.542   0.442   2.018
   64DPPC   C12 3162   3.424   0.428   2.098
   64DPPC   C13 3163   3.447   0.377   2.240
   64DPPC   O14 3164   3.318   0.360   2.300
   64DPPC   C15 3165   3.236   0.257   2.265
   64DPPC   O16 3166   3.268   0.182   2.173
   64DPPC   C17 3167   3.102   0.250   2.337
   64DPPC   C18 3168   3.126   0.232   2.487
   64DPPC   C19 3169   3.164   0.366   2.550
   64DPPC   C20 3170   3.172   0.352   2.702
   64DPPC   C21 3171   3.043   0.296   2.763
   64DPPC   C22 3172   3.057   0.283   2.915
   64DPPC   C23 3173   3.185   0.213   2.962
   64DPPC   C24 3174   3.235   0.278   3.091
   64DPPC   C25 3175   3.361   0.221   3.155
   64DPPC   C26 3176   3.320   0.102   3.242
   64DPPC   C27 3177   3.447   0.022   3.273
   64DPPC   C28 3178   3.398  -0.104   3.345
   64DPPC   C29 3179   3.515  -0.203   3.346
   64DPPC   C30 3180   3.544  -0.256   3.205
   64DPPC   C31 3181   3.626  -0.384   3.221
   64DPPC   C32 3182   3.537   0.484   2.303
   64DPPC   O33 3183   3.577   0.442   2.433
   64DPPC   C34 3184   3.670   0.342   2.433
   64DPPC   O35 3185   3.738   0.319   2.334
   64DPPC   C36 3186   3.704   0.278   2.568
   64DPPC   C37 3187   3.593   0.189   2.625
   64DPPC   C38 3188   3.603   0.204   2.777
   64DPPC   C39 3189   3.736   0.161   2.838
   64DPPC   C40 3190   3.741   0.008   2.825
   64DPPC   C41 3191   3.883  -0.039   2.855
   64DPPC   C42 3192   3.924   0.016   2.991
   64DPPC   C43 3193   4.043  -0.059   3.052
   64DPPC   C44 3194   3.993  -0.203   3.071
   64DPPC   C45 3195   4.104  -0.293   3.126
   64DPPC   C46 3196   4.045  -0.419   3.191
   64DPPC   C47 3197   4.160  -0.514   3.226
   64DPPC   C48 3198   4.098  -0.646   3.273
   64DPPC   C49 3199   4.212  -0.746   3.293
   64DPPC   C50 3200   4.283  -0.771   3.159
   65DPPC    C1 3201   2.384   5.119   5.594
   65DPPC    C2 3202   2.563   5.090   5.442
   65DPPC    C3 3203   2.548   4.951   5.638
   65DPPC    N4 3204   2.471   5.018   5.532
   65DPPC    C5 3205   2.389   4.911   5.474
   65DPPC    C6 3206   2.441   4.791   5.396
   65DPPC    O7 3207   2.348   4.682   5.386
   65DPPC    P8 3208   2.428   4.549   5.344
   65DPPC    O9 3209   2.312   4.458   5.338
   65DPPC   O10 3210   2.542   4.537   5.438
   65DPPC   O11 3211   2.488   4.594   5.201
   65DPPC   C12 3212   2.411   4.546   5.091
   65DPPC   C13 3213   2.471   4.593   4.959
   65DPPC   O14 3214   2.381   4.589   4.847
   65DPPC   C15 3215   2.287   4.685   4.824
   65DPPC   O16 3216   2.277   4.776   4.906
   65DPPC   C17 3217   2.233   4.697   4.682
   65DPPC   C18 3218   2.271   4.827   4.610
   65DPPC   C19 3219   2.422   4.850   4.597
   65DPPC   C20 3220   2.444   4.971   4.505
   65DPPC   C21 3221   2.591   4.982   4.463
   65DPPC   C22 3222   2.611   5.108   4.379
   65DPPC   C23 3223   2.500   5.101   4.273
   65DPPC   C24 3224   2.540   5.215   4.179
   65DPPC   C25 3225   2.677   5.182   4.119
   65DPPC   C26 3226   2.741   5.297   4.042
   65DPPC   C27 3227   2.885   5.256   4.007
   65DPPC   C28 3228   2.954   5.361   3.920
   65DPPC   C29 3229   3.097   5.311   3.897
   65DPPC   C30 3230   3.181   5.409   3.816
   65DPPC   C31 3231   3.320   5.346   3.805
   65DPPC   C32 3232   2.600   4.511   4.953
   65DPPC   O33 3233   2.597   4.369   4.966
   65DPPC   C34 3234   2.723   4.317   4.958
   65DPPC   O35 3235   2.824   4.385   4.972
   65DPPC   C36 3236   2.718   4.165   4.977
   65DPPC   C37 3237   2.655   4.068   4.877
   65DPPC   C38 3238   2.725   4.092   4.743
   65DPPC   C39 3239   2.670   4.005   4.630
   65DPPC   C40 3240   2.764   4.008   4.509
   65DPPC   C41 3241   2.725   3.940   4.377
   65DPPC   C42 3242   2.821   3.951   4.258
   65DPPC   C43 3243   2.809   4.090   4.194
   65DPPC   C44 3244   2.869   4.076   4.054
   65DPPC   C45 3245   2.825   4.197   3.972
   65DPPC   C46 3246   2.900   4.183   3.839
   65DPPC   C47 3247   2.824   4.113   3.726
   65DPPC   C48 3248   2.907   4.094   3.600
   65DPPC   C49 3249   2.828   4.008   3.502
   65DPPC   C50 3250   2.701   4.086   3.465
   66DPPC    C1 3251   8.109   1.346   1.373
   66DPPC    C2 3252   8.074   1.578   1.379
   66DPPC    C3 3253   8.163   1.476   1.568
   66DPPC    N4 3254   8.167   1.472   1.421
   66DPPC    C5 3255   8.290   1.503   1.347
   66DPPC    C6 3256   8.400   1.397   1.352
   66DPPC    O7 3257   8.514   1.450   1.284
   66DPPC    P8 3258   8.641   1.352   1.268
   66DPPC    O9 3259   8.765   1.404   1.207
   66DPPC   O10 3260   8.585   1.225   1.215
   66DPPC   O11 3261   8.661   1.333   1.426
   66DPPC   C12 3262   8.698   1.447   1.504
   66DPPC   C13 3263   8.653   1.421   1.648
   66DPPC   O14 3264   8.640   1.538   1.731
   66DPPC   C15 3265   8.524   1.608   1.713
   66DPPC   O16 3266   8.461   1.599   1.608
   66DPPC   C17 3267   8.480   1.704   1.824
   66DPPC   C18 3268   8.395   1.636   1.932
   66DPPC   C19 3269   8.344   1.716   2.051
   66DPPC   C20 3270   8.243   1.825   2.015
   66DPPC   C21 3271   8.145   1.856   2.128
   66DPPC   C22 3272   8.055   1.976   2.097
   66DPPC   C23 3273   7.935   1.972   2.193
   66DPPC   C24 3274   7.862   2.105   2.176
   66DPPC   C25 3275   7.733   2.119   2.256
   66DPPC   C26 3276   7.751   2.098   2.406
   66DPPC   C27 3277   7.634   2.117   2.502
   66DPPC   C28 3278   7.672   2.071   2.642
   66DPPC   C29 3279   7.551   2.090   2.735
   66DPPC   C30 3280   7.595   2.081   2.881
   66DPPC   C31 3281   7.484   2.104   2.984
   66DPPC   C32 3282   8.741   1.304   1.693
   66DPPC   O33 3283   8.715   1.250   1.822
   66DPPC   C34 3284   8.596   1.192   1.853
   66DPPC   O35 3285   8.495   1.217   1.788
   66DPPC   C36 3286   8.594   1.107   1.981
   66DPPC   C37 3287   8.628   1.187   2.107
   66DPPC   C38 3288   8.668   1.090   2.218
   66DPPC   C39 3289   8.694   1.154   2.354
   66DPPC   C40 3290   8.714   1.061   2.474
   66DPPC   C41 3291   8.841   0.975   2.466
   66DPPC   C42 3292   8.864   0.905   2.600
   66DPPC   C43 3293   8.881   0.992   2.725
   66DPPC   C44 3294   8.917   0.901   2.843
   66DPPC   C45 3295   8.906   0.985   2.970
   66DPPC   C46 3296   8.882   0.898   3.094
   66DPPC   C47 3297   9.003   0.805   3.105
   66DPPC   C48 3298   8.991   0.723   3.234
   66DPPC   C49 3299   9.102   0.622   3.264
   66DPPC   C50 3300   9.086   0.538   3.391
   67DPPC    C1 3301   4.869   3.025   5.914
   67DPPC    C2 3302   4.674   2.912   5.919
   67DPPC    C3 3303   4.687   3.084   5.764
   67DPPC    N4 3304   4.766   2.974   5.823
   67DPPC    C5 3305   4.822   2.875   5.730
   67DPPC    C6 3306   4.906   2.761   5.790
   67DPPC    O7 3307   4.997   2.699   5.700
   67DPPC    P8 3308   5.061   2.574   5.779
   67DPPC    O9 3309   5.008   2.551   5.916
   67DPPC   O10 3310   5.206   2.575   5.748
   67DPPC   O11 3311   4.993   2.457   5.692
   67DPPC   C12 3312   5.032   2.475   5.556
   67DPPC   C13 3313   4.978   2.367   5.462
   67DPPC   O14 3314   5.050   2.356   5.339
   67DPPC   C15 3315   5.157   2.272   5.340
   67DPPC   O16 3316   5.192   2.218   5.445
   67DPPC   C17 3317   5.241   2.256   5.213
   67DPPC   C18 3318   5.240   2.107   5.178
   67DPPC   C19 3319   5.310   2.104   5.042
   67DPPC   C20 3320   5.441   2.179   5.064
   67DPPC   C21 3321   5.525   2.179   4.937
   67DPPC   C22 3322   5.670   2.225   4.951
   67DPPC   C23 3323   5.749   2.216   4.820
   67DPPC   C24 3324   5.683   2.293   4.705
   67DPPC   C25 3325   5.770   2.296   4.580
   67DPPC   C26 3326   5.701   2.375   4.468
   67DPPC   C27 3327   5.779   2.354   4.338
   67DPPC   C28 3328   5.696   2.391   4.214
   67DPPC   C29 3329   5.762   2.361   4.080
   67DPPC   C30 3330   5.696   2.437   3.965
   67DPPC   C31 3331   5.772   2.399   3.838
   67DPPC   C32 3332   4.828   2.387   5.442
   67DPPC   O33 3333   4.780   2.502   5.372
   67DPPC   C34 3334   4.645   2.515   5.377
   67DPPC   O35 3335   4.582   2.488   5.479
   67DPPC   C36 3336   4.589   2.580   5.251
   67DPPC   C37 3337   4.591   2.733   5.262
   67DPPC   C38 3338   4.524   2.782   5.133
   67DPPC   C39 3339   4.567   2.736   4.994
   67DPPC   C40 3340   4.491   2.804   4.879
   67DPPC   C41 3341   4.552   2.768   4.744
   67DPPC   C42 3342   4.511   2.865   4.633
   67DPPC   C43 3343   4.545   3.010   4.666
   67DPPC   C44 3344   4.487   3.087   4.546
   67DPPC   C45 3345   4.542   3.033   4.414
   67DPPC   C46 3346   4.501   3.117   4.292
   67DPPC   C47 3347   4.566   3.068   4.162
   67DPPC   C48 3348   4.533   3.154   4.040
   67DPPC   C49 3349   4.592   3.074   3.924
   67DPPC   C50 3350   4.615   3.168   3.806
   68DPPC    C1 3351   0.674   4.041   1.030
   68DPPC    C2 3352   0.871   3.943   0.936
   68DPPC    C3 3353   0.913   4.101   1.082
   68DPPC    N4 3354   0.811   3.997   1.059
   68DPPC    C5 3355   0.814   3.899   1.168
   68DPPC    C6 3356   0.753   3.761   1.138
   68DPPC    O7 3357   0.771   3.664   1.241
   68DPPC    P8 3358   0.703   3.521   1.213
   68DPPC    O9 3359   0.797   3.409   1.235
   68DPPC   O10 3360   0.631   3.527   1.083
   68DPPC   O11 3361   0.614   3.548   1.344
   68DPPC   C12 3362   0.702   3.528   1.455
   68DPPC   C13 3363   0.667   3.624   1.569
   68DPPC   O14 3364   0.741   3.584   1.685
   68DPPC   C15 3365   0.851   3.653   1.726
   68DPPC   O16 3366   0.906   3.736   1.654
   68DPPC   C17 3367   0.893   3.617   1.869
   68DPPC   C18 3368   0.813   3.680   1.983
   68DPPC   C19 3369   0.795   3.827   1.947
   68DPPC   C20 3370   0.702   3.887   2.053
   68DPPC   C21 3371   0.768   3.867   2.189
   68DPPC   C22 3372   0.666   3.939   2.277
   68DPPC   C23 3373   0.696   3.933   2.427
   68DPPC   C24 3374   0.587   4.012   2.499
   68DPPC   C25 3375   0.578   4.162   2.468
   68DPPC   C26 3376   0.451   4.225   2.525
   68DPPC   C27 3377   0.448   4.196   2.676
   68DPPC   C28 3378   0.322   4.240   2.751
   68DPPC   C29 3379   0.317   4.219   2.902
   68DPPC   C30 3380   0.316   4.070   2.935
   68DPPC   C31 3381   0.298   4.040   3.084
   68DPPC   C32 3382   0.516   3.610   1.593
   68DPPC   O33 3383   0.460   3.716   1.671
   68DPPC   C34 3384   0.350   3.676   1.740
   68DPPC   O35 3385   0.282   3.585   1.695
   68DPPC   C36 3386   0.279   3.784   1.823
   68DPPC   C37 3387   0.278   3.751   1.973
   68DPPC   C38 3388   0.251   3.862   2.074
   68DPPC   C39 3389   0.103   3.901   2.075
   68DPPC   C40 3390   0.005   3.810   2.149
   68DPPC   C41 3391  -0.138   3.858   2.124
   68DPPC   C42 3392  -0.235   3.760   2.190
   68DPPC   C43 3393  -0.206   3.769   2.340
   68DPPC   C44 3394  -0.309   3.668   2.392
   68DPPC   C45 3395  -0.444   3.736   2.409
   68DPPC   C46 3396  -0.438   3.857   2.503
   68DPPC   C47 3397  -0.579   3.916   2.497
   68DPPC   C48 3398  -0.611   4.042   2.578
   68DPPC   C49 3399  -0.755   4.090   2.557
   68DPPC   C50 3400  -0.841   3.981   2.620
   69DPPC    C1 3401   5.480   2.612   6.277
   69DPPC    C2 3402   5.543   2.617   6.050
   69DPPC    C3 3403   5.486   2.408   6.155
   69DPPC    N4 3404   5.453   2.551   6.146
   69DPPC    C5 3405   5.314   2.584   6.111
   69DPPC    C6 3406   5.259   2.719   6.158
   69DPPC    O7 3407   5.308   2.839   6.096
   69DPPC    P8 3408   5.217   2.971   6.081
   69DPPC    O9 3409   5.302   3.078   6.139
   69DPPC   O10 3410   5.086   2.930   6.135
   69DPPC   O11 3411   5.224   2.952   5.922
   69DPPC   C12 3412   5.351   2.980   5.863
   69DPPC   C13 3413   5.331   2.947   5.715
   69DPPC   O14 3414   5.441   2.991   5.634
   69DPPC   C15 3415   5.469   3.116   5.587
   69DPPC   O16 3416   5.426   3.212   5.650
   69DPPC   C17 3417   5.587   3.131   5.492
   69DPPC   C18 3418   5.519   3.116   5.355
   69DPPC   C19 3419   5.626   3.120   5.245
   69DPPC   C20 3420   5.581   3.071   5.107
   69DPPC   C21 3421   5.697   3.086   5.008
   69DPPC   C22 3422   5.656   3.068   4.862
   69DPPC   C23 3423   5.778   3.116   4.784
   69DPPC   C24 3424   5.736   3.168   4.646
   69DPPC   C25 3425   5.865   3.229   4.593
   69DPPC   C26 3426   5.861   3.299   4.457
   69DPPC   C27 3427   5.816   3.203   4.347
   69DPPC   C28 3428   5.777   3.270   4.215
   69DPPC   C29 3429   5.742   3.160   4.116
   69DPPC   C30 3430   5.723   3.223   3.978
   69DPPC   C31 3431   5.688   3.120   3.870
   69DPPC   C32 3432   5.195   3.003   5.676
   69DPPC   O33 3433   5.164   2.962   5.542
   69DPPC   C34 3434   5.054   3.013   5.480
   69DPPC   O35 3435   4.976   3.089   5.536
   69DPPC   C36 3436   5.055   3.001   5.328
   69DPPC   C37 3437   4.995   2.867   5.285
   69DPPC   C38 3438   5.049   2.823   5.149
   69DPPC   C39 3439   4.992   2.688   5.104
   69DPPC   C40 3440   5.005   2.669   4.952
   69DPPC   C41 3441   5.017   2.521   4.916
   69DPPC   C42 3442   5.072   2.494   4.776
   69DPPC   C43 3443   5.125   2.352   4.753
   69DPPC   C44 3444   5.189   2.331   4.616
   69DPPC   C45 3445   5.248   2.190   4.620
   69DPPC   C46 3446   5.346   2.163   4.506
   69DPPC   C47 3447   5.275   2.191   4.373
   69DPPC   C48 3448   5.374   2.155   4.262
   69DPPC   C49 3449   5.310   2.178   4.125
   69DPPC   C50 3450   5.282   2.328   4.119
   70DPPC    C1 3451   2.692   0.100   5.184
   70DPPC    C2 3452   2.787  -0.011   4.990
   70DPPC    C3 3453   2.917   0.089   5.173
   70DPPC    N4 3454   2.799   0.011   5.135
   70DPPC    C5 3455   2.777  -0.103   5.226
   70DPPC    C6 3456   2.885  -0.212   5.232
   70DPPC    O7 3457   2.931  -0.266   5.108
   70DPPC    P8 3458   2.986  -0.414   5.137
   70DPPC    O9 3459   2.871  -0.470   5.211
   70DPPC   O10 3460   3.110  -0.372   5.206
   70DPPC   O11 3461   2.991  -0.465   4.984
   70DPPC   C12 3462   2.862  -0.459   4.924
   70DPPC   C13 3463   2.881  -0.484   4.774
   70DPPC   O14 3464   2.902  -0.619   4.733
   70DPPC   C15 3465   2.809  -0.718   4.745
   70DPPC   O16 3466   2.696  -0.691   4.783
   70DPPC   C17 3467   2.845  -0.857   4.693
   70DPPC   C18 3468   2.870  -0.837   4.543
   70DPPC   C19 3469   2.872  -0.967   4.462
   70DPPC   C20 3470   2.928  -0.928   4.325
   70DPPC   C21 3471   3.070  -0.872   4.341
   70DPPC   C22 3472   3.117  -0.828   4.202
   70DPPC   C23 3473   3.268  -0.819   4.176
   70DPPC   C24 3474   3.303  -0.746   4.046
   70DPPC   C25 3475   3.446  -0.690   4.046
   70DPPC   C26 3476   3.459  -0.623   3.909
   70DPPC   C27 3477   3.606  -0.589   3.887
   70DPPC   C28 3478   3.639  -0.510   3.759
   70DPPC   C29 3479   3.787  -0.540   3.735
   70DPPC   C30 3480   3.872  -0.492   3.853
   70DPPC   C31 3481   4.019  -0.520   3.821
   70DPPC   C32 3482   2.993  -0.392   4.724
   70DPPC   O33 3483   2.949  -0.256   4.718
   70DPPC   C34 3484   3.044  -0.168   4.678
   70DPPC   O35 3485   3.156  -0.209   4.648
   70DPPC   C36 3486   2.999  -0.025   4.648
   70DPPC   C37 3487   3.070   0.038   4.528
   70DPPC   C38 3488   2.997   0.166   4.486
   70DPPC   C39 3489   3.041   0.208   4.345
   70DPPC   C40 3490   2.964   0.111   4.254
   70DPPC   C41 3491   3.007   0.114   4.107
   70DPPC   C42 3492   2.957  -0.012   4.035
   70DPPC   C43 3493   2.805  -0.022   4.044
   70DPPC   C44 3494   2.747   0.092   3.961
   70DPPC   C45 3495   2.692   0.049   3.825
   70DPPC   C46 3496   2.540   0.030   3.814
   70DPPC   C47 3497   2.497  -0.032   3.681
   70DPPC   C48 3498   2.348  -0.063   3.663
   70DPPC   C49 3499   2.318  -0.150   3.541
   70DPPC   C50 3500   2.167  -0.167   3.524
   71DPPC    C1 3501   3.984   3.741   5.440
   71DPPC    C2 3502   4.019   3.830   5.665
   71DPPC    C3 3503   4.035   3.596   5.604
   71DPPC    N4 3504   4.064   3.734   5.563
   71DPPC    C5 3505   4.207   3.765   5.546
   71DPPC    C6 3506   4.294   3.772   5.671
   71DPPC    O7 3507   4.309   3.645   5.734
   71DPPC    P8 3508   4.409   3.646   5.860
   71DPPC    O9 3509   4.390   3.527   5.946
   71DPPC   O10 3510   4.407   3.780   5.923
   71DPPC   O11 3511   4.539   3.643   5.765
   71DPPC   C12 3512   4.569   3.510   5.721
   71DPPC   C13 3513   4.645   3.510   5.588
   71DPPC   O14 3514   4.786   3.534   5.588
   71DPPC   C15 3515   4.856   3.422   5.620
   71DPPC   O16 3516   4.819   3.355   5.716
   71DPPC   C17 3517   5.005   3.424   5.584
   71DPPC   C18 3518   5.021   3.402   5.434
   71DPPC   C19 3519   5.161   3.439   5.386
   71DPPC   C20 3520   5.183   3.391   5.242
   71DPPC   C21 3521   5.306   3.451   5.174
   71DPPC   C22 3522   5.282   3.416   5.027
   71DPPC   C23 3523   5.311   3.268   4.998
   71DPPC   C24 3524   5.304   3.246   4.847
   71DPPC   C25 3525   5.378   3.337   4.748
   71DPPC   C26 3526   5.370   3.275   4.609
   71DPPC   C27 3527   5.417   3.366   4.495
   71DPPC   C28 3528   5.377   3.301   4.362
   71DPPC   C29 3529   5.422   3.390   4.246
   71DPPC   C30 3530   5.377   3.335   4.111
   71DPPC   C31 3531   5.416   3.427   3.995
   71DPPC   C32 3532   4.563   3.597   5.492
   71DPPC   O33 3533   4.586   3.569   5.354
   71DPPC   C34 3534   4.507   3.638   5.267
   71DPPC   O35 3535   4.435   3.730   5.304
   71DPPC   C36 3536   4.508   3.602   5.119
   71DPPC   C37 3537   4.415   3.486   5.083
   71DPPC   C38 3538   4.392   3.445   4.938
   71DPPC   C39 3539   4.284   3.336   4.943
   71DPPC   C40 3540   4.227   3.310   4.804
   71DPPC   C41 3541   4.174   3.440   4.743
   71DPPC   C42 3542   4.156   3.419   4.593
   71DPPC   C43 3543   4.105   3.541   4.517
   71DPPC   C44 3544   4.101   3.503   4.369
   71DPPC   C45 3545   4.248   3.479   4.337
   71DPPC   C46 3546   4.275   3.417   4.200
   71DPPC   C47 3547   4.221   3.504   4.085
   71DPPC   C48 3548   4.284   3.466   3.951
   71DPPC   C49 3549   4.272   3.577   3.847
   71DPPC   C50 3550   4.128   3.603   3.802
   72DPPC    C1 3551   0.937   8.473   4.680
   72DPPC    C2 3552   1.095   8.617   4.771
   72DPPC    C3 3553   0.865   8.630   4.836
   72DPPC    N4 3554   0.976   8.538   4.806
   72DPPC    C5 3555   0.994   8.441   4.916
   72DPPC    C6 3556   1.084   8.319   4.900
   72DPPC    O7 3557   1.214   8.354   4.852
   72DPPC    P8 3558   1.321   8.233   4.843
   72DPPC    O9 3559   1.261   8.139   4.940
   72DPPC   O10 3560   1.456   8.292   4.857
   72DPPC   O11 3561   1.295   8.157   4.703
   72DPPC   C12 3562   1.276   8.265   4.611
   72DPPC   C13 3563   1.258   8.234   4.462
   72DPPC   O14 3564   1.274   8.353   4.384
   72DPPC   C15 3565   1.359   8.366   4.279
   72DPPC   O16 3566   1.455   8.292   4.255
   72DPPC   C17 3567   1.325   8.493   4.200
   72DPPC   C18 3568   1.348   8.468   4.051
   72DPPC   C19 3569   1.341   8.586   3.954
   72DPPC   C20 3570   1.337   8.532   3.810
   72DPPC   C21 3571   1.270   8.641   3.725
   72DPPC   C22 3572   1.305   8.630   3.577
   72DPPC   C23 3573   1.260   8.749   3.493
   72DPPC   C24 3574   1.287   8.723   3.345
   72DPPC   C25 3575   1.267   8.845   3.255
   72DPPC   C26 3576   1.273   8.813   3.106
   72DPPC   C27 3577   1.158   8.722   3.062
   72DPPC   C28 3578   1.028   8.797   3.091
   72DPPC   C29 3579   0.907   8.703   3.095
   72DPPC   C30 3580   0.789   8.794   3.129
   72DPPC   C31 3581   0.806   8.829   3.277
   72DPPC   C32 3582   1.129   8.153   4.450
   72DPPC   O33 3583   1.006   8.225   4.453
   72DPPC   C34 3584   0.904   8.147   4.409
   72DPPC   O35 3585   0.884   8.027   4.432
   72DPPC   C36 3586   0.778   8.222   4.366
   72DPPC   C37 3587   0.740   8.196   4.220
   72DPPC   C38 3588   0.620   8.276   4.171
   72DPPC   C39 3589   0.609   8.272   4.019
   72DPPC   C40 3590   0.592   8.124   3.982
   72DPPC   C41 3591   0.566   8.098   3.833
   72DPPC   C42 3592   0.424   8.141   3.797
   72DPPC   C43 3593   0.426   8.123   3.645
   72DPPC   C44 3594   0.308   8.196   3.582
   72DPPC   C45 3595   0.180   8.156   3.655
   72DPPC   C46 3596   0.065   8.225   3.582
   72DPPC   C47 3597  -0.069   8.170   3.631
   72DPPC   C48 3598  -0.167   8.238   3.534
   72DPPC   C49 3599  -0.311   8.201   3.571
   72DPPC   C50 3600  -0.325   8.050   3.555
   73DPPC    C1 3601   8.466   8.281   4.866
   73DPPC    C2 3602   8.377   8.166   4.669
   73DPPC    C3 3603   8.578   8.095   4.769
   73DPPC    N4 3604   8.446   8.152   4.798
   73DPPC    C5 3605   8.381   8.055   4.888
   73DPPC    C6 3606   8.257   8.091   4.971
   73DPPC    O7 3607   8.210   7.969   5.030
   73DPPC    P8 3608   8.059   7.959   5.084
   73DPPC    O9 3609   8.036   8.088   5.153
   73DPPC   O10 3610   8.045   7.826   5.148
   73DPPC   O11 3611   7.993   7.956   4.937
   73DPPC   C12 3612   8.021   7.827   4.883
   73DPPC   C13 3613   7.951   7.787   4.753
   73DPPC   O14 3614   7.996   7.860   4.638
   73DPPC   C15 3615   8.117   7.837   4.582
   73DPPC   O16 3616   8.207   7.790   4.652
   73DPPC   C17 3617   8.155   7.912   4.454
   73DPPC   C18 3618   8.190   7.813   4.343
   73DPPC   C19 3619   8.077   7.728   4.284
   73DPPC   C20 3620   8.146   7.629   4.190
   73DPPC   C21 3621   8.153   7.491   4.255
   73DPPC   C22 3622   8.211   7.388   4.158
   73DPPC   C23 3623   8.344   7.441   4.105
   73DPPC   C24 3624   8.393   7.353   3.990
   73DPPC   C25 3625   8.308   7.362   3.862
   73DPPC   C26 3626   8.381   7.313   3.737
   73DPPC   C27 3627   8.446   7.178   3.771
   73DPPC   C28 3628   8.515   7.141   3.639
   73DPPC   C29 3629   8.630   7.232   3.596
   73DPPC   C30 3630   8.688   7.199   3.458
   73DPPC   C31 3631   8.819   7.270   3.421
   73DPPC   C32 3632   7.801   7.796   4.778
   73DPPC   O33 3633   7.720   7.768   4.664
   73DPPC   C34 3634   7.729   7.641   4.617
   73DPPC   O35 3635   7.788   7.556   4.682
   73DPPC   C36 3636   7.667   7.609   4.481
   73DPPC   C37 3637   7.713   7.474   4.423
   73DPPC   C38 3638   7.640   7.435   4.295
   73DPPC   C39 3639   7.660   7.538   4.184
   73DPPC   C40 3640   7.605   7.488   4.050
   73DPPC   C41 3641   7.646   7.593   3.946
   73DPPC   C42 3642   7.637   7.535   3.804
   73DPPC   C43 3643   7.714   7.636   3.718
   73DPPC   C44 3644   7.773   7.576   3.590
   73DPPC   C45 3645   7.845   7.676   3.500
   73DPPC   C46 3646   7.753   7.794   3.469
   73DPPC   C47 3647   7.818   7.897   3.376
   73DPPC   C48 3648   7.931   7.971   3.447
   73DPPC   C49 3649   7.889   8.114   3.480
   73DPPC   C50 3650   8.020   8.182   3.520
   74DPPC    C1 3651   5.864   4.834   5.705
   74DPPC    C2 3652   5.659   4.943   5.614
   74DPPC    C3 3653   5.868   5.034   5.580
   74DPPC    N4 3654   5.800   4.905   5.594
   74DPPC    C5 3655   5.794   4.820   5.474
   74DPPC    C6 3656   5.916   4.808   5.382
   74DPPC    O7 3657   5.915   4.689   5.302
   74DPPC    P8 3658   6.073   4.672   5.280
   74DPPC    O9 3659   6.103   4.557   5.192
   74DPPC   O10 3660   6.147   4.689   5.408
   74DPPC   O11 3661   6.107   4.804   5.194
   74DPPC   C12 3662   6.215   4.770   5.107
   74DPPC   C13 3663   6.237   4.862   4.987
   74DPPC   O14 3664   6.368   4.862   4.929
   74DPPC   C15 3665   6.401   4.760   4.845
   74DPPC   O16 3666   6.336   4.656   4.854
   74DPPC   C17 3667   6.524   4.790   4.760
   74DPPC   C18 3668   6.486   4.794   4.612
   74DPPC   C19 3669   6.606   4.848   4.534
   74DPPC   C20 3670   6.562   4.854   4.387
   74DPPC   C21 3671   6.445   4.951   4.366
   74DPPC   C22 3672   6.368   4.916   4.238
   74DPPC   C23 3673   6.461   4.925   4.117
   74DPPC   C24 3674   6.379   4.915   3.989
   74DPPC   C25 3675   6.470   4.941   3.868
   74DPPC   C26 3676   6.392   4.907   3.741
   74DPPC   C27 3677   6.493   4.853   3.640
   74DPPC   C28 3678   6.432   4.785   3.517
   74DPPC   C29 3679   6.367   4.656   3.567
   74DPPC   C30 3680   6.454   4.561   3.650
   74DPPC   C31 3681   6.368   4.444   3.697
   74DPPC   C32 3682   6.209   5.001   5.045
   74DPPC   O33 3683   6.169   5.085   4.936
   74DPPC   C34 3684   6.180   5.219   4.954
   74DPPC   O35 3685   6.191   5.265   5.067
   74DPPC   C36 3686   6.175   5.317   4.837
   74DPPC   C37 3687   6.154   5.237   4.708
   74DPPC   C38 3688   6.193   5.328   4.591
   74DPPC   C39 3689   6.340   5.368   4.608
   74DPPC   C40 3690   6.392   5.446   4.487
   74DPPC   C41 3691   6.409   5.351   4.368
   74DPPC   C42 3692   6.484   5.424   4.257
   74DPPC   C43 3693   6.470   5.347   4.126
   74DPPC   C44 3694   6.551   5.406   4.011
   74DPPC   C45 3695   6.504   5.343   3.880
   74DPPC   C46 3696   6.605   5.372   3.768
   74DPPC   C47 3697   6.558   5.302   3.641
   74DPPC   C48 3698   6.674   5.303   3.541
   74DPPC   C49 3699   6.622   5.256   3.405
   74DPPC   C50 3700   6.503   5.328   3.341
   75DPPC    C1 3701   3.748   1.475   5.663
   75DPPC    C2 3702   3.722   1.536   5.425
   75DPPC    C3 3703   3.639   1.341   5.519
   75DPPC    N4 3704   3.659   1.484   5.547
   75DPPC    C5 3705   3.545   1.566   5.589
   75DPPC    C6 3706   3.450   1.640   5.495
   75DPPC    O7 3707   3.514   1.760   5.449
   75DPPC    P8 3708   3.378   1.844   5.431
   75DPPC    O9 3709   3.344   1.876   5.571
   75DPPC   O10 3710   3.298   1.765   5.335
   75DPPC   O11 3711   3.432   1.976   5.356
   75DPPC   C12 3712   3.386   1.985   5.222
   75DPPC   C13 3713   3.444   2.110   5.155
   75DPPC   O14 3714   3.411   2.123   5.016
   75DPPC   C15 3715   3.432   2.241   4.953
   75DPPC   O16 3716   3.465   2.344   5.011
   75DPPC   C17 3717   3.411   2.251   4.802
   75DPPC   C18 3718   3.530   2.305   4.722
   75DPPC   C19 3719   3.649   2.209   4.729
   75DPPC   C20 3720   3.781   2.281   4.705
   75DPPC   C21 3721   3.901   2.187   4.697
   75DPPC   C22 3722   4.020   2.282   4.680
   75DPPC   C23 3723   4.150   2.206   4.654
   75DPPC   C24 3724   4.261   2.306   4.621
   75DPPC   C25 3725   4.226   2.400   4.506
   75DPPC   C26 3726   4.339   2.457   4.421
   75DPPC   C27 3727   4.288   2.552   4.312
   75DPPC   C28 3728   4.391   2.603   4.211
   75DPPC   C29 3729   4.320   2.659   4.087
   75DPPC   C30 3730   4.420   2.730   3.996
   75DPPC   C31 3731   4.341   2.802   3.886
   75DPPC   C32 3732   3.594   2.098   5.186
   75DPPC   O33 3733   3.648   1.969   5.156
   75DPPC   C34 3734   3.783   1.954   5.153
   75DPPC   O35 3735   3.849   2.036   5.216
   75DPPC   C36 3736   3.822   1.815   5.102
   75DPPC   C37 3737   3.853   1.831   4.953
   75DPPC   C38 3738   3.902   1.703   4.885
   75DPPC   C39 3739   3.941   1.719   4.737
   75DPPC   C40 3740   3.833   1.751   4.634
   75DPPC   C41 3741   3.885   1.779   4.493
   75DPPC   C42 3742   3.763   1.814   4.407
   75DPPC   C43 3743   3.829   1.869   4.281
   75DPPC   C44 3744   3.733   1.895   4.164
   75DPPC   C45 3745   3.666   1.763   4.127
   75DPPC   C46 3746   3.578   1.774   4.002
   75DPPC   C47 3747   3.673   1.810   3.888
   75DPPC   C48 3748   3.593   1.841   3.762
   75DPPC   C49 3749   3.697   1.861   3.651
   75DPPC   C50 3750   3.626   1.927   3.533
   76DPPC    C1 3751   5.886   0.024   5.210
   76DPPC    C2 3752   5.683   0.087   5.290
   76DPPC    C3 3753   5.817   0.256   5.186
   76DPPC    N4 3754   5.775   0.115   5.179
   76DPPC    C5 3755   5.720   0.070   5.050
   76DPPC    C6 3756   5.592   0.145   5.015
   76DPPC    O7 3757   5.512   0.106   4.903
   76DPPC    P8 3758   5.404   0.225   4.885
   76DPPC    O9 3759   5.483   0.345   4.849
   76DPPC   O10 3760   5.325   0.220   5.009
   76DPPC   O11 3761   5.335   0.140   4.767
   76DPPC   C12 3762   5.381   0.184   4.639
   76DPPC   C13 3763   5.272   0.194   4.531
   76DPPC   O14 3764   5.199   0.316   4.515
   76DPPC   C15 3765   5.268   0.422   4.464
   76DPPC   O16 3766   5.391   0.419   4.473
   76DPPC   C17 3767   5.191   0.553   4.450
   76DPPC   C18 3768   5.172   0.630   4.581
   76DPPC   C19 3769   5.094   0.761   4.563
   76DPPC   C20 3770   4.966   0.738   4.482
   76DPPC   C21 3771   4.880   0.860   4.447
   76DPPC   C22 3772   4.775   0.826   4.342
   76DPPC   C23 3773   4.862   0.780   4.225
   76DPPC   C24 3774   4.785   0.770   4.093
   76DPPC   C25 3775   4.840   0.665   3.997
   76DPPC   C26 3776   4.793   0.672   3.851
   76DPPC   C27 3777   4.861   0.562   3.770
   76DPPC   C28 3778   5.013   0.584   3.767
   76DPPC   C29 3779   5.097   0.457   3.776
   76DPPC   C30 3780   5.077   0.371   3.651
   76DPPC   C31 3781   5.175   0.253   3.652
   76DPPC   C32 3782   5.210   0.054   4.522
   76DPPC   O33 3783   5.311  -0.040   4.486
   76DPPC   C34 3784   5.274  -0.169   4.509
   76DPPC   O35 3785   5.191  -0.193   4.596
   76DPPC   C36 3786   5.366  -0.280   4.459
   76DPPC   C37 3787   5.386  -0.253   4.309
   76DPPC   C38 3788   5.530  -0.293   4.279
   76DPPC   C39 3789   5.564  -0.268   4.132
   76DPPC   C40 3790   5.658  -0.370   4.067
   76DPPC   C41 3791   5.579  -0.496   4.033
   76DPPC   C42 3792   5.657  -0.601   3.953
   76DPPC   C43 3793   5.573  -0.729   3.955
   76DPPC   C44 3794   5.449  -0.703   3.871
   76DPPC   C45 3795   5.394  -0.837   3.820
   76DPPC   C46 3796   5.278  -0.800   3.728
   76DPPC   C47 3797   5.323  -0.794   3.581
   76DPPC   C48 3798   5.372  -0.929   3.530
   76DPPC   C49 3799   5.459  -0.905   3.407
   76DPPC   C50 3800   5.476  -1.034   3.327
   77DPPC    C1 3801   9.300   6.067   4.693
   77DPPC    C2 3802   9.427   5.885   4.594
   77DPPC    C3 3803   9.393   5.893   4.827
   77DPPC    N4 3804   9.329   5.923   4.697
   77DPPC    C5 3805   9.214   5.835   4.670
   77DPPC    C6 3806   9.079   5.818   4.740
   77DPPC    O7 3807   9.099   5.749   4.863
   77DPPC    P8 3808   8.979   5.770   4.968
   77DPPC    O9 3809   8.897   5.888   4.934
   77DPPC   O10 3810   9.034   5.762   5.105
   77DPPC   O11 3811   8.897   5.633   4.941
   77DPPC   C12 3812   8.961   5.510   4.976
   77DPPC   C13 3813   8.876   5.388   4.938
   77DPPC   O14 3814   8.957   5.277   4.897
   77DPPC   C15 3815   8.974   5.168   4.977
   77DPPC   O16 3816   8.974   5.184   5.099
   77DPPC   C17 3817   9.012   5.031   4.921
   77DPPC   C18 3818   8.960   5.011   4.778
   77DPPC   C19 3819   9.048   4.907   4.710
   77DPPC   C20 3820   9.194   4.954   4.705
   77DPPC   C21 3821   9.284   4.832   4.683
   77DPPC   C22 3822   9.287   4.798   4.534
   77DPPC   C23 3823   9.349   4.916   4.459
   77DPPC   C24 3824   9.349   4.878   4.310
   77DPPC   C25 3825   9.396   4.994   4.223
   77DPPC   C26 3826   9.397   4.957   4.074
   77DPPC   C27 3827   9.466   5.069   3.996
   77DPPC   C28 3828   9.455   5.015   3.853
   77DPPC   C29 3829   9.508   5.112   3.748
   77DPPC   C30 3830   9.545   5.032   3.623
   77DPPC   C31 3831   9.422   5.003   3.536
   77DPPC   C32 3832   8.793   5.435   4.818
   77DPPC   O33 3833   8.725   5.330   4.748
   77DPPC   C34 3834   8.654   5.375   4.642
   77DPPC   O35 3835   8.677   5.486   4.595
   77DPPC   C36 3836   8.583   5.259   4.570
   77DPPC   C37 3837   8.507   5.294   4.442
   77DPPC   C38 3838   8.488   5.162   4.368
   77DPPC   C39 3839   8.505   5.201   4.221
   77DPPC   C40 3840   8.466   5.075   4.144
   77DPPC   C41 3841   8.534   4.940   4.170
   77DPPC   C42 3842   8.457   4.822   4.111
   77DPPC   C43 3843   8.522   4.687   4.142
   77DPPC   C44 3844   8.450   4.566   4.082
   77DPPC   C45 3845   8.497   4.422   4.102
   77DPPC   C46 3846   8.453   4.339   3.981
   77DPPC   C47 3847   8.505   4.401   3.851
   77DPPC   C48 3848   8.484   4.323   3.722
   77DPPC   C49 3849   8.552   4.389   3.602
   77DPPC   C50 3850   8.546   4.303   3.476
   78DPPC    C1 3851   1.043   5.327   5.184
   78DPPC    C2 3852   1.138   5.147   5.096
   78DPPC    C3 3853   1.193   5.378   5.021
   78DPPC    N4 3854   1.175   5.285   5.133
   78DPPC    C5 3855   1.266   5.309   5.246
   78DPPC    C6 3856   1.408   5.252   5.233
   78DPPC    O7 3857   1.421   5.110   5.235
   78DPPC    P8 3858   1.572   5.067   5.198
   78DPPC    O9 3859   1.604   4.940   5.267
   78DPPC   O10 3860   1.645   5.193   5.224
   78DPPC   O11 3861   1.541   5.062   5.040
   78DPPC   C12 3862   1.486   4.934   5.007
   78DPPC   C13 3863   1.402   4.921   4.880
   78DPPC   O14 3864   1.336   4.797   4.852
   78DPPC   C15 3865   1.224   4.760   4.919
   78DPPC   O16 3866   1.143   4.837   4.971
   78DPPC   C17 3867   1.173   4.626   4.866
   78DPPC   C18 3868   1.109   4.632   4.728
   78DPPC   C19 3869   1.057   4.492   4.697
   78DPPC   C20 3870   1.005   4.495   4.553
   78DPPC   C21 3871   1.128   4.528   4.467
   78DPPC   C22 3872   1.111   4.575   4.322
   78DPPC   C23 3873   1.248   4.575   4.254
   78DPPC   C24 3874   1.237   4.602   4.104
   78DPPC   C25 3875   1.156   4.496   4.029
   78DPPC   C26 3876   1.143   4.541   3.884
   78DPPC   C27 3877   1.292   4.552   3.850
   78DPPC   C28 3878   1.301   4.628   3.718
   78DPPC   C29 3879   1.432   4.603   3.642
   78DPPC   C30 3880   1.425   4.462   3.582
   78DPPC   C31 3881   1.554   4.425   3.507
   78DPPC   C32 3882   1.501   4.958   4.769
   78DPPC   O33 3883   1.444   4.975   4.639
   78DPPC   C34 3884   1.539   5.016   4.551
   78DPPC   O35 3885   1.655   4.982   4.570
   78DPPC   C36 3886   1.494   5.106   4.435
   78DPPC   C37 3887   1.385   5.036   4.354
   78DPPC   C38 3888   1.447   4.933   4.259
   78DPPC   C39 3889   1.526   5.024   4.164
   78DPPC   C40 3890   1.620   4.942   4.076
   78DPPC   C41 3891   1.553   4.859   3.966
   78DPPC   C42 3892   1.659   4.787   3.882
   78DPPC   C43 3893   1.742   4.896   3.814
   78DPPC   C44 3894   1.845   4.839   3.716
   78DPPC   C45 3895   1.885   4.944   3.613
   78DPPC   C46 3896   1.939   5.067   3.686
   78DPPC   C47 3897   1.986   5.181   3.596
   78DPPC   C48 3898   2.055   5.292   3.676
   78DPPC   C49 3899   2.201   5.255   3.706
   78DPPC   C50 3900   2.281   5.377   3.751
   79DPPC    C1 3901   0.057   3.600   6.005
   79DPPC    C2 3902   0.078   3.602   5.770
   79DPPC    C3 3903  -0.145   3.574   5.868
   79DPPC    N4 3904  -0.012   3.636   5.881
   79DPPC    C5 3905  -0.009   3.783   5.876
   79DPPC    C6 3906  -0.109   3.864   5.793
   79DPPC    O7 3907  -0.069   3.862   5.656
   79DPPC    P8 3908  -0.195   3.937   5.590
   79DPPC    O9 3909  -0.207   4.070   5.654
   79DPPC   O10 3910  -0.301   3.834   5.584
   79DPPC   O11 3911  -0.122   3.944   5.446
   79DPPC   C12 3912  -0.067   3.818   5.407
   79DPPC   C13 3913  -0.019   3.820   5.262
   79DPPC   O14 3914   0.018   3.686   5.226
   79DPPC   C15 3915  -0.064   3.583   5.193
   79DPPC   O16 3916  -0.174   3.580   5.248
   79DPPC   C17 3917  -0.010   3.468   5.109
   79DPPC   C18 3918   0.009   3.512   4.963
   79DPPC   C19 3919   0.019   3.387   4.875
   79DPPC   C20 3920  -0.002   3.425   4.728
   79DPPC   C21 3921   0.011   3.301   4.640
   79DPPC   C22 3922  -0.025   3.348   4.499
   79DPPC   C23 3923  -0.043   3.232   4.400
   79DPPC   C24 3924  -0.093   3.282   4.265
   79DPPC   C25 3925  -0.112   3.169   4.164
   79DPPC   C26 3926  -0.112   3.235   4.026
   79DPPC   C27 3927  -0.137   3.138   3.911
   79DPPC   C28 3928  -0.130   3.224   3.785
   79DPPC   C29 3929  -0.170   3.139   3.664
   79DPPC   C30 3930  -0.081   3.017   3.645
   79DPPC   C31 3931  -0.113   2.947   3.512
   79DPPC   C32 3932   0.098   3.918   5.274
   79DPPC   O33 3933   0.141   3.975   5.150
   79DPPC   C34 3934   0.236   4.071   5.156
   79DPPC   O35 3935   0.265   4.112   5.268
   79DPPC   C36 3936   0.303   4.122   5.028
   79DPPC   C37 3937   0.214   4.128   4.903
   79DPPC   C38 3938   0.303   4.143   4.780
   79DPPC   C39 3939   0.212   4.125   4.659
   79DPPC   C40 3940   0.106   4.233   4.630
   79DPPC   C41 3941   0.012   4.189   4.518
   79DPPC   C42 3942   0.075   4.189   4.379
   79DPPC   C43 3943  -0.030   4.131   4.283
   79DPPC   C44 3944   0.026   4.149   4.141
   79DPPC   C45 3945  -0.098   4.121   4.056
   79DPPC   C46 3946  -0.062   4.193   3.926
   79DPPC   C47 3947  -0.171   4.206   3.819
   79DPPC   C48 3948  -0.103   4.257   3.692
   79DPPC   C49 3949  -0.199   4.239   3.574
   79DPPC   C50 3950  -0.132   4.267   3.439
   80DPPC    C1 3951   0.560   4.392   5.601
   80DPPC    C2 3952   0.714   4.471   5.782
   80DPPC    C3 3953   0.586   4.277   5.808
   80DPPC    N4 3954   0.655   4.359   5.707
   80DPPC    C5 3955   0.760   4.280   5.641
   80DPPC    C6 3956   0.855   4.347   5.542
   80DPPC    O7 3957   0.973   4.268   5.523
   80DPPC    P8 3958   1.072   4.371   5.448
   80DPPC    O9 3959   1.207   4.321   5.481
   80DPPC   O10 3960   1.028   4.511   5.469
   80DPPC   O11 3961   1.011   4.311   5.311
   80DPPC   C12 3962   1.039   4.414   5.216
   80DPPC   C13 3963   0.979   4.373   5.081
   80DPPC   O14 3964   0.838   4.352   5.079
   80DPPC   C15 3965   0.750   4.454   5.060
   80DPPC   O16 3966   0.772   4.565   5.109
   80DPPC   C17 3967   0.614   4.404   5.014
   80DPPC   C18 3968   0.612   4.400   4.861
   80DPPC   C19 3969   0.646   4.527   4.783
   80DPPC   C20 3970   0.626   4.532   4.631
   80DPPC   C21 3971   0.671   4.663   4.566
   80DPPC   C22 3972   0.620   4.652   4.422
   80DPPC   C23 3973   0.738   4.614   4.331
   80DPPC   C24 3974   0.684   4.593   4.190
   80DPPC   C25 3975   0.806   4.540   4.114
   80DPPC   C26 3976   0.788   4.483   3.973
   80DPPC   C27 3977   0.748   4.582   3.864
   80DPPC   C28 3978   0.713   4.504   3.737
   80DPPC   C29 3979   0.697   4.586   3.609
   80DPPC   C30 3980   0.648   4.506   3.488
   80DPPC   C31 3981   0.642   4.584   3.357
   80DPPC   C32 3982   1.062   4.254   5.032
   80DPPC   O33 3983   1.177   4.291   4.954
   80DPPC   C34 3984   1.235   4.187   4.889
   80DPPC   O35 3985   1.187   4.076   4.910
   80DPPC   C36 3986   1.343   4.224   4.787
   80DPPC   C37 3987   1.329   4.130   4.667
   80DPPC   C38 3988   1.225   4.165   4.560
   80DPPC   C39 3989   1.210   4.055   4.455
   80DPPC   C40 3990   1.093   4.090   4.362
   80DPPC   C41 3991   1.064   3.974   4.267
   80DPPC   C42 3992   0.988   4.005   4.139
   80DPPC   C43 3993   1.025   4.111   4.035
   80DPPC   C44 3994   0.960   4.093   3.898
   80DPPC   C45 3995   1.017   4.159   3.772
   80DPPC   C46 3996   0.923   4.156   3.651
   80DPPC   C47 3997   1.004   4.103   3.532
   80DPPC   C48 3998   0.910   4.081   3.414
   80DPPC   C49 3999   0.983   4.011   3.300
   80DPPC   C50 4000   0.886   3.964   3.191
   81DPPC    C1 4001   5.913   4.189   5.286
   81DPPC    C2 4002   5.707   4.152   5.405
   81DPPC    C3 4003   5.882   4.263   5.509
   81DPPC    N4 4004   5.815   4.249   5.378
   81DPPC    C5 4005   5.759   4.370   5.317
   81DPPC    C6 4006   5.689   4.473   5.405
   81DPPC    O7 4007   5.590   4.422   5.496
   81DPPC    P8 4008   5.560   4.530   5.611
   81DPPC    O9 4009   5.697   4.578   5.640
   81DPPC   O10 4010   5.465   4.483   5.714
   81DPPC   O11 4011   5.491   4.650   5.528
   81DPPC   C12 4012   5.373   4.603   5.461
   81DPPC   C13 4013   5.289   4.717   5.403
   81DPPC   O14 4014   5.176   4.681   5.322
   81DPPC   C15 4015   5.057   4.668   5.385
   81DPPC   O16 4016   5.046   4.720   5.496
   81DPPC   C17 4017   4.931   4.618   5.314
   81DPPC   C18 4018   4.945   4.609   5.162
   81DPPC   C19 4019   4.818   4.563   5.092
   81DPPC   C20 4020   4.773   4.430   5.154
   81DPPC   C21 4021   4.644   4.378   5.088
   81DPPC   C22 4022   4.671   4.323   4.948
   81DPPC   C23 4023   4.534   4.313   4.881
   81DPPC   C24 4024   4.549   4.313   4.729
   81DPPC   C25 4025   4.409   4.278   4.679
   81DPPC   C26 4026   4.294   4.374   4.709
   81DPPC   C27 4027   4.166   4.303   4.664
   81DPPC   C28 4028   4.173   4.267   4.516
   81DPPC   C29 4029   4.085   4.147   4.478
   81DPPC   C30 4030   4.137   4.103   4.342
   81DPPC   C31 4031   4.056   3.999   4.264
   81DPPC   C32 4032   5.388   4.808   5.330
   81DPPC   O33 4033   5.475   4.761   5.226
   81DPPC   C34 4034   5.588   4.829   5.192
   81DPPC   O35 4035   5.613   4.940   5.238
   81DPPC   C36 4036   5.655   4.779   5.064
   81DPPC   C37 4037   5.629   4.631   5.032
   81DPPC   C38 4038   5.725   4.599   4.917
   81DPPC   C39 4039   5.723   4.450   4.882
   81DPPC   C40 4040   5.866   4.408   4.845
   81DPPC   C41 4041   5.903   4.261   4.824
   81DPPC   C42 4042   5.830   4.194   4.707
   81DPPC   C43 4043   5.871   4.249   4.570
   81DPPC   C44 4044   5.801   4.195   4.445
   81DPPC   C45 4045   5.835   4.245   4.305
   81DPPC   C46 4046   5.738   4.160   4.222
   81DPPC   C47 4047   5.722   4.212   4.079
   81DPPC   C48 4048   5.848   4.171   4.002
   81DPPC   C49 4049   5.845   4.229   3.861
   81DPPC   C50 4050   5.971   4.218   3.773
   82DPPC    C1 4051   9.166   5.635   5.384
   82DPPC    C2 4052   9.373   5.539   5.426
   82DPPC    C3 4053   9.188   5.456   5.529
   82DPPC    N4 4054   9.232   5.505   5.398
   82DPPC    C5 4055   9.207   5.425   5.277
   82DPPC    C6 4056   9.263   5.284   5.258
   82DPPC    O7 4057   9.404   5.292   5.238
   82DPPC    P8 4058   9.453   5.148   5.183
   82DPPC    O9 4059   9.384   5.046   5.265
   82DPPC   O10 4060   9.601   5.148   5.177
   82DPPC   O11 4061   9.391   5.163   5.035
   82DPPC   C12 4062   9.487   5.215   4.942
   82DPPC   C13 4063   9.445   5.184   4.798
   82DPPC   O14 4064   9.560   5.171   4.713
   82DPPC   C15 4065   9.622   5.051   4.698
   82DPPC   O16 4066   9.625   4.975   4.795
   82DPPC   C17 4067   9.752   5.058   4.618
   82DPPC   C18 4068   9.715   5.057   4.469
   82DPPC   C19 4069   9.835   5.071   4.376
   82DPPC   C20 4070   9.786   5.068   4.231
   82DPPC   C21 4071   9.912   5.072   4.145
   82DPPC   C22 4072   9.867   5.009   4.013
   82DPPC   C23 4073   9.960   5.063   3.905
   82DPPC   C24 4074   9.955   4.973   3.781
   82DPPC   C25 4075  10.048   5.029   3.673
   82DPPC   C26 4076  10.033   4.962   3.536
   82DPPC   C27 4077  10.122   5.028   3.429
   82DPPC   C28 4078  10.110   4.960   3.293
   82DPPC   C29 4079  10.157   5.046   3.176
   82DPPC   C30 4080  10.063   5.166   3.177
   82DPPC   C31 4081  10.097   5.259   3.060
   82DPPC   C32 4082   9.351   5.300   4.762
   82DPPC   O33 4083   9.257   5.267   4.660
   82DPPC   C34 4084   9.179   5.376   4.633
   82DPPC   O35 4085   9.206   5.489   4.672
   82DPPC   C36 4086   9.072   5.348   4.527
   82DPPC   C37 4087   9.131   5.353   4.386
   82DPPC   C38 4088   9.024   5.301   4.290
   82DPPC   C39 4089   9.032   5.149   4.294
   82DPPC   C40 4090   8.910   5.076   4.237
   82DPPC   C41 4091   8.866   5.124   4.099
   82DPPC   C42 4092   8.938   5.056   3.982
   82DPPC   C43 4093   8.870   5.102   3.852
   82DPPC   C44 4094   8.948   5.032   3.741
   82DPPC   C45 4095   8.900   5.061   3.599
   82DPPC   C46 4096   9.002   5.009   3.497
   82DPPC   C47 4097   9.073   4.875   3.517
   82DPPC   C48 4098   8.968   4.763   3.513
   82DPPC   C49 4099   9.026   4.622   3.506
   82DPPC   C50 4100   9.137   4.614   3.401
   83DPPC    C1 4101   7.579   5.231   5.746
   83DPPC    C2 4102   7.693   5.027   5.751
   83DPPC    C3 4103   7.467   5.027   5.766
   83DPPC    N4 4104   7.575   5.094   5.694
   83DPPC    C5 4105   7.572   5.103   5.547
   83DPPC    C6 4106   7.536   4.983   5.460
   83DPPC    O7 4107   7.640   4.885   5.454
   83DPPC    P8 4108   7.606   4.778   5.338
   83DPPC    O9 4109   7.460   4.757   5.344
   83DPPC   O10 4110   7.709   4.678   5.374
   83DPPC   O11 4111   7.648   4.860   5.206
   83DPPC   C12 4112   7.776   4.818   5.159
   83DPPC   C13 4113   7.875   4.924   5.110
   83DPPC   O14 4114   7.850   4.987   4.984
   83DPPC   C15 4115   7.909   5.108   4.963
   83DPPC   O16 4116   7.987   5.159   5.043
   83DPPC   C17 4117   7.907   5.156   4.818
   83DPPC   C18 4118   7.771   5.212   4.774
   83DPPC   C19 4119   7.746   5.239   4.626
   83DPPC   C20 4120   7.849   5.332   4.560
   83DPPC   C21 4121   7.855   5.323   4.407
   83DPPC   C22 4122   7.729   5.380   4.341
   83DPPC   C23 4123   7.758   5.388   4.191
   83DPPC   C24 4124   7.643   5.449   4.111
   83DPPC   C25 4125   7.671   5.438   3.961
   83DPPC   C26 4126   7.553   5.480   3.872
   83DPPC   C27 4127   7.578   5.461   3.722
   83DPPC   C28 4128   7.450   5.499   3.646
   83DPPC   C29 4129   7.469   5.491   3.494
   83DPPC   C30 4130   7.454   5.352   3.433
   83DPPC   C31 4131   7.486   5.344   3.284
   83DPPC   C32 4132   8.006   4.845   5.111
   83DPPC   O33 4133   8.007   4.726   5.031
   83DPPC   C34 4134   8.132   4.679   5.004
   83DPPC   O35 4135   8.235   4.735   5.039
   83DPPC   C36 4136   8.139   4.550   4.922
   83DPPC   C37 4137   8.259   4.543   4.827
   83DPPC   C38 4138   8.234   4.450   4.708
   83DPPC   C39 4139   8.367   4.424   4.637
   83DPPC   C40 4140   8.431   4.552   4.585
   83DPPC   C41 4141   8.558   4.503   4.515
   83DPPC   C42 4142   8.659   4.618   4.504
   83DPPC   C43 4143   8.773   4.589   4.407
   83DPPC   C44 4144   8.861   4.708   4.368
   83DPPC   C45 4145   8.996   4.655   4.321
   83DPPC   C46 4146   8.990   4.671   4.169
   83DPPC   C47 4147   9.118   4.623   4.099
   83DPPC   C48 4148   9.125   4.651   3.949
   83DPPC   C49 4149   9.268   4.615   3.908
   83DPPC   C50 4150   9.301   4.642   3.761
   84DPPC    C1 4151   0.842   7.176   4.512
   84DPPC    C2 4152   0.657   7.237   4.386
   84DPPC    C3 4153   0.709   7.003   4.413
   84DPPC    N4 4154   0.704   7.134   4.480
   84DPPC    C5 4155   0.618   7.146   4.598
   84DPPC    C6 4156   0.484   7.073   4.605
   84DPPC    O7 4157   0.370   7.117   4.530
   84DPPC    P8 4158   0.243   7.033   4.583
   84DPPC    O9 4159   0.224   7.055   4.728
   84DPPC   O10 4160   0.280   6.898   4.535
   84DPPC   O11 4161   0.123   7.100   4.500
   84DPPC   C12 4162   0.089   7.004   4.400
   84DPPC   C13 4163  -0.031   7.057   4.321
   84DPPC   O14 4164  -0.077   6.965   4.221
   84DPPC   C15 4165  -0.132   6.844   4.250
   84DPPC   O16 4166  -0.094   6.780   4.348
   84DPPC   C17 4167  -0.213   6.785   4.134
   84DPPC   C18 4168  -0.161   6.840   4.001
   84DPPC   C19 4169  -0.268   6.817   3.894
   84DPPC   C20 4170  -0.390   6.887   3.955
   84DPPC   C21 4171  -0.515   6.844   3.878
   84DPPC   C22 4172  -0.633   6.857   3.973
   84DPPC   C23 4173  -0.752   6.782   3.912
   84DPPC   C24 4174  -0.884   6.827   3.976
   84DPPC   C25 4175  -1.008   6.751   3.930
   84DPPC   C26 4176  -1.137   6.793   4.000
   84DPPC   C27 4177  -1.258   6.706   3.966
   84DPPC   C28 4178  -1.376   6.775   4.035
   84DPPC   C29 4179  -1.512   6.706   4.020
   84DPPC   C30 4180  -1.602   6.781   4.118
   84DPPC   C31 4181  -1.753   6.760   4.104
   84DPPC   C32 4182  -0.004   7.193   4.258
   84DPPC   O33 4183   0.065   7.204   4.134
   84DPPC   C34 4184   0.087   7.335   4.103
   84DPPC   O35 4185   0.034   7.428   4.163
   84DPPC   C36 4186   0.134   7.355   3.958
   84DPPC   C37 4187   0.277   7.303   3.942
   84DPPC   C38 4188   0.322   7.313   3.796
   84DPPC   C39 4189   0.228   7.231   3.707
   84DPPC   C40 4190   0.228   7.092   3.770
   84DPPC   C41 4191   0.151   6.998   3.679
   84DPPC   C42 4192   0.176   6.851   3.715
   84DPPC   C43 4193   0.327   6.824   3.706
   84DPPC   C44 4194   0.360   6.684   3.757
   84DPPC   C45 4195   0.509   6.682   3.795
   84DPPC   C46 4196   0.542   6.800   3.886
   84DPPC   C47 4197   0.681   6.773   3.944
   84DPPC   C48 4198   0.770   6.756   3.820
   84DPPC   C49 4199   0.899   6.837   3.825
   84DPPC   C50 4200   0.981   6.824   3.696
   85DPPC    C1 4201   8.288   7.424   4.638
   85DPPC    C2 4202   8.217   7.482   4.849
   85DPPC    C3 4203   8.376   7.309   4.811
   85DPPC    N4 4204   8.339   7.446   4.774
   85DPPC    C5 4205   8.440   7.551   4.759
   85DPPC    C6 4206   8.531   7.606   4.870
   85DPPC    O7 4207   8.644   7.524   4.900
   85DPPC    P8 4208   8.784   7.604   4.904
   85DPPC    O9 4209   8.877   7.507   4.964
   85DPPC   O10 4210   8.751   7.737   4.960
   85DPPC   O11 4211   8.798   7.602   4.743
   85DPPC   C12 4212   8.826   7.467   4.706
   85DPPC   C13 4213   8.824   7.438   4.556
   85DPPC   O14 4214   8.795   7.301   4.526
   85DPPC   C15 4215   8.670   7.255   4.501
   85DPPC   O16 4216   8.571   7.315   4.542
   85DPPC   C17 4217   8.663   7.126   4.418
   85DPPC   C18 4218   8.530   7.094   4.350
   85DPPC   C19 4219   8.460   6.987   4.434
   85DPPC   C20 4220   8.323   6.959   4.371
   85DPPC   C21 4221   8.230   7.074   4.409
   85DPPC   C22 4222   8.093   7.058   4.343
   85DPPC   C23 4223   7.972   7.135   4.396
   85DPPC   C24 4224   7.868   7.119   4.285
   85DPPC   C25 4225   7.913   7.159   4.144
   85DPPC   C26 4226   7.801   7.151   4.041
   85DPPC   C27 4227   7.842   7.209   3.906
   85DPPC   C28 4228   7.964   7.145   3.841
   85DPPC   C29 4229   7.977   7.177   3.692
   85DPPC   C30 4230   8.102   7.108   3.636
   85DPPC   C31 4231   8.121   7.146   3.489
   85DPPC   C32 4232   8.955   7.494   4.500
   85DPPC   O33 4233   8.962   7.533   4.363
   85DPPC   C34 4234   9.076   7.596   4.322
   85DPPC   O35 4235   9.162   7.639   4.399
   85DPPC   C36 4236   9.081   7.623   4.172
   85DPPC   C37 4237   9.223   7.649   4.122
   85DPPC   C38 4238   9.231   7.726   3.990
   85DPPC   C39 4239   9.376   7.737   3.940
   85DPPC   C40 4240   9.379   7.800   3.801
   85DPPC   C41 4241   9.489   7.739   3.715
   85DPPC   C42 4242   9.478   7.786   3.570
   85DPPC   C43 4243   9.581   7.699   3.498
   85DPPC   C44 4244   9.594   7.701   3.345
   85DPPC   C45 4245   9.708   7.610   3.299
   85DPPC   C46 4246   9.683   7.462   3.329
   85DPPC   C47 4247   9.774   7.356   3.268
   85DPPC   C48 4248   9.700   7.224   3.290
   85DPPC   C49 4249   9.738   7.111   3.194
   85DPPC   C50 4250   9.886   7.081   3.216
   86DPPC    C1 4251   7.160   7.301   5.437
   86DPPC    C2 4252   7.367   7.267   5.298
   86DPPC    C3 4253   7.336   7.430   5.463
   86DPPC    N4 4254   7.307   7.290   5.430
   86DPPC    C5 4255   7.369   7.206   5.533
   86DPPC    C6 4256   7.360   7.054   5.513
   86DPPC    O7 4257   7.227   7.003   5.497
   86DPPC    P8 4258   7.238   6.845   5.465
   86DPPC    O9 4259   7.137   6.801   5.563
   86DPPC   O10 4260   7.379   6.801   5.464
   86DPPC   O11 4261   7.170   6.866   5.321
   86DPPC   C12 4262   7.256   6.861   5.207
   86DPPC   C13 4263   7.179   6.841   5.077
   86DPPC   O14 4264   7.270   6.846   4.966
   86DPPC   C15 4265   7.234   6.774   4.856
   86DPPC   O16 4266   7.145   6.690   4.867
   86DPPC   C17 4267   7.349   6.766   4.755
   86DPPC   C18 4268   7.310   6.716   4.616
   86DPPC   C19 4269   7.407   6.767   4.509
   86DPPC   C20 4270   7.341   6.738   4.374
   86DPPC   C21 4271   7.426   6.799   4.262
   86DPPC   C22 4272   7.403   6.950   4.254
   86DPPC   C23 4273   7.298   7.013   4.163
   86DPPC   C24 4274   7.302   7.165   4.184
   86DPPC   C25 4275   7.213   7.246   4.090
   86DPPC   C26 4276   7.268   7.239   3.948
   86DPPC   C27 4277   7.180   7.334   3.867
   86DPPC   C28 4278   7.236   7.367   3.728
   86DPPC   C29 4279   7.283   7.255   3.637
   86DPPC   C30 4280   7.355   7.303   3.510
   86DPPC   C31 4281   7.250   7.366   3.418
   86DPPC   C32 4282   7.063   6.940   5.067
   86DPPC   O33 4283   7.095   7.078   5.052
   86DPPC   C34 4284   6.990   7.163   5.072
   86DPPC   O35 4285   6.876   7.121   5.092
   86DPPC   C36 4286   7.033   7.309   5.088
   86DPPC   C37 4287   7.024   7.381   4.953
   86DPPC   C38 4288   6.884   7.422   4.906
   86DPPC   C39 4289   6.889   7.468   4.761
   86DPPC   C40 4290   6.977   7.593   4.763
   86DPPC   C41 4291   7.065   7.591   4.637
   86DPPC   C42 4292   7.142   7.721   4.614
   86DPPC   C43 4293   7.239   7.742   4.731
   86DPPC   C44 4294   7.323   7.868   4.708
   86DPPC   C45 4295   7.218   7.980   4.709
   86DPPC   C46 4296   7.261   8.113   4.645
   86DPPC   C47 4297   7.159   8.227   4.650
   86DPPC   C48 4298   7.239   8.340   4.585
   86DPPC   C49 4299   7.149   8.464   4.589
   86DPPC   C50 4300   7.207   8.561   4.486
   87DPPC    C1 4301   5.185   4.625   5.850
   87DPPC    C2 4302   5.029   4.488   5.959
   87DPPC    C3 4303   4.971   4.648   5.799
   87DPPC    N4 4304   5.067   4.541   5.827
   87DPPC    C5 4305   5.081   4.447   5.715
   87DPPC    C6 4306   5.197   4.348   5.713
   87DPPC    O7 4307   5.162   4.241   5.801
   87DPPC    P8 4308   5.280   4.134   5.825
   87DPPC    O9 4309   5.213   4.002   5.838
   87DPPC   O10 4310   5.357   4.201   5.932
   87DPPC   O11 4311   5.348   4.146   5.680
   87DPPC   C12 4312   5.311   4.034   5.599
   87DPPC   C13 4313   5.243   4.070   5.467
   87DPPC   O14 4314   5.195   3.955   5.396
   87DPPC   C15 4315   5.064   3.921   5.412
   87DPPC   O16 4316   4.992   3.961   5.503
   87DPPC   C17 4317   5.013   3.804   5.328
   87DPPC   C18 4318   4.891   3.829   5.240
   87DPPC   C19 4319   4.850   3.716   5.145
   87DPPC   C20 4320   4.958   3.696   5.038
   87DPPC   C21 4321   4.911   3.586   4.942
   87DPPC   C22 4322   5.027   3.556   4.847
   87DPPC   C23 4323   5.072   3.687   4.783
   87DPPC   C24 4324   5.196   3.665   4.695
   87DPPC   C25 4325   5.168   3.612   4.554
   87DPPC   C26 4326   5.079   3.709   4.476
   87DPPC   C27 4327   5.038   3.642   4.344
   87DPPC   C28 4328   4.920   3.710   4.273
   87DPPC   C29 4329   4.890   3.626   4.148
   87DPPC   C30 4330   4.758   3.681   4.094
   87DPPC   C31 4331   4.727   3.622   3.957
   87DPPC   C32 4332   5.333   4.167   5.391
   87DPPC   O33 4333   5.250   4.248   5.308
   87DPPC   C34 4334   5.320   4.315   5.212
   87DPPC   O35 4335   5.443   4.312   5.208
   87DPPC   C36 4336   5.237   4.361   5.092
   87DPPC   C37 4337   5.220   4.250   4.987
   87DPPC   C38 4338   5.135   4.137   5.045
   87DPPC   C39 4339   5.086   4.037   4.940
   87DPPC   C40 4340   4.981   4.108   4.855
   87DPPC   C41 4341   4.925   4.020   4.743
   87DPPC   C42 4342   4.802   4.075   4.670
   87DPPC   C43 4343   4.790   4.015   4.530
   87DPPC   C44 4344   4.660   4.073   4.475
   87DPPC   C45 4345   4.651   4.032   4.328
   87DPPC   C46 4346   4.549   4.125   4.262
   87DPPC   C47 4347   4.536   4.114   4.110
   87DPPC   C48 4348   4.504   3.968   4.079
   87DPPC   C49 4349   4.475   3.966   3.929
   87DPPC   C50 4350   4.359   4.050   3.876
   88DPPC    C1 4351   7.926   6.676   5.323
   88DPPC    C2 4352   7.793   6.492   5.394
   88DPPC    C3 4353   7.817   6.693   5.528
   88DPPC    N4 4354   7.802   6.639   5.393
   88DPPC    C5 4355   7.684   6.682   5.315
   88DPPC    C6 4356   7.644   6.829   5.308
   88DPPC    O7 4357   7.744   6.914   5.251
   88DPPC    P8 4358   7.700   7.069   5.251
   88DPPC    O9 4359   7.819   7.144   5.206
   88DPPC   O10 4360   7.624   7.101   5.374
   88DPPC   O11 4361   7.596   7.059   5.128
   88DPPC   C12 4362   7.661   7.014   5.009
   88DPPC   C13 4363   7.587   6.980   4.879
   88DPPC   O14 4364   7.676   6.953   4.769
   88DPPC   C15 4365   7.728   6.830   4.745
   88DPPC   O16 4366   7.720   6.753   4.840
   88DPPC   C17 4367   7.781   6.793   4.606
   88DPPC   C18 4368   7.770   6.643   4.576
   88DPPC   C19 4369   7.876   6.616   4.468
   88DPPC   C20 4370   7.873   6.470   4.423
   88DPPC   C21 4371   7.984   6.456   4.319
   88DPPC   C22 4372   7.937   6.386   4.191
   88DPPC   C23 4373   8.062   6.337   4.119
   88DPPC   C24 4374   8.027   6.279   3.981
   88DPPC   C25 4375   8.146   6.217   3.909
   88DPPC   C26 4376   8.117   6.207   3.759
   88DPPC   C27 4377   8.239   6.157   3.681
   88DPPC   C28 4378   8.195   6.088   3.552
   88DPPC   C29 4379   8.130   6.189   3.458
   88DPPC   C30 4380   8.119   6.150   3.311
   88DPPC   C31 4381   8.099   6.263   3.209
   88DPPC   C32 4382   7.500   7.103   4.855
   88DPPC   O33 4383   7.381   7.085   4.777
   88DPPC   C34 4384   7.300   7.195   4.781
   88DPPC   O35 4385   7.342   7.295   4.838
   88DPPC   C36 4386   7.158   7.175   4.729
   88DPPC   C37 4387   7.149   7.196   4.578
   88DPPC   C38 4388   7.014   7.156   4.518
   88DPPC   C39 4389   6.991   7.005   4.527
   88DPPC   C40 4390   6.844   6.975   4.493
   88DPPC   C41 4391   6.826   6.831   4.540
   88DPPC   C42 4392   6.678   6.791   4.544
   88DPPC   C43 4393   6.616   6.789   4.404
   88DPPC   C44 4394   6.480   6.720   4.393
   88DPPC   C45 4395   6.396   6.761   4.271
   88DPPC   C46 4396   6.306   6.644   4.232
   88DPPC   C47 4397   6.242   6.667   4.095
   88DPPC   C48 4398   6.156   6.543   4.066
   88DPPC   C49 4399   6.236   6.418   4.101
   88DPPC   C50 4400   6.174   6.296   4.031
   89DPPC    C1 4401   8.895   1.171   5.536
   89DPPC    C2 4402   8.949   1.393   5.551
   89DPPC    C3 4403   9.020   1.278   5.367
   89DPPC    N4 4404   8.903   1.293   5.454
   89DPPC    C5 4405   8.792   1.331   5.366
   89DPPC    C6 4406   8.652   1.377   5.408
   89DPPC    O7 4407   8.664   1.460   5.524
   89DPPC    P8 4408   8.532   1.552   5.533
   89DPPC    O9 4409   8.562   1.668   5.620
   89DPPC   O10 4410   8.424   1.453   5.550
   89DPPC   O11 4411   8.537   1.599   5.379
   89DPPC   C12 4412   8.432   1.684   5.332
   89DPPC   C13 4413   8.477   1.757   5.206
   89DPPC   O14 4414   8.371   1.845   5.165
   89DPPC   C15 4415   8.373   1.978   5.191
   89DPPC   O16 4416   8.435   2.017   5.290
   89DPPC   C17 4417   8.286   2.069   5.103
   89DPPC   C18 4418   8.267   2.024   4.958
   89DPPC   C19 4419   8.200   2.124   4.864
   89DPPC   C20 4420   8.171   2.062   4.727
   89DPPC   C21 4421   8.105   2.161   4.631
   89DPPC   C22 4422   7.973   2.209   4.692
   89DPPC   C23 4423   7.916   2.295   4.580
   89DPPC   C24 4424   7.785   2.357   4.629
   89DPPC   C25 4425   7.709   2.442   4.527
   89DPPC   C26 4426   7.664   2.354   4.410
   89DPPC   C27 4427   7.566   2.433   4.323
   89DPPC   C28 4428   7.618   2.564   4.263
   89DPPC   C29 4429   7.514   2.616   4.163
   89DPPC   C30 4430   7.572   2.747   4.110
   89DPPC   C31 4431   7.701   2.732   4.030
   89DPPC   C32 4432   8.522   1.658   5.098
   89DPPC   O33 4433   8.591   1.731   4.996
   89DPPC   C34 4434   8.620   1.672   4.877
   89DPPC   O35 4435   8.584   1.555   4.862
   89DPPC   C36 4436   8.698   1.746   4.767
   89DPPC   C37 4437   8.600   1.815   4.672
   89DPPC   C38 4438   8.665   1.940   4.613
   89DPPC   C39 4439   8.677   1.949   4.461
   89DPPC   C40 4440   8.542   1.968   4.391
   89DPPC   C41 4441   8.570   2.008   4.245
   89DPPC   C42 4442   8.447   1.984   4.158
   89DPPC   C43 4443   8.318   2.029   4.228
   89DPPC   C44 4444   8.200   1.972   4.149
   89DPPC   C45 4445   8.080   2.043   4.211
   89DPPC   C46 4446   7.954   2.002   4.133
   89DPPC   C47 4447   7.822   2.035   4.201
   89DPPC   C48 4448   7.713   1.969   4.116
   89DPPC   C49 4449   7.577   2.022   4.164
   89DPPC   C50 4450   7.473   1.985   4.058
   90DPPC    C1 4451   6.078   3.117   6.030
   90DPPC    C2 4452   5.918   3.283   5.937
   90DPPC    C3 4453   6.045   3.331   6.104
   90DPPC    N4 4454   6.056   3.253   5.980
   90DPPC    C5 4455   6.156   3.303   5.885
   90DPPC    C6 4456   6.186   3.453   5.877
   90DPPC    O7 4457   6.091   3.529   5.802
   90DPPC    P8 4458   6.093   3.684   5.844
   90DPPC    O9 4459   6.118   3.680   5.990
   90DPPC   O10 4460   5.993   3.770   5.777
   90DPPC   O11 4461   6.234   3.711   5.771
   90DPPC   C12 4462   6.212   3.718   5.630
   90DPPC   C13 4463   6.339   3.720   5.544
   90DPPC   O14 4464   6.323   3.762   5.408
   90DPPC   C15 4465   6.259   3.878   5.375
   90DPPC   O16 4466   6.247   3.970   5.455
   90DPPC   C17 4467   6.232   3.900   5.226
   90DPPC   C18 4468   6.108   3.822   5.182
   90DPPC   C19 4469   6.052   3.872   5.048
   90DPPC   C20 4470   6.146   3.892   4.929
   90DPPC   C21 4471   6.084   3.933   4.795
   90DPPC   C22 4472   6.191   3.988   4.700
   90DPPC   C23 4473   6.153   4.016   4.555
   90DPPC   C24 4474   6.271   4.060   4.468
   90DPPC   C25 4475   6.227   4.088   4.324
   90DPPC   C26 4476   6.344   4.064   4.228
   90DPPC   C27 4477   6.303   4.100   4.085
   90DPPC   C28 4478   6.425   4.081   3.996
   90DPPC   C29 4479   6.396   4.046   3.849
   90DPPC   C30 4480   6.356   3.900   3.828
   90DPPC   C31 4481   6.488   3.823   3.831
   90DPPC   C32 4482   6.418   3.590   5.556
   90DPPC   O33 4483   6.343   3.471   5.528
   90DPPC   C34 4484   6.408   3.354   5.549
   90DPPC   O35 4485   6.507   3.355   5.622
   90DPPC   C36 4486   6.331   3.222   5.538
   90DPPC   C37 4487   6.354   3.145   5.408
   90DPPC   C38 4488   6.242   3.041   5.399
   90DPPC   C39 4489   6.230   2.977   5.261
   90DPPC   C40 4490   6.119   2.872   5.260
   90DPPC   C41 4491   6.118   2.806   5.121
   90DPPC   C42 4492   6.026   2.689   5.090
   90DPPC   C43 4493   6.018   2.661   4.940
   90DPPC   C44 4494   5.973   2.776   4.849
   90DPPC   C45 4495   5.986   2.720   4.707
   90DPPC   C46 4496   5.961   2.820   4.594
   90DPPC   C47 4497   6.026   2.766   4.467
   90DPPC   C48 4498   5.932   2.785   4.348
   90DPPC   C49 4499   5.964   2.676   4.246
   90DPPC   C50 4500   6.105   2.697   4.191
   91DPPC    C1 4501   4.517   7.123   5.455
   91DPPC    C2 4502   4.461   7.260   5.627
   91DPPC    C3 4503   4.648   7.329   5.508
   91DPPC    N4 4504   4.516   7.265   5.491
   91DPPC    C5 4505   4.415   7.346   5.420
   91DPPC    C6 4506   4.448   7.348   5.271
   91DPPC    O7 4507   4.357   7.441   5.212
   91DPPC    P8 4508   4.311   7.389   5.067
   91DPPC    O9 4509   4.242   7.507   5.010
   91DPPC   O10 4510   4.239   7.263   5.099
   91DPPC   O11 4511   4.452   7.338   5.008
   91DPPC   C12 4512   4.456   7.406   4.882
   91DPPC   C13 4513   4.574   7.356   4.799
   91DPPC   O14 4514   4.617   7.433   4.685
   91DPPC   C15 4515   4.695   7.544   4.696
   91DPPC   O16 4516   4.740   7.591   4.800
   91DPPC   C17 4517   4.760   7.579   4.562
   91DPPC   C18 4518   4.727   7.498   4.436
   91DPPC   C19 4519   4.821   7.531   4.320
   91DPPC   C20 4520   4.763   7.478   4.189
   91DPPC   C21 4521   4.835   7.547   4.073
   91DPPC   C22 4522   4.827   7.465   3.944
   91DPPC   C23 4523   4.894   7.531   3.824
   91DPPC   C24 4524   4.916   7.440   3.703
   91DPPC   C25 4525   4.965   7.525   3.586
   91DPPC   C26 4526   4.979   7.431   3.466
   91DPPC   C27 4527   5.078   7.315   3.483
   91DPPC   C28 4528   5.121   7.267   3.344
   91DPPC   C29 4529   5.228   7.157   3.346
   91DPPC   C30 4530   5.308   7.143   3.217
   91DPPC   C31 4531   5.220   7.094   3.102
   91DPPC   C32 4532   4.557   7.206   4.774
   91DPPC   O33 4533   4.419   7.169   4.764
   91DPPC   C34 4534   4.390   7.042   4.724
   91DPPC   O35 4535   4.474   6.955   4.750
   91DPPC   C36 4536   4.257   7.015   4.655
   91DPPC   C37 4537   4.276   6.913   4.542
   91DPPC   C38 4538   4.133   6.881   4.496
   91DPPC   C39 4539   4.147   6.785   4.378
   91DPPC   C40 4540   4.210   6.878   4.274
   91DPPC   C41 4541   4.252   6.798   4.151
   91DPPC   C42 4542   4.138   6.712   4.096
   91DPPC   C43 4543   4.189   6.622   3.983
   91DPPC   C44 4544   4.313   6.546   4.030
   91DPPC   C45 4545   4.334   6.428   3.934
   91DPPC   C46 4546   4.354   6.470   3.788
   91DPPC   C47 4547   4.375   6.351   3.695
   91DPPC   C48 4548   4.339   6.403   3.556
   91DPPC   C49 4549   4.343   6.280   3.464
   91DPPC   C50 4550   4.312   6.313   3.318
   92DPPC    C1 4551   1.860   5.977   5.319
   92DPPC    C2 4552   1.834   6.206   5.405
   92DPPC    C3 4553   1.802   6.032   5.543
   92DPPC    N4 4554   1.886   6.070   5.429
   92DPPC    C5 4555   2.027   6.069   5.472
   92DPPC    C6 4556   2.126   6.114   5.365
   92DPPC    O7 4557   2.186   6.005   5.295
   92DPPC    P8 4558   2.307   6.050   5.198
   92DPPC    O9 4559   2.320   5.921   5.128
   92DPPC   O10 4560   2.385   6.093   5.316
   92DPPC   O11 4561   2.216   6.153   5.113
   92DPPC   C12 4562   2.177   6.079   4.997
   92DPPC   C13 4563   2.093   6.153   4.893
   92DPPC   O14 4564   2.056   6.068   4.783
   92DPPC   C15 4565   1.924   6.037   4.776
   92DPPC   O16 4566   1.846   6.111   4.836
   92DPPC   C17 4567   1.880   5.923   4.684
   92DPPC   C18 4568   1.869   5.974   4.540
   92DPPC   C19 4569   1.890   5.843   4.465
   92DPPC   C20 4570   1.861   5.882   4.320
   92DPPC   C21 4571   1.840   5.757   4.234
   92DPPC   C22 4572   1.798   5.797   4.092
   92DPPC   C23 4573   1.794   5.674   4.001
   92DPPC   C24 4574   1.695   5.573   4.060
   92DPPC   C25 4575   1.682   5.459   3.959
   92DPPC   C26 4576   1.561   5.375   4.003
   92DPPC   C27 4577   1.536   5.289   3.880
   92DPPC   C28 4578   1.553   5.373   3.753
   92DPPC   C29 4579   1.498   5.284   3.642
   92DPPC   C30 4580   1.519   5.319   3.495
   92DPPC   C31 4581   1.475   5.466   3.486
   92DPPC   C32 4582   2.177   6.277   4.861
   92DPPC   O33 4583   2.313   6.256   4.821
   92DPPC   C34 4584   2.397   6.362   4.808
   92DPPC   O35 4585   2.403   6.465   4.874
   92DPPC   C36 4586   2.528   6.331   4.735
   92DPPC   C37 4587   2.584   6.451   4.659
   92DPPC   C38 4588   2.728   6.425   4.615
   92DPPC   C39 4589   2.742   6.313   4.512
   92DPPC   C40 4590   2.658   6.349   4.389
   92DPPC   C41 4591   2.696   6.255   4.275
   92DPPC   C42 4592   2.677   6.106   4.305
   92DPPC   C43 4593   2.678   6.028   4.173
   92DPPC   C44 4594   2.629   5.887   4.208
   92DPPC   C45 4595   2.729   5.814   4.297
   92DPPC   C46 4596   2.690   5.670   4.334
   92DPPC   C47 4597   2.782   5.604   4.437
   92DPPC   C48 4598   2.741   5.467   4.491
   92DPPC   C49 4599   2.841   5.410   4.592
   92DPPC   C50 4600   2.785   5.277   4.642
   93DPPC    C1 4601   1.340   2.764   4.949
   93DPPC    C2 4602   1.253   2.947   4.830
   93DPPC    C3 4603   1.125   2.741   4.868
   93DPPC    N4 4604   1.216   2.841   4.925
   93DPPC    C5 4605   1.165   2.874   5.059
   93DPPC    C6 4606   1.232   2.991   5.133
   93DPPC    O7 4607   1.163   3.111   5.098
   93DPPC    P8 4608   1.240   3.236   5.164
   93DPPC    O9 4609   1.325   3.183   5.273
   93DPPC   O10 4610   1.129   3.330   5.194
   93DPPC   O11 4611   1.318   3.277   5.029
   93DPPC   C12 4612   1.220   3.320   4.935
   93DPPC   C13 4613   1.256   3.438   4.844
   93DPPC   O14 4614   1.165   3.488   4.745
   93DPPC   C15 4615   1.058   3.565   4.778
   93DPPC   O16 4616   1.023   3.588   4.894
   93DPPC   C17 4617   0.975   3.607   4.657
   93DPPC   C18 4618   0.838   3.538   4.661
   93DPPC   C19 4619   0.745   3.580   4.547
   93DPPC   C20 4620   0.816   3.553   4.414
   93DPPC   C21 4621   0.755   3.587   4.278
   93DPPC   C22 4622   0.729   3.737   4.258
   93DPPC   C23 4623   0.669   3.772   4.122
   93DPPC   C24 4624   0.774   3.757   4.011
   93DPPC   C25 4625   0.720   3.807   3.877
   93DPPC   C26 4626   0.606   3.712   3.839
   93DPPC   C27 4627   0.539   3.733   3.703
   93DPPC   C28 4628   0.630   3.710   3.582
   93DPPC   C29 4629   0.546   3.741   3.457
   93DPPC   C30 4630   0.627   3.679   3.343
   93DPPC   C31 4631   0.559   3.719   3.212
   93DPPC   C32 4632   1.383   3.386   4.776
   93DPPC   O33 4633   1.358   3.283   4.680
   93DPPC   C34 4634   1.453   3.259   4.586
   93DPPC   O35 4635   1.572   3.284   4.606
   93DPPC   C36 4636   1.421   3.160   4.474
   93DPPC   C37 4637   1.279   3.174   4.419
   93DPPC   C38 4638   1.249   3.069   4.312
   93DPPC   C39 4639   1.336   3.082   4.186
   93DPPC   C40 4640   1.299   2.974   4.085
   93DPPC   C41 4641   1.382   2.989   3.957
   93DPPC   C42 4642   1.316   2.901   3.851
   93DPPC   C43 4643   1.387   2.899   3.716
   93DPPC   C44 4644   1.308   2.986   3.617
   93DPPC   C45 4645   1.393   3.014   3.493
   93DPPC   C46 4646   1.305   3.110   3.412
   93DPPC   C47 4647   1.371   3.198   3.307
   93DPPC   C48 4648   1.389   3.129   3.172
   93DPPC   C49 4649   1.420   3.213   3.048
   93DPPC   C50 4650   1.442   3.140   2.915
   94DPPC    C1 4651   3.477   6.515   5.329
   94DPPC    C2 4652   3.571   6.618   5.533
   94DPPC    C3 4653   3.340   6.605   5.507
   94DPPC    N4 4654   3.465   6.535   5.474
   94DPPC    C5 4655   3.451   6.402   5.535
   94DPPC    C6 4656   3.574   6.313   5.557
   94DPPC    O7 4657   3.645   6.280   5.437
   94DPPC    P8 4658   3.764   6.182   5.482
   94DPPC    O9 4659   3.684   6.081   5.554
   94DPPC   O10 4660   3.849   6.281   5.554
   94DPPC   O11 4661   3.800   6.154   5.328
   94DPPC   C12 4662   3.866   6.270   5.277
   94DPPC   C13 4663   3.884   6.263   5.125
   94DPPC   O14 4664   3.769   6.318   5.059
   94DPPC   C15 4665   3.768   6.452   5.035
   94DPPC   O16 4666   3.856   6.525   5.080
   94DPPC   C17 4667   3.640   6.507   4.972
   94DPPC   C18 4668   3.680   6.600   4.857
   94DPPC   C19 4669   3.545   6.633   4.793
   94DPPC   C20 4670   3.566   6.734   4.680
   94DPPC   C21 4671   3.438   6.760   4.601
   94DPPC   C22 4672   3.478   6.867   4.499
   94DPPC   C23 4673   3.595   6.824   4.411
   94DPPC   C24 4674   3.557   6.704   4.324
   94DPPC   C25 4675   3.643   6.689   4.198
   94DPPC   C26 4676   3.647   6.546   4.144
   94DPPC   C27 4677   3.696   6.556   4.000
   94DPPC   C28 4678   3.756   6.420   3.961
   94DPPC   C29 4679   3.653   6.309   3.987
   94DPPC   C30 4680   3.582   6.277   3.856
   94DPPC   C31 4681   3.493   6.154   3.876
   94DPPC   C32 4682   3.915   6.119   5.086
   94DPPC   O33 4683   3.969   6.087   4.957
   94DPPC   C34 4684   4.023   5.963   4.964
   94DPPC   O35 4685   4.013   5.904   5.072
   94DPPC   C36 4686   4.105   5.918   4.843
   94DPPC   C37 4687   4.024   5.812   4.768
   94DPPC   C38 4688   4.065   5.829   4.622
   94DPPC   C39 4689   4.195   5.755   4.590
   94DPPC   C40 4690   4.233   5.819   4.456
   94DPPC   C41 4691   4.125   5.779   4.355
   94DPPC   C42 4692   4.183   5.816   4.218
   94DPPC   C43 4693   4.309   5.739   4.178
   94DPPC   C44 4694   4.315   5.753   4.026
   94DPPC   C45 4695   4.437   5.678   3.971
   94DPPC   C46 4696   4.451   5.684   3.819
   94DPPC   C47 4697   4.548   5.576   3.771
   94DPPC   C48 4698   4.596   5.600   3.627
   94DPPC   C49 4699   4.662   5.472   3.574
   94DPPC   C50 4700   4.696   5.494   3.426
   95DPPC    C1 4701   1.114   1.849   5.488
   95DPPC    C2 4702   0.955   1.767   5.339
   95DPPC    C3 4703   0.894   1.873   5.545
   95DPPC    N4 4704   0.983   1.880   5.429
   95DPPC    C5 4705   0.981   2.005   5.351
   95DPPC    C6 4706   0.989   2.136   5.430
   95DPPC    O7 4707   1.124   2.180   5.450
   95DPPC    P8 4708   1.114   2.325   5.519
   95DPPC    O9 4709   1.257   2.354   5.538
   95DPPC   O10 4710   1.028   2.309   5.638
   95DPPC   O11 4711   1.055   2.402   5.391
   95DPPC   C12 4712   1.157   2.432   5.295
   95DPPC   C13 4713   1.093   2.476   5.164
   95DPPC   O14 4714   1.177   2.488   5.048
   95DPPC   C15 4715   1.204   2.369   4.989
   95DPPC   O16 4716   1.153   2.268   5.037
   95DPPC   C17 4717   1.322   2.358   4.892
   95DPPC   C18 4718   1.323   2.231   4.806
   95DPPC   C19 4719   1.203   2.235   4.711
   95DPPC   C20 4720   1.187   2.096   4.648
   95DPPC   C21 4721   1.071   2.096   4.549
   95DPPC   C22 4722   1.055   1.955   4.491
   95DPPC   C23 4723   0.938   1.958   4.393
   95DPPC   C24 4724   0.979   2.042   4.272
   95DPPC   C25 4725   0.867   2.040   4.167
   95DPPC   C26 4726   0.919   1.995   4.031
   95DPPC   C27 4727   0.802   1.984   3.933
   95DPPC   C28 4728   0.863   1.954   3.796
   95DPPC   C29 4729   0.762   1.917   3.687
   95DPPC   C30 4730   0.850   1.866   3.572
   95DPPC   C31 4731   0.747   1.834   3.463
   95DPPC   C32 4732   1.013   2.592   5.222
   95DPPC   O33 4733   0.939   2.665   5.124
   95DPPC   C34 4734   0.816   2.702   5.169
   95DPPC   O35 4735   0.770   2.629   5.257
   95DPPC   C36 4736   0.740   2.818   5.104
   95DPPC   C37 4737   0.770   2.834   4.955
   95DPPC   C38 4738   0.689   2.952   4.901
   95DPPC   C39 4739   0.746   2.975   4.761
   95DPPC   C40 4740   0.829   3.103   4.751
   95DPPC   C41 4741   0.896   3.110   4.614
   95DPPC   C42 4742   0.803   3.162   4.504
   95DPPC   C43 4743   0.882   3.166   4.373
   95DPPC   C44 4744   0.785   3.200   4.259
   95DPPC   C45 4745   0.869   3.231   4.135
   95DPPC   C46 4746   0.788   3.266   4.010
   95DPPC   C47 4747   0.873   3.304   3.889
   95DPPC   C48 4748   0.794   3.327   3.760
   95DPPC   C49 4749   0.717   3.200   3.721
   95DPPC   C50 4750   0.799   3.076   3.684
   96DPPC    C1 4751   2.003   8.032   4.615
   96DPPC    C2 4752   1.980   7.940   4.838
   96DPPC    C3 4753   2.149   7.858   4.687
   96DPPC    N4 4754   2.074   7.977   4.731
   96DPPC    C5 4755   2.166   8.084   4.771
   96DPPC    C6 4756   2.283   8.053   4.865
   96DPPC    O7 4757   2.337   8.174   4.918
   96DPPC    P8 4758   2.491   8.172   4.963
   96DPPC    O9 4759   2.513   8.035   5.013
   96DPPC   O10 4760   2.507   8.293   5.047
   96DPPC   O11 4761   2.547   8.187   4.813
   96DPPC   C12 4762   2.552   8.327   4.782
   96DPPC   C13 4763   2.629   8.351   4.652
   96DPPC   O14 4764   2.572   8.458   4.575
   96DPPC   C15 4765   2.616   8.585   4.597
   96DPPC   O16 4766   2.659   8.618   4.708
   96DPPC   C17 4767   2.557   8.691   4.504
   96DPPC   C18 4768   2.648   8.700   4.381
   96DPPC   C19 4769   2.567   8.774   4.274
   96DPPC   C20 4770   2.439   8.699   4.240
   96DPPC   C21 4771   2.361   8.768   4.128
   96DPPC   C22 4772   2.245   8.683   4.075
   96DPPC   C23 4773   2.215   8.707   3.926
   96DPPC   C24 4774   2.161   8.844   3.886
   96DPPC   C25 4775   2.131   8.853   3.736
   96DPPC   C26 4776   2.098   8.996   3.691
   96DPPC   C27 4777   2.137   9.007   3.544
   96DPPC   C28 4778   2.091   9.147   3.501
   96DPPC   C29 4779   2.130   9.183   3.358
   96DPPC   C30 4780   2.282   9.165   3.361
   96DPPC   C31 4781   2.333   9.157   3.217
   96DPPC   C32 4782   2.633   8.225   4.566
   96DPPC   O33 4783   2.712   8.227   4.447
   96DPPC   C34 4784   2.671   8.135   4.356
   96DPPC   O35 4785   2.593   8.044   4.381
   96DPPC   C36 4786   2.741   8.140   4.220
   96DPPC   C37 4787   2.889   8.110   4.245
   96DPPC   C38 4788   2.976   8.126   4.120
   96DPPC   C39 4789   3.122   8.093   4.153
   96DPPC   C40 4790   3.158   8.172   4.278
   96DPPC   C41 4791   3.287   8.122   4.343
   96DPPC   C42 4792   3.402   8.132   4.242
   96DPPC   C43 4793   3.530   8.114   4.324
   96DPPC   C44 4794   3.656   8.150   4.245
   96DPPC   C45 4795   3.649   8.295   4.199
   96DPPC   C46 4796   3.761   8.337   4.103
   96DPPC   C47 4797   3.748   8.485   4.065
   96DPPC   C48 4798   3.866   8.535   3.981
   96DPPC   C49 4799   3.989   8.481   4.054
   96DPPC   C50 4800   4.117   8.524   3.981
   97DPPC    C1 4801   9.528   4.414   5.691
   97DPPC    C2 4802   9.487   4.264   5.498
   97DPPC    C3 4803   9.676   4.379   5.515
   97DPPC    N4 4804   9.580   4.310   5.602
   97DPPC    C5 4805   9.614   4.200   5.694
   97DPPC    C6 4806   9.711   4.088   5.656
   97DPPC    O7 4807   9.851   4.111   5.643
   97DPPC    P8 4808   9.914   3.963   5.657
   97DPPC    O9 4809   9.811   3.868   5.610
   97DPPC   O10 4810   9.936   3.957   5.803
   97DPPC   O11 4811  10.046   3.956   5.564
   97DPPC   C12 4812   9.993   3.985   5.435
   97DPPC   C13 4813  10.070   3.912   5.325
   97DPPC   O14 4814  10.082   3.996   5.210
   97DPPC   C15 4815  10.156   3.943   5.109
   97DPPC   O16 4816  10.219   3.839   5.126
   97DPPC   C17 4817  10.199   4.037   4.996
   97DPPC   C18 4818  10.208   3.951   4.870
   97DPPC   C19 4819  10.245   4.045   4.755
   97DPPC   C20 4820  10.247   3.976   4.619
   97DPPC   C21 4821  10.235   4.071   4.499
   97DPPC   C22 4822  10.092   4.122   4.483
   97DPPC   C23 4823  10.088   4.233   4.377
   97DPPC   C24 4824   9.942   4.255   4.338
   97DPPC   C25 4825   9.913   4.344   4.217
   97DPPC   C26 4826   9.967   4.288   4.086
   97DPPC   C27 4827   9.921   4.144   4.062
   97DPPC   C28 4828   9.915   4.106   3.914
   97DPPC   C29 4829   9.816   4.201   3.847
   97DPPC   C30 4830   9.801   4.159   3.700
   97DPPC   C31 4831   9.934   4.157   3.625
   97DPPC   C32 4832  10.012   3.772   5.298
   97DPPC   O33 4833   9.914   3.780   5.194
   97DPPC   C34 4834   9.850   3.667   5.154
   97DPPC   O35 4835   9.866   3.561   5.215
   97DPPC   C36 4836   9.780   3.684   5.019
   97DPPC   C37 4837   9.879   3.698   4.904
   97DPPC   C38 4838   9.808   3.704   4.769
   97DPPC   C39 4839   9.881   3.763   4.648
   97DPPC   C40 4840   9.791   3.778   4.526
   97DPPC   C41 4841   9.873   3.793   4.397
   97DPPC   C42 4842   9.793   3.748   4.274
   97DPPC   C43 4843   9.653   3.807   4.261
   97DPPC   C44 4844   9.578   3.771   4.133
   97DPPC   C45 4845   9.655   3.799   4.004
   97DPPC   C46 4846   9.566   3.761   3.885
   97DPPC   C47 4847   9.643   3.786   3.755
   97DPPC   C48 4848   9.559   3.789   3.627
   97DPPC   C49 4849   9.643   3.794   3.499
   97DPPC   C50 4850   9.570   3.833   3.370
   98DPPC    C1 4851   7.929   4.365   5.622
   98DPPC    C2 4852   7.755   4.216   5.673
   98DPPC    C3 4853   7.777   4.451   5.767
   98DPPC    N4 4854   7.785   4.358   5.654
   98DPPC    C5 4855   7.719   4.418   5.537
   98DPPC    C6 4856   7.566   4.426   5.533
   98DPPC    O7 4857   7.496   4.301   5.534
   98DPPC    P8 4858   7.350   4.354   5.579
   98DPPC    O9 4859   7.382   4.432   5.700
   98DPPC   O10 4860   7.259   4.237   5.578
   98DPPC   O11 4861   7.311   4.441   5.449
   98DPPC   C12 4862   7.284   4.342   5.349
   98DPPC   C13 4863   7.254   4.410   5.215
   98DPPC   O14 4864   7.211   4.316   5.116
   98DPPC   C15 4865   7.081   4.317   5.075
   98DPPC   O16 4866   7.014   4.398   5.140
   98DPPC   C17 4867   7.040   4.243   4.948
   98DPPC   C18 4868   7.159   4.241   4.852
   98DPPC   C19 4869   7.184   4.369   4.772
   98DPPC   C20 4870   7.192   4.350   4.620
   98DPPC   C21 4871   7.299   4.249   4.578
   98DPPC   C22 4872   7.329   4.256   4.428
   98DPPC   C23 4873   7.387   4.390   4.383
   98DPPC   C24 4874   7.423   4.415   4.236
   98DPPC   C25 4875   7.290   4.434   4.163
   98DPPC   C26 4876   7.305   4.413   4.013
   98DPPC   C27 4877   7.406   4.510   3.951
   98DPPC   C28 4878   7.379   4.522   3.801
   98DPPC   C29 4879   7.239   4.582   3.785
   98DPPC   C30 4880   7.197   4.575   3.638
   98DPPC   C31 4881   7.298   4.631   3.538
   98DPPC   C32 4882   7.385   4.480   5.176
   98DPPC   O33 4883   7.383   4.569   5.065
   98DPPC   C34 4884   7.501   4.573   4.996
   98DPPC   O35 4885   7.602   4.517   5.039
   98DPPC   C36 4886   7.495   4.618   4.850
   98DPPC   C37 4887   7.601   4.719   4.805
   98DPPC   C38 4888   7.560   4.775   4.669
   98DPPC   C39 4889   7.657   4.754   4.553
   98DPPC   C40 4890   7.604   4.831   4.432
   98DPPC   C41 4891   7.666   4.778   4.302
   98DPPC   C42 4892   7.627   4.861   4.180
   98DPPC   C43 4893   7.697   4.807   4.055
   98DPPC   C44 4894   7.669   4.881   3.924
   98DPPC   C45 4895   7.705   4.795   3.802
   98DPPC   C46 4896   7.855   4.766   3.801
   98DPPC   C47 4897   7.887   4.693   3.670
   98DPPC   C48 4898   8.035   4.721   3.641
   98DPPC   C49 4899   8.093   4.596   3.575
   98DPPC   C50 4900   8.245   4.608   3.558
   99DPPC    C1 4901   8.338   5.446   1.164
   99DPPC    C2 4902   8.474   5.558   1.335
   99DPPC    C3 4903   8.487   5.595   1.097
   99DPPC    N4 4904   8.396   5.572   1.211
   99DPPC    C5 4905   8.301   5.684   1.217
   99DPPC    C6 4906   8.188   5.687   1.321
   99DPPC    O7 4907   8.054   5.675   1.272
   99DPPC    P8 4908   7.963   5.784   1.347
   99DPPC    O9 4909   7.828   5.799   1.288
   99DPPC   O10 4910   8.038   5.911   1.354
   99DPPC   O11 4911   7.957   5.741   1.502
   99DPPC   C12 4912   7.834   5.788   1.559
   99DPPC   C13 4913   7.833   5.792   1.712
   99DPPC   O14 4914   7.851   5.925   1.762
   99DPPC   C15 4915   7.748   6.014   1.747
   99DPPC   O16 4916   7.654   6.012   1.669
   99DPPC   C17 4917   7.750   6.137   1.839
   99DPPC   C18 4918   7.608   6.172   1.882
   99DPPC   C19 4919   7.614   6.307   1.953
   99DPPC   C20 4920   7.693   6.284   2.082
   99DPPC   C21 4921   7.671   6.412   2.163
   99DPPC   C22 4922   7.522   6.414   2.197
   99DPPC   C23 4923   7.488   6.536   2.283
   99DPPC   C24 4924   7.340   6.575   2.276
   99DPPC   C25 4925   7.320   6.700   2.362
   99DPPC   C26 4926   7.396   6.685   2.494
   99DPPC   C27 4927   7.323   6.630   2.617
   99DPPC   C28 4928   7.413   6.558   2.718
   99DPPC   C29 4929   7.325   6.536   2.841
   99DPPC   C30 4930   7.380   6.416   2.918
   99DPPC   C31 4931   7.289   6.396   3.040
   99DPPC   C32 4932   7.937   5.691   1.760
   99DPPC   O33 4933   7.885   5.568   1.811
   99DPPC   C34 4934   7.983   5.494   1.868
   99DPPC   O35 4935   8.096   5.539   1.882
   99DPPC   C36 4936   7.935   5.378   1.957
   99DPPC   C37 4937   7.995   5.389   2.097
   99DPPC   C38 4938   7.952   5.274   2.189
   99DPPC   C39 4939   8.031   5.300   2.318
   99DPPC   C40 4940   7.995   5.191   2.419
   99DPPC   C41 4941   8.082   5.193   2.545
   99DPPC   C42 4942   8.002   5.135   2.662
   99DPPC   C43 4943   7.879   5.219   2.696
   99DPPC   C44 4944   7.817   5.190   2.833
   99DPPC   C45 4945   7.756   5.051   2.854
   99DPPC   C46 4946   7.716   5.029   3.000
   99DPPC   C47 4947   7.630   4.903   3.010
   99DPPC   C48 4948   7.597   4.847   3.148
   99DPPC   C49 4949   7.486   4.741   3.142
   99DPPC   C50 4950   7.354   4.816   3.127
  100DPPC    C1 4951   4.384   4.550   2.188
  100DPPC    C2 4952   4.252   4.574   1.993
  100DPPC    C3 4953   4.171   4.463   2.189
  100DPPC    N4 4954   4.248   4.578   2.139
  100DPPC    C5 4955   4.194   4.702   2.198
  100DPPC    C6 4956   4.052   4.741   2.156
  100DPPC    O7 4957   4.030   4.881   2.174
  100DPPC    P8 4958   3.931   4.937   2.060
  100DPPC    O9 4959   3.987   4.928   1.923
  100DPPC   O10 4960   3.885   5.067   2.115
  100DPPC   O11 4961   3.801   4.843   2.075
  100DPPC   C12 4962   3.709   4.884   2.177
  100DPPC   C13 4963   3.598   4.786   2.215
  100DPPC   O14 4964   3.484   4.849   2.276
  100DPPC   C15 4965   3.413   4.948   2.217
  100DPPC   O16 4966   3.421   4.964   2.095
  100DPPC   C17 4967   3.296   4.985   2.308
  100DPPC   C18 4968   3.168   4.906   2.279
  100DPPC   C19 4969   3.135   4.799   2.383
  100DPPC   C20 4970   3.121   4.862   2.522
  100DPPC   C21 4971   3.070   4.766   2.631
  100DPPC   C22 4972   3.048   4.843   2.761
  100DPPC   C23 4973   2.984   4.739   2.854
  100DPPC   C24 4974   2.979   4.798   2.995
  100DPPC   C25 4975   2.871   4.906   2.994
  100DPPC   C26 4976   2.854   4.979   3.128
  100DPPC   C27 4977   2.809   5.120   3.088
  100DPPC   C28 4978   2.795   5.210   3.211
  100DPPC   C29 4979   2.787   5.354   3.160
  100DPPC   C30 4980   2.777   5.446   3.282
  100DPPC   C31 4981   2.876   5.407   3.392
  100DPPC   C32 4982   3.665   4.660   2.271
  100DPPC   O33 4983   3.758   4.688   2.376
  100DPPC   C34 4984   3.812   4.573   2.425
  100DPPC   O35 4985   3.787   4.464   2.373
  100DPPC   C36 4986   3.931   4.593   2.519
  100DPPC   C37 4987   3.896   4.568   2.666
  100DPPC   C38 4988   4.019   4.587   2.756
  100DPPC   C39 4989   3.985   4.607   2.904
  100DPPC   C40 4990   3.931   4.748   2.929
  100DPPC   C41 4991   3.914   4.756   3.081
  100DPPC   C42 4992   3.874   4.889   3.144
  100DPPC   C43 4993   3.764   4.970   3.074
  100DPPC   C44 4994   3.729   5.098   3.150
  100DPPC   C45 4995   3.673   5.210   3.063
  100DPPC   C46 4996   3.663   5.339   3.144
  100DPPC   C47 4997   3.594   5.446   3.059
  100DPPC   C48 4998   3.578   5.572   3.144
  100DPPC   C49 4999   3.718   5.606   3.198
  100DPPC   C50 5000   3.696   5.747   3.252
  101DPPC    C1 5001   5.680   0.467   1.860
  101DPPC    C2 5002   5.657   0.260   1.952
  101DPPC    C3 5003   5.666   0.452   2.091
  101DPPC    N4 5004   5.607   0.397   1.968
  101DPPC    C5 5005   5.461   0.415   1.958
  101DPPC    C6 5006   5.375   0.336   1.859
  101DPPC    O7 5007   5.238   0.375   1.867
  101DPPC    P8 5008   5.138   0.258   1.820
  101DPPC    O9 5009   5.214   0.162   1.736
  101DPPC   O10 5010   5.020   0.322   1.758
  101DPPC   O11 5011   5.113   0.202   1.968
  101DPPC   C12 5012   5.038   0.297   2.044
  101DPPC   C13 5013   5.007   0.257   2.188
  101DPPC   O14 5014   4.953   0.379   2.241
  101DPPC   C15 5015   4.826   0.381   2.290
  101DPPC   O16 5016   4.744   0.304   2.240
  101DPPC   C17 5017   4.789   0.479   2.401
  101DPPC   C18 5018   4.866   0.429   2.524
  101DPPC   C19 5019   4.846   0.541   2.626
  101DPPC   C20 5020   4.888   0.515   2.771
  101DPPC   C21 5021   4.867   0.631   2.869
  101DPPC   C22 5022   4.721   0.663   2.901
  101DPPC   C23 5023   4.662   0.526   2.934
  101DPPC   C24 5024   4.512   0.535   2.965
  101DPPC   C25 5025   4.449   0.410   3.025
  101DPPC   C26 5026   4.306   0.441   3.072
  101DPPC   C27 5027   4.286   0.343   3.188
  101DPPC   C28 5028   4.327   0.204   3.138
  101DPPC   C29 5029   4.365   0.119   3.260
  101DPPC   C30 5030   4.428  -0.012   3.212
  101DPPC   C31 5031   4.566  -0.002   3.148
  101DPPC   C32 5032   5.130   0.196   2.255
  101DPPC   O33 5033   5.255   0.265   2.266
  101DPPC   C34 5034   5.355   0.189   2.319
  101DPPC   O35 5035   5.357   0.069   2.291
  101DPPC   C36 5036   5.482   0.261   2.364
  101DPPC   C37 5037   5.466   0.286   2.514
  101DPPC   C38 5038   5.587   0.342   2.590
  101DPPC   C39 5039   5.562   0.350   2.741
  101DPPC   C40 5040   5.670   0.448   2.789
  101DPPC   C41 5041   5.652   0.475   2.938
  101DPPC   C42 5042   5.762   0.554   3.009
  101DPPC   C43 5043   5.746   0.539   3.161
  101DPPC   C44 5044   5.858   0.601   3.244
  101DPPC   C45 5045   5.840   0.586   3.395
  101DPPC   C46 5046   5.959   0.645   3.472
  101DPPC   C47 5047   5.925   0.632   3.620
  101DPPC   C48 5048   6.030   0.699   3.708
  101DPPC   C49 5049   6.002   0.692   3.859
  101DPPC   C50 5050   6.122   0.703   3.953
  102DPPC    C1 5051   2.395   1.299   1.793
  102DPPC    C2 5052   2.501   1.202   1.976
  102DPPC    C3 5053   2.285   1.151   1.953
  102DPPC    N4 5054   2.403   1.174   1.870
  102DPPC    C5 5055   2.451   1.062   1.789
  102DPPC    C6 5056   2.414   1.055   1.640
  102DPPC    O7 5057   2.272   1.059   1.621
  102DPPC    P8 5058   2.229   0.950   1.511
  102DPPC    O9 5059   2.355   0.906   1.448
  102DPPC   O10 5060   2.098   0.982   1.450
  102DPPC   O11 5061   2.199   0.830   1.614
  102DPPC   C12 5062   2.083   0.873   1.687
  102DPPC   C13 5063   2.012   0.775   1.780
  102DPPC   O14 5064   1.887   0.823   1.834
  102DPPC   C15 5065   1.802   0.733   1.891
  102DPPC   O16 5066   1.818   0.613   1.869
  102DPPC   C17 5067   1.687   0.789   1.974
  102DPPC   C18 5068   1.727   0.758   2.118
  102DPPC   C19 5069   1.641   0.813   2.232
  102DPPC   C20 5070   1.696   0.770   2.368
  102DPPC   C21 5071   1.600   0.822   2.476
  102DPPC   C22 5072   1.666   0.818   2.614
  102DPPC   C23 5073   1.583   0.848   2.739
  102DPPC   C24 5074   1.543   0.995   2.739
  102DPPC   C25 5075   1.427   1.034   2.830
  102DPPC   C26 5076   1.430   1.185   2.852
  102DPPC   C27 5077   1.543   1.216   2.950
  102DPPC   C28 5078   1.588   1.358   2.915
  102DPPC   C29 5079   1.474   1.458   2.936
  102DPPC   C30 5080   1.515   1.599   2.895
  102DPPC   C31 5081   1.546   1.601   2.745
  102DPPC   C32 5082   2.116   0.742   1.887
  102DPPC   O33 5083   2.183   0.836   1.972
  102DPPC   C34 5084   2.247   0.771   2.073
  102DPPC   O35 5085   2.266   0.650   2.085
  102DPPC   C36 5086   2.304   0.852   2.189
  102DPPC   C37 5087   2.209   0.858   2.309
  102DPPC   C38 5088   2.204   0.725   2.384
  102DPPC   C39 5089   2.092   0.715   2.488
  102DPPC   C40 5090   2.124   0.829   2.585
  102DPPC   C41 5091   2.041   0.803   2.711
  102DPPC   C42 5092   2.082   0.668   2.772
  102DPPC   C43 5093   2.012   0.637   2.904
  102DPPC   C44 5094   2.082   0.518   2.969
  102DPPC   C45 5095   1.979   0.457   3.064
  102DPPC   C46 5096   2.025   0.337   3.147
  102DPPC   C47 5097   1.926   0.301   3.258
  102DPPC   C48 5098   1.941   0.150   3.281
  102DPPC   C49 5099   1.870   0.110   3.411
  102DPPC   C50 5100   1.720   0.095   3.383
  103DPPC    C1 5101   2.552   7.363   1.205
  103DPPC    C2 5102   2.503   7.159   1.316
  103DPPC    C3 5103   2.719   7.244   1.319
  103DPPC    N4 5104   2.578   7.285   1.327
  103DPPC    C5 5105   2.543   7.351   1.454
  103DPPC    C6 5106   2.618   7.480   1.485
  103DPPC    O7 5107   2.750   7.455   1.534
  103DPPC    P8 5108   2.839   7.588   1.553
  103DPPC    O9 5109   2.836   7.633   1.413
  103DPPC   O10 5110   2.967   7.552   1.617
  103DPPC   O11 5111   2.749   7.657   1.668
  103DPPC   C12 5112   2.796   7.625   1.800
  103DPPC   C13 5113   2.671   7.639   1.887
  103DPPC   O14 5114   2.576   7.534   1.866
  103DPPC   C15 5115   2.619   7.415   1.916
  103DPPC   O16 5116   2.729   7.398   1.969
  103DPPC   C17 5117   2.524   7.299   1.882
  103DPPC   C18 5118   2.533   7.203   2.001
  103DPPC   C19 5119   2.473   7.258   2.131
  103DPPC   C20 5120   2.497   7.153   2.239
  103DPPC   C21 5121   2.447   7.198   2.377
  103DPPC   C22 5122   2.459   7.092   2.487
  103DPPC   C23 5123   2.391   7.154   2.609
  103DPPC   C24 5124   2.355   7.062   2.726
  103DPPC   C25 5125   2.330   7.121   2.865
  103DPPC   C26 5126   2.287   7.029   2.980
  103DPPC   C27 5127   2.260   7.110   3.106
  103DPPC   C28 5128   2.249   6.999   3.211
  103DPPC   C29 5129   2.372   6.908   3.210
  103DPPC   C30 5130   2.367   6.791   3.308
  103DPPC   C31 5131   2.491   6.705   3.333
  103DPPC   C32 5132   2.622   7.783   1.872
  103DPPC   O33 5133   2.722   7.874   1.917
  103DPPC   C34 5134   2.693   8.006   1.905
  103DPPC   O35 5135   2.581   8.040   1.867
  103DPPC   C36 5136   2.795   8.107   1.959
  103DPPC   C37 5137   2.792   8.108   2.112
  103DPPC   C38 5138   2.868   8.221   2.180
  103DPPC   C39 5139   2.845   8.231   2.331
  103DPPC   C40 5140   2.955   8.324   2.381
  103DPPC   C41 5141   2.966   8.317   2.533
  103DPPC   C42 5142   2.834   8.372   2.588
  103DPPC   C43 5143   2.855   8.402   2.736
  103DPPC   C44 5144   2.734   8.443   2.821
  103DPPC   C45 5145   2.764   8.490   2.963
  103DPPC   C46 5146   2.627   8.537   3.012
  103DPPC   C47 5147   2.648   8.623   3.137
  103DPPC   C48 5148   2.508   8.666   3.182
  103DPPC   C49 5149   2.520   8.775   3.289
  103DPPC   C50 5150   2.579   8.715   3.417
  104DPPC    C1 5151   3.890   3.955   1.508
  104DPPC    C2 5152   3.956   3.728   1.508
  104DPPC    C3 5153   4.091   3.884   1.400
  104DPPC    N4 5154   4.006   3.866   1.519
  104DPPC    C5 5155   4.072   3.898   1.646
  104DPPC    C6 5156   4.177   3.808   1.712
  104DPPC    O7 5157   4.283   3.759   1.629
  104DPPC    P8 5158   4.318   3.611   1.683
  104DPPC    O9 5159   4.438   3.564   1.610
  104DPPC   O10 5160   4.190   3.538   1.673
  104DPPC   O11 5161   4.353   3.654   1.834
  104DPPC   C12 5162   4.491   3.676   1.864
  104DPPC   C13 5163   4.508   3.764   1.988
  104DPPC   O14 5164   4.646   3.780   2.024
  104DPPC   C15 5165   4.677   3.888   2.102
  104DPPC   O16 5166   4.624   3.998   2.091
  104DPPC   C17 5167   4.796   3.862   2.195
  104DPPC   C18 5168   4.816   3.723   2.257
  104DPPC   C19 5169   4.925   3.704   2.363
  104DPPC   C20 5170   4.896   3.594   2.465
  104DPPC   C21 5171   5.020   3.579   2.552
  104DPPC   C22 5172   4.972   3.533   2.690
  104DPPC   C23 5173   5.083   3.495   2.788
  104DPPC   C24 5174   5.025   3.453   2.923
  104DPPC   C25 5175   5.125   3.398   3.025
  104DPPC   C26 5176   5.081   3.404   3.172
  104DPPC   C27 5177   5.037   3.544   3.213
  104DPPC   C28 5178   4.982   3.537   3.356
  104DPPC   C29 5179   4.937   3.657   3.440
  104DPPC   C30 5180   4.844   3.616   3.554
  104DPPC   C31 5181   4.832   3.752   3.623
  104DPPC   C32 5182   4.440   3.677   2.094
  104DPPC   O33 5183   4.410   3.741   2.219
  104DPPC   C34 5184   4.317   3.685   2.301
  104DPPC   O35 5185   4.241   3.597   2.260
  104DPPC   C36 5186   4.301   3.763   2.432
  104DPPC   C37 5187   4.432   3.725   2.502
  104DPPC   C38 5188   4.459   3.838   2.603
  104DPPC   C39 5189   4.583   3.812   2.688
  104DPPC   C40 5190   4.571   3.676   2.758
  104DPPC   C41 5191   4.660   3.674   2.882
  104DPPC   C42 5192   4.642   3.792   2.978
  104DPPC   C43 5193   4.721   3.772   3.107
  104DPPC   C44 5194   4.750   3.903   3.181
  104DPPC   C45 5195   4.620   3.969   3.227
  104DPPC   C46 5196   4.627   4.073   3.340
  104DPPC   C47 5197   4.490   4.084   3.408
  104DPPC   C48 5198   4.483   4.170   3.534
  104DPPC   C49 5199   4.474   4.315   3.487
  104DPPC   C50 5200   4.492   4.407   3.608
  105DPPC    C1 5201   4.465   5.142   1.715
  105DPPC    C2 5202   4.474   4.993   1.535
  105DPPC    C3 5203   4.522   5.235   1.501
  105DPPC    N4 5204   4.534   5.117   1.588
  105DPPC    C5 5205   4.679   5.091   1.587
  105DPPC    C6 5206   4.736   5.011   1.704
  105DPPC    O7 5207   4.785   5.091   1.812
  105DPPC    P8 5208   4.865   4.994   1.913
  105DPPC    O9 5209   4.942   5.096   1.987
  105DPPC   O10 5210   4.937   4.899   1.825
  105DPPC   O11 5211   4.746   4.921   1.993
  105DPPC   C12 5212   4.735   4.975   2.125
  105DPPC   C13 5213   4.612   4.936   2.207
  105DPPC   O14 5214   4.564   5.035   2.299
  105DPPC   C15 5215   4.481   5.124   2.239
  105DPPC   O16 5216   4.408   5.081   2.150
  105DPPC   C17 5217   4.453   5.251   2.321
  105DPPC   C18 5218   4.303   5.269   2.343
  105DPPC   C19 5219   4.290   5.384   2.443
  105DPPC   C20 5220   4.335   5.512   2.371
  105DPPC   C21 5221   4.331   5.632   2.466
  105DPPC   C22 5222   4.388   5.751   2.388
  105DPPC   C23 5223   4.367   5.885   2.460
  105DPPC   C24 5224   4.460   5.890   2.581
  105DPPC   C25 5225   4.428   6.013   2.666
  105DPPC   C26 5226   4.294   5.985   2.734
  105DPPC   C27 5227   4.254   6.116   2.804
  105DPPC   C28 5228   4.108   6.096   2.844
  105DPPC   C29 5229   4.039   6.211   2.919
  105DPPC   C30 5230   4.072   6.346   2.855
  105DPPC   C31 5231   3.963   6.439   2.907
  105DPPC   C32 5232   4.635   4.794   2.258
  105DPPC   O33 5233   4.753   4.789   2.339
  105DPPC   C34 5234   4.782   4.670   2.398
  105DPPC   O35 5235   4.715   4.567   2.382
  105DPPC   C36 5236   4.929   4.662   2.439
  105DPPC   C37 5237   4.933   4.632   2.589
  105DPPC   C38 5238   4.888   4.757   2.667
  105DPPC   C39 5239   4.901   4.737   2.818
  105DPPC   C40 5240   4.827   4.845   2.897
  105DPPC   C41 5241   4.850   4.832   3.048
  105DPPC   C42 5242   4.810   4.965   3.111
  105DPPC   C43 5243   4.817   4.968   3.264
  105DPPC   C44 5244   4.752   5.093   3.324
  105DPPC   C45 5245   4.797   5.095   3.470
  105DPPC   C46 5246   4.747   4.975   3.551
  105DPPC   C47 5247   4.814   4.985   3.688
  105DPPC   C48 5248   4.785   4.866   3.779
  105DPPC   C49 5249   4.857   4.881   3.913
  105DPPC   C50 5250   5.009   4.893   3.904
  106DPPC    C1 5251   9.117   0.567   1.127
  106DPPC    C2 5252   8.963   0.459   1.264
  106DPPC    C3 5253   9.113   0.324   1.150
  106DPPC    N4 5254   9.103   0.453   1.220
  106DPPC    C5 5255   9.205   0.463   1.324
  106DPPC    C6 5256   9.356   0.451   1.301
  106DPPC    O7 5257   9.424   0.524   1.404
  106DPPC    P8 5258   9.583   0.501   1.391
  106DPPC    O9 5259   9.616   0.538   1.252
  106DPPC   O10 5260   9.650   0.385   1.454
  106DPPC   O11 5261   9.619   0.631   1.479
  106DPPC   C12 5262   9.607   0.611   1.620
  106DPPC   C13 5263   9.518   0.716   1.686
  106DPPC   O14 5264   9.577   0.772   1.804
  106DPPC   C15 5265   9.609   0.904   1.800
  106DPPC   O16 5266   9.581   0.966   1.698
  106DPPC   C17 5267   9.673   0.971   1.921
  106DPPC   C18 5268   9.603   0.925   2.049
  106DPPC   C19 5269   9.697   0.930   2.170
  106DPPC   C20 5270   9.639   0.881   2.303
  106DPPC   C21 5271   9.748   0.922   2.402
  106DPPC   C22 5272   9.845   0.806   2.422
  106DPPC   C23 5273   9.959   0.861   2.508
  106DPPC   C24 5274  10.052   0.946   2.421
  106DPPC   C25 5275  10.193   0.933   2.480
  106DPPC   C26 5276  10.307   0.986   2.393
  106DPPC   C27 5277  10.446   0.970   2.455
  106DPPC   C28 5278  10.433   1.020   2.599
  106DPPC   C29 5279  10.566   1.013   2.675
  106DPPC   C30 5280  10.539   1.067   2.816
  106DPPC   C31 5281  10.513   1.218   2.811
  106DPPC   C32 5282   9.380   0.650   1.697
  106DPPC   O33 5283   9.382   0.519   1.754
  106DPPC   C34 5284   9.265   0.452   1.732
  106DPPC   O35 5285   9.169   0.515   1.689
  106DPPC   C36 5286   9.258   0.306   1.779
  106DPPC   C37 5287   9.314   0.281   1.919
  106DPPC   C38 5288   9.234   0.355   2.026
  106DPPC   C39 5289   9.308   0.469   2.096
  106DPPC   C40 5290   9.215   0.526   2.204
  106DPPC   C41 5291   9.154   0.420   2.295
  106DPPC   C42 5292   9.054   0.502   2.377
  106DPPC   C43 5293   9.042   0.436   2.514
  106DPPC   C44 5294   8.963   0.519   2.616
  106DPPC   C45 5295   8.953   0.437   2.744
  106DPPC   C46 5296   8.902   0.530   2.854
  106DPPC   C47 5297   8.869   0.469   2.991
  106DPPC   C48 5298   8.754   0.368   2.991
  106DPPC   C49 5299   8.741   0.318   3.135
  106DPPC   C50 5300   8.735   0.439   3.229
  107DPPC    C1 5301   6.157   7.916   1.982
  107DPPC    C2 5302   6.116   8.012   1.778
  107DPPC    C3 5303   6.033   8.126   1.983
  107DPPC    N4 5304   6.140   8.047   1.918
  107DPPC    C5 5305   6.275   8.103   1.907
  107DPPC    C6 5306   6.318   8.192   2.025
  107DPPC    O7 5307   6.247   8.316   2.027
  107DPPC    P8 5308   6.345   8.425   1.960
  107DPPC    O9 5309   6.271   8.462   1.837
  107DPPC   O10 5310   6.481   8.365   1.962
  107DPPC   O11 5311   6.336   8.543   2.068
  107DPPC   C12 5312   6.195   8.557   2.088
  107DPPC   C13 5313   6.140   8.594   2.226
  107DPPC   O14 5314   6.178   8.728   2.262
  107DPPC   C15 5315   6.085   8.823   2.289
  107DPPC   O16 5316   5.980   8.815   2.226
  107DPPC   C17 5317   6.140   8.956   2.342
  107DPPC   C18 5318   6.217   8.941   2.473
  107DPPC   C19 5319   6.135   8.890   2.592
  107DPPC   C20 5320   6.024   8.987   2.634
  107DPPC   C21 5321   6.088   9.074   2.742
  107DPPC   C22 5322   6.007   9.200   2.778
  107DPPC   C23 5323   6.058   9.310   2.871
  107DPPC   C24 5324   6.171   9.385   2.801
  107DPPC   C25 5325   6.235   9.497   2.883
  107DPPC   C26 5326   6.135   9.609   2.913
  107DPPC   C27 5327   6.106   9.685   2.783
  107DPPC   C28 5328   5.999   9.790   2.813
  107DPPC   C29 5329   5.994   9.912   2.722
  107DPPC   C30 5330   5.944   9.867   2.584
  107DPPC   C31 5331   5.930   9.976   2.478
  107DPPC   C32 5332   6.191   8.480   2.315
  107DPPC   O33 5333   6.123   8.473   2.441
  107DPPC   C34 5334   5.989   8.449   2.448
  107DPPC   O35 5335   5.930   8.418   2.345
  107DPPC   C36 5336   5.923   8.476   2.584
  107DPPC   C37 5337   6.026   8.532   2.683
  107DPPC   C38 5338   5.965   8.577   2.816
  107DPPC   C39 5339   6.072   8.650   2.897
  107DPPC   C40 5340   6.018   8.778   2.960
  107DPPC   C41 5341   6.124   8.854   3.040
  107DPPC   C42 5342   6.163   8.766   3.159
  107DPPC   C43 5343   6.056   8.750   3.268
  107DPPC   C44 5344   6.128   8.712   3.397
  107DPPC   C45 5345   6.029   8.684   3.510
  107DPPC   C46 5346   6.114   8.651   3.634
  107DPPC   C47 5347   6.018   8.661   3.752
  107DPPC   C48 5348   5.942   8.794   3.749
  107DPPC   C49 5349   5.794   8.769   3.775
  107DPPC   C50 5350   5.704   8.890   3.753
  108DPPC    C1 5351   7.138   0.593   1.136
  108DPPC    C2 5352   6.986   0.780   1.161
  108DPPC    C3 5353   6.994   0.655   0.961
  108DPPC    N4 5354   7.003   0.644   1.107
  108DPPC    C5 5355   6.887   0.562   1.142
  108DPPC    C6 5356   6.905   0.454   1.249
  108DPPC    O7 5357   6.890   0.504   1.382
  108DPPC    P8 5358   6.907   0.374   1.475
  108DPPC    O9 5359   7.051   0.342   1.473
  108DPPC   O10 5360   6.802   0.282   1.427
  108DPPC   O11 5361   6.855   0.444   1.610
  108DPPC   C12 5362   6.957   0.526   1.667
  108DPPC   C13 5363   6.912   0.617   1.781
  108DPPC   O14 5364   6.991   0.735   1.802
  108DPPC   C15 5365   6.910   0.844   1.804
  108DPPC   O16 5366   6.797   0.837   1.755
  108DPPC   C17 5367   6.960   0.975   1.864
  108DPPC   C18 5368   6.930   0.993   2.013
  108DPPC   C19 5369   6.947   1.142   2.047
  108DPPC   C20 5370   6.881   1.179   2.179
  108DPPC   C21 5371   6.987   1.130   2.278
  108DPPC   C22 5372   6.947   1.155   2.424
  108DPPC   C23 5373   6.820   1.087   2.477
  108DPPC   C24 5374   6.846   1.002   2.602
  108DPPC   C25 5375   6.912   1.106   2.694
  108DPPC   C26 5376   6.974   1.038   2.815
  108DPPC   C27 5377   6.879   0.955   2.902
  108DPPC   C28 5378   6.933   0.913   3.039
  108DPPC   C29 5379   6.839   0.812   3.105
  108DPPC   C30 5380   6.899   0.802   3.246
  108DPPC   C31 5381   6.820   0.723   3.350
  108DPPC   C32 5382   6.925   0.513   1.892
  108DPPC   O33 5383   6.892   0.543   2.028
  108DPPC   C34 5384   6.905   0.434   2.108
  108DPPC   O35 5385   6.964   0.332   2.074
  108DPPC   C36 5386   6.902   0.459   2.259
  108DPPC   C37 5387   6.862   0.335   2.339
  108DPPC   C38 5388   6.884   0.367   2.487
  108DPPC   C39 5389   6.846   0.245   2.571
  108DPPC   C40 5390   6.934   0.122   2.545
  108DPPC   C41 5391   6.883  -0.004   2.615
  108DPPC   C42 5392   6.886   0.021   2.766
  108DPPC   C43 5393   6.828  -0.096   2.847
  108DPPC   C44 5394   6.863  -0.094   2.996
  108DPPC   C45 5395   6.816  -0.223   3.064
  108DPPC   C46 5396   6.859  -0.224   3.211
  108DPPC   C47 5397   6.777  -0.126   3.295
  108DPPC   C48 5398   6.818  -0.128   3.443
  108DPPC   C49 5399   6.964  -0.104   3.483
  108DPPC   C50 5400   6.976  -0.025   3.614
  109DPPC    C1 5401   9.325   6.064   0.394
  109DPPC    C2 5402   9.372   6.052   0.622
  109DPPC    C3 5403   9.445   6.236   0.489
  109DPPC    N4 5404   9.332   6.146   0.516
  109DPPC    C5 5405   9.202   6.213   0.531
  109DPPC    C6 5406   9.159   6.240   0.675
  109DPPC    O7 5407   9.087   6.128   0.726
  109DPPC    P8 5408   8.978   6.165   0.838
  109DPPC    O9 5409   8.881   6.056   0.816
  109DPPC   O10 5410   8.942   6.309   0.829
  109DPPC   O11 5411   9.070   6.154   0.969
  109DPPC   C12 5412   9.053   6.023   1.023
  109DPPC   C13 5413   9.166   5.969   1.111
  109DPPC   O14 5414   9.142   5.839   1.167
  109DPPC   C15 5415   9.245   5.767   1.220
  109DPPC   O16 5416   9.362   5.795   1.192
  109DPPC   C17 5417   9.205   5.632   1.279
  109DPPC   C18 5418   9.131   5.654   1.411
  109DPPC   C19 5419   9.217   5.736   1.507
  109DPPC   C20 5420   9.158   5.705   1.645
  109DPPC   C21 5421   9.229   5.765   1.766
  109DPPC   C22 5422   9.155   5.746   1.898
  109DPPC   C23 5423   9.222   5.829   2.008
  109DPPC   C24 5424   9.160   5.804   2.146
  109DPPC   C25 5425   9.232   5.867   2.265
  109DPPC   C26 5426   9.141   5.877   2.388
  109DPPC   C27 5427   9.207   5.901   2.524
  109DPPC   C28 5428   9.090   5.876   2.618
  109DPPC   C29 5429   9.131   5.880   2.766
  109DPPC   C30 5430   9.007   5.868   2.854
  109DPPC   C31 5431   9.049   5.886   3.000
  109DPPC   C32 5432   9.196   6.081   1.211
  109DPPC   O33 5433   9.102   6.098   1.318
  109DPPC   C34 5434   9.096   6.224   1.371
  109DPPC   O35 5435   9.182   6.306   1.339
  109DPPC   C36 5436   9.014   6.228   1.500
  109DPPC   C37 5437   9.104   6.208   1.622
  109DPPC   C38 5438   9.046   6.258   1.754
  109DPPC   C39 5439   9.153   6.260   1.864
  109DPPC   C40 5440   9.093   6.302   1.999
  109DPPC   C41 5441   9.208   6.300   2.100
  109DPPC   C42 5442   9.136   6.331   2.231
  109DPPC   C43 5443   9.232   6.348   2.349
  109DPPC   C44 5444   9.328   6.229   2.360
  109DPPC   C45 5445   9.412   6.258   2.484
  109DPPC   C46 5446   9.514   6.148   2.512
  109DPPC   C47 5447   9.605   6.189   2.628
  109DPPC   C48 5448   9.716   6.085   2.644
  109DPPC   C49 5449   9.788   6.104   2.777
  109DPPC   C50 5450   9.883   5.985   2.762
  110DPPC    C1 5451   1.342   3.470   0.881
  110DPPC    C2 5452   1.555   3.388   0.991
  110DPPC    C3 5453   1.558   3.561   0.831
  110DPPC    N4 5454   1.475   3.498   0.935
  110DPPC    C5 5455   1.460   3.604   1.036
  110DPPC    C6 5456   1.369   3.574   1.155
  110DPPC    O7 5457   1.330   3.685   1.236
  110DPPC    P8 5458   1.193   3.758   1.193
  110DPPC    O9 5459   1.133   3.669   1.091
  110DPPC   O10 5460   1.210   3.903   1.170
  110DPPC   O11 5461   1.132   3.745   1.342
  110DPPC   C12 5462   1.067   3.618   1.351
  110DPPC   C13 5463   1.128   3.515   1.447
  110DPPC   O14 5464   1.053   3.393   1.458
  110DPPC   C15 5465   1.122   3.279   1.484
  110DPPC   O16 5466   1.232   3.251   1.436
  110DPPC   C17 5467   1.028   3.172   1.540
  110DPPC   C18 5468   1.040   3.193   1.691
  110DPPC   C19 5469   0.955   3.090   1.765
  110DPPC   C20 5470   0.971   3.114   1.915
  110DPPC   C21 5471   0.868   3.031   1.993
  110DPPC   C22 5472   0.866   3.076   2.139
  110DPPC   C23 5473   0.767   2.990   2.217
  110DPPC   C24 5474   0.629   2.993   2.151
  110DPPC   C25 5475   0.534   2.936   2.257
  110DPPC   C26 5476   0.561   3.022   2.380
  110DPPC   C27 5477   0.470   2.989   2.499
  110DPPC   C28 5478   0.487   3.095   2.608
  110DPPC   C29 5479   0.626   3.075   2.668
  110DPPC   C30 5480   0.670   3.168   2.782
  110DPPC   C31 5481   0.595   3.152   2.914
  110DPPC   C32 5482   1.163   3.587   1.577
  110DPPC   O33 5483   1.241   3.510   1.669
  110DPPC   C34 5484   1.255   3.573   1.789
  110DPPC   O35 5485   1.248   3.695   1.802
  110DPPC   C36 5486   1.324   3.495   1.901
  110DPPC   C37 5487   1.217   3.433   1.991
  110DPPC   C38 5488   1.282   3.349   2.102
  110DPPC   C39 5489   1.185   3.282   2.199
  110DPPC   C40 5490   1.243   3.219   2.325
  110DPPC   C41 5491   1.134   3.136   2.391
  110DPPC   C42 5492   1.202   3.055   2.502
  110DPPC   C43 5493   1.101   2.990   2.597
  110DPPC   C44 5494   1.188   2.929   2.708
  110DPPC   C45 5495   1.115   2.886   2.835
  110DPPC   C46 5496   1.068   3.009   2.912
  110DPPC   C47 5497   0.986   2.996   3.040
  110DPPC   C48 5498   0.957   3.137   3.092
  110DPPC   C49 5499   0.872   3.103   3.215
  110DPPC   C50 5500   0.793   3.231   3.243
  111DPPC    C1 5501   1.688   1.092   1.606
  111DPPC    C2 5502   1.714   1.154   1.374
  111DPPC    C3 5503   1.702   0.933   1.426
  111DPPC    N4 5504   1.647   1.062   1.468
  111DPPC    C5 5505   1.501   1.062   1.447
  111DPPC    C6 5506   1.410   0.946   1.488
  111DPPC    O7 5507   1.436   0.904   1.622
  111DPPC    P8 5508   1.338   0.779   1.648
  111DPPC    O9 5509   1.425   0.677   1.709
  111DPPC   O10 5510   1.273   0.734   1.522
  111DPPC   O11 5511   1.245   0.856   1.755
  111DPPC   C12 5512   1.331   0.870   1.868
  111DPPC   C13 5513   1.249   0.880   1.997
  111DPPC   O14 5514   1.317   0.947   2.104
  111DPPC   C15 5515   1.245   1.007   2.202
  111DPPC   O16 5516   1.123   0.997   2.194
  111DPPC   C17 5517   1.318   1.056   2.327
  111DPPC   C18 5518   1.375   1.191   2.284
  111DPPC   C19 5519   1.443   1.247   2.409
  111DPPC   C20 5520   1.489   1.391   2.386
  111DPPC   C21 5521   1.386   1.489   2.330
  111DPPC   C22 5522   1.452   1.626   2.318
  111DPPC   C23 5523   1.345   1.728   2.357
  111DPPC   C24 5524   1.270   1.708   2.489
  111DPPC   C25 5525   1.144   1.794   2.482
  111DPPC   C26 5526   1.055   1.783   2.606
  111DPPC   C27 5527   0.956   1.900   2.604
  111DPPC   C28 5528   0.908   1.913   2.749
  111DPPC   C29 5529   0.825   2.041   2.761
  111DPPC   C30 5530   0.770   2.066   2.902
  111DPPC   C31 5531   0.700   1.943   2.959
  111DPPC   C32 5532   1.180   0.744   2.005
  111DPPC   O33 5533   1.267   0.642   2.055
  111DPPC   C34 5534   1.246   0.509   2.034
  111DPPC   O35 5535   1.175   0.480   1.938
  111DPPC   C36 5536   1.313   0.400   2.118
  111DPPC   C37 5537   1.372   0.452   2.250
  111DPPC   C38 5538   1.264   0.518   2.335
  111DPPC   C39 5539   1.311   0.559   2.475
  111DPPC   C40 5540   1.198   0.635   2.546
  111DPPC   C41 5541   1.237   0.684   2.685
  111DPPC   C42 5542   1.261   0.567   2.781
  111DPPC   C43 5543   1.285   0.627   2.920
  111DPPC   C44 5544   1.167   0.692   2.992
  111DPPC   C45 5545   1.212   0.729   3.134
  111DPPC   C46 5546   1.252   0.876   3.143
  111DPPC   C47 5547   1.274   0.922   3.287
  111DPPC   C48 5548   1.296   1.073   3.279
  111DPPC   C49 5549   1.176   1.121   3.196
  111DPPC   C50 5550   1.157   1.271   3.215
  112DPPC    C1 5551   4.890   8.075   1.721
  112DPPC    C2 5552   5.063   8.088   1.876
  112DPPC    C3 5553   4.850   8.095   1.963
  112DPPC    N4 5554   4.929   8.031   1.856
  112DPPC    C5 5555   4.943   7.885   1.863
  112DPPC    C6 5556   4.826   7.786   1.856
  112DPPC    O7 5557   4.720   7.802   1.950
  112DPPC    P8 5558   4.616   7.680   1.943
  112DPPC    O9 5559   4.606   7.626   1.806
  112DPPC   O10 5560   4.495   7.717   2.021
  112DPPC   O11 5561   4.701   7.567   2.020
  112DPPC   C12 5562   4.637   7.545   2.145
  112DPPC   C13 5563   4.709   7.452   2.243
  112DPPC   O14 5564   4.628   7.381   2.338
  112DPPC   C15 5565   4.591   7.260   2.290
  112DPPC   O16 5566   4.613   7.222   2.174
  112DPPC   C17 5567   4.544   7.162   2.397
  112DPPC   C18 5568   4.624   7.171   2.527
  112DPPC   C19 5569   4.575   7.084   2.643
  112DPPC   C20 5570   4.568   6.938   2.599
  112DPPC   C21 5571   4.536   6.860   2.727
  112DPPC   C22 5572   4.396   6.879   2.787
  112DPPC   C23 5573   4.366   6.764   2.884
  112DPPC   C24 5574   4.239   6.800   2.962
  112DPPC   C25 5575   4.119   6.835   2.873
  112DPPC   C26 5576   3.992   6.846   2.958
  112DPPC   C27 5577   3.888   6.917   2.870
  112DPPC   C28 5578   3.779   6.957   2.970
  112DPPC   C29 5579   3.684   7.061   2.911
  112DPPC   C30 5580   3.575   7.109   3.007
  112DPPC   C31 5581   3.462   7.202   2.962
  112DPPC   C32 5582   4.819   7.543   2.298
  112DPPC   O33 5583   4.931   7.479   2.361
  112DPPC   C34 5584   5.044   7.537   2.409
  112DPPC   O35 5585   5.079   7.651   2.382
  112DPPC   C36 5586   5.134   7.444   2.491
  112DPPC   C37 5587   5.179   7.514   2.620
  112DPPC   C38 5588   5.269   7.427   2.708
  112DPPC   C39 5589   5.291   7.503   2.839
  112DPPC   C40 5590   5.374   7.423   2.939
  112DPPC   C41 5591   5.502   7.357   2.888
  112DPPC   C42 5592   5.613   7.462   2.877
  112DPPC   C43 5593   5.710   7.439   2.993
  112DPPC   C44 5594   5.813   7.552   2.985
  112DPPC   C45 5595   5.883   7.551   3.121
  112DPPC   C46 5596   5.944   7.690   3.145
  112DPPC   C47 5597   5.992   7.699   3.290
  112DPPC   C48 5598   5.867   7.688   3.377
  112DPPC   C49 5599   5.916   7.676   3.521
  112DPPC   C50 5600   5.806   7.718   3.618
  113DPPC    C1 5601   0.932   1.572   1.468
  113DPPC    C2 5602   0.994   1.613   1.689
  113DPPC    C3 5603   0.790   1.526   1.643
  113DPPC    N4 5604   0.931   1.513   1.603
  113DPPC    C5 5605   0.980   1.375   1.616
  113DPPC    C6 5606   1.111   1.343   1.543
  113DPPC    O7 5607   1.220   1.424   1.588
  113DPPC    P8 5608   1.361   1.376   1.528
  113DPPC    O9 5609   1.474   1.472   1.530
  113DPPC   O10 5610   1.336   1.300   1.403
  113DPPC   O11 5611   1.381   1.277   1.654
  113DPPC   C12 5612   1.422   1.369   1.755
  113DPPC   C13 5613   1.427   1.309   1.895
  113DPPC   O14 5614   1.533   1.217   1.926
  113DPPC   C15 5615   1.658   1.264   1.951
  113DPPC   O16 5616   1.678   1.379   1.912
  113DPPC   C17 5617   1.757   1.154   1.989
  113DPPC   C18 5618   1.869   1.196   2.085
  113DPPC   C19 5619   1.808   1.202   2.225
  113DPPC   C20 5620   1.920   1.240   2.322
  113DPPC   C21 5621   1.868   1.238   2.465
  113DPPC   C22 5622   1.983   1.245   2.565
  113DPPC   C23 5623   1.927   1.244   2.707
  113DPPC   C24 5624   2.040   1.240   2.811
  113DPPC   C25 5625   1.987   1.227   2.954
  113DPPC   C26 5626   2.079   1.144   3.044
  113DPPC   C27 5627   2.009   1.128   3.179
  113DPPC   C28 5628   1.867   1.075   3.159
  113DPPC   C29 5629   1.851   0.928   3.117
  113DPPC   C30 5630   1.705   0.890   3.144
  113DPPC   C31 5631   1.690   0.740   3.118
  113DPPC   C32 5632   1.293   1.243   1.932
  113DPPC   O33 5633   1.194   1.338   1.971
  113DPPC   C34 5634   1.079   1.270   1.999
  113DPPC   O35 5635   1.047   1.172   1.931
  113DPPC   C36 5636   0.975   1.362   2.062
  113DPPC   C37 5637   0.911   1.299   2.185
  113DPPC   C38 5638   0.798   1.391   2.233
  113DPPC   C39 5639   0.758   1.348   2.374
  113DPPC   C40 5640   0.667   1.455   2.434
  113DPPC   C41 5641   0.598   1.416   2.565
  113DPPC   C42 5642   0.708   1.364   2.659
  113DPPC   C43 5643   0.657   1.365   2.804
  113DPPC   C44 5644   0.529   1.285   2.826
  113DPPC   C45 5645   0.556   1.140   2.867
  113DPPC   C46 5646   0.429   1.062   2.899
  113DPPC   C47 5647   0.469   0.917   2.931
  113DPPC   C48 5648   0.343   0.832   2.948
  113DPPC   C49 5649   0.381   0.689   2.988
  113DPPC   C50 5650   0.245   0.618   2.984
  114DPPC    C1 5651   1.114   3.976   1.692
  114DPPC    C2 5652   1.209   4.041   1.477
  114DPPC    C3 5653   1.155   4.201   1.641
  114DPPC    N4 5654   1.208   4.065   1.622
  114DPPC    C5 5655   1.333   4.042   1.696
  114DPPC    C6 5656   1.465   4.107   1.653
  114DPPC    O7 5657   1.574   4.056   1.730
  114DPPC    P8 5658   1.707   4.124   1.668
  114DPPC    O9 5659   1.671   4.171   1.533
  114DPPC   O10 5660   1.821   4.029   1.676
  114DPPC   O11 5661   1.713   4.242   1.777
  114DPPC   C12 5662   1.752   4.173   1.896
  114DPPC   C13 5663   1.693   4.241   2.019
  114DPPC   O14 5664   1.742   4.181   2.140
  114DPPC   C15 5665   1.856   4.229   2.197
  114DPPC   O16 5666   1.938   4.283   2.123
  114DPPC   C17 5667   1.905   4.166   2.327
  114DPPC   C18 5668   1.990   4.041   2.302
  114DPPC   C19 5669   2.115   4.047   2.390
  114DPPC   C20 5670   2.203   3.923   2.386
  114DPPC   C21 5671   2.302   3.909   2.502
  114DPPC   C22 5672   2.225   3.927   2.633
  114DPPC   C23 5673   2.325   3.962   2.743
  114DPPC   C24 5674   2.247   4.049   2.842
  114DPPC   C25 5675   2.347   4.125   2.929
  114DPPC   C26 5676   2.297   4.202   3.051
  114DPPC   C27 5677   2.407   4.285   3.117
  114DPPC   C28 5678   2.356   4.360   3.240
  114DPPC   C29 5679   2.470   4.434   3.310
  114DPPC   C30 5680   2.547   4.529   3.218
  114DPPC   C31 5681   2.657   4.581   3.310
  114DPPC   C32 5682   1.545   4.213   1.995
  114DPPC   O33 5683   1.453   4.312   2.044
  114DPPC   C34 5684   1.325   4.267   2.049
  114DPPC   O35 5685   1.286   4.198   1.954
  114DPPC   C36 5686   1.223   4.337   2.139
  114DPPC   C37 5687   1.165   4.240   2.243
  114DPPC   C38 5688   1.074   4.313   2.342
  114DPPC   C39 5689   1.016   4.201   2.428
  114DPPC   C40 5690   1.118   4.144   2.527
  114DPPC   C41 5691   1.056   4.041   2.622
  114DPPC   C42 5692   0.943   4.093   2.711
  114DPPC   C43 5693   1.002   4.190   2.814
  114DPPC   C44 5694   0.894   4.267   2.891
  114DPPC   C45 5695   0.959   4.394   2.947
  114DPPC   C46 5696   0.869   4.481   3.034
  114DPPC   C47 5697   0.793   4.576   2.942
  114DPPC   C48 5698   0.640   4.563   2.939
  114DPPC   C49 5699   0.567   4.662   2.848
  114DPPC   C50 5700   0.419   4.623   2.847
  115DPPC    C1 5701   3.999   3.202   2.036
  115DPPC    C2 5702   3.900   3.342   1.875
  115DPPC    C3 5703   3.792   3.314   2.083
  115DPPC    N4 5704   3.924   3.327   2.019
  115DPPC    C5 5705   4.008   3.432   2.078
  115DPPC    C6 5706   3.995   3.573   2.020
  115DPPC    O7 5707   3.875   3.640   2.059
  115DPPC    P8 5708   3.866   3.787   1.995
  115DPPC    O9 5709   3.761   3.752   1.897
  115DPPC   O10 5710   4.011   3.806   1.972
  115DPPC   O11 5711   3.807   3.864   2.123
  115DPPC   C12 5712   3.927   3.885   2.197
  115DPPC   C13 5713   3.922   3.980   2.317
  115DPPC   O14 5714   4.047   3.993   2.387
  115DPPC   C15 5715   4.099   4.118   2.398
  115DPPC   O16 5716   4.051   4.209   2.330
  115DPPC   C17 5717   4.220   4.134   2.490
  115DPPC   C18 5718   4.259   4.282   2.501
  115DPPC   C19 5719   4.402   4.289   2.553
  115DPPC   C20 5720   4.440   4.431   2.593
  115DPPC   C21 5721   4.577   4.443   2.660
  115DPPC   C22 5722   4.577   4.359   2.788
  115DPPC   C23 5723   4.722   4.326   2.825
  115DPPC   C24 5724   4.742   4.313   2.976
  115DPPC   C25 5725   4.882   4.262   3.010
  115DPPC   C26 5726   4.897   4.258   3.162
  115DPPC   C27 5727   5.043   4.238   3.203
  115DPPC   C28 5728   5.066   4.231   3.354
  115DPPC   C29 5729   5.007   4.104   3.415
  115DPPC   C30 5730   5.006   4.110   3.568
  115DPPC   C31 5731   4.882   4.190   3.608
  115DPPC   C32 5732   3.796   3.928   2.386
  115DPPC   O33 5733   3.753   4.005   2.498
  115DPPC   C34 5734   3.697   4.127   2.480
  115DPPC   O35 5735   3.676   4.186   2.374
  115DPPC   C36 5736   3.672   4.198   2.614
  115DPPC   C37 5737   3.780   4.183   2.722
  115DPPC   C38 5738   3.783   4.050   2.797
  115DPPC   C39 5739   3.876   4.071   2.916
  115DPPC   C40 5740   4.011   4.118   2.860
  115DPPC   C41 5741   4.111   4.139   2.974
  115DPPC   C42 5742   4.077   4.262   3.058
  115DPPC   C43 5743   4.161   4.240   3.184
  115DPPC   C44 5744   4.132   4.354   3.282
  115DPPC   C45 5745   3.981   4.368   3.300
  115DPPC   C46 5746   3.949   4.486   3.392
  115DPPC   C47 5747   3.799   4.500   3.415
  115DPPC   C48 5748   3.737   4.621   3.486
  115DPPC   C49 5749   3.586   4.596   3.501
  115DPPC   C50 5750   3.511   4.701   3.582
  116DPPC    C1 5751   6.743   8.506   2.085
  116DPPC    C2 5752   6.965   8.483   2.146
  116DPPC    C3 5753   6.797   8.338   2.228
  116DPPC    N4 5754   6.847   8.404   2.106
  116DPPC    C5 5755   6.875   8.320   1.989
  116DPPC    C6 5756   6.768   8.214   1.963
  116DPPC    O7 5757   6.783   8.094   2.039
  116DPPC    P8 5758   6.663   7.991   2.008
  116DPPC    O9 5759   6.705   7.849   2.012
  116DPPC   O10 5760   6.591   8.045   1.891
  116DPPC   O11 5761   6.578   8.025   2.140
  116DPPC   C12 5762   6.573   7.915   2.232
  116DPPC   C13 5763   6.479   7.938   2.350
  116DPPC   O14 5764   6.343   7.947   2.305
  116DPPC   C15 5765   6.227   7.967   2.372
  116DPPC   O16 5766   6.118   7.962   2.316
  116DPPC   C17 5767   6.242   7.942   2.522
  116DPPC   C18 5768   6.203   8.056   2.617
  116DPPC   C19 5769   6.252   8.013   2.755
  116DPPC   C20 5770   6.220   8.129   2.850
  116DPPC   C21 5771   6.323   8.238   2.821
  116DPPC   C22 5772   6.291   8.358   2.911
  116DPPC   C23 5773   6.282   8.311   3.056
  116DPPC   C24 5774   6.298   8.427   3.155
  116DPPC   C25 5775   6.326   8.391   3.301
  116DPPC   C26 5776   6.217   8.307   3.368
  116DPPC   C27 5777   6.262   8.257   3.505
  116DPPC   C28 5778   6.177   8.137   3.550
  116DPPC   C29 5779   6.210   8.076   3.686
  116DPPC   C30 5780   6.111   7.969   3.731
  116DPPC   C31 5781   5.971   8.024   3.762
  116DPPC   C32 5782   6.533   8.062   2.422
  116DPPC   O33 5783   6.650   8.018   2.491
  116DPPC   C34 5784   6.699   8.119   2.568
  116DPPC   O35 5785   6.629   8.217   2.590
  116DPPC   C36 5786   6.823   8.084   2.651
  116DPPC   C37 5787   6.947   8.057   2.565
  116DPPC   C38 5788   7.066   8.031   2.658
  116DPPC   C39 5789   7.090   8.132   2.770
  116DPPC   C40 5790   7.193   8.093   2.875
  116DPPC   C41 5791   7.322   8.044   2.807
  116DPPC   C42 5792   7.411   8.161   2.763
  116DPPC   C43 5793   7.488   8.237   2.870
  116DPPC   C44 5794   7.625   8.173   2.895
  116DPPC   C45 5795   7.694   8.233   3.018
  116DPPC   C46 5796   7.720   8.382   2.994
  116DPPC   C47 5797   7.822   8.432   3.097
  116DPPC   C48 5798   7.756   8.476   3.228
  116DPPC   C49 5799   7.842   8.578   3.303
  116DPPC   C50 5800   7.976   8.519   3.348
  117DPPC    C1 5801   5.677   4.569   1.815
  117DPPC    C2 5802   5.816   4.608   1.645
  117DPPC    C3 5803   5.863   4.664   1.878
  117DPPC    N4 5804   5.820   4.560   1.784
  117DPPC    C5 5805   5.856   4.419   1.806
  117DPPC    C6 5806   5.983   4.369   1.736
  117DPPC    O7 5807   6.000   4.228   1.748
  117DPPC    P8 5808   6.128   4.190   1.658
  117DPPC    O9 5809   6.115   4.263   1.529
  117DPPC   O10 5810   6.189   4.056   1.666
  117DPPC   O11 5811   6.237   4.277   1.737
  117DPPC   C12 5812   6.290   4.212   1.853
  117DPPC   C13 5813   6.397   4.297   1.923
  117DPPC   O14 5814   6.493   4.224   2.000
  117DPPC   C15 5815   6.591   4.149   1.942
  117DPPC   O16 5816   6.601   4.147   1.820
  117DPPC   C17 5817   6.686   4.066   2.029
  117DPPC   C18 5818   6.645   4.070   2.176
  117DPPC   C19 5819   6.764   4.024   2.260
  117DPPC   C20 5820   6.766   4.058   2.410
  117DPPC   C21 5821   6.831   3.950   2.497
  117DPPC   C22 5822   6.777   3.813   2.459
  117DPPC   C23 5823   6.843   3.700   2.538
  117DPPC   C24 5824   6.824   3.726   2.688
  117DPPC   C25 5825   6.870   3.601   2.762
  117DPPC   C26 5826   6.786   3.480   2.719
  117DPPC   C27 5827   6.699   3.424   2.832
  117DPPC   C28 5828   6.620   3.301   2.787
  117DPPC   C29 5829   6.547   3.247   2.910
  117DPPC   C30 5830   6.426   3.158   2.883
  117DPPC   C31 5831   6.352   3.111   3.008
  117DPPC   C32 5832   6.325   4.413   1.993
  117DPPC   O33 5833   6.229   4.371   2.091
  117DPPC   C34 5834   6.153   4.478   2.129
  117DPPC   O35 5835   6.146   4.571   2.048
  117DPPC   C36 5836   6.054   4.445   2.240
  117DPPC   C37 5837   5.924   4.393   2.179
  117DPPC   C38 5838   5.821   4.376   2.291
  117DPPC   C39 5839   5.817   4.506   2.372
  117DPPC   C40 5840   5.692   4.589   2.346
  117DPPC   C41 5841   5.695   4.701   2.450
  117DPPC   C42 5842   5.700   4.635   2.588
  117DPPC   C43 5843   5.658   4.741   2.691
  117DPPC   C44 5844   5.690   4.693   2.833
  117DPPC   C45 5845   5.681   4.799   2.943
  117DPPC   C46 5846   5.708   4.727   3.075
  117DPPC   C47 5847   5.655   4.824   3.182
  117DPPC   C48 5848   5.703   4.781   3.320
  117DPPC   C49 5849   5.671   4.632   3.320
  117DPPC   C50 5850   5.716   4.578   3.456
  118DPPC    C1 5851   4.637   0.160   1.490
  118DPPC    C2 5852   4.864   0.110   1.517
  118DPPC    C3 5853   4.764   0.340   1.575
  118DPPC    N4 5854   4.755   0.193   1.571
  118DPPC    C5 5855   4.743   0.162   1.714
  118DPPC    C6 5856   4.719   0.017   1.757
  118DPPC    O7 5857   4.577  -0.002   1.757
  118DPPC    P8 5858   4.547  -0.154   1.801
  118DPPC    O9 5859   4.616  -0.232   1.696
  118DPPC   O10 5860   4.402  -0.170   1.828
  118DPPC   O11 5861   4.628  -0.143   1.939
  118DPPC   C12 5862   4.528  -0.134   2.041
  118DPPC   C13 5863   4.575  -0.119   2.186
  118DPPC   O14 5864   4.591  -0.244   2.254
  118DPPC   C15 5865   4.715  -0.256   2.309
  118DPPC   O16 5866   4.788  -0.157   2.313
  118DPPC   C17 5867   4.747  -0.382   2.390
  118DPPC   C18 5868   4.758  -0.515   2.315
  118DPPC   C19 5869   4.848  -0.605   2.400
  118DPPC   C20 5870   4.781  -0.637   2.534
  118DPPC   C21 5871   4.733  -0.780   2.559
  118DPPC   C22 5872   4.645  -0.801   2.682
  118DPPC   C23 5873   4.568  -0.932   2.700
  118DPPC   C24 5874   4.487  -0.940   2.830
  118DPPC   C25 5875   4.401  -1.065   2.818
  118DPPC   C26 5876   4.295  -1.094   2.924
  118DPPC   C27 5877   4.213  -1.220   2.898
  118DPPC   C28 5878   4.126  -1.255   3.018
  118DPPC   C29 5879   4.202  -1.255   3.151
  118DPPC   C30 5880   4.108  -1.260   3.272
  118DPPC   C31 5881   4.012  -1.377   3.249
  118DPPC   C32 5882   4.478  -0.019   2.249
  118DPPC   O33 5883   4.347  -0.074   2.269
  118DPPC   C34 5884   4.259   0.024   2.303
  118DPPC   O35 5885   4.289   0.139   2.335
  118DPPC   C36 5886   4.117  -0.026   2.330
  118DPPC   C37 5887   4.133  -0.135   2.436
  118DPPC   C38 5888   3.995  -0.187   2.477
  118DPPC   C39 5889   4.011  -0.294   2.585
  118DPPC   C40 5890   3.868  -0.330   2.625
  118DPPC   C41 5891   3.850  -0.443   2.727
  118DPPC   C42 5892   3.704  -0.440   2.771
  118DPPC   C43 5893   3.667  -0.562   2.855
  118DPPC   C44 5894   3.515  -0.563   2.866
  118DPPC   C45 5895   3.477  -0.679   2.958
  118DPPC   C46 5896   3.324  -0.689   2.958
  118DPPC   C47 5897   3.291  -0.809   3.048
  118DPPC   C48 5898   3.273  -0.760   3.191
  118DPPC   C49 5899   3.163  -0.654   3.205
  118DPPC   C50 5900   3.038  -0.715   3.141
  119DPPC    C1 5901   0.390   6.285   0.514
  119DPPC    C2 5902   0.504   6.190   0.713
  119DPPC    C3 5903   0.567   6.400   0.621
  119DPPC    N4 5904   0.454   6.309   0.644
  119DPPC    C5 5905   0.361   6.375   0.737
  119DPPC    C6 5906   0.218   6.323   0.750
  119DPPC    O7 5907   0.157   6.371   0.870
  119DPPC    P8 5908   0.031   6.274   0.897
  119DPPC    O9 5909   0.077   6.135   0.877
  119DPPC   O10 5910  -0.075   6.341   0.819
  119DPPC   O11 5911   0.011   6.287   1.056
  119DPPC   C12 5912   0.111   6.197   1.104
  119DPPC   C13 5913   0.157   6.230   1.246
  119DPPC   O14 5914   0.071   6.201   1.358
  119DPPC   C15 5915   0.097   6.078   1.409
  119DPPC   O16 5916   0.196   6.018   1.368
  119DPPC   C17 5917   0.000   6.013   1.508
  119DPPC   C18 5918   0.028   6.051   1.654
  119DPPC   C19 5919  -0.022   6.186   1.705
  119DPPC   C20 5920   0.062   6.201   1.832
  119DPPC   C21 5921   0.032   6.339   1.891
  119DPPC   C22 5922   0.115   6.345   2.019
  119DPPC   C23 5923   0.073   6.458   2.113
  119DPPC   C24 5924   0.131   6.438   2.253
  119DPPC   C25 5925   0.283   6.451   2.253
  119DPPC   C26 5926   0.326   6.445   2.399
  119DPPC   C27 5927   0.475   6.439   2.433
  119DPPC   C28 5928   0.568   6.532   2.354
  119DPPC   C29 5929   0.700   6.535   2.430
  119DPPC   C30 5930   0.676   6.576   2.576
  119DPPC   C31 5931   0.802   6.555   2.660
  119DPPC   C32 5932   0.204   6.375   1.232
  119DPPC   O33 5933   0.231   6.435   1.359
  119DPPC   C34 5934   0.242   6.570   1.359
  119DPPC   O35 5935   0.232   6.621   1.248
  119DPPC   C36 5936   0.226   6.654   1.486
  119DPPC   C37 5937   0.249   6.580   1.618
  119DPPC   C38 5938   0.221   6.662   1.744
  119DPPC   C39 5939   0.309   6.787   1.753
  119DPPC   C40 5940   0.307   6.865   1.885
  119DPPC   C41 5941   0.357   6.755   1.979
  119DPPC   C42 5942   0.307   6.803   2.115
  119DPPC   C43 5943   0.387   6.929   2.150
  119DPPC   C44 5944   0.333   6.983   2.282
  119DPPC   C45 5945   0.381   7.122   2.323
  119DPPC   C46 5946   0.321   7.162   2.458
  119DPPC   C47 5947   0.191   7.240   2.441
  119DPPC   C48 5948   0.130   7.280   2.576
  119DPPC   C49 5949   0.230   7.351   2.667
  119DPPC   C50 5950   0.191   7.351   2.815
  120DPPC    C1 5951   4.085   6.547   1.990
  120DPPC    C2 5952   3.887   6.638   1.884
  120DPPC    C3 5953   3.858   6.474   2.048
  120DPPC    N4 5954   3.944   6.586   2.009
  120DPPC    C5 5955   3.943   6.689   2.114
  120DPPC    C6 5956   4.036   6.810   2.117
  120DPPC    O7 5957   4.020   6.896   2.230
  120DPPC    P8 5958   4.157   6.978   2.254
  120DPPC    O9 5959   4.139   7.081   2.359
  120DPPC   O10 5960   4.200   7.013   2.117
  120DPPC   O11 5961   4.245   6.859   2.317
  120DPPC   C12 5962   4.202   6.840   2.452
  120DPPC   C13 5963   4.121   6.712   2.468
  120DPPC   O14 5964   4.007   6.728   2.555
  120DPPC   C15 5965   3.885   6.699   2.502
  120DPPC   O16 5966   3.867   6.633   2.400
  120DPPC   C17 5967   3.760   6.710   2.590
  120DPPC   C18 5968   3.737   6.574   2.655
  120DPPC   C19 5969   3.602   6.555   2.726
  120DPPC   C20 5970   3.580   6.661   2.834
  120DPPC   C21 5971   3.435   6.661   2.884
  120DPPC   C22 5972   3.432   6.767   2.995
  120DPPC   C23 5973   3.292   6.764   3.058
  120DPPC   C24 5974   3.279   6.885   3.151
  120DPPC   C25 5975   3.154   6.862   3.236
  120DPPC   C26 5976   3.157   6.726   3.307
  120DPPC   C27 5977   3.018   6.686   3.356
  120DPPC   C28 5978   3.019   6.697   3.508
  120DPPC   C29 5979   2.897   6.639   3.581
  120DPPC   C30 5980   2.795   6.749   3.610
  120DPPC   C31 5981   2.674   6.704   3.693
  120DPPC   C32 5982   4.199   6.581   2.486
  120DPPC   O33 5983   4.316   6.590   2.568
  120DPPC   C34 5984   4.377   6.470   2.583
  120DPPC   O35 5985   4.337   6.372   2.519
  120DPPC   C36 5986   4.497   6.441   2.675
  120DPPC   C37 5987   4.458   6.430   2.822
  120DPPC   C38 5988   4.574   6.402   2.917
  120DPPC   C39 5989   4.666   6.525   2.910
  120DPPC   C40 5990   4.790   6.521   2.999
  120DPPC   C41 5991   4.851   6.661   3.015
  120DPPC   C42 5992   4.881   6.727   2.881
  120DPPC   C43 5993   4.915   6.875   2.897
  120DPPC   C44 5994   4.923   6.941   2.759
  120DPPC   C45 5995   4.960   7.089   2.763
  120DPPC   C46 5996   4.883   7.174   2.865
  120DPPC   C47 5997   4.965   7.300   2.894
  120DPPC   C48 5998   4.888   7.396   2.985
  120DPPC   C49 5999   4.985   7.507   3.024
  120DPPC   C50 6000   4.919   7.609   3.117
  121DPPC    C1 6001   7.191   3.257   2.124
  121DPPC    C2 6002   7.241   3.072   2.255
  121DPPC    C3 6003   7.083   3.047   2.069
  121DPPC    N4 6004   7.206   3.111   2.118
  121DPPC    C5 6005   7.315   3.063   2.032
  121DPPC    C6 6006   7.348   3.135   1.901
  121DPPC    O7 6007   7.476   3.086   1.860
  121DPPC    P8 6008   7.518   3.132   1.712
  121DPPC    O9 6009   7.405   3.183   1.632
  121DPPC   O10 6010   7.613   3.035   1.652
  121DPPC   O11 6011   7.614   3.255   1.756
  121DPPC   C12 6012   7.728   3.209   1.829
  121DPPC   C13 6013   7.767   3.289   1.954
  121DPPC   O14 6014   7.890   3.248   2.016
  121DPPC   C15 6015   7.991   3.339   2.018
  121DPPC   O16 6016   7.996   3.428   1.932
  121DPPC   C17 6017   8.111   3.316   2.109
  121DPPC   C18 6018   8.107   3.410   2.231
  121DPPC   C19 6019   8.002   3.360   2.330
  121DPPC   C20 6020   8.021   3.436   2.462
  121DPPC   C21 6021   7.973   3.359   2.586
  121DPPC   C22 6022   8.006   3.448   2.707
  121DPPC   C23 6023   7.927   3.408   2.832
  121DPPC   C24 6024   7.779   3.438   2.809
  121DPPC   C25 6025   7.697   3.389   2.928
  121DPPC   C26 6026   7.749   3.442   3.062
  121DPPC   C27 6027   7.702   3.584   3.092
  121DPPC   C28 6028   7.779   3.636   3.214
  121DPPC   C29 6029   7.921   3.655   3.161
  121DPPC   C30 6030   8.014   3.699   3.274
  121DPPC   C31 6031   8.019   3.599   3.390
  121DPPC   C32 6032   7.657   3.275   2.060
  121DPPC   O33 6033   7.654   3.387   2.148
  121DPPC   C34 6034   7.571   3.365   2.253
  121DPPC   O35 6035   7.464   3.304   2.240
  121DPPC   C36 6036   7.608   3.430   2.387
  121DPPC   C37 6037   7.622   3.580   2.365
  121DPPC   C38 6038   7.699   3.649   2.478
  121DPPC   C39 6039   7.729   3.798   2.462
  121DPPC   C40 6040   7.812   3.832   2.586
  121DPPC   C41 6041   7.857   3.978   2.574
  121DPPC   C42 6042   7.926   4.015   2.706
  121DPPC   C43 6043   7.830   4.000   2.825
  121DPPC   C44 6044   7.893   4.067   2.947
  121DPPC   C45 6045   7.798   4.081   3.067
  121DPPC   C46 6046   7.883   4.142   3.179
  121DPPC   C47 6047   7.809   4.159   3.312
  121DPPC   C48 6048   7.909   4.188   3.424
  121DPPC   C49 6049   7.842   4.197   3.561
  121DPPC   C50 6050   7.952   4.251   3.653
  122DPPC    C1 6051   6.857   6.598   1.513
  122DPPC    C2 6052   7.090   6.612   1.466
  122DPPC    C3 6053   6.936   6.758   1.369
  122DPPC    N4 6054   6.969   6.691   1.495
  122DPPC    C5 6055   6.973   6.777   1.615
  122DPPC    C6 6056   7.094   6.866   1.642
  122DPPC    O7 6057   7.107   6.980   1.557
  122DPPC    P8 6058   7.267   6.999   1.563
  122DPPC    O9 6059   7.288   7.125   1.488
  122DPPC   O10 6060   7.318   6.865   1.530
  122DPPC   O11 6061   7.286   7.044   1.717
  122DPPC   C12 6062   7.227   7.167   1.761
  122DPPC   C13 6063   7.278   7.208   1.900
  122DPPC   O14 6064   7.416   7.236   1.923
  122DPPC   C15 6065   7.468   7.356   1.886
  122DPPC   O16 6066   7.403   7.438   1.820
  122DPPC   C17 6067   7.595   7.397   1.960
  122DPPC   C18 6068   7.580   7.388   2.112
  122DPPC   C19 6069   7.716   7.437   2.163
  122DPPC   C20 6070   7.709   7.443   2.315
  122DPPC   C21 6071   7.851   7.443   2.374
  122DPPC   C22 6072   7.918   7.306   2.379
  122DPPC   C23 6073   8.055   7.320   2.446
  122DPPC   C24 6074   8.078   7.179   2.501
  122DPPC   C25 6075   8.196   7.166   2.597
  122DPPC   C26 6076   8.197   7.018   2.638
  122DPPC   C27 6077   8.292   7.003   2.757
  122DPPC   C28 6078   8.258   7.109   2.861
  122DPPC   C29 6079   8.331   7.086   2.994
  122DPPC   C30 6080   8.320   7.212   3.079
  122DPPC   C31 6081   8.366   7.193   3.224
  122DPPC   C32 6082   7.238   7.084   1.980
  122DPPC   O33 6083   7.095   7.083   1.987
  122DPPC   C34 6084   7.037   6.985   2.061
  122DPPC   O35 6085   7.091   6.875   2.063
  122DPPC   C36 6086   6.887   7.002   2.088
  122DPPC   C37 6087   6.859   6.976   2.236
  122DPPC   C38 6088   6.842   6.826   2.257
  122DPPC   C39 6089   6.812   6.805   2.406
  122DPPC   C40 6090   6.933   6.838   2.494
  122DPPC   C41 6091   6.894   6.813   2.639
  122DPPC   C42 6092   7.005   6.833   2.743
  122DPPC   C43 6093   7.059   6.975   2.753
  122DPPC   C44 6094   7.195   6.987   2.823
  122DPPC   C45 6095   7.180   6.925   2.963
  122DPPC   C46 6096   7.310   6.937   3.042
  122DPPC   C47 6097   7.336   6.817   3.134
  122DPPC   C48 6098   7.461   6.829   3.223
  122DPPC   C49 6099   7.581   6.779   3.143
  122DPPC   C50 6100   7.705   6.823   3.222
  123DPPC    C1 6101   8.081   8.134   1.751
  123DPPC    C2 6102   7.897   8.239   1.667
  123DPPC    C3 6103   8.012   8.130   1.521
  123DPPC    N4 6104   7.968   8.110   1.660
  123DPPC    C5 6105   7.888   7.989   1.683
  123DPPC    C6 6106   7.958   7.855   1.661
  123DPPC    O7 6107   7.868   7.746   1.640
  123DPPC    P8 6108   7.956   7.630   1.570
  123DPPC    O9 6109   8.018   7.717   1.467
  123DPPC   O10 6110   7.857   7.523   1.545
  123DPPC   O11 6111   8.045   7.602   1.702
  123DPPC   C12 6112   7.994   7.476   1.749
  123DPPC   C13 6113   8.076   7.436   1.872
  123DPPC   O14 6114   8.016   7.316   1.922
  123DPPC   C15 6115   8.079   7.200   1.889
  123DPPC   O16 6116   8.150   7.193   1.790
  123DPPC   C17 6117   8.008   7.072   1.935
  123DPPC   C18 6118   8.106   6.975   2.000
  123DPPC   C19 6119   8.036   6.852   2.059
  123DPPC   C20 6120   8.139   6.779   2.145
  123DPPC   C21 6121   8.132   6.814   2.294
  123DPPC   C22 6122   8.040   6.732   2.385
  123DPPC   C23 6123   8.054   6.581   2.364
  123DPPC   C24 6124   7.937   6.526   2.447
  123DPPC   C25 6125   7.916   6.375   2.436
  123DPPC   C26 6126   7.799   6.328   2.524
  123DPPC   C27 6127   7.755   6.185   2.493
  123DPPC   C28 6128   7.661   6.123   2.596
  123DPPC   C29 6129   7.747   6.120   2.722
  123DPPC   C30 6130   7.694   6.036   2.839
  123DPPC   C31 6131   7.771   6.054   2.970
  123DPPC   C32 6132   8.059   7.555   1.966
  123DPPC   O33 6133   8.182   7.599   2.025
  123DPPC   C34 6134   8.158   7.699   2.114
  123DPPC   O35 6135   8.066   7.700   2.195
  123DPPC   C36 6136   8.290   7.777   2.126
  123DPPC   C37 6137   8.328   7.809   2.270
  123DPPC   C38 6138   8.363   7.685   2.353
  123DPPC   C39 6139   8.373   7.710   2.503
  123DPPC   C40 6140   8.409   7.585   2.583
  123DPPC   C41 6141   8.383   7.603   2.733
  123DPPC   C42 6142   8.247   7.549   2.776
  123DPPC   C43 6143   8.248   7.589   2.923
  123DPPC   C44 6144   8.108   7.569   2.981
  123DPPC   C45 6145   8.109   7.601   3.131
  123DPPC   C46 6146   8.165   7.743   3.137
  123DPPC   C47 6147   8.184   7.763   3.287
  123DPPC   C48 6148   8.250   7.638   3.347
  123DPPC   C49 6149   8.299   7.663   3.490
  123DPPC   C50 6150   8.189   7.679   3.596
  124DPPC    C1 6151   6.318   3.413   2.027
  124DPPC    C2 6152   6.294   3.253   2.191
  124DPPC    C3 6153   6.115   3.291   2.032
  124DPPC    N4 6154   6.260   3.280   2.051
  124DPPC    C5 6155   6.309   3.179   1.956
  124DPPC    C6 6156   6.458   3.179   1.922
  124DPPC    O7 6157   6.553   3.183   2.029
  124DPPC    P8 6158   6.701   3.181   1.966
  124DPPC    O9 6159   6.688   3.247   1.834
  124DPPC   O10 6160   6.785   3.059   1.976
  124DPPC   O11 6161   6.761   3.278   2.079
  124DPPC   C12 6162   6.775   3.216   2.207
  124DPPC   C13 6163   6.811   3.313   2.319
  124DPPC   O14 6164   6.806   3.249   2.448
  124DPPC   C15 6165   6.912   3.170   2.479
  124DPPC   O16 6166   7.001   3.157   2.396
  124DPPC   C17 6167   6.926   3.104   2.617
  124DPPC   C18 6168   7.068   3.109   2.674
  124DPPC   C19 6169   7.069   3.074   2.823
  124DPPC   C20 6170   6.979   3.160   2.912
  124DPPC   C21 6171   6.989   3.115   3.058
  124DPPC   C22 6172   6.909   3.198   3.158
  124DPPC   C23 6173   6.907   3.147   3.302
  124DPPC   C24 6174   6.781   3.209   3.362
  124DPPC   C25 6175   6.660   3.185   3.272
  124DPPC   C26 6176   6.530   3.222   3.343
  124DPPC   C27 6177   6.522   3.374   3.343
  124DPPC   C28 6178   6.405   3.407   3.435
  124DPPC   C29 6179   6.405   3.540   3.512
  124DPPC   C30 6180   6.293   3.538   3.616
  124DPPC   C31 6181   6.338   3.497   3.757
  124DPPC   C32 6182   6.724   3.438   2.310
  124DPPC   O33 6183   6.581   3.442   2.320
  124DPPC   C34 6184   6.542   3.572   2.309
  124DPPC   O35 6185   6.591   3.639   2.219
  124DPPC   C36 6186   6.436   3.621   2.408
  124DPPC   C37 6187   6.427   3.536   2.535
  124DPPC   C38 6188   6.312   3.584   2.624
  124DPPC   C39 6189   6.294   3.489   2.742
  124DPPC   C40 6190   6.156   3.503   2.807
  124DPPC   C41 6191   6.144   3.450   2.950
  124DPPC   C42 6192   5.996   3.434   2.987
  124DPPC   C43 6193   5.969   3.410   3.136
  124DPPC   C44 6194   5.935   3.262   3.153
  124DPPC   C45 6195   5.918   3.244   3.304
  124DPPC   C46 6196   5.931   3.094   3.329
  124DPPC   C47 6197   5.899   3.064   3.475
  124DPPC   C48 6198   5.907   2.913   3.502
  124DPPC   C49 6199   5.814   2.870   3.615
  124DPPC   C50 6200   5.838   2.721   3.640
  125DPPC    C1 6201   2.375   0.089   1.420
  125DPPC    C2 6202   2.247   0.204   1.588
  125DPPC    C3 6203   2.148   0.116   1.400
  125DPPC    N4 6204   2.252   0.087   1.499
  125DPPC    C5 6205   2.235  -0.033   1.584
  125DPPC    C6 6206   2.239  -0.168   1.512
  125DPPC    O7 6207   2.114  -0.203   1.451
  125DPPC    P8 6208   2.135  -0.327   1.352
  125DPPC    O9 6209   2.266  -0.303   1.287
  125DPPC   O10 6210   2.009  -0.340   1.275
  125DPPC   O11 6211   2.137  -0.429   1.477
  125DPPC   C12 6212   2.001  -0.470   1.496
  125DPPC   C13 6213   1.974  -0.532   1.633
  125DPPC   O14 6214   1.897  -0.451   1.722
  125DPPC   C15 6215   1.765  -0.442   1.689
  125DPPC   O16 6216   1.701  -0.525   1.624
  125DPPC   C17 6217   1.699  -0.335   1.776
  125DPPC   C18 6218   1.634  -0.404   1.896
  125DPPC   C19 6219   1.555  -0.298   1.972
  125DPPC   C20 6220   1.634  -0.210   2.069
  125DPPC   C21 6221   1.544  -0.100   2.126
  125DPPC   C22 6222   1.621  -0.031   2.239
  125DPPC   C23 6223   1.518   0.054   2.315
  125DPPC   C24 6224   1.400  -0.040   2.337
  125DPPC   C25 6225   1.286   0.026   2.416
  125DPPC   C26 6226   1.327   0.080   2.553
  125DPPC   C27 6227   1.219   0.167   2.616
  125DPPC   C28 6228   1.108   0.072   2.662
  125DPPC   C29 6229   0.981   0.153   2.686
  125DPPC   C30 6230   0.864   0.072   2.743
  125DPPC   C31 6231   0.744   0.166   2.757
  125DPPC   C32 6232   2.111  -0.562   1.695
  125DPPC   O33 6233   2.115  -0.636   1.817
  125DPPC   C34 6234   2.239  -0.657   1.871
  125DPPC   O35 6235   2.337  -0.662   1.797
  125DPPC   C36 6236   2.235  -0.710   2.014
  125DPPC   C37 6237   2.146  -0.624   2.104
  125DPPC   C38 6238   2.215  -0.494   2.146
  125DPPC   C39 6239   2.355  -0.529   2.198
  125DPPC   C40 6240   2.433  -0.399   2.222
  125DPPC   C41 6241   2.361  -0.296   2.308
  125DPPC   C42 6242   2.460  -0.194   2.365
  125DPPC   C43 6243   2.370  -0.099   2.445
  125DPPC   C44 6244   2.456   0.017   2.495
  125DPPC   C45 6245   2.523   0.096   2.383
  125DPPC   C46 6246   2.580   0.226   2.439
  125DPPC   C47 6247   2.460   0.286   2.513
  125DPPC   C48 6248   2.492   0.423   2.572
  125DPPC   C49 6249   2.380   0.457   2.670
  125DPPC   C50 6250   2.432   0.567   2.763
  126DPPC    C1 6251   6.532   3.827   1.664
  126DPPC    C2 6252   6.498   3.986   1.504
  126DPPC    C3 6253   6.555   3.771   1.421
  126DPPC    N4 6254   6.481   3.841   1.527
  126DPPC    C5 6255   6.338   3.813   1.511
  126DPPC    C6 6256   6.282   3.681   1.566
  126DPPC    O7 6257   6.144   3.651   1.548
  126DPPC    P8 6258   6.075   3.517   1.604
  126DPPC    O9 6259   6.182   3.445   1.677
  126DPPC   O10 6260   6.008   3.475   1.479
  126DPPC   O11 6261   5.979   3.590   1.710
  126DPPC   C12 6262   6.031   3.640   1.834
  126DPPC   C13 6263   6.083   3.783   1.826
  126DPPC   O14 6264   6.140   3.829   1.950
  126DPPC   C15 6265   6.268   3.797   1.982
  126DPPC   O16 6266   6.335   3.714   1.920
  126DPPC   C17 6267   6.317   3.874   2.104
  126DPPC   C18 6268   6.196   3.922   2.185
  126DPPC   C19 6269   6.237   3.948   2.330
  126DPPC   C20 6270   6.133   4.019   2.417
  126DPPC   C21 6271   6.172   4.031   2.564
  126DPPC   C22 6272   6.066   4.107   2.644
  126DPPC   C23 6273   6.061   4.255   2.606
  126DPPC   C24 6274   5.970   4.323   2.708
  126DPPC   C25 6275   6.033   4.317   2.848
  126DPPC   C26 6276   5.962   4.410   2.947
  126DPPC   C27 6277   6.036   4.428   3.079
  126DPPC   C28 6278   6.169   4.505   3.078
  126DPPC   C29 6279   6.242   4.479   3.210
  126DPPC   C30 6280   6.255   4.328   3.230
  126DPPC   C31 6281   6.295   4.290   3.373
  126DPPC   C32 6282   5.963   3.862   1.773
  126DPPC   O33 6283   5.853   3.861   1.863
  126DPPC   C34 6284   5.754   3.947   1.826
  126DPPC   O35 6285   5.742   3.986   1.710
  126DPPC   C36 6286   5.643   3.951   1.931
  126DPPC   C37 6287   5.677   4.031   2.057
  126DPPC   C38 6288   5.573   4.040   2.168
  126DPPC   C39 6289   5.643   4.072   2.300
  126DPPC   C40 6290   5.538   4.124   2.398
  126DPPC   C41 6291   5.613   4.147   2.529
  126DPPC   C42 6292   5.524   4.195   2.643
  126DPPC   C43 6293   5.607   4.203   2.772
  126DPPC   C44 6294   5.512   4.257   2.878
  126DPPC   C45 6295   5.572   4.230   3.016
  126DPPC   C46 6296   5.472   4.262   3.128
  126DPPC   C47 6297   5.535   4.244   3.266
  126DPPC   C48 6298   5.429   4.241   3.376
  126DPPC   C49 6299   5.495   4.227   3.513
  126DPPC   C50 6300   5.394   4.198   3.624
  127DPPC    C1 6301   2.187   6.247   1.210
  127DPPC    C2 6302   2.364   6.330   1.342
  127DPPC    C3 6303   2.365   6.316   1.094
  127DPPC    N4 6304   2.291   6.351   1.216
  127DPPC    C5 6305   2.209   6.472   1.210
  127DPPC    C6 6306   2.286   6.602   1.236
  127DPPC    O7 6307   2.189   6.699   1.274
  127DPPC    P8 6308   2.260   6.836   1.321
  127DPPC    O9 6309   2.240   6.926   1.205
  127DPPC   O10 6310   2.396   6.812   1.375
  127DPPC   O11 6311   2.162   6.894   1.435
  127DPPC   C12 6312   2.176   6.822   1.558
  127DPPC   C13 6313   2.129   6.892   1.686
  127DPPC   O14 6314   2.153   6.819   1.807
  127DPPC   C15 6315   2.274   6.802   1.866
  127DPPC   O16 6316   2.372   6.835   1.800
  127DPPC   C17 6317   2.286   6.775   2.017
  127DPPC   C18 6318   2.425   6.720   2.051
  127DPPC   C19 6319   2.438   6.694   2.201
  127DPPC   C20 6320   2.580   6.646   2.232
  127DPPC   C21 6321   2.589   6.630   2.384
  127DPPC   C22 6322   2.584   6.764   2.456
  127DPPC   C23 6323   2.591   6.745   2.608
  127DPPC   C24 6324   2.717   6.681   2.666
  127DPPC   C25 6325   2.711   6.693   2.818
  127DPPC   C26 6326   2.843   6.628   2.860
  127DPPC   C27 6327   2.841   6.602   3.010
  127DPPC   C28 6328   2.735   6.497   3.045
  127DPPC   C29 6329   2.759   6.447   3.187
  127DPPC   C30 6330   2.646   6.346   3.209
  127DPPC   C31 6331   2.654   6.287   3.350
  127DPPC   C32 6332   1.981   6.915   1.654
  127DPPC   O33 6333   1.901   7.014   1.718
  127DPPC   C34 6334   1.810   7.073   1.636
  127DPPC   O35 6335   1.812   7.047   1.515
  127DPPC   C36 6336   1.713   7.173   1.698
  127DPPC   C37 6337   1.666   7.115   1.832
  127DPPC   C38 6338   1.534   7.184   1.869
  127DPPC   C39 6339   1.487   7.149   2.010
  127DPPC   C40 6340   1.356   7.219   2.047
  127DPPC   C41 6341   1.280   7.159   2.165
  127DPPC   C42 6342   1.371   7.176   2.287
  127DPPC   C43 6343   1.307   7.116   2.413
  127DPPC   C44 6344   1.396   7.165   2.528
  127DPPC   C45 6345   1.544   7.130   2.515
  127DPPC   C46 6346   1.603   7.180   2.647
  127DPPC   C47 6347   1.746   7.125   2.649
  127DPPC   C48 6348   1.794   7.132   2.794
  127DPPC   C49 6349   1.787   7.277   2.842
  127DPPC   C50 6350   1.863   7.295   2.973
  128DPPC    C1 6351   2.009   4.063   1.370
  128DPPC    C2 6352   1.804   3.946   1.354
  128DPPC    C3 6353   1.994   3.860   1.239
  128DPPC    N4 6354   1.950   3.929   1.361
  128DPPC    C5 6355   1.983   3.853   1.482
  128DPPC    C6 6356   2.126   3.801   1.497
  128DPPC    O7 6357   2.185   3.841   1.621
  128DPPC    P8 6358   2.343   3.866   1.600
  128DPPC    O9 6359   2.353   4.014   1.607
  128DPPC   O10 6360   2.404   3.784   1.492
  128DPPC   O11 6361   2.393   3.793   1.734
  128DPPC   C12 6362   2.427   3.656   1.715
  128DPPC   C13 6363   2.435   3.573   1.843
  128DPPC   O14 6364   2.341   3.465   1.849
  128DPPC   C15 6365   2.396   3.351   1.897
  128DPPC   O16 6366   2.507   3.320   1.852
  128DPPC   C17 6367   2.301   3.243   1.950
  128DPPC   C18 6368   2.350   3.200   2.088
  128DPPC   C19 6369   2.343   3.312   2.192
  128DPPC   C20 6370   2.337   3.266   2.338
  128DPPC   C21 6371   2.297   3.376   2.437
  128DPPC   C22 6372   2.325   3.334   2.582
  128DPPC   C23 6373   2.311   3.456   2.673
  128DPPC   C24 6374   2.309   3.414   2.820
  128DPPC   C25 6375   2.270   3.539   2.900
  128DPPC   C26 6376   2.385   3.634   2.934
  128DPPC   C27 6377   2.334   3.705   3.059
  128DPPC   C28 6378   2.454   3.768   3.130
  128DPPC   C29 6379   2.554   3.658   3.163
  128DPPC   C30 6380   2.658   3.716   3.259
  128DPPC   C31 6381   2.594   3.761   3.391
  128DPPC   C32 6382   2.420   3.665   1.964
  128DPPC   O33 6383   2.488   3.616   2.080
  128DPPC   C34 6384   2.524   3.718   2.163
  128DPPC   O35 6385   2.510   3.838   2.139
  128DPPC   C36 6386   2.560   3.673   2.305
  128DPPC   C37 6387   2.616   3.783   2.395
  128DPPC   C38 6388   2.633   3.718   2.532
  128DPPC   C39 6389   2.678   3.823   2.633
  128DPPC   C40 6390   2.753   3.753   2.746
  128DPPC   C41 6391   2.819   3.846   2.848
  128DPPC   C42 6392   2.924   3.766   2.925
  128DPPC   C43 6393   2.999   3.870   3.009
  128DPPC   C44 6394   3.022   3.793   3.139
  128DPPC   C45 6395   3.096   3.882   3.240
  128DPPC   C46 6396   3.225   3.936   3.179
  128DPPC   C47 6397   3.305   4.004   3.291
  128DPPC   C48 6398   3.431   4.054   3.220
  128DPPC   C49 6399   3.524   4.124   3.319
  128DPPC   C50 6400   3.645   4.182   3.245
  129DPPC    C1 6401   2.737   2.233   5.560
  129DPPC    C2 6402   2.649   2.207   5.787
  129DPPC    C3 6403   2.688   2.418   5.687
  129DPPC    N4 6404   2.642   2.281   5.660
  129DPPC    C5 6405   2.501   2.278   5.617
  129DPPC    C6 6406   2.444   2.157   5.543
  129DPPC    O7 6407   2.341   2.188   5.449
  129DPPC    P8 6408   2.249   2.059   5.421
  129DPPC    O9 6409   2.155   2.128   5.330
  129DPPC   O10 6410   2.202   2.017   5.554
  129DPPC   O11 6411   2.351   1.953   5.356
  129DPPC   C12 6412   2.387   2.013   5.231
  129DPPC   C13 6413   2.534   1.982   5.203
  129DPPC   O14 6414   2.587   2.064   5.098
  129DPPC   C15 6415   2.643   2.184   5.128
  129DPPC   O16 6416   2.600   2.239   5.229
  129DPPC   C17 6417   2.714   2.270   5.023
  129DPPC   C18 6418   2.641   2.400   4.992
  129DPPC   C19 6419   2.669   2.453   4.851
  129DPPC   C20 6420   2.625   2.340   4.757
  129DPPC   C21 6421   2.653   2.380   4.612
  129DPPC   C22 6422   2.583   2.277   4.523
  129DPPC   C23 6423   2.539   2.345   4.393
  129DPPC   C24 6424   2.500   2.241   4.289
  129DPPC   C25 6425   2.474   2.300   4.150
  129DPPC   C26 6426   2.483   2.193   4.041
  129DPPC   C27 6427   2.486   2.258   3.903
  129DPPC   C28 6428   2.508   2.145   3.802
  129DPPC   C29 6429   2.527   2.205   3.662
  129DPPC   C30 6430   2.506   2.096   3.558
  129DPPC   C31 6431   2.548   2.155   3.423
  129DPPC   C32 6432   2.546   1.832   5.178
  129DPPC   O33 6433   2.435   1.786   5.101
  129DPPC   C34 6434   2.444   1.652   5.076
  129DPPC   O35 6435   2.541   1.593   5.123
  129DPPC   C36 6436   2.338   1.584   4.991
  129DPPC   C37 6437   2.381   1.446   4.940
  129DPPC   C38 6438   2.504   1.469   4.851
  129DPPC   C39 6439   2.543   1.329   4.802
  129DPPC   C40 6440   2.444   1.268   4.703
  129DPPC   C41 6441   2.526   1.158   4.635
  129DPPC   C42 6442   2.456   1.105   4.509
  129DPPC   C43 6443   2.530   0.978   4.466
  129DPPC   C44 6444   2.445   0.900   4.366
  129DPPC   C45 6445   2.533   0.798   4.293
  129DPPC   C46 6446   2.457   0.732   4.177
  129DPPC   C47 6447   2.551   0.636   4.104
  129DPPC   C48 6448   2.492   0.609   3.965
  129DPPC   C49 6449   2.587   0.526   3.879
  129DPPC   C50 6450   2.530   0.460   3.753
  130DPPC    C1 6451   0.627   7.741   1.178
  130DPPC    C2 6452   0.804   7.904   1.176
  130DPPC    C3 6453   0.575   7.968   1.195
  130DPPC    N4 6454   0.675   7.868   1.235
  130DPPC    C5 6455   0.659   7.864   1.381
  130DPPC    C6 6456   0.733   7.755   1.458
  130DPPC    O7 6457   0.643   7.663   1.520
  130DPPC    P8 6458   0.714   7.599   1.649
  130DPPC    O9 6459   0.845   7.664   1.666
  130DPPC   O10 6460   0.695   7.452   1.648
  130DPPC   O11 6461   0.608   7.663   1.752
  130DPPC   C12 6462   0.675   7.768   1.824
  130DPPC   C13 6463   0.589   7.832   1.933
  130DPPC   O14 6464   0.678   7.869   2.039
  130DPPC   C15 6465   0.767   7.972   2.036
  130DPPC   O16 6466   0.753   8.054   1.945
  130DPPC   C17 6467   0.853   7.986   2.162
  130DPPC   C18 6468   0.800   8.085   2.266
  130DPPC   C19 6469   0.812   8.019   2.403
  130DPPC   C20 6470   0.953   7.962   2.423
  130DPPC   C21 6471   1.043   8.084   2.448
  130DPPC   C22 6472   1.191   8.043   2.448
  130DPPC   C23 6473   1.257   8.148   2.537
  130DPPC   C24 6474   1.271   8.105   2.683
  130DPPC   C25 6475   1.388   8.007   2.697
  130DPPC   C26 6476   1.401   7.960   2.842
  130DPPC   C27 6477   1.444   8.064   2.946
  130DPPC   C28 6478   1.452   8.026   3.094
  130DPPC   C29 6479   1.558   7.915   3.093
  130DPPC   C30 6480   1.571   7.855   3.233
  130DPPC   C31 6481   1.440   7.848   3.311
  130DPPC   C32 6482   0.487   7.725   1.973
  130DPPC   O33 6483   0.371   7.780   2.036
  130DPPC   C34 6484   0.298   7.680   2.093
  130DPPC   O35 6485   0.318   7.561   2.070
  130DPPC   C36 6486   0.168   7.726   2.159
  130DPPC   C37 6487   0.114   7.621   2.257
  130DPPC   C38 6488  -0.031   7.637   2.302
  130DPPC   C39 6489  -0.064   7.774   2.362
  130DPPC   C40 6490  -0.195   7.791   2.439
  130DPPC   C41 6491  -0.206   7.941   2.462
  130DPPC   C42 6492  -0.351   7.975   2.498
  130DPPC   C43 6493  -0.375   8.122   2.533
  130DPPC   C44 6494  -0.491   8.153   2.627
  130DPPC   C45 6495  -0.512   8.303   2.649
  130DPPC   C46 6496  -0.625   8.344   2.743
  130DPPC   C47 6497  -0.586   8.293   2.882
  130DPPC   C48 6498  -0.709   8.293   2.974
  130DPPC   C49 6499  -0.762   8.437   2.982
  130DPPC   C50 6500  -0.908   8.438   3.029
  131DPPC    C1 6501   1.370   4.060   5.488
  131DPPC    C2 6502   1.395   3.885   5.318
  131DPPC    C3 6503   1.256   4.074   5.287
  131DPPC    N4 6504   1.384   4.029   5.345
  131DPPC    C5 6505   1.484   4.109   5.273
  131DPPC    C6 6506   1.497   4.259   5.302
  131DPPC    O7 6507   1.418   4.339   5.213
  131DPPC    P8 6508   1.437   4.491   5.262
  131DPPC    O9 6509   1.496   4.497   5.398
  131DPPC   O10 6510   1.315   4.568   5.230
  131DPPC   O11 6511   1.550   4.528   5.154
  131DPPC   C12 6512   1.491   4.514   5.025
  131DPPC   C13 6513   1.595   4.510   4.913
  131DPPC   O14 6514   1.530   4.525   4.787
  131DPPC   C15 6515   1.587   4.622   4.709
  131DPPC   O16 6516   1.686   4.686   4.743
  131DPPC   C17 6517   1.539   4.614   4.564
  131DPPC   C18 6518   1.643   4.529   4.490
  131DPPC   C19 6519   1.587   4.498   4.351
  131DPPC   C20 6520   1.705   4.483   4.255
  131DPPC   C21 6521   1.665   4.436   4.115
  131DPPC   C22 6522   1.788   4.459   4.027
  131DPPC   C23 6523   1.766   4.403   3.886
  131DPPC   C24 6524   1.882   4.433   3.791
  131DPPC   C25 6525   2.018   4.386   3.842
  131DPPC   C26 6526   2.125   4.410   3.734
  131DPPC   C27 6527   2.265   4.377   3.787
  131DPPC   C28 6528   2.368   4.381   3.674
  131DPPC   C29 6529   2.511   4.386   3.729
  131DPPC   C30 6530   2.583   4.515   3.689
  131DPPC   C31 6531   2.731   4.516   3.727
  131DPPC   C32 6532   1.677   4.383   4.935
  131DPPC   O33 6533   1.751   4.322   4.829
  131DPPC   C34 6534   1.816   4.203   4.827
  131DPPC   O35 6535   1.785   4.126   4.918
  131DPPC   C36 6536   1.898   4.149   4.710
  131DPPC   C37 6537   1.814   4.155   4.582
  131DPPC   C38 6538   1.887   4.092   4.464
  131DPPC   C39 6539   1.794   4.100   4.342
  131DPPC   C40 6540   1.651   4.045   4.345
  131DPPC   C41 6541   1.610   4.047   4.197
  131DPPC   C42 6542   1.457   4.040   4.194
  131DPPC   C43 6543   1.413   4.034   4.047
  131DPPC   C44 6544   1.469   3.912   3.974
  131DPPC   C45 6545   1.403   3.899   3.837
  131DPPC   C46 6546   1.455   3.995   3.729
  131DPPC   C47 6547   1.454   3.931   3.590
  131DPPC   C48 6548   1.476   4.033   3.478
  131DPPC   C49 6549   1.475   3.967   3.340
  131DPPC   C50 6550   1.579   3.860   3.308
  132DPPC    C1 6551   9.180   6.455   1.062
  132DPPC    C2 6552   9.381   6.565   1.165
  132DPPC    C3 6553   9.238   6.678   1.023
  132DPPC    N4 6554   9.239   6.573   1.126
  132DPPC    C5 6555   9.158   6.609   1.244
  132DPPC    C6 6556   9.006   6.621   1.242
  132DPPC    O7 6557   8.957   6.653   1.373
  132DPPC    P8 6558   8.800   6.627   1.393
  132DPPC    O9 6559   8.781   6.483   1.363
  132DPPC   O10 6560   8.744   6.732   1.306
  132DPPC   O11 6561   8.789   6.643   1.553
  132DPPC   C12 6562   8.902   6.595   1.625
  132DPPC   C13 6563   8.895   6.624   1.775
  132DPPC   O14 6564   9.011   6.581   1.849
  132DPPC   C15 6565   9.124   6.656   1.848
  132DPPC   O16 6566   9.147   6.727   1.750
  132DPPC   C17 6567   9.225   6.644   1.962
  132DPPC   C18 6568   9.197   6.727   2.088
  132DPPC   C19 6569   9.306   6.713   2.195
  132DPPC   C20 6570   9.249   6.767   2.326
  132DPPC   C21 6571   9.318   6.734   2.459
  132DPPC   C22 6572   9.466   6.771   2.465
  132DPPC   C23 6573   9.490   6.803   2.613
  132DPPC   C24 6574   9.627   6.750   2.655
  132DPPC   C25 6575   9.664   6.789   2.799
  132DPPC   C26 6576   9.814   6.759   2.796
  132DPPC   C27 6577   9.855   6.764   2.944
  132DPPC   C28 6578  10.007   6.761   2.964
  132DPPC   C29 6579  10.029   6.713   3.108
  132DPPC   C30 6580  10.018   6.560   3.106
  132DPPC   C31 6581  10.034   6.501   3.246
  132DPPC   C32 6582   8.765   6.561   1.827
  132DPPC   O33 6583   8.746   6.558   1.968
  132DPPC   C34 6584   8.630   6.507   2.020
  132DPPC   O35 6585   8.539   6.481   1.941
  132DPPC   C36 6586   8.618   6.503   2.172
  132DPPC   C37 6587   8.543   6.620   2.237
  132DPPC   C38 6588   8.486   6.582   2.374
  132DPPC   C39 6589   8.442   6.704   2.454
  132DPPC   C40 6590   8.441   6.675   2.604
  132DPPC   C41 6591   8.343   6.561   2.636
  132DPPC   C42 6592   8.352   6.527   2.785
  132DPPC   C43 6593   8.330   6.656   2.865
  132DPPC   C44 6594   8.300   6.612   3.008
  132DPPC   C45 6595   8.242   6.731   3.084
  132DPPC   C46 6596   8.230   6.692   3.232
  132DPPC   C47 6597   8.158   6.809   3.300
  132DPPC   C48 6598   8.150   6.801   3.452
  132DPPC   C49 6599   8.050   6.692   3.490
  132DPPC   C50 6600   8.061   6.669   3.641
  133DPPC    C1 6601   7.243   0.346   5.380
  133DPPC    C2 6602   7.221   0.548   5.471
  133DPPC    C3 6603   7.343   0.361   5.591
  133DPPC    N4 6604   7.318   0.438   5.468
  133DPPC    C5 6605   7.447   0.473   5.406
  133DPPC    C6 6606   7.548   0.573   5.461
  133DPPC    O7 6607   7.668   0.576   5.383
  133DPPC    P8 6608   7.779   0.676   5.442
  133DPPC    O9 6609   7.904   0.677   5.364
  133DPPC   O10 6610   7.761   0.668   5.589
  133DPPC   O11 6611   7.703   0.810   5.394
  133DPPC   C12 6612   7.728   0.832   5.255
  133DPPC   C13 6613   7.639   0.934   5.184
  133DPPC   O14 6614   7.693   1.067   5.170
  133DPPC   C15 6615   7.783   1.083   5.070
  133DPPC   O16 6616   7.818   0.979   5.013
  133DPPC   C17 6617   7.867   1.210   5.059
  133DPPC   C18 6618   7.804   1.334   4.995
  133DPPC   C19 6619   7.812   1.331   4.842
  133DPPC   C20 6620   7.760   1.464   4.787
  133DPPC   C21 6621   7.835   1.587   4.839
  133DPPC   C22 6622   7.754   1.713   4.806
  133DPPC   C23 6623   7.843   1.837   4.820
  133DPPC   C24 6624   7.745   1.956   4.825
  133DPPC   C25 6625   7.667   1.961   4.694
  133DPPC   C26 6626   7.552   2.061   4.687
  133DPPC   C27 6627   7.479   2.045   4.553
  133DPPC   C28 6628   7.368   2.151   4.555
  133DPPC   C29 6629   7.283   2.133   4.429
  133DPPC   C30 6630   7.151   2.210   4.432
  133DPPC   C31 6631   7.063   2.177   4.311
  133DPPC   C32 6632   7.514   0.944   5.272
  133DPPC   O33 6633   7.386   0.937   5.210
  133DPPC   C34 6634   7.339   0.812   5.183
  133DPPC   O35 6635   7.381   0.707   5.233
  133DPPC   C36 6636   7.201   0.810   5.117
  133DPPC   C37 6637   7.218   0.791   4.966
  133DPPC   C38 6638   7.079   0.821   4.910
  133DPPC   C39 6639   7.098   0.843   4.760
  133DPPC   C40 6640   7.154   0.718   4.691
  133DPPC   C41 6641   7.147   0.740   4.540
  133DPPC   C42 6642   7.158   0.608   4.463
  133DPPC   C43 6643   7.134   0.638   4.316
  133DPPC   C44 6644   7.232   0.729   4.241
  133DPPC   C45 6645   7.210   0.725   4.090
  133DPPC   C46 6646   7.223   0.582   4.039
  133DPPC   C47 6647   7.196   0.576   3.888
  133DPPC   C48 6648   7.217   0.436   3.829
  133DPPC   C49 6649   7.211   0.437   3.677
  133DPPC   C50 6650   7.065   0.452   3.631
  134DPPC    C1 6651   0.217   7.807   5.221
  134DPPC    C2 6652   0.157   7.855   5.428
  134DPPC    C3 6653   0.393   7.839   5.378
  134DPPC    N4 6654   0.263   7.891   5.333
  134DPPC    C5 6655   0.263   8.036   5.313
  134DPPC    C6 6656   0.348   8.099   5.203
  134DPPC    O7 6657   0.320   8.066   5.067
  134DPPC    P8 6658   0.426   8.153   4.983
  134DPPC    O9 6659   0.548   8.070   4.996
  134DPPC   O10 6660   0.416   8.288   5.043
  134DPPC   O11 6661   0.375   8.145   4.831
  134DPPC   C12 6662   0.392   8.267   4.757
  134DPPC   C13 6663   0.425   8.247   4.609
  134DPPC   O14 6664   0.424   8.369   4.534
  134DPPC   C15 6665   0.520   8.465   4.536
  134DPPC   O16 6666   0.628   8.433   4.585
  134DPPC   C17 6667   0.503   8.595   4.459
  134DPPC   C18 6668   0.412   8.582   4.336
  134DPPC   C19 6669   0.439   8.698   4.240
  134DPPC   C20 6670   0.367   8.686   4.106
  134DPPC   C21 6671   0.440   8.764   3.997
  134DPPC   C22 6672   0.345   8.871   3.943
  134DPPC   C23 6673   0.399   8.966   3.836
  134DPPC   C24 6674   0.384   9.112   3.879
  134DPPC   C25 6675   0.452   9.204   3.778
  134DPPC   C26 6676   0.433   9.352   3.811
  134DPPC   C27 6677   0.503   9.435   3.703
  134DPPC   C28 6678   0.455   9.580   3.702
  134DPPC   C29 6679   0.563   9.666   3.637
  134DPPC   C30 6680   0.568   9.617   3.493
  134DPPC   C31 6681   0.671   9.705   3.421
  134DPPC   C32 6682   0.316   8.150   4.562
  134DPPC   O33 6683   0.184   8.197   4.588
  134DPPC   C34 6684   0.082   8.106   4.586
  134DPPC   O35 6685   0.103   7.990   4.550
  134DPPC   C36 6686  -0.051   8.164   4.632
  134DPPC   C37 6687  -0.134   8.208   4.511
  134DPPC   C38 6688  -0.187   8.098   4.419
  134DPPC   C39 6689  -0.260   8.157   4.298
  134DPPC   C40 6690  -0.311   8.062   4.189
  134DPPC   C41 6691  -0.352   8.128   4.058
  134DPPC   C42 6692  -0.441   8.249   4.088
  134DPPC   C43 6693  -0.497   8.289   3.951
  134DPPC   C44 6694  -0.557   8.164   3.888
  134DPPC   C45 6695  -0.668   8.224   3.801
  134DPPC   C46 6696  -0.746   8.115   3.726
  134DPPC   C47 6697  -0.869   8.168   3.651
  134DPPC   C48 6698  -0.958   8.047   3.621
  134DPPC   C49 6699  -1.075   8.108   3.544
  134DPPC   C50 6700  -1.016   8.187   3.428
  135DPPC    C1 6701   7.829   7.821   5.506
  135DPPC    C2 6702   7.890   7.997   5.640
  135DPPC    C3 6703   8.023   7.972   5.446
  135DPPC    N4 6704   7.887   7.956   5.499
  135DPPC    C5 6705   7.787   8.038   5.427
  135DPPC    C6 6706   7.737   7.992   5.290
  135DPPC    O7 6707   7.613   8.035   5.233
  135DPPC    P8 6708   7.607   7.991   5.079
  135DPPC    O9 6709   7.476   8.034   5.024
  135DPPC   O10 6710   7.662   7.854   5.072
  135DPPC   O11 6711   7.719   8.099   5.037
  135DPPC   C12 6712   7.670   8.217   4.972
  135DPPC   C13 6713   7.777   8.325   4.960
  135DPPC   O14 6714   7.726   8.459   4.947
  135DPPC   C15 6715   7.813   8.564   4.944
  135DPPC   O16 6716   7.918   8.553   5.006
  135DPPC   C17 6717   7.751   8.704   4.935
  135DPPC   C18 6718   7.841   8.804   4.862
  135DPPC   C19 6719   7.883   8.750   4.726
  135DPPC   C20 6720   7.768   8.710   4.634
  135DPPC   C21 6721   7.793   8.581   4.556
  135DPPC   C22 6722   7.651   8.538   4.516
  135DPPC   C23 6723   7.581   8.639   4.426
  135DPPC   C24 6724   7.651   8.642   4.289
  135DPPC   C25 6725   7.579   8.715   4.175
  135DPPC   C26 6726   7.662   8.715   4.046
  135DPPC   C27 6727   7.594   8.805   3.943
  135DPPC   C28 6728   7.701   8.853   3.845
  135DPPC   C29 6729   7.617   8.947   3.758
  135DPPC   C30 6730   7.690   9.002   3.635
  135DPPC   C31 6731   7.654   8.920   3.511
  135DPPC   C32 6732   7.888   8.275   4.866
  135DPPC   O33 6733   7.835   8.217   4.747
  135DPPC   C34 6734   7.932   8.175   4.662
  135DPPC   O35 6735   8.049   8.207   4.685
  135DPPC   C36 6736   7.885   8.148   4.519
  135DPPC   C37 6737   7.756   8.067   4.537
  135DPPC   C38 6738   7.673   8.068   4.409
  135DPPC   C39 6739   7.550   7.978   4.401
  135DPPC   C40 6740   7.475   7.967   4.267
  135DPPC   C41 6741   7.460   8.112   4.220
  135DPPC   C42 6742   7.387   8.102   4.085
  135DPPC   C43 6743   7.479   8.020   3.994
  135DPPC   C44 6744   7.429   8.033   3.850
  135DPPC   C45 6745   7.537   7.988   3.750
  135DPPC   C46 6746   7.503   7.974   3.602
  135DPPC   C47 6747   7.411   7.855   3.572
  135DPPC   C48 6748   7.379   7.854   3.422
  135DPPC   C49 6749   7.288   7.742   3.371
  135DPPC   C50 6750   7.271   7.758   3.220
  136DPPC    C1 6751   7.052   3.255   5.918
  136DPPC    C2 6752   7.263   3.254   5.834
  136DPPC    C3 6753   7.145   3.440   5.805
  136DPPC    N4 6754   7.172   3.340   5.909
  136DPPC    C5 6755   7.228   3.392   6.035
  136DPPC    C6 6756   7.374   3.436   6.031
  136DPPC    O7 6757   7.402   3.555   5.957
  136DPPC    P8 6758   7.555   3.553   5.907
  136DPPC    O9 6759   7.619   3.453   5.996
  136DPPC   O10 6760   7.592   3.696   5.903
  136DPPC   O11 6761   7.522   3.499   5.759
  136DPPC   C12 6762   7.502   3.620   5.685
  136DPPC   C13 6763   7.577   3.613   5.551
  136DPPC   O14 6764   7.541   3.725   5.468
  136DPPC   C15 6765   7.606   3.844   5.481
  136DPPC   O16 6766   7.704   3.856   5.555
  136DPPC   C17 6767   7.545   3.966   5.413
  136DPPC   C18 6768   7.605   4.013   5.280
  136DPPC   C19 6769   7.538   4.132   5.211
  136DPPC   C20 6770   7.610   4.157   5.079
  136DPPC   C21 6771   7.627   4.042   4.980
  136DPPC   C22 6772   7.707   4.091   4.859
  136DPPC   C23 6773   7.637   4.213   4.798
  136DPPC   C24 6774   7.744   4.297   4.729
  136DPPC   C25 6775   7.800   4.251   4.594
  136DPPC   C26 6776   7.918   4.334   4.545
  136DPPC   C27 6777   7.991   4.257   4.435
  136DPPC   C28 6778   8.101   4.336   4.364
  136DPPC   C29 6779   8.049   4.471   4.314
  136DPPC   C30 6780   8.112   4.505   4.178
  136DPPC   C31 6781   8.074   4.644   4.129
  136DPPC   C32 6782   7.510   3.486   5.499
  136DPPC   O33 6783   7.589   3.400   5.416
  136DPPC   C34 6784   7.542   3.287   5.356
  136DPPC   O35 6785   7.425   3.254   5.371
  136DPPC   C36 6786   7.622   3.236   5.236
  136DPPC   C37 6787   7.587   3.334   5.124
  136DPPC   C38 6788   7.535   3.267   4.997
  136DPPC   C39 6789   7.467   3.362   4.898
  136DPPC   C40 6790   7.415   3.292   4.772
  136DPPC   C41 6791   7.332   3.392   4.692
  136DPPC   C42 6792   7.268   3.328   4.568
  136DPPC   C43 6793   7.207   3.439   4.482
  136DPPC   C44 6794   7.167   3.377   4.348
  136DPPC   C45 6795   7.093   3.473   4.255
  136DPPC   C46 6796   7.059   3.393   4.129
  136DPPC   C47 6797   7.005   3.491   4.024
  136DPPC   C48 6798   7.024   3.425   3.887
  136DPPC   C49 6799   6.927   3.307   3.876
  136DPPC   C50 6800   6.954   3.260   3.733
  137DPPC    C1 6801   3.041   6.203   4.902
  137DPPC    C2 6802   3.153   6.030   5.024
  137DPPC    C3 6803   3.258   6.243   4.961
  137DPPC    N4 6804   3.137   6.176   5.010
  137DPPC    C5 6805   3.104   6.248   5.134
  137DPPC    C6 6806   2.969   6.216   5.198
  137DPPC    O7 6807   2.854   6.285   5.149
  137DPPC    P8 6808   2.719   6.200   5.174
  137DPPC    O9 6809   2.606   6.275   5.116
  137DPPC   O10 6810   2.735   6.157   5.315
  137DPPC   O11 6811   2.749   6.073   5.081
  137DPPC   C12 6812   2.649   6.044   4.983
  137DPPC   C13 6813   2.684   5.912   4.915
  137DPPC   O14 6814   2.806   5.918   4.840
  137DPPC   C15 6815   2.876   5.803   4.824
  137DPPC   O16 6816   2.846   5.712   4.901
  137DPPC   C17 6817   3.002   5.796   4.738
  137DPPC   C18 6818   2.978   5.858   4.600
  137DPPC   C19 6819   3.103   5.832   4.516
  137DPPC   C20 6820   3.144   5.685   4.501
  137DPPC   C21 6821   3.250   5.677   4.391
  137DPPC   C22 6822   3.306   5.536   4.371
  137DPPC   C23 6823   3.428   5.519   4.280
  137DPPC   C24 6824   3.472   5.373   4.261
  137DPPC   C25 6825   3.586   5.358   4.160
  137DPPC   C26 6826   3.612   5.209   4.142
  137DPPC   C27 6827   3.733   5.175   4.055
  137DPPC   C28 6828   3.715   5.239   3.917
  137DPPC   C29 6829   3.805   5.175   3.811
  137DPPC   C30 6830   3.719   5.171   3.685
  137DPPC   C31 6831   3.780   5.082   3.576
  137DPPC   C32 6832   2.556   5.873   4.840
  137DPPC   O33 6833   2.492   5.976   4.764
  137DPPC   C34 6834   2.394   5.936   4.678
  137DPPC   O35 6835   2.365   5.817   4.666
  137DPPC   C36 6836   2.337   6.042   4.584
  137DPPC   C37 6837   2.302   5.996   4.442
  137DPPC   C38 6838   2.283   6.101   4.333
  137DPPC   C39 6839   2.252   6.031   4.201
  137DPPC   C40 6840   2.312   6.113   4.087
  137DPPC   C41 6841   2.221   6.230   4.050
  137DPPC   C42 6842   2.248   6.278   3.907
  137DPPC   C43 6843   2.222   6.159   3.815
  137DPPC   C44 6844   2.267   6.170   3.669
  137DPPC   C45 6845   2.214   6.051   3.588
  137DPPC   C46 6846   2.244   5.919   3.659
  137DPPC   C47 6847   2.183   5.804   3.580
  137DPPC   C48 6848   2.031   5.797   3.594
  137DPPC   C49 6849   1.960   5.688   3.514
  137DPPC   C50 6850   1.819   5.660   3.567
  138DPPC    C1 6851   2.022   2.748   5.557
  138DPPC    C2 6852   1.982   2.971   5.629
  138DPPC    C3 6853   2.152   2.838   5.719
  138DPPC    N4 6854   2.087   2.875   5.592
  138DPPC    C5 6855   2.173   2.911   5.479
  138DPPC    C6 6856   2.106   2.965   5.351
  138DPPC    O7 6857   2.027   2.879   5.270
  138DPPC    P8 6858   1.994   2.966   5.139
  138DPPC    O9 6859   1.937   3.086   5.205
  138DPPC   O10 6860   1.918   2.879   5.047
  138DPPC   O11 6861   2.149   2.986   5.099
  138DPPC   C12 6862   2.159   3.073   4.986
  138DPPC   C13 6863   2.297   3.135   4.965
  138DPPC   O14 6864   2.310   3.248   4.878
  138DPPC   C15 6865   2.288   3.374   4.924
  138DPPC   O16 6866   2.265   3.389   5.044
  138DPPC   C17 6867   2.289   3.486   4.819
  138DPPC   C18 6868   2.401   3.587   4.841
  138DPPC   C19 6869   2.400   3.695   4.732
  138DPPC   C20 6870   2.263   3.762   4.716
  138DPPC   C21 6871   2.253   3.852   4.592
  138DPPC   C22 6872   2.212   3.777   4.465
  138DPPC   C23 6873   2.209   3.877   4.349
  138DPPC   C24 6874   2.228   3.789   4.225
  138DPPC   C25 6875   2.249   3.858   4.090
  138DPPC   C26 6876   2.262   3.737   3.997
  138DPPC   C27 6877   2.281   3.780   3.851
  138DPPC   C28 6878   2.163   3.873   3.820
  138DPPC   C29 6879   2.200   3.958   3.698
  138DPPC   C30 6880   2.090   4.052   3.650
  138DPPC   C31 6881   1.981   3.964   3.589
  138DPPC   C32 6882   2.383   3.018   4.917
  138DPPC   O33 6883   2.317   2.951   4.809
  138DPPC   C34 6884   2.358   2.822   4.799
  138DPPC   O35 6885   2.422   2.773   4.892
  138DPPC   C36 6886   2.333   2.734   4.676
  138DPPC   C37 6887   2.395   2.802   4.553
  138DPPC   C38 6888   2.378   2.698   4.442
  138DPPC   C39 6889   2.236   2.664   4.398
  138DPPC   C40 6890   2.229   2.550   4.296
  138DPPC   C41 6891   2.084   2.535   4.248
  138DPPC   C42 6892   2.064   2.403   4.173
  138DPPC   C43 6893   1.919   2.403   4.126
  138DPPC   C44 6894   1.872   2.279   4.048
  138DPPC   C45 6895   1.720   2.281   4.068
  138DPPC   C46 6896   1.662   2.176   3.974
  138DPPC   C47 6897   1.509   2.172   3.985
  138DPPC   C48 6898   1.449   2.046   3.923
  138DPPC   C49 6899   1.302   2.021   3.956
  138DPPC   C50 6900   1.312   2.029   4.108
  139DPPC    C1 6901   9.023   3.869   5.234
  139DPPC    C2 6902   8.848   4.027   5.187
  139DPPC    C3 6903   8.847   3.894   5.383
  139DPPC    N4 6904   8.933   3.970   5.292
  139DPPC    C5 6905   9.002   4.068   5.377
  139DPPC    C6 6906   9.083   4.173   5.300
  139DPPC    O7 6907   9.153   4.257   5.394
  139DPPC    P8 6908   9.190   4.397   5.325
  139DPPC    O9 6909   9.222   4.501   5.426
  139DPPC   O10 6910   9.092   4.425   5.218
  139DPPC   O11 6911   9.319   4.353   5.240
  139DPPC   C12 6912   9.336   4.432   5.123
  139DPPC   C13 6913   9.402   4.357   5.007
  139DPPC   O14 6914   9.449   4.440   4.900
  139DPPC   C15 6915   9.562   4.516   4.910
  139DPPC   O16 6916   9.627   4.514   5.014
  139DPPC   C17 6917   9.575   4.626   4.805
  139DPPC   C18 6918   9.664   4.584   4.688
  139DPPC   C19 6919   9.663   4.679   4.568
  139DPPC   C20 6920   9.700   4.608   4.438
  139DPPC   C21 6921   9.681   4.692   4.311
  139DPPC   C22 6922   9.661   4.590   4.199
  139DPPC   C23 6923   9.670   4.664   4.065
  139DPPC   C24 6924   9.676   4.563   3.951
  139DPPC   C25 6925   9.684   4.632   3.815
  139DPPC   C26 6926   9.688   4.521   3.710
  139DPPC   C27 6927   9.744   4.571   3.577
  139DPPC   C28 6928   9.663   4.679   3.505
  139DPPC   C29 6929   9.742   4.703   3.376
  139DPPC   C30 6930   9.669   4.803   3.286
  139DPPC   C31 6931   9.730   4.818   3.147
  139DPPC   C32 6932   9.303   4.245   4.977
  139DPPC   O33 6933   9.364   4.119   4.949
  139DPPC   C34 6934   9.281   4.011   4.952
  139DPPC   O35 6935   9.168   4.032   4.996
  139DPPC   C36 6936   9.322   3.875   4.897
  139DPPC   C37 6937   9.286   3.877   4.748
  139DPPC   C38 6938   9.334   3.754   4.669
  139DPPC   C39 6939   9.288   3.783   4.526
  139DPPC   C40 6940   9.291   3.672   4.421
  139DPPC   C41 6941   9.234   3.723   4.288
  139DPPC   C42 6942   9.201   3.597   4.208
  139DPPC   C43 6943   9.179   3.630   4.060
  139DPPC   C44 6944   9.062   3.724   4.033
  139DPPC   C45 6945   9.034   3.729   3.883
  139DPPC   C46 6946   9.117   3.822   3.794
  139DPPC   C47 6947   9.097   3.791   3.645
  139DPPC   C48 6948   9.167   3.888   3.550
  139DPPC   C49 6949   9.145   3.830   3.410
  139DPPC   C50 6950   9.218   3.912   3.303
  140DPPC    C1 6951   0.117   2.511   5.247
  140DPPC    C2 6952   0.250   2.637   5.416
  140DPPC    C3 6953   0.093   2.732   5.290
  140DPPC    N4 6954   0.118   2.605   5.360
  140DPPC    C5 6955   0.029   2.583   5.475
  140DPPC    C6 6956  -0.114   2.530   5.457
  140DPPC    O7 6957  -0.188   2.623   5.377
  140DPPC    P8 6958  -0.343   2.591   5.352
  140DPPC    O9 6959  -0.389   2.719   5.293
  140DPPC   O10 6960  -0.405   2.535   5.475
  140DPPC   O11 6961  -0.329   2.483   5.234
  140DPPC   C12 6962  -0.288   2.534   5.107
  140DPPC   C13 6963  -0.295   2.420   5.004
  140DPPC   O14 6964  -0.196   2.415   4.900
  140DPPC   C15 6965  -0.071   2.365   4.914
  140DPPC   O16 6966  -0.017   2.322   5.017
  140DPPC   C17 6967  -0.008   2.326   4.780
  140DPPC   C18 6968   0.044   2.450   4.707
  140DPPC   C19 6969   0.078   2.412   4.562
  140DPPC   C20 6970   0.210   2.474   4.515
  140DPPC   C21 6971   0.237   2.461   4.365
  140DPPC   C22 6972   0.371   2.526   4.330
  140DPPC   C23 6973   0.449   2.456   4.218
  140DPPC   C24 6974   0.369   2.455   4.088
  140DPPC   C25 6975   0.453   2.424   3.964
  140DPPC   C26 6976   0.390   2.392   3.828
  140DPPC   C27 6977   0.496   2.372   3.719
  140DPPC   C28 6978   0.438   2.329   3.584
  140DPPC   C29 6979   0.328   2.223   3.595
  140DPPC   C30 6980   0.310   2.156   3.458
  140DPPC   C31 6981   0.211   2.040   3.471
  140DPPC   C32 6982  -0.436   2.439   4.947
  140DPPC   O33 6983  -0.461   2.575   4.913
  140DPPC   C34 6984  -0.547   2.610   4.813
  140DPPC   O35 6985  -0.564   2.544   4.710
  140DPPC   C36 6986  -0.611   2.749   4.821
  140DPPC   C37 6987  -0.756   2.700   4.828
  140DPPC   C38 6988  -0.836   2.781   4.727
  140DPPC   C39 6989  -0.987   2.763   4.751
  140DPPC   C40 6990  -1.045   2.880   4.671
  140DPPC   C41 6991  -1.013   2.867   4.522
  140DPPC   C42 6992  -1.056   2.989   4.439
  140DPPC   C43 6993  -1.033   2.967   4.290
  140DPPC   C44 6994  -1.097   3.075   4.203
  140DPPC   C45 6995  -1.072   3.034   4.058
  140DPPC   C46 6996  -1.136   2.897   4.031
  140DPPC   C47 6997  -1.079   2.850   3.898
  140DPPC   C48 6998  -1.178   2.867   3.782
  140DPPC   C49 6999  -1.156   2.760   3.675
  140DPPC   C50 7000  -1.022   2.798   3.610
  141DPPC    C1 7001   5.802   1.821   6.139
  141DPPC    C2 7002   5.648   1.688   6.029
  141DPPC    C3 7003   5.569   1.891   6.096
  141DPPC    N4 7004   5.690   1.828   6.044
  141DPPC    C5 7005   5.719   1.880   5.909
  141DPPC    C6 7006   5.763   2.027   5.905
  141DPPC    O7 7007   5.650   2.115   5.907
  141DPPC    P8 7008   5.695   2.253   5.838
  141DPPC    O9 7009   5.823   2.284   5.905
  141DPPC   O10 7010   5.574   2.339   5.841
  141DPPC   O11 7011   5.713   2.209   5.684
  141DPPC   C12 7012   5.596   2.171   5.612
  141DPPC   C13 7013   5.620   2.162   5.461
  141DPPC   O14 7014   5.702   2.060   5.401
  141DPPC   C15 7015   5.626   1.962   5.346
  141DPPC   O16 7016   5.505   1.949   5.357
  141DPPC   C17 7017   5.711   1.848   5.289
  141DPPC   C18 7018   5.719   1.862   5.137
  141DPPC   C19 7019   5.790   1.744   5.071
  141DPPC   C20 7020   5.724   1.715   4.936
  141DPPC   C21 7021   5.573   1.698   4.959
  141DPPC   C22 7022   5.494   1.644   4.839
  141DPPC   C23 7023   5.503   1.739   4.720
  141DPPC   C24 7024   5.452   1.675   4.591
  141DPPC   C25 7025   5.510   1.536   4.566
  141DPPC   C26 7026   5.469   1.481   4.429
  141DPPC   C27 7027   5.562   1.541   4.323
  141DPPC   C28 7028   5.528   1.487   4.184
  141DPPC   C29 7029   5.387   1.536   4.150
  141DPPC   C30 7030   5.379   1.671   4.079
  141DPPC   C31 7031   5.237   1.727   4.067
  141DPPC   C32 7032   5.677   2.299   5.424
  141DPPC   O33 7033   5.582   2.406   5.429
  141DPPC   C34 7034   5.630   2.532   5.414
  141DPPC   O35 7035   5.751   2.543   5.432
  141DPPC   C36 7036   5.534   2.650   5.394
  141DPPC   C37 7037   5.500   2.682   5.248
  141DPPC   C38 7038   5.441   2.565   5.171
  141DPPC   C39 7039   5.398   2.619   5.034
  141DPPC   C40 7040   5.517   2.652   4.944
  141DPPC   C41 7041   5.471   2.699   4.807
  141DPPC   C42 7042   5.583   2.689   4.703
  141DPPC   C43 7043   5.538   2.726   4.562
  141DPPC   C44 7044   5.418   2.638   4.529
  141DPPC   C45 7045   5.364   2.679   4.392
  141DPPC   C46 7046   5.306   2.820   4.393
  141DPPC   C47 7047   5.268   2.866   4.252
  141DPPC   C48 7048   5.377   2.879   4.146
  141DPPC   C49 7049   5.315   2.918   4.011
  141DPPC   C50 7050   5.210   2.821   3.957
  142DPPC    C1 7051   1.515   6.081   4.840
  142DPPC    C2 7052   1.523   6.312   4.868
  142DPPC    C3 7053   1.570   6.223   4.658
  142DPPC    N4 7054   1.481   6.208   4.773
  142DPPC    C5 7055   1.342   6.195   4.728
  142DPPC    C6 7056   1.259   6.322   4.708
  142DPPC    O7 7057   1.296   6.404   4.597
  142DPPC    P8 7058   1.245   6.556   4.618
  142DPPC    O9 7059   1.333   6.641   4.535
  142DPPC   O10 7060   1.224   6.579   4.763
  142DPPC   O11 7061   1.103   6.546   4.542
  142DPPC   C12 7062   1.120   6.507   4.405
  142DPPC   C13 7063   0.993   6.533   4.323
  142DPPC   O14 7064   0.988   6.448   4.208
  142DPPC   C15 7065   0.871   6.438   4.140
  142DPPC   O16 7066   0.760   6.467   4.184
  142DPPC   C17 7067   0.885   6.360   4.009
  142DPPC   C18 7068   0.779   6.392   3.902
  142DPPC   C19 7069   0.824   6.305   3.784
  142DPPC   C20 7070   0.726   6.281   3.670
  142DPPC   C21 7071   0.597   6.224   3.731
  142DPPC   C22 7072   0.615   6.077   3.768
  142DPPC   C23 7073   0.485   6.036   3.837
  142DPPC   C24 7074   0.489   5.900   3.907
  142DPPC   C25 7075   0.356   5.825   3.915
  142DPPC   C26 7076   0.259   5.923   3.982
  142DPPC   C27 7077   0.122   5.857   4.003
  142DPPC   C28 7078   0.016   5.944   4.069
  142DPPC   C29 7079  -0.117   5.869   4.086
  142DPPC   C30 7080  -0.122   5.734   4.157
  142DPPC   C31 7081  -0.249   5.652   4.135
  142DPPC   C32 7082   0.987   6.682   4.290
  142DPPC   O33 7083   1.097   6.747   4.225
  142DPPC   C34 7084   1.060   6.874   4.193
  142DPPC   O35 7085   0.974   6.938   4.252
  142DPPC   C36 7086   1.171   6.939   4.109
  142DPPC   C37 7087   1.149   7.089   4.095
  142DPPC   C38 7088   1.039   7.125   3.994
  142DPPC   C39 7089   1.034   7.269   3.944
  142DPPC   C40 7090   0.920   7.299   3.846
  142DPPC   C41 7091   0.924   7.206   3.725
  142DPPC   C42 7092   0.854   7.268   3.604
  142DPPC   C43 7093   0.710   7.283   3.654
  142DPPC   C44 7094   0.624   7.369   3.560
  142DPPC   C45 7095   0.690   7.507   3.562
  142DPPC   C46 7096   0.625   7.590   3.451
  142DPPC   C47 7097   0.685   7.730   3.444
  142DPPC   C48 7098   0.634   7.821   3.332
  142DPPC   C49 7099   0.697   7.772   3.202
  142DPPC   C50 7100   0.845   7.808   3.190
  143DPPC    C1 7101   0.265   0.075   5.128
  143DPPC    C2 7102   0.085   0.219   5.212
  143DPPC    C3 7103   0.303   0.236   5.300
  143DPPC    N4 7104   0.227   0.208   5.178
  143DPPC    C5 7105   0.258   0.305   5.072
  143DPPC    C6 7106   0.219   0.453   5.077
  143DPPC    O7 7107   0.331   0.527   5.126
  143DPPC    P8 7108   0.283   0.679   5.150
  143DPPC    O9 7109   0.406   0.754   5.182
  143DPPC   O10 7110   0.173   0.664   5.248
  143DPPC   O11 7111   0.253   0.705   4.994
  143DPPC   C12 7112   0.347   0.796   4.935
  143DPPC   C13 7113   0.330   0.843   4.791
  143DPPC   O14 7114   0.241   0.955   4.783
  143DPPC   C15 7115   0.295   1.079   4.789
  143DPPC   O16 7116   0.401   1.095   4.848
  143DPPC   C17 7117   0.220   1.195   4.721
  143DPPC   C18 7118   0.116   1.144   4.621
  143DPPC   C19 7119  -0.022   1.176   4.679
  143DPPC   C20 7120  -0.138   1.141   4.586
  143DPPC   C21 7121  -0.186   1.266   4.512
  143DPPC   C22 7122  -0.316   1.239   4.436
  143DPPC   C23 7123  -0.284   1.118   4.349
  143DPPC   C24 7124  -0.416   1.078   4.282
  143DPPC   C25 7125  -0.462   1.183   4.181
  143DPPC   C26 7126  -0.599   1.159   4.119
  143DPPC   C27 7127  -0.628   1.273   4.021
  143DPPC   C28 7128  -0.541   1.290   3.896
  143DPPC   C29 7129  -0.570   1.166   3.811
  143DPPC   C30 7130  -0.482   1.173   3.686
  143DPPC   C31 7131  -0.536   1.298   3.616
  143DPPC   C32 7132   0.309   0.718   4.705
  143DPPC   O33 7133   0.259   0.740   4.572
  143DPPC   C34 7134   0.225   0.627   4.506
  143DPPC   O35 7135   0.174   0.538   4.574
  143DPPC   C36 7136   0.181   0.648   4.361
  143DPPC   C37 7137   0.113   0.522   4.307
  143DPPC   C38 7138   0.043   0.534   4.171
  143DPPC   C39 7139  -0.073   0.633   4.188
  143DPPC   C40 7140  -0.154   0.655   4.060
  143DPPC   C41 7141  -0.062   0.720   3.956
  143DPPC   C42 7142  -0.089   0.644   3.826
  143DPPC   C43 7143  -0.008   0.698   3.708
  143DPPC   C44 7144  -0.020   0.847   3.679
  143DPPC   C45 7145   0.071   0.867   3.557
  143DPPC   C46 7146   0.106   1.011   3.520
  143DPPC   C47 7147   0.195   1.004   3.396
  143DPPC   C48 7148   0.241   1.138   3.339
  143DPPC   C49 7149   0.142   1.248   3.301
  143DPPC   C50 7150   0.211   1.370   3.238
  144DPPC    C1 7151   8.663   0.302   5.580
  144DPPC    C2 7152   8.866   0.418   5.631
  144DPPC    C3 7153   8.861   0.187   5.569
  144DPPC    N4 7154   8.803   0.319   5.541
  144DPPC    C5 7155   8.815   0.354   5.399
  144DPPC    C6 7156   8.819   0.503   5.362
  144DPPC    O7 7157   8.708   0.587   5.393
  144DPPC    P8 7158   8.753   0.738   5.360
  144DPPC    O9 7159   8.887   0.735   5.422
  144DPPC   O10 7160   8.642   0.813   5.423
  144DPPC   O11 7161   8.747   0.733   5.199
  144DPPC   C12 7162   8.612   0.750   5.157
  144DPPC   C13 7163   8.596   0.708   5.011
  144DPPC   O14 7164   8.463   0.728   4.959
  144DPPC   C15 7165   8.443   0.851   4.904
  144DPPC   O16 7166   8.489   0.958   4.943
  144DPPC   C17 7167   8.319   0.866   4.815
  144DPPC   C18 7168   8.340   0.912   4.670
  144DPPC   C19 7169   8.436   0.814   4.603
  144DPPC   C20 7170   8.471   0.853   4.459
  144DPPC   C21 7171   8.343   0.835   4.378
  144DPPC   C22 7172   8.380   0.844   4.229
  144DPPC   C23 7173   8.472   0.965   4.212
  144DPPC   C24 7174   8.496   1.008   4.067
  144DPPC   C25 7175   8.378   1.053   3.981
  144DPPC   C26 7176   8.433   1.115   3.853
  144DPPC   C27 7177   8.505   1.018   3.758
  144DPPC   C28 7178   8.576   1.108   3.657
  144DPPC   C29 7179   8.633   1.035   3.535
  144DPPC   C30 7180   8.513   0.960   3.475
  144DPPC   C31 7181   8.558   0.908   3.338
  144DPPC   C32 7182   8.659   0.569   5.000
  144DPPC   O33 7183   8.654   0.514   4.868
  144DPPC   C34 7184   8.768   0.548   4.803
  144DPPC   O35 7185   8.863   0.592   4.868
  144DPPC   C36 7186   8.791   0.486   4.665
  144DPPC   C37 7187   8.662   0.470   4.585
  144DPPC   C38 7188   8.677   0.348   4.495
  144DPPC   C39 7189   8.555   0.355   4.403
  144DPPC   C40 7190   8.556   0.232   4.312
  144DPPC   C41 7191   8.475   0.246   4.182
  144DPPC   C42 7192   8.484   0.115   4.103
  144DPPC   C43 7193   8.367   0.115   4.004
  144DPPC   C44 7194   8.399   0.022   3.887
  144DPPC   C45 7195   8.263  -0.007   3.822
  144DPPC   C46 7196   8.200   0.123   3.769
  144DPPC   C47 7197   8.063   0.118   3.701
  144DPPC   C48 7198   8.041   0.242   3.613
  144DPPC   C49 7199   8.073   0.369   3.692
  144DPPC   C50 7200   8.047   0.498   3.614
  145DPPC    C1 7201   7.995   5.639   5.469
  145DPPC    C2 7202   8.244   5.655   5.500
  145DPPC    C3 7203   8.162   5.456   5.435
  145DPPC    N4 7204   8.130   5.599   5.426
  145DPPC    C5 7205   8.134   5.627   5.282
  145DPPC    C6 7206   8.156   5.775   5.245
  145DPPC    O7 7207   8.172   5.794   5.105
  145DPPC    P8 7208   8.176   5.952   5.073
  145DPPC    O9 7209   8.239   5.957   4.940
  145DPPC   O10 7210   8.239   6.016   5.191
  145DPPC   O11 7211   8.017   5.936   5.061
  145DPPC   C12 7212   7.991   5.904   4.924
  145DPPC   C13 7213   7.848   5.858   4.892
  145DPPC   O14 7214   7.848   5.793   4.764
  145DPPC   C15 7215   7.751   5.702   4.735
  145DPPC   O16 7216   7.671   5.674   4.824
  145DPPC   C17 7217   7.725   5.675   4.587
  145DPPC   C18 7218   7.616   5.778   4.555
  145DPPC   C19 7219   7.575   5.746   4.411
  145DPPC   C20 7220   7.436   5.684   4.419
  145DPPC   C21 7221   7.398   5.625   4.283
  145DPPC   C22 7222   7.368   5.748   4.197
  145DPPC   C23 7223   7.257   5.839   4.250
  145DPPC   C24 7224   7.267   5.977   4.185
  145DPPC   C25 7225   7.134   6.051   4.170
  145DPPC   C26 7226   7.175   6.190   4.121
  145DPPC   C27 7227   7.222   6.199   3.976
  145DPPC   C28 7228   7.106   6.171   3.880
  145DPPC   C29 7229   7.155   6.145   3.737
  145DPPC   C30 7230   7.237   6.016   3.735
  145DPPC   C31 7231   7.284   5.990   3.592
  145DPPC   C32 7232   7.746   5.967   4.923
  145DPPC   O33 7233   7.752   6.081   4.837
  145DPPC   C34 7234   7.642   6.159   4.854
  145DPPC   O35 7235   7.568   6.148   4.952
  145DPPC   C36 7236   7.598   6.231   4.727
  145DPPC   C37 7237   7.503   6.146   4.641
  145DPPC   C38 7238   7.447   6.223   4.521
  145DPPC   C39 7239   7.542   6.264   4.409
  145DPPC   C40 7240   7.471   6.343   4.298
  145DPPC   C41 7241   7.555   6.398   4.182
  145DPPC   C42 7242   7.605   6.270   4.114
  145DPPC   C43 7243   7.664   6.294   3.975
  145DPPC   C44 7244   7.554   6.354   3.888
  145DPPC   C45 7245   7.605   6.377   3.746
  145DPPC   C46 7246   7.490   6.448   3.674
  145DPPC   C47 7247   7.546   6.484   3.536
  145DPPC   C48 7248   7.575   6.358   3.453
  145DPPC   C49 7249   7.632   6.376   3.312
  145DPPC   C50 7250   7.768   6.443   3.330
  146DPPC    C1 7251   6.862   4.182   5.746
  146DPPC    C2 7252   7.063   4.196   5.878
  146DPPC    C3 7253   6.873   4.137   5.984
  146DPPC    N4 7254   6.940   4.120   5.854
  146DPPC    C5 7255   6.983   3.981   5.831
  146DPPC    C6 7256   6.875   3.887   5.776
  146DPPC    O7 7257   6.918   3.752   5.754
  146DPPC    P8 7258   6.795   3.656   5.717
  146DPPC    O9 7259   6.670   3.703   5.782
  146DPPC   O10 7260   6.840   3.515   5.719
  146DPPC   O11 7261   6.777   3.694   5.561
  146DPPC   C12 7262   6.863   3.613   5.481
  146DPPC   C13 7263   6.885   3.642   5.332
  146DPPC   O14 7264   6.989   3.735   5.299
  146DPPC   C15 7265   7.121   3.707   5.320
  146DPPC   O16 7266   7.158   3.637   5.415
  146DPPC   C17 7267   7.212   3.814   5.261
  146DPPC   C18 7268   7.146   3.899   5.153
  146DPPC   C19 7269   7.170   3.833   5.017
  146DPPC   C20 7270   7.323   3.832   5.009
  146DPPC   C21 7271   7.361   3.783   4.870
  146DPPC   C22 7272   7.302   3.887   4.774
  146DPPC   C23 7273   7.357   3.860   4.634
  146DPPC   C24 7274   7.509   3.880   4.621
  146DPPC   C25 7275   7.537   3.881   4.471
  146DPPC   C26 7276   7.529   3.738   4.418
  146DPPC   C27 7277   7.569   3.753   4.271
  146DPPC   C28 7278   7.501   3.878   4.215
  146DPPC   C29 7279   7.549   3.917   4.075
  146DPPC   C30 7280   7.481   4.049   4.037
  146DPPC   C31 7281   7.465   4.053   3.885
  146DPPC   C32 7282   6.758   3.695   5.264
  146DPPC   O33 7283   6.662   3.596   5.225
  146DPPC   C34 7284   6.559   3.647   5.153
  146DPPC   O35 7285   6.561   3.757   5.100
  146DPPC   C36 7286   6.437   3.554   5.153
  146DPPC   C37 7287   6.370   3.553   5.015
  146DPPC   C38 7288   6.280   3.436   4.977
  146DPPC   C39 7289   6.188   3.493   4.868
  146DPPC   C40 7290   6.256   3.524   4.734
  146DPPC   C41 7291   6.164   3.587   4.629
  146DPPC   C42 7292   6.232   3.606   4.493
  146DPPC   C43 7293   6.134   3.683   4.404
  146DPPC   C44 7294   6.165   3.643   4.259
  146DPPC   C45 7295   6.052   3.701   4.174
  146DPPC   C46 7296   6.065   3.633   4.038
  146DPPC   C47 7297   5.962   3.701   3.946
  146DPPC   C48 7298   5.953   3.648   3.803
  146DPPC   C49 7299   5.835   3.708   3.727
  146DPPC   C50 7300   5.703   3.667   3.793
  147DPPC    C1 7301   8.218   3.129   6.062
  147DPPC    C2 7302   8.072   2.940   6.066
  147DPPC    C3 7303   7.982   3.162   6.099
  147DPPC    N4 7304   8.083   3.082   6.029
  147DPPC    C5 7305   8.061   3.078   5.883
  147DPPC    C6 7306   8.070   3.210   5.807
  147DPPC    O7 7307   7.972   3.313   5.822
  147DPPC    P8 7308   8.049   3.453   5.803
  147DPPC    O9 7309   8.168   3.426   5.887
  147DPPC   O10 7310   7.962   3.571   5.819
  147DPPC   O11 7311   8.083   3.425   5.648
  147DPPC   C12 7312   7.961   3.469   5.587
  147DPPC   C13 7313   8.004   3.459   5.440
  147DPPC   O14 7314   7.911   3.526   5.354
  147DPPC   C15 7315   7.956   3.647   5.310
  147DPPC   O16 7316   8.052   3.697   5.368
  147DPPC   C17 7317   7.858   3.712   5.212
  147DPPC   C18 7318   7.884   3.670   5.067
  147DPPC   C19 7319   7.748   3.682   4.998
  147DPPC   C20 7320   7.769   3.645   4.851
  147DPPC   C21 7321   7.867   3.748   4.792
  147DPPC   C22 7322   7.888   3.715   4.644
  147DPPC   C23 7323   7.970   3.825   4.577
  147DPPC   C24 7324   7.973   3.779   4.431
  147DPPC   C25 7325   7.999   3.902   4.344
  147DPPC   C26 7326   8.011   3.868   4.196
  147DPPC   C27 7327   8.011   3.995   4.111
  147DPPC   C28 7328   7.890   4.083   4.143
  147DPPC   C29 7329   7.898   4.218   4.072
  147DPPC   C30 7330   7.760   4.286   4.080
  147DPPC   C31 7331   7.758   4.407   3.988
  147DPPC   C32 7332   8.036   3.311   5.418
  147DPPC   O33 7333   7.930   3.226   5.462
  147DPPC   C34 7334   7.953   3.093   5.474
  147DPPC   O35 7335   8.057   3.034   5.504
  147DPPC   C36 7336   7.826   3.010   5.502
  147DPPC   C37 7337   7.832   2.870   5.441
  147DPPC   C38 7338   7.833   2.866   5.289
  147DPPC   C39 7339   7.808   2.724   5.238
  147DPPC   C40 7340   7.816   2.731   5.086
  147DPPC   C41 7341   7.713   2.818   5.013
  147DPPC   C42 7342   7.740   2.805   4.862
  147DPPC   C43 7343   7.626   2.884   4.798
  147DPPC   C44 7344   7.636   2.864   4.647
  147DPPC   C45 7345   7.519   2.941   4.586
  147DPPC   C46 7346   7.513   2.941   4.433
  147DPPC   C47 7347   7.382   3.012   4.399
  147DPPC   C48 7348   7.333   3.017   4.254
  147DPPC   C49 7349   7.184   3.045   4.232
  147DPPC   C50 7350   7.143   3.048   4.085
  148DPPC    C1 7351   2.598   6.556   5.348
  148DPPC    C2 7352   2.822   6.580   5.412
  148DPPC    C3 7353   2.754   6.608   5.181
  148DPPC    N4 7354   2.719   6.635   5.322
  148DPPC    C5 7355   2.711   6.778   5.352
  148DPPC    C6 7356   2.793   6.884   5.277
  148DPPC    O7 7357   2.933   6.858   5.269
  148DPPC    P8 7358   3.020   6.992   5.293
  148DPPC    O9 7359   3.161   6.951   5.281
  148DPPC   O10 7360   2.982   7.058   5.420
  148DPPC   O11 7361   2.959   7.068   5.165
  148DPPC   C12 7362   3.018   7.042   5.038
  148DPPC   C13 7363   2.926   7.086   4.924
  148DPPC   O14 7364   2.960   7.018   4.803
  148DPPC   C15 7365   2.938   6.886   4.778
  148DPPC   O16 7366   2.871   6.821   4.859
  148DPPC   C17 7367   2.995   6.822   4.652
  148DPPC   C18 7368   2.900   6.733   4.571
  148DPPC   C19 7369   2.963   6.658   4.453
  148DPPC   C20 7370   3.051   6.767   4.391
  148DPPC   C21 7371   3.147   6.687   4.302
  148DPPC   C22 7372   3.205   6.778   4.194
  148DPPC   C23 7373   3.110   6.861   4.108
  148DPPC   C24 7374   3.189   6.933   3.999
  148DPPC   C25 7375   3.248   6.840   3.893
  148DPPC   C26 7376   3.292   6.919   3.770
  148DPPC   C27 7377   3.404   6.837   3.705
  148DPPC   C28 7378   3.474   6.913   3.592
  148DPPC   C29 7379   3.563   6.819   3.511
  148DPPC   C30 7380   3.616   6.890   3.386
  148DPPC   C31 7381   3.740   6.806   3.351
  148DPPC   C32 7382   2.942   7.238   4.927
  148DPPC   O33 7383   3.074   7.290   4.947
  148DPPC   C34 7384   3.074   7.426   4.961
  148DPPC   O35 7385   2.966   7.484   4.959
  148DPPC   C36 7386   3.202   7.509   4.950
  148DPPC   C37 7387   3.242   7.569   4.815
  148DPPC   C38 7388   3.366   7.657   4.828
  148DPPC   C39 7389   3.439   7.679   4.695
  148DPPC   C40 7390   3.488   7.542   4.647
  148DPPC   C41 7391   3.547   7.559   4.507
  148DPPC   C42 7392   3.655   7.667   4.499
  148DPPC   C43 7393   3.703   7.680   4.355
  148DPPC   C44 7394   3.818   7.589   4.311
  148DPPC   C45 7395   3.864   7.619   4.168
  148DPPC   C46 7396   3.926   7.494   4.105
  148DPPC   C47 7397   3.952   7.531   3.958
  148DPPC   C48 7398   4.033   7.427   3.880
  148DPPC   C49 7399   4.045   7.467   3.733
  148DPPC   C50 7400   4.138   7.370   3.659
  149DPPC    C1 7401   5.161   0.562   5.176
  149DPPC    C2 7402   5.223   0.617   4.951
  149DPPC    C3 7403   5.060   0.735   5.077
  149DPPC    N4 7404   5.193   0.672   5.084
  149DPPC    C5 7405   5.288   0.772   5.133
  149DPPC    C6 7406   5.376   0.751   5.256
  149DPPC    O7 7407   5.470   0.853   5.294
  149DPPC    P8 7408   5.585   0.798   5.392
  149DPPC    O9 7409   5.544   0.666   5.444
  149DPPC   O10 7410   5.655   0.901   5.473
  149DPPC   O11 7411   5.675   0.736   5.274
  149DPPC   C12 7412   5.766   0.835   5.223
  149DPPC   C13 7413   5.791   0.820   5.073
  149DPPC   O14 7414   5.909   0.891   5.031
  149DPPC   C15 7415   6.018   0.840   4.969
  149DPPC   O16 7416   6.046   0.721   4.982
  149DPPC   C17 7417   6.116   0.946   4.919
  149DPPC   C18 7418   6.100   0.954   4.767
  149DPPC   C19 7419   6.211   1.033   4.698
  149DPPC   C20 7420   6.206   1.014   4.546
  149DPPC   C21 7421   6.291   1.108   4.461
  149DPPC   C22 7422   6.302   1.040   4.324
  149DPPC   C23 7423   6.381   1.137   4.237
  149DPPC   C24 7424   6.411   1.085   4.096
  149DPPC   C25 7425   6.515   1.189   4.053
  149DPPC   C26 7426   6.503   1.251   3.914
  149DPPC   C27 7427   6.624   1.344   3.906
  149DPPC   C28 7428   6.620   1.414   3.770
  149DPPC   C29 7429   6.719   1.532   3.768
  149DPPC   C30 7430   6.702   1.620   3.645
  149DPPC   C31 7431   6.573   1.703   3.640
  149DPPC   C32 7432   5.656   0.844   5.005
  149DPPC   O33 7433   5.655   0.833   4.863
  149DPPC   C34 7434   5.535   0.879   4.819
  149DPPC   O35 7435   5.431   0.882   4.884
  149DPPC   C36 7436   5.522   0.887   4.666
  149DPPC   C37 7437   5.535   1.030   4.614
  149DPPC   C38 7438   5.534   1.047   4.462
  149DPPC   C39 7439   5.654   1.009   4.374
  149DPPC   C40 7440   5.652   1.054   4.228
  149DPPC   C41 7441   5.771   1.000   4.149
  149DPPC   C42 7442   5.883   1.097   4.111
  149DPPC   C43 7443   5.807   1.211   4.044
  149DPPC   C44 7444   5.880   1.259   3.919
  149DPPC   C45 7445   5.804   1.379   3.862
  149DPPC   C46 7446   5.849   1.436   3.728
  149DPPC   C47 7447   5.766   1.556   3.681
  149DPPC   C48 7448   5.616   1.533   3.661
  149DPPC   C49 7449   5.542   1.666   3.645
  149DPPC   C50 7450   5.389   1.661   3.639
  150DPPC    C1 7451   4.648   0.967   5.783
  150DPPC    C2 7452   4.781   0.793   5.711
  150DPPC    C3 7453   4.690   0.953   5.552
  150DPPC    N4 7454   4.751   0.935   5.684
  150DPPC    C5 7455   4.860   1.032   5.700
  150DPPC    C6 7456   4.988   1.017   5.617
  150DPPC    O7 7457   4.980   1.048   5.478
  150DPPC    P8 7458   5.113   1.022   5.390
  150DPPC    O9 7459   5.140   0.883   5.434
  150DPPC   O10 7460   5.214   1.127   5.415
  150DPPC   O11 7461   5.047   1.019   5.244
  150DPPC   C12 7462   5.002   1.153   5.225
  150DPPC   C13 7463   4.873   1.186   5.149
  150DPPC   O14 7464   4.747   1.149   5.208
  150DPPC   C15 7465   4.662   1.251   5.235
  150DPPC   O16 7466   4.690   1.367   5.206
  150DPPC   C17 7467   4.520   1.216   5.280
  150DPPC   C18 7468   4.420   1.312   5.217
  150DPPC   C19 7469   4.340   1.228   5.117
  150DPPC   C20 7470   4.232   1.315   5.053
  150DPPC   C21 7471   4.136   1.244   4.958
  150DPPC   C22 7472   4.042   1.348   4.897
  150DPPC   C23 7473   3.910   1.271   4.880
  150DPPC   C24 7474   3.800   1.351   4.810
  150DPPC   C25 7475   3.687   1.260   4.761
  150DPPC   C26 7476   3.589   1.344   4.679
  150DPPC   C27 7477   3.471   1.250   4.650
  150DPPC   C28 7478   3.354   1.346   4.630
  150DPPC   C29 7479   3.233   1.281   4.563
  150DPPC   C30 7480   3.280   1.245   4.422
  150DPPC   C31 7481   3.167   1.163   4.358
  150DPPC   C32 7482   4.889   1.125   5.009
  150DPPC   O33 7483   5.007   1.162   4.937
  150DPPC   C34 7484   5.058   1.083   4.839
  150DPPC   O35 7485   5.020   0.966   4.835
  150DPPC   C36 7486   5.158   1.146   4.742
  150DPPC   C37 7487   5.090   1.181   4.609
  150DPPC   C38 7488   5.176   1.268   4.517
  150DPPC   C39 7489   5.107   1.300   4.384
  150DPPC   C40 7490   5.092   1.179   4.292
  150DPPC   C41 7491   5.011   1.228   4.172
  150DPPC   C42 7492   4.968   1.119   4.074
  150DPPC   C43 7493   4.836   1.151   4.002
  150DPPC   C44 7494   4.723   1.180   4.101
  150DPPC   C45 7495   4.589   1.188   4.028
  150DPPC   C46 7496   4.492   1.268   4.116
  150DPPC   C47 7497   4.351   1.237   4.067
  150DPPC   C48 7498   4.354   1.270   3.918
  150DPPC   C49 7499   4.212   1.274   3.861
  150DPPC   C50 7500   4.212   1.320   3.715
  151DPPC    C1 7501   0.944   0.973   5.061
  151DPPC    C2 7502   1.072   0.814   4.945
  151DPPC    C3 7503   0.964   0.756   5.152
  151DPPC    N4 7504   0.951   0.831   5.026
  151DPPC    C5 7505   0.840   0.800   4.934
  151DPPC    C6 7506   0.753   0.680   4.973
  151DPPC    O7 7507   0.660   0.638   4.873
  151DPPC    P8 7508   0.630   0.481   4.888
  151DPPC    O9 7509   0.494   0.435   4.851
  151DPPC   O10 7510   0.702   0.433   5.008
  151DPPC   O11 7511   0.712   0.458   4.751
  151DPPC   C12 7512   0.618   0.474   4.644
  151DPPC   C13 7513   0.671   0.502   4.503
  151DPPC   O14 7514   0.709   0.388   4.424
  151DPPC   C15 7515   0.825   0.321   4.444
  151DPPC   O16 7516   0.902   0.345   4.538
  151DPPC   C17 7517   0.846   0.206   4.346
  151DPPC   C18 7518   0.883   0.250   4.204
  151DPPC   C19 7519   0.910   0.128   4.114
  151DPPC   C20 7520   0.992   0.165   3.991
  151DPPC   C21 7521   0.915   0.255   3.894
  151DPPC   C22 7522   0.806   0.181   3.817
  151DPPC   C23 7523   0.866   0.084   3.715
  151DPPC   C24 7524   0.760   0.004   3.639
  151DPPC   C25 7525   0.667   0.096   3.560
  151DPPC   C26 7526   0.569   0.028   3.464
  151DPPC   C27 7527   0.506   0.129   3.368
  151DPPC   C28 7528   0.429   0.236   3.446
  151DPPC   C29 7529   0.338   0.335   3.373
  151DPPC   C30 7530   0.298   0.456   3.457
  151DPPC   C31 7531   0.226   0.570   3.384
  151DPPC   C32 7532   0.772   0.617   4.514
  151DPPC   O33 7533   0.703   0.731   4.568
  151DPPC   C34 7534   0.773   0.845   4.591
  151DPPC   O35 7535   0.895   0.839   4.580
  151DPPC   C36 7536   0.697   0.977   4.602
  151DPPC   C37 7537   0.626   1.002   4.469
  151DPPC   C38 7538   0.477   1.035   4.468
  151DPPC   C39 7539   0.416   1.015   4.329
  151DPPC   C40 7540   0.265   1.030   4.315
  151DPPC   C41 7541   0.226   1.017   4.167
  151DPPC   C42 7542   0.079   1.058   4.158
  151DPPC   C43 7543   0.028   1.066   4.014
  151DPPC   C44 7544   0.124   1.169   3.954
  151DPPC   C45 7545   0.098   1.320   3.966
  151DPPC   C46 7546   0.180   1.406   3.870
  151DPPC   C47 7547   0.130   1.398   3.726
  151DPPC   C48 7548  -0.002   1.474   3.707
  151DPPC   C49 7549  -0.040   1.489   3.559
  151DPPC   C50 7550  -0.186   1.531   3.542
  152DPPC    C1 7551   4.819   1.881   5.932
  152DPPC    C2 7552   5.031   1.894   5.810
  152DPPC    C3 7553   4.965   1.690   5.890
  152DPPC    N4 7554   4.910   1.815   5.837
  152DPPC    C5 7555   4.843   1.795   5.707
  152DPPC    C6 7556   4.733   1.694   5.676
  152DPPC    O7 7557   4.602   1.731   5.631
  152DPPC    P8 7558   4.498   1.608   5.621
  152DPPC    O9 7559   4.400   1.605   5.731
  152DPPC   O10 7560   4.569   1.489   5.569
  152DPPC   O11 7561   4.413   1.693   5.514
  152DPPC   C12 7562   4.487   1.704   5.392
  152DPPC   C13 7563   4.410   1.782   5.286
  152DPPC   O14 7564   4.415   1.719   5.157
  152DPPC   C15 7565   4.288   1.712   5.108
  152DPPC   O16 7566   4.194   1.689   5.183
  152DPPC   C17 7567   4.279   1.688   4.957
  152DPPC   C18 7568   4.314   1.816   4.881
  152DPPC   C19 7569   4.462   1.853   4.860
  152DPPC   C20 7570   4.462   1.984   4.782
  152DPPC   C21 7571   4.601   2.048   4.775
  152DPPC   C22 7572   4.642   2.080   4.631
  152DPPC   C23 7573   4.776   2.153   4.638
  152DPPC   C24 7574   4.823   2.181   4.495
  152DPPC   C25 7575   4.745   2.305   4.452
  152DPPC   C26 7576   4.775   2.330   4.304
  152DPPC   C27 7577   4.747   2.206   4.218
  152DPPC   C28 7578   4.867   2.172   4.129
  152DPPC   C29 7579   4.847   2.047   4.043
  152DPPC   C30 7580   4.936   2.035   3.919
  152DPPC   C31 7581   4.855   2.119   3.820
  152DPPC   C32 7582   4.431   1.934   5.291
  152DPPC   O33 7583   4.571   1.960   5.279
  152DPPC   C34 7584   4.613   2.084   5.241
  152DPPC   O35 7585   4.537   2.177   5.218
  152DPPC   C36 7586   4.756   2.089   5.187
  152DPPC   C37 7587   4.781   1.964   5.103
  152DPPC   C38 7588   4.919   1.966   5.035
  152DPPC   C39 7589   4.924   1.844   4.942
  152DPPC   C40 7590   5.049   1.873   4.860
  152DPPC   C41 7591   5.074   1.768   4.751
  152DPPC   C42 7592   4.961   1.785   4.648
  152DPPC   C43 7593   4.985   1.705   4.520
  152DPPC   C44 7594   4.894   1.750   4.406
  152DPPC   C45 7595   4.906   1.655   4.288
  152DPPC   C46 7596   4.835   1.710   4.163
  152DPPC   C47 7597   4.855   1.622   4.040
  152DPPC   C48 7598   4.750   1.655   3.934
  152DPPC   C49 7599   4.766   1.560   3.816
  152DPPC   C50 7600   4.647   1.562   3.721
  153DPPC    C1 7601   1.985   1.358   5.485
  153DPPC    C2 7602   2.146   1.226   5.595
  153DPPC    C3 7603   1.914   1.168   5.582
  153DPPC    N4 7604   2.029   1.219   5.506
  153DPPC    C5 7605   2.033   1.152   5.375
  153DPPC    C6 7606   2.073   1.004   5.379
  153DPPC    O7 7607   2.210   0.983   5.414
  153DPPC    P8 7608   2.217   0.835   5.478
  153DPPC    O9 7609   2.079   0.800   5.519
  153DPPC   O10 7610   2.337   0.827   5.563
  153DPPC   O11 7611   2.249   0.762   5.338
  153DPPC   C12 7612   2.376   0.802   5.286
  153DPPC   C13 7613   2.445   0.702   5.192
  153DPPC   O14 7614   2.565   0.750   5.131
  153DPPC   C15 7615   2.651   0.663   5.071
  153DPPC   O16 7616   2.648   0.544   5.101
  153DPPC   C17 7617   2.744   0.710   4.958
  153DPPC   C18 7618   2.694   0.657   4.824
  153DPPC   C19 7619   2.785   0.691   4.705
  153DPPC   C20 7620   2.723   0.637   4.576
  153DPPC   C21 7621   2.851   0.623   4.492
  153DPPC   C22 7622   2.836   0.537   4.366
  153DPPC   C23 7623   2.956   0.543   4.272
  153DPPC   C24 7624   2.917   0.461   4.149
  153DPPC   C25 7625   2.984   0.500   4.018
  153DPPC   C26 7626   2.942   0.430   3.888
  153DPPC   C27 7627   3.010   0.495   3.768
  153DPPC   C28 7628   2.972   0.433   3.633
  153DPPC   C29 7629   2.988   0.507   3.499
  153DPPC   C30 7630   2.904   0.440   3.390
  153DPPC   C31 7631   2.970   0.307   3.351
  153DPPC   C32 7632   2.335   0.670   5.091
  153DPPC   O33 7633   2.365   0.577   4.986
  153DPPC   C34 7634   2.262   0.523   4.915
  153DPPC   O35 7635   2.148   0.554   4.949
  153DPPC   C36 7636   2.287   0.454   4.781
  153DPPC   C37 7637   2.196   0.480   4.661
  153DPPC   C38 7638   2.254   0.418   4.534
  153DPPC   C39 7639   2.149   0.416   4.423
  153DPPC   C40 7640   2.160   0.532   4.324
  153DPPC   C41 7641   2.047   0.524   4.222
  153DPPC   C42 7642   2.050   0.644   4.128
  153DPPC   C43 7643   1.905   0.648   4.078
  153DPPC   C44 7644   1.802   0.680   4.186
  153DPPC   C45 7645   1.666   0.660   4.120
  153DPPC   C46 7646   1.563   0.737   4.203
  153DPPC   C47 7647   1.598   0.886   4.194
  153DPPC   C48 7648   1.510   0.981   4.275
  153DPPC   C49 7649   1.542   1.119   4.217
  153DPPC   C50 7650   1.447   1.217   4.286
  154DPPC    C1 7651   9.055   7.669   5.383
  154DPPC    C2 7652   9.143   7.882   5.349
  154DPPC    C3 7653   9.001   7.785   5.184
  154DPPC    N4 7654   9.022   7.802   5.329
  154DPPC    C5 7655   8.904   7.850   5.402
  154DPPC    C6 7656   8.848   7.992   5.390
  154DPPC    O7 7657   8.769   8.007   5.271
  154DPPC    P8 7658   8.745   8.162   5.236
  154DPPC    O9 7659   8.722   8.237   5.362
  154DPPC   O10 7660   8.656   8.185   5.119
  154DPPC   O11 7661   8.896   8.186   5.186
  154DPPC   C12 7662   8.901   8.239   5.053
  154DPPC   C13 7663   9.037   8.297   5.011
  154DPPC   O14 7664   9.032   8.376   4.891
  154DPPC   C15 7665   9.138   8.449   4.847
  154DPPC   O16 7666   9.240   8.474   4.912
  154DPPC   C17 7667   9.111   8.510   4.710
  154DPPC   C18 7668   9.199   8.627   4.666
  154DPPC   C19 7669   9.146   8.702   4.544
  154DPPC   C20 7670   9.248   8.800   4.486
  154DPPC   C21 7671   9.254   8.771   4.336
  154DPPC   C22 7672   9.111   8.808   4.294
  154DPPC   C23 7673   9.100   8.801   4.141
  154DPPC   C24 7674   8.959   8.816   4.083
  154DPPC   C25 7675   8.960   8.756   3.943
  154DPPC   C26 7676   8.823   8.788   3.882
  154DPPC   C27 7677   8.786   8.713   3.753
  154DPPC   C28 7678   8.875   8.760   3.638
  154DPPC   C29 7679   8.843   8.685   3.509
  154DPPC   C30 7680   8.860   8.537   3.543
  154DPPC   C31 7681   8.841   8.447   3.421
  154DPPC   C32 7682   9.114   8.167   4.987
  154DPPC   O33 7683   9.053   8.072   4.899
  154DPPC   C34 7684   9.116   7.962   4.851
  154DPPC   O35 7685   9.232   7.929   4.876
  154DPPC   C36 7686   9.035   7.877   4.752
  154DPPC   C37 7687   8.961   7.960   4.647
  154DPPC   C38 7688   8.892   7.873   4.542
  154DPPC   C39 7689   8.804   7.944   4.439
  154DPPC   C40 7690   8.733   7.844   4.348
  154DPPC   C41 7691   8.606   7.898   4.282
  154DPPC   C42 7692   8.553   7.833   4.154
  154DPPC   C43 7693   8.660   7.806   4.048
  154DPPC   C44 7694   8.616   7.733   3.921
  154DPPC   C45 7695   8.747   7.708   3.845
  154DPPC   C46 7696   8.748   7.568   3.784
  154DPPC   C47 7697   8.878   7.552   3.704
  154DPPC   C48 7698   8.881   7.645   3.582
  154DPPC   C49 7699   9.026   7.647   3.532
  154DPPC   C50 7700   9.054   7.731   3.407
  155DPPC    C1 7701   3.647   4.189   6.389
  155DPPC    C2 7702   3.607   3.950   6.382
  155DPPC    C3 7703   3.449   4.102   6.467
  155DPPC    N4 7704   3.548   4.083   6.361
  155DPPC    C5 7705   3.510   4.117   6.223
  155DPPC    C6 7706   3.397   4.041   6.155
  155DPPC    O7 7707   3.368   4.104   6.030
  155DPPC    P8 7708   3.232   4.053   5.961
  155DPPC    O9 7709   3.178   4.170   5.889
  155DPPC   O10 7710   3.163   3.966   6.060
  155DPPC   O11 7711   3.311   3.955   5.861
  155DPPC   C12 7712   3.404   4.017   5.772
  155DPPC   C13 7713   3.452   3.923   5.661
  155DPPC   O14 7714   3.537   3.998   5.573
  155DPPC   C15 7715   3.652   3.944   5.523
  155DPPC   O16 7716   3.727   3.887   5.601
  155DPPC   C17 7717   3.698   4.002   5.389
  155DPPC   C18 7718   3.611   3.969   5.268
  155DPPC   C19 7719   3.678   4.029   5.144
  155DPPC   C20 7720   3.609   3.991   5.013
  155DPPC   C21 7721   3.672   4.083   4.908
  155DPPC   C22 7722   3.566   4.092   4.798
  155DPPC   C23 7723   3.633   4.172   4.687
  155DPPC   C24 7724   3.558   4.173   4.554
  155DPPC   C25 7725   3.661   4.222   4.452
  155DPPC   C26 7726   3.628   4.209   4.303
  155DPPC   C27 7727   3.757   4.203   4.221
  155DPPC   C28 7728   3.731   4.179   4.072
  155DPPC   C29 7729   3.689   4.287   3.972
  155DPPC   C30 7730   3.677   4.225   3.832
  155DPPC   C31 7731   3.660   4.346   3.740
  155DPPC   C32 7732   3.331   3.863   5.590
  155DPPC   O33 7733   3.355   3.759   5.495
  155DPPC   C34 7734   3.246   3.705   5.433
  155DPPC   O35 7735   3.134   3.727   5.478
  155DPPC   C36 7736   3.277   3.602   5.324
  155DPPC   C37 7737   3.327   3.658   5.191
  155DPPC   C38 7738   3.334   3.543   5.090
  155DPPC   C39 7739   3.348   3.598   4.948
  155DPPC   C40 7740   3.357   3.483   4.847
  155DPPC   C41 7741   3.330   3.534   4.705
  155DPPC   C42 7742   3.352   3.408   4.620
  155DPPC   C43 7743   3.382   3.457   4.478
  155DPPC   C44 7744   3.402   3.352   4.369
  155DPPC   C45 7745   3.453   3.402   4.234
  155DPPC   C46 7746   3.478   3.286   4.138
  155DPPC   C47 7747   3.529   3.326   3.999
  155DPPC   C48 7748   3.574   3.198   3.929
  155DPPC   C49 7749   3.603   3.234   3.783
  155DPPC   C50 7750   3.486   3.264   3.690
  156DPPC    C1 7751   7.338   2.706   6.004
  156DPPC    C2 7752   7.117   2.697   6.101
  156DPPC    C3 7753   7.182   2.874   5.958
  156DPPC    N4 7754   7.195   2.730   5.981
  156DPPC    C5 7755   7.162   2.656   5.857
  156DPPC    C6 7756   7.181   2.505   5.854
  156DPPC    O7 7757   7.102   2.455   5.745
  156DPPC    P8 7758   7.155   2.307   5.712
  156DPPC    O9 7759   7.068   2.244   5.609
  156DPPC   O10 7760   7.201   2.244   5.838
  156DPPC   O11 7761   7.282   2.348   5.623
  156DPPC   C12 7762   7.241   2.443   5.524
  156DPPC   C13 7763   7.350   2.483   5.424
  156DPPC   O14 7764   7.305   2.569   5.318
  156DPPC   C15 7765   7.299   2.701   5.348
  156DPPC   O16 7766   7.317   2.725   5.468
  156DPPC   C17 7767   7.261   2.801   5.239
  156DPPC   C18 7768   7.358   2.815   5.121
  156DPPC   C19 7769   7.274   2.898   5.022
  156DPPC   C20 7770   7.148   2.821   4.982
  156DPPC   C21 7771   7.044   2.897   4.900
  156DPPC   C22 7772   6.949   2.793   4.840
  156DPPC   C23 7773   6.847   2.865   4.752
  156DPPC   C24 7774   6.931   2.940   4.649
  156DPPC   C25 7775   6.863   3.020   4.538
  156DPPC   C26 7776   6.766   3.125   4.591
  156DPPC   C27 7777   6.779   3.267   4.535
  156DPPC   C28 7778   6.666   3.291   4.434
  156DPPC   C29 7779   6.696   3.416   4.351
  156DPPC   C30 7780   6.585   3.438   4.248
  156DPPC   C31 7781   6.608   3.563   4.161
  156DPPC   C32 7782   7.440   2.362   5.397
  156DPPC   O33 7783   7.379   2.241   5.353
  156DPPC   C34 7784   7.465   2.138   5.333
  156DPPC   O35 7785   7.577   2.138   5.385
  156DPPC   C36 7786   7.419   2.018   5.250
  156DPPC   C37 7787   7.538   1.965   5.170
  156DPPC   C38 7788   7.500   1.843   5.085
  156DPPC   C39 7789   7.411   1.883   4.967
  156DPPC   C40 7790   7.360   1.765   4.884
  156DPPC   C41 7791   7.265   1.810   4.774
  156DPPC   C42 7792   7.130   1.854   4.832
  156DPPC   C43 7793   7.039   1.923   4.731
  156DPPC   C44 7794   6.889   1.938   4.759
  156DPPC   C45 7795   6.834   2.024   4.645
  156DPPC   C46 7796   6.682   2.009   4.647
  156DPPC   C47 7797   6.620   2.056   4.515
  156DPPC   C48 7798   6.645   1.944   4.414
  156DPPC   C49 7799   6.598   1.983   4.273
  156DPPC   C50 7800   6.635   2.124   4.228
  157DPPC    C1 7801   0.231   1.034   5.255
  157DPPC    C2 7802   0.146   1.208   5.371
  157DPPC    C3 7803   0.386   1.177   5.365
  157DPPC    N4 7804   0.261   1.174   5.287
  157DPPC    C5 7805   0.278   1.245   5.159
  157DPPC    C6 7806   0.314   1.393   5.166
  157DPPC    O7 7807   0.223   1.486   5.226
  157DPPC    P8 7808   0.310   1.596   5.305
  157DPPC    O9 7809   0.389   1.513   5.398
  157DPPC   O10 7810   0.206   1.698   5.337
  157DPPC   O11 7811   0.406   1.658   5.192
  157DPPC   C12 7812   0.338   1.767   5.131
  157DPPC   C13 7813   0.414   1.825   5.012
  157DPPC   O14 7814   0.359   1.942   4.949
  157DPPC   C15 7815   0.355   2.059   5.019
  157DPPC   O16 7816   0.387   2.070   5.137
  157DPPC   C17 7817   0.307   2.179   4.937
  157DPPC   C18 7818   0.329   2.170   4.786
  157DPPC   C19 7819   0.471   2.210   4.742
  157DPPC   C20 7820   0.476   2.196   4.590
  157DPPC   C21 7821   0.483   2.048   4.552
  157DPPC   C22 7822   0.508   2.036   4.401
  157DPPC   C23 7823   0.509   1.892   4.348
  157DPPC   C24 7824   0.509   1.903   4.195
  157DPPC   C25 7825   0.403   2.002   4.145
  157DPPC   C26 7826   0.391   1.993   3.993
  157DPPC   C27 7827   0.392   1.848   3.945
  157DPPC   C28 7828   0.391   1.854   3.792
  157DPPC   C29 7829   0.373   1.709   3.745
  157DPPC   C30 7830   0.358   1.694   3.593
  157DPPC   C31 7831   0.363   1.550   3.544
  157DPPC   C32 7832   0.422   1.707   4.915
  157DPPC   O33 7833   0.290   1.662   4.882
  157DPPC   C34 7834   0.277   1.556   4.797
  157DPPC   O35 7835   0.367   1.474   4.782
  157DPPC   C36 7836   0.136   1.534   4.742
  157DPPC   C37 7837   0.054   1.660   4.715
  157DPPC   C38 7838   0.125   1.762   4.625
  157DPPC   C39 7839   0.034   1.886   4.621
  157DPPC   C40 7840   0.087   1.999   4.533
  157DPPC   C41 7841  -0.025   2.088   4.478
  157DPPC   C42 7842  -0.124   2.008   4.394
  157DPPC   C43 7843  -0.230   2.090   4.320
  157DPPC   C44 7844  -0.329   2.011   4.234
  157DPPC   C45 7845  -0.411   2.111   4.153
  157DPPC   C46 7846  -0.501   2.037   4.054
  157DPPC   C47 7847  -0.586   2.144   3.985
  157DPPC   C48 7848  -0.511   2.239   3.890
  157DPPC   C49 7849  -0.607   2.342   3.830
  157DPPC   C50 7850  -0.701   2.265   3.737
  158DPPC    C1 7851   2.830   0.855   5.374
  158DPPC    C2 7852   2.919   0.630   5.427
  158DPPC    C3 7853   2.994   0.736   5.248
  158DPPC    N4 7854   2.947   0.767   5.384
  158DPPC    C5 7855   3.043   0.825   5.480
  158DPPC    C6 7856   3.142   0.937   5.446
  158DPPC    O7 7857   3.094   1.070   5.463
  158DPPC    P8 7858   3.214   1.154   5.531
  158DPPC    O9 7859   3.276   1.065   5.632
  158DPPC   O10 7860   3.185   1.297   5.556
  158DPPC   O11 7861   3.319   1.147   5.409
  158DPPC   C12 7862   3.276   1.238   5.308
  158DPPC   C13 7863   3.387   1.275   5.209
  158DPPC   O14 7864   3.373   1.404   5.149
  158DPPC   C15 7865   3.487   1.472   5.123
  158DPPC   O16 7866   3.601   1.428   5.139
  158DPPC   C17 7867   3.473   1.557   4.997
  158DPPC   C18 7868   3.413   1.695   5.028
  158DPPC   C19 7869   3.405   1.789   4.907
  158DPPC   C20 7870   3.334   1.725   4.788
  158DPPC   C21 7871   3.340   1.814   4.664
  158DPPC   C22 7872   3.238   1.752   4.567
  158DPPC   C23 7873   3.262   1.788   4.421
  158DPPC   C24 7874   3.163   1.720   4.326
  158DPPC   C25 7875   3.191   1.759   4.181
  158DPPC   C26 7876   3.099   1.682   4.086
  158DPPC   C27 7877   3.149   1.710   3.944
  158DPPC   C28 7878   3.064   1.644   3.836
  158DPPC   C29 7879   3.108   1.678   3.693
  158DPPC   C30 7880   3.253   1.643   3.659
  158DPPC   C31 7881   3.296   1.723   3.536
  158DPPC   C32 7882   3.410   1.157   5.114
  158DPPC   O33 7883   3.294   1.104   5.048
  158DPPC   C34 7884   3.328   1.006   4.959
  158DPPC   O35 7885   3.440   0.959   4.945
  158DPPC   C36 7886   3.204   0.978   4.873
  158DPPC   C37 7887   3.144   0.842   4.908
  158DPPC   C38 7888   3.211   0.720   4.845
  158DPPC   C39 7889   3.123   0.596   4.832
  158DPPC   C40 7890   3.194   0.511   4.726
  158DPPC   C41 7891   3.217   0.590   4.597
  158DPPC   C42 7892   3.291   0.494   4.504
  158DPPC   C43 7893   3.329   0.563   4.373
  158DPPC   C44 7894   3.434   0.670   4.404
  158DPPC   C45 7895   3.518   0.713   4.284
  158DPPC   C46 7896   3.600   0.833   4.333
  158DPPC   C47 7897   3.692   0.888   4.224
  158DPPC   C48 7898   3.776   1.007   4.270
  158DPPC   C49 7899   3.876   1.052   4.163
  158DPPC   C50 7900   3.971   0.936   4.133
  159DPPC    C1 7901   3.479   8.299   4.778
  159DPPC    C2 7902   3.397   8.073   4.764
  159DPPC    C3 7903   3.558   8.128   4.923
  159DPPC    N4 7904   3.438   8.181   4.856
  159DPPC    C5 7905   3.320   8.205   4.940
  159DPPC    C6 7906   3.288   8.335   5.014
  159DPPC    O7 7907   3.225   8.436   4.934
  159DPPC    P8 7908   3.231   8.577   5.011
  159DPPC    O9 7909   3.230   8.540   5.154
  159DPPC   O10 7910   3.126   8.659   4.947
  159DPPC   O11 7911   3.377   8.615   4.953
  159DPPC   C12 7912   3.384   8.728   4.865
  159DPPC   C13 7913   3.525   8.760   4.813
  159DPPC   O14 7914   3.552   8.897   4.782
  159DPPC   C15 7915   3.565   8.998   4.873
  159DPPC   O16 7916   3.545   8.973   4.992
  159DPPC   C17 7917   3.585   9.139   4.819
  159DPPC   C18 7918   3.708   9.158   4.730
  159DPPC   C19 7919   3.729   9.302   4.685
  159DPPC   C20 7920   3.875   9.332   4.652
  159DPPC   C21 7921   3.894   9.477   4.608
  159DPPC   C22 7922   4.045   9.505   4.612
  159DPPC   C23 7923   4.124   9.488   4.481
  159DPPC   C24 7924   4.272   9.513   4.507
  159DPPC   C25 7925   4.351   9.514   4.376
  159DPPC   C26 7926   4.348   9.374   4.314
  159DPPC   C27 7927   4.398   9.381   4.170
  159DPPC   C28 7928   4.364   9.244   4.111
  159DPPC   C29 7929   4.446   9.205   3.988
  159DPPC   C30 7930   4.433   9.306   3.873
  159DPPC   C31 7931   4.299   9.320   3.801
  159DPPC   C32 7932   3.551   8.663   4.697
  159DPPC   O33 7933   3.461   8.675   4.587
  159DPPC   C34 7934   3.496   8.595   4.483
  159DPPC   O35 7935   3.592   8.518   4.484
  159DPPC   C36 7936   3.403   8.616   4.363
  159DPPC   C37 7937   3.484   8.667   4.244
  159DPPC   C38 7938   3.386   8.748   4.159
  159DPPC   C39 7939   3.459   8.803   4.036
  159DPPC   C40 7940   3.368   8.810   3.913
  159DPPC   C41 7941   3.450   8.873   3.800
  159DPPC   C42 7942   3.552   8.779   3.737
  159DPPC   C43 7943   3.612   8.859   3.621
  159DPPC   C44 7944   3.714   8.774   3.546
  159DPPC   C45 7945   3.761   8.838   3.415
  159DPPC   C46 7946   3.645   8.888   3.330
  159DPPC   C47 7947   3.710   8.999   3.247
  159DPPC   C48 7948   3.843   8.944   3.194
  159DPPC   C49 7949   3.911   9.065   3.131
  159DPPC   C50 7950   3.831   9.125   3.015
  160DPPC    C1 7951   0.974   3.532   5.657
  160DPPC    C2 7952   0.879   3.434   5.464
  160DPPC    C3 7953   0.977   3.637   5.438
  160DPPC    N4 7954   0.994   3.511   5.513
  160DPPC    C5 7955   1.118   3.436   5.486
  160DPPC    C6 7956   1.253   3.493   5.530
  160DPPC    O7 7957   1.368   3.424   5.482
  160DPPC    P8 7958   1.507   3.501   5.509
  160DPPC    O9 7959   1.610   3.401   5.548
  160DPPC   O10 7960   1.464   3.615   5.593
  160DPPC   O11 7961   1.520   3.546   5.355
  160DPPC   C12 7962   1.562   3.431   5.281
  160DPPC   C13 7963   1.583   3.447   5.130
  160DPPC   O14 7964   1.715   3.410   5.089
  160DPPC   C15 7965   1.730   3.290   5.026
  160DPPC   O16 7966   1.667   3.197   5.076
  160DPPC   C17 7967   1.860   3.278   4.946
  160DPPC   C18 7968   1.832   3.214   4.810
  160DPPC   C19 7969   1.966   3.216   4.737
  160DPPC   C20 7970   1.972   3.123   4.616
  160DPPC   C21 7971   1.981   2.975   4.653
  160DPPC   C22 7972   1.972   2.890   4.525
  160DPPC   C23 7973   1.843   2.919   4.447
  160DPPC   C24 7974   1.805   2.797   4.363
  160DPPC   C25 7975   1.674   2.817   4.288
  160DPPC   C26 7976   1.638   2.715   4.179
  160DPPC   C27 7977   1.733   2.712   4.059
  160DPPC   C28 7978   1.673   2.623   3.950
  160DPPC   C29 7979   1.774   2.637   3.836
  160DPPC   C30 7980   1.714   2.556   3.721
  160DPPC   C31 7981   1.794   2.533   3.592
  160DPPC   C32 7982   1.538   3.592   5.106
  160DPPC   O33 7983   1.518   3.634   4.971
  160DPPC   C34 7984   1.535   3.769   4.970
  160DPPC   O35 7985   1.570   3.828   5.072
  160DPPC   C36 7986   1.502   3.840   4.838
  160DPPC   C37 7987   1.491   3.733   4.730
  160DPPC   C38 7988   1.469   3.789   4.589
  160DPPC   C39 7989   1.415   3.676   4.501
  160DPPC   C40 7990   1.405   3.708   4.352
  160DPPC   C41 7991   1.320   3.603   4.280
  160DPPC   C42 7992   1.276   3.650   4.141
  160DPPC   C43 7993   1.190   3.547   4.069
  160DPPC   C44 7994   1.112   3.607   3.951
  160DPPC   C45 7995   1.162   3.562   3.813
  160DPPC   C46 7996   1.084   3.611   3.691
  160DPPC   C47 7997   1.144   3.542   3.569
  160DPPC   C48 7998   1.078   3.599   3.444
  160DPPC   C49 7999   1.128   3.541   3.311
  160DPPC   C50 8000   1.280   3.555   3.298
  161DPPC    C1 8001   4.623   5.722   5.659
  161DPPC    C2 8002   4.400   5.663   5.686
  161DPPC    C3 8003   4.494   5.858   5.808
  161DPPC    N4 8004   4.490   5.779   5.684
  161DPPC    C5 8005   4.476   5.858   5.561
  161DPPC    C6 8006   4.370   5.969   5.563
  161DPPC    O7 8007   4.377   6.038   5.438
  161DPPC    P8 8008   4.235   6.108   5.408
  161DPPC    O9 8009   4.241   6.255   5.411
  161DPPC   O10 8010   4.130   6.024   5.470
  161DPPC   O11 8011   4.252   6.080   5.251
  161DPPC   C12 8012   4.345   6.167   5.185
  161DPPC   C13 8013   4.379   6.116   5.045
  161DPPC   O14 8014   4.292   6.146   4.935
  161DPPC   C15 8015   4.261   6.274   4.903
  161DPPC   O16 8016   4.283   6.372   4.975
  161DPPC   C17 8017   4.175   6.304   4.780
  161DPPC   C18 8018   4.152   6.454   4.756
  161DPPC   C19 8019   4.080   6.471   4.622
  161DPPC   C20 8020   3.951   6.390   4.629
  161DPPC   C21 8021   3.896   6.391   4.486
  161DPPC   C22 8022   4.007   6.337   4.396
  161DPPC   C23 8023   3.960   6.273   4.266
  161DPPC   C24 8024   4.064   6.183   4.199
  161DPPC   C25 8025   4.017   6.147   4.058
  161DPPC   C26 8026   4.123   6.066   3.982
  161DPPC   C27 8027   4.054   6.011   3.857
  161DPPC   C28 8028   4.044   6.102   3.734
  161DPPC   C29 8029   4.014   6.021   3.608
  161DPPC   C30 8030   3.887   5.941   3.637
  161DPPC   C31 8031   3.763   6.027   3.610
  161DPPC   C32 8032   4.413   5.969   5.072
  161DPPC   O33 8033   4.505   5.899   4.988
  161DPPC   C34 8034   4.512   5.765   5.011
  161DPPC   O35 8035   4.447   5.713   5.102
  161DPPC   C36 8036   4.585   5.679   4.907
  161DPPC   C37 8037   4.542   5.721   4.766
  161DPPC   C38 8038   4.650   5.675   4.668
  161DPPC   C39 8039   4.621   5.744   4.535
  161DPPC   C40 8040   4.706   5.691   4.420
  161DPPC   C41 8041   4.698   5.769   4.288
  161DPPC   C42 8042   4.808   5.711   4.198
  161DPPC   C43 8043   4.806   5.772   4.058
  161DPPC   C44 8044   4.921   5.718   3.972
  161DPPC   C45 8045   5.049   5.795   4.002
  161DPPC   C46 8046   5.153   5.751   3.900
  161DPPC   C47 8047   5.288   5.822   3.918
  161DPPC   C48 8048   5.389   5.756   3.825
  161DPPC   C49 8049   5.531   5.806   3.855
  161DPPC   C50 8050   5.527   5.958   3.852
  162DPPC    C1 8051   6.154   6.167   5.082
  162DPPC    C2 8052   6.387   6.129   5.111
  162DPPC    C3 8053   6.266   6.225   5.292
  162DPPC    N4 8054   6.258   6.131   5.180
  162DPPC    C5 8055   6.247   5.997   5.240
  162DPPC    C6 8056   6.196   5.883   5.152
  162DPPC    O7 8057   6.272   5.852   5.035
  162DPPC    P8 8058   6.200   5.734   4.951
  162DPPC    O9 8059   6.086   5.822   4.916
  162DPPC   O10 8060   6.198   5.620   5.045
  162DPPC   O11 8061   6.319   5.729   4.842
  162DPPC   C12 8062   6.292   5.841   4.757
  162DPPC   C13 8063   6.404   5.885   4.663
  162DPPC   O14 8064   6.381   5.838   4.530
  162DPPC   C15 8065   6.291   5.911   4.458
  162DPPC   O16 8066   6.210   5.985   4.512
  162DPPC   C17 8067   6.304   5.913   4.306
  162DPPC   C18 8068   6.422   5.826   4.261
  162DPPC   C19 8069   6.451   5.847   4.112
  162DPPC   C20 8070   6.332   5.822   4.019
  162DPPC   C21 8071   6.371   5.832   3.872
  162DPPC   C22 8072   6.398   5.978   3.834
  162DPPC   C23 8073   6.443   5.979   3.688
  162DPPC   C24 8074   6.448   6.120   3.629
  162DPPC   C25 8075   6.531   6.130   3.501
  162DPPC   C26 8076   6.666   6.060   3.523
  162DPPC   C27 8077   6.735   6.084   3.388
  162DPPC   C28 8078   6.662   6.009   3.277
  162DPPC   C29 8079   6.634   5.859   3.294
  162DPPC   C30 8080   6.495   5.831   3.237
  162DPPC   C31 8081   6.490   5.836   3.084
  162DPPC   C32 8082   6.531   5.831   4.729
  162DPPC   O33 8083   6.651   5.885   4.673
  162DPPC   C34 8084   6.767   5.815   4.693
  162DPPC   O35 8085   6.761   5.721   4.772
  162DPPC   C36 8086   6.890   5.869   4.621
  162DPPC   C37 8087   6.930   5.785   4.499
  162DPPC   C38 8088   6.844   5.815   4.376
  162DPPC   C39 8089   6.909   5.753   4.252
  162DPPC   C40 8090   6.828   5.768   4.123
  162DPPC   C41 8091   6.908   5.717   4.003
  162DPPC   C42 8092   6.819   5.722   3.878
  162DPPC   C43 8093   6.889   5.669   3.753
  162DPPC   C44 8094   6.823   5.685   3.616
  162DPPC   C45 8095   6.912   5.638   3.500
  162DPPC   C46 8096   7.023   5.737   3.462
  162DPPC   C47 8097   7.107   5.679   3.349
  162DPPC   C48 8098   7.223   5.774   3.320
  162DPPC   C49 8099   7.175   5.865   3.206
  162DPPC   C50 8100   7.290   5.964   3.186
  163DPPC    C1 8101   6.131   5.129   1.239
  163DPPC    C2 8102   6.114   5.199   1.467
  163DPPC    C3 8103   5.960   5.041   1.366
  163DPPC    N4 8104   6.100   5.084   1.376
  163DPPC    C5 8105   6.195   4.981   1.418
  163DPPC    C6 8106   6.177   4.896   1.544
  163DPPC    O7 8107   6.291   4.816   1.577
  163DPPC    P8 8108   6.242   4.699   1.677
  163DPPC    O9 8109   6.355   4.615   1.723
  163DPPC   O10 8110   6.124   4.629   1.622
  163DPPC   O11 8111   6.178   4.789   1.794
  163DPPC   C12 8112   6.278   4.815   1.893
  163DPPC   C13 8113   6.230   4.932   1.978
  163DPPC   O14 8114   6.336   4.987   2.058
  163DPPC   C15 8115   6.435   5.058   1.998
  163DPPC   O16 8116   6.446   5.056   1.876
  163DPPC   C17 8117   6.553   5.107   2.083
  163DPPC   C18 8118   6.514   5.239   2.149
  163DPPC   C19 8119   6.633   5.288   2.232
  163DPPC   C20 8120   6.603   5.418   2.308
  163DPPC   C21 8121   6.708   5.423   2.419
  163DPPC   C22 8122   6.704   5.562   2.483
  163DPPC   C23 8123   6.567   5.612   2.528
  163DPPC   C24 8124   6.594   5.743   2.601
  163DPPC   C25 8125   6.642   5.853   2.506
  163DPPC   C26 8126   6.659   5.982   2.588
  163DPPC   C27 8127   6.750   5.953   2.707
  163DPPC   C28 8128   6.753   6.072   2.803
  163DPPC   C29 8129   6.862   6.064   2.910
  163DPPC   C30 8130   6.902   6.201   2.966
  163DPPC   C31 8131   7.007   6.201   3.077
  163DPPC   C32 8132   6.111   4.877   2.056
  163DPPC   O33 8133   6.036   4.990   2.102
  163DPPC   C34 8134   5.926   4.948   2.170
  163DPPC   O35 8135   5.904   4.827   2.169
  163DPPC   C36 8136   5.844   5.046   2.254
  163DPPC   C37 8137   5.867   5.046   2.405
  163DPPC   C38 8138   5.775   5.150   2.468
  163DPPC   C39 8139   5.801   5.159   2.619
  163DPPC   C40 8140   5.693   5.246   2.683
  163DPPC   C41 8141   5.692   5.224   2.834
  163DPPC   C42 8142   5.592   5.323   2.894
  163DPPC   C43 8143   5.590   5.330   3.046
  163DPPC   C44 8144   5.545   5.465   3.105
  163DPPC   C45 8145   5.580   5.471   3.253
  163DPPC   C46 8146   5.554   5.616   3.294
  163DPPC   C47 8147   5.579   5.644   3.442
  163DPPC   C48 8148   5.585   5.795   3.464
  163DPPC   C49 8149   5.682   5.848   3.358
  163DPPC   C50 8150   5.698   5.998   3.333
  164DPPC    C1 8151   2.542   2.248   2.225
  164DPPC    C2 8152   2.735   2.244   2.367
  164DPPC    C3 8153   2.647   2.041   2.294
  164DPPC    N4 8154   2.670   2.180   2.252
  164DPPC    C5 8155   2.754   2.174   2.132
  164DPPC    C6 8156   2.794   2.288   2.038
  164DPPC    O7 8157   2.884   2.374   2.107
  164DPPC    P8 8158   2.915   2.492   2.001
  164DPPC    O9 8159   2.779   2.526   1.954
  164DPPC   O10 8160   3.019   2.423   1.922
  164DPPC   O11 8161   2.985   2.595   2.103
  164DPPC   C12 8162   2.898   2.615   2.215
  164DPPC   C13 8163   2.981   2.682   2.325
  164DPPC   O14 8164   2.916   2.707   2.450
  164DPPC   C15 8165   2.921   2.601   2.535
  164DPPC   O16 8166   2.959   2.487   2.507
  164DPPC   C17 8167   2.847   2.608   2.669
  164DPPC   C18 8168   2.904   2.518   2.779
  164DPPC   C19 8169   2.829   2.526   2.912
  164DPPC   C20 8170   2.707   2.434   2.910
  164DPPC   C21 8171   2.609   2.472   3.021
  164DPPC   C22 8172   2.563   2.618   3.019
  164DPPC   C23 8173   2.422   2.613   3.076
  164DPPC   C24 8174   2.456   2.604   3.224
  164DPPC   C25 8175   2.330   2.617   3.311
  164DPPC   C26 8176   2.350   2.608   3.463
  164DPPC   C27 8177   2.220   2.612   3.543
  164DPPC   C28 8178   2.229   2.591   3.694
  164DPPC   C29 8179   2.319   2.695   3.760
  164DPPC   C30 8180   2.251   2.831   3.748
  164DPPC   C31 8181   2.337   2.946   3.801
  164DPPC   C32 8182   3.045   2.802   2.255
  164DPPC   O33 8183   2.953   2.907   2.223
  164DPPC   C34 8184   3.002   3.010   2.149
  164DPPC   O35 8185   3.120   3.011   2.114
  164DPPC   C36 8186   2.919   3.138   2.142
  164DPPC   C37 8187   2.922   3.202   2.281
  164DPPC   C38 8188   2.787   3.272   2.295
  164DPPC   C39 8189   2.771   3.361   2.419
  164DPPC   C40 8190   2.751   3.256   2.529
  164DPPC   C41 8191   2.726   3.330   2.660
  164DPPC   C42 8192   2.748   3.233   2.776
  164DPPC   C43 8193   2.723   3.297   2.912
  164DPPC   C44 8194   2.745   3.190   3.020
  164DPPC   C45 8195   2.741   3.250   3.161
  164DPPC   C46 8196   2.787   3.140   3.256
  164DPPC   C47 8197   2.818   3.205   3.391
  164DPPC   C48 8198   2.849   3.105   3.502
  164DPPC   C49 8199   2.741   3.014   3.560
  164DPPC   C50 8200   2.794   2.978   3.699
  165DPPC    C1 8201   0.109   3.380   1.235
  165DPPC    C2 8202   0.290   3.502   1.360
  165DPPC    C3 8203   0.076   3.589   1.337
  165DPPC    N4 8204   0.149   3.462   1.350
  165DPPC    C5 8205   0.100   3.387   1.467
  165DPPC    C6 8206   0.163   3.250   1.493
  165DPPC    O7 8207   0.084   3.140   1.446
  165DPPC    P8 8208   0.168   3.005   1.422
  165DPPC    O9 8209   0.272   3.061   1.332
  165DPPC   O10 8210   0.065   2.903   1.390
  165DPPC   O11 8211   0.220   2.990   1.573
  165DPPC   C12 8212   0.108   2.947   1.652
  165DPPC   C13 8213   0.111   2.999   1.796
  165DPPC   O14 8214   0.107   3.141   1.817
  165DPPC   C15 8215  -0.014   3.196   1.847
  165DPPC   O16 8216  -0.121   3.141   1.822
  165DPPC   C17 8217  -0.007   3.346   1.875
  165DPPC   C18 8218   0.064   3.383   2.005
  165DPPC   C19 8219  -0.018   3.352   2.131
  165DPPC   C20 8220   0.040   3.400   2.264
  165DPPC   C21 8221  -0.061   3.391   2.378
  165DPPC   C22 8222  -0.007   3.396   2.521
  165DPPC   C23 8223  -0.123   3.378   2.619
  165DPPC   C24 8224  -0.046   3.379   2.751
  165DPPC   C25 8225  -0.135   3.317   2.858
  165DPPC   C26 8226  -0.085   3.385   2.986
  165DPPC   C27 8227  -0.147   3.305   3.101
  165DPPC   C28 8228  -0.300   3.296   3.091
  165DPPC   C29 8229  -0.363   3.240   3.219
  165DPPC   C30 8230  -0.427   3.348   3.306
  165DPPC   C31 8231  -0.485   3.277   3.429
  165DPPC   C32 8232   0.240   2.940   1.855
  165DPPC   O33 8233   0.236   2.887   1.988
  165DPPC   C34 8234   0.192   2.760   2.004
  165DPPC   O35 8235   0.210   2.680   1.912
  165DPPC   C36 8236   0.201   2.715   2.150
  165DPPC   C37 8237   0.148   2.574   2.175
  165DPPC   C38 8238   0.189   2.551   2.321
  165DPPC   C39 8239   0.061   2.512   2.396
  165DPPC   C40 8240   0.079   2.525   2.547
  165DPPC   C41 8241  -0.044   2.484   2.628
  165DPPC   C42 8242  -0.027   2.515   2.777
  165DPPC   C43 8243  -0.145   2.485   2.869
  165DPPC   C44 8244  -0.133   2.579   2.989
  165DPPC   C45 8245  -0.246   2.541   3.085
  165DPPC   C46 8246  -0.237   2.630   3.209
  165DPPC   C47 8247  -0.343   2.578   3.305
  165DPPC   C48 8248  -0.321   2.436   3.358
  165DPPC   C49 8249  -0.427   2.375   3.450
  165DPPC   C50 8250  -0.372   2.247   3.513
  166DPPC    C1 8251   2.272   3.434   1.239
  166DPPC    C2 8252   2.495   3.460   1.338
  166DPPC    C3 8253   2.317   3.362   1.461
  166DPPC    N4 8254   2.374   3.376   1.326
  166DPPC    C5 8255   2.430   3.248   1.278
  166DPPC    C6 8256   2.370   3.112   1.312
  166DPPC    O7 8257   2.242   3.106   1.248
  166DPPC    P8 8258   2.162   2.972   1.286
  166DPPC    O9 8259   2.254   2.857   1.268
  166DPPC   O10 8260   2.030   2.974   1.220
  166DPPC   O11 8261   2.132   3.015   1.439
  166DPPC   C12 8262   2.038   2.918   1.486
  166DPPC   C13 8263   1.978   2.950   1.623
  166DPPC   O14 8264   1.861   2.874   1.657
  166DPPC   C15 8265   1.870   2.744   1.694
  166DPPC   O16 8266   1.976   2.682   1.706
  166DPPC   C17 8267   1.742   2.693   1.761
  166DPPC   C18 8268   1.772   2.656   1.906
  166DPPC   C19 8269   1.655   2.582   1.970
  166DPPC   C20 8270   1.669   2.601   2.121
  166DPPC   C21 8271   1.598   2.498   2.209
  166DPPC   C22 8272   1.627   2.523   2.357
  166DPPC   C23 8273   1.601   2.666   2.407
  166DPPC   C24 8274   1.599   2.667   2.560
  166DPPC   C25 8275   1.645   2.806   2.604
  166DPPC   C26 8276   1.665   2.811   2.756
  166DPPC   C27 8277   1.534   2.766   2.821
  166DPPC   C28 8278   1.556   2.758   2.972
  166DPPC   C29 8279   1.440   2.673   3.022
  166DPPC   C30 8280   1.423   2.675   3.174
  166DPPC   C31 8281   1.311   2.574   3.202
  166DPPC   C32 8282   1.966   3.103   1.619
  166DPPC   O33 8283   1.932   3.172   1.739
  166DPPC   C34 8284   1.940   3.308   1.730
  166DPPC   O35 8285   2.010   3.367   1.648
  166DPPC   C36 8286   1.863   3.392   1.832
  166DPPC   C37 8287   1.956   3.426   1.949
  166DPPC   C38 8288   1.896   3.516   2.056
  166DPPC   C39 8289   2.004   3.522   2.165
  166DPPC   C40 8290   1.943   3.620   2.266
  166DPPC   C41 8291   2.027   3.618   2.394
  166DPPC   C42 8292   1.926   3.602   2.508
  166DPPC   C43 8293   1.983   3.607   2.650
  166DPPC   C44 8294   1.875   3.560   2.748
  166DPPC   C45 8295   1.843   3.670   2.850
  166DPPC   C46 8296   1.817   3.807   2.788
  166DPPC   C47 8297   1.797   3.908   2.901
  166DPPC   C48 8298   1.918   3.930   2.993
  166DPPC   C49 8299   1.885   4.030   3.105
  166DPPC   C50 8300   2.003   4.041   3.201
  167DPPC    C1 8301   2.241   2.330   1.374
  167DPPC    C2 8302   2.417   2.188   1.452
  167DPPC    C3 8303   2.393   2.412   1.526
  167DPPC    N4 8304   2.318   2.290   1.492
  167DPPC    C5 8305   2.235   2.247   1.606
  167DPPC    C6 8306   2.133   2.134   1.593
  167DPPC    O7 8307   2.202   2.011   1.614
  167DPPC    P8 8308   2.095   1.897   1.576
  167DPPC    O9 8309   2.180   1.779   1.550
  167DPPC   O10 8310   2.015   1.963   1.470
  167DPPC   O11 8311   2.033   1.926   1.722
  167DPPC   C12 8312   2.105   1.876   1.835
  167DPPC   C13 8313   2.033   1.911   1.965
  167DPPC   O14 8314   1.918   1.831   1.994
  167DPPC   C15 8315   1.938   1.703   2.036
  167DPPC   O16 8316   2.033   1.637   1.996
  167DPPC   C17 8317   1.835   1.655   2.138
  167DPPC   C18 8318   1.889   1.672   2.280
  167DPPC   C19 8319   1.806   1.617   2.397
  167DPPC   C20 8320   1.857   1.658   2.535
  167DPPC   C21 8321   2.005   1.625   2.554
  167DPPC   C22 8322   2.062   1.711   2.667
  167DPPC   C23 8323   2.200   1.643   2.664
  167DPPC   C24 8324   2.279   1.740   2.751
  167DPPC   C25 8325   2.395   1.672   2.824
  167DPPC   C26 8326   2.336   1.588   2.937
  167DPPC   C27 8327   2.435   1.512   3.026
  167DPPC   C28 8328   2.391   1.377   3.083
  167DPPC   C29 8329   2.511   1.323   3.161
  167DPPC   C30 8330   2.471   1.202   3.245
  167DPPC   C31 8331   2.352   1.245   3.330
  167DPPC   C32 8332   2.020   2.063   1.950
  167DPPC   O33 8333   2.022   2.134   2.074
  167DPPC   C34 8334   1.955   2.253   2.076
  167DPPC   O35 8335   1.880   2.294   1.988
  167DPPC   C36 8336   1.954   2.330   2.208
  167DPPC   C37 8337   2.068   2.431   2.218
  167DPPC   C38 8338   2.034   2.531   2.328
  167DPPC   C39 8339   2.018   2.462   2.463
  167DPPC   C40 8340   2.016   2.577   2.564
  167DPPC   C41 8341   2.020   2.541   2.713
  167DPPC   C42 8342   2.016   2.668   2.799
  167DPPC   C43 8343   1.975   2.634   2.943
  167DPPC   C44 8344   1.952   2.756   3.033
  167DPPC   C45 8345   1.922   2.720   3.179
  167DPPC   C46 8346   1.921   2.851   3.257
  167DPPC   C47 8347   1.854   2.839   3.394
  167DPPC   C48 8348   1.890   2.966   3.472
  167DPPC   C49 8349   1.817   2.959   3.606
  167DPPC   C50 8350   1.876   3.053   3.710
  168DPPC    C1 8351   2.750   8.043   1.332
  168DPPC    C2 8352   2.529   8.004   1.254
  168DPPC    C3 8353   2.591   7.949   1.477
  168DPPC    N4 8354   2.608   8.048   1.370
  168DPPC    C5 8355   2.575   8.184   1.412
  168DPPC    C6 8356   2.640   8.258   1.529
  168DPPC    O7 8357   2.609   8.398   1.536
  168DPPC    P8 8358   2.697   8.467   1.651
  168DPPC    O9 8359   2.680   8.614   1.653
  168DPPC   O10 8360   2.826   8.399   1.625
  168DPPC   O11 8361   2.654   8.386   1.784
  168DPPC   C12 8362   2.532   8.439   1.838
  168DPPC   C13 8363   2.501   8.392   1.980
  168DPPC   O14 8364   2.374   8.443   2.024
  168DPPC   C15 8365   2.265   8.364   2.010
  168DPPC   O16 8366   2.251   8.303   1.904
  168DPPC   C17 8367   2.146   8.380   2.104
  168DPPC   C18 8368   2.132   8.527   2.144
  168DPPC   C19 8369   2.061   8.537   2.280
  168DPPC   C20 8370   2.038   8.686   2.305
  168DPPC   C21 8371   1.977   8.726   2.440
  168DPPC   C22 8372   1.895   8.854   2.421
  168DPPC   C23 8373   1.842   8.907   2.554
  168DPPC   C24 8374   1.725   8.827   2.612
  168DPPC   C25 8375   1.675   8.893   2.740
  168DPPC   C26 8376   1.597   8.796   2.829
  168DPPC   C27 8377   1.681   8.670   2.852
  168DPPC   C28 8378   1.631   8.556   2.942
  168DPPC   C29 8379   1.481   8.530   2.939
  168DPPC   C30 8380   1.459   8.423   3.046
  168DPPC   C31 8381   1.309   8.396   3.054
  168DPPC   C32 8382   2.622   8.440   2.059
  168DPPC   O33 8383   2.648   8.581   2.049
  168DPPC   C34 8384   2.777   8.623   2.058
  168DPPC   O35 8385   2.866   8.547   2.094
  168DPPC   C36 8386   2.789   8.774   2.040
  168DPPC   C37 8387   2.751   8.855   2.164
  168DPPC   C38 8388   2.755   8.998   2.110
  168DPPC   C39 8389   2.726   9.102   2.218
  168DPPC   C40 8390   2.810   9.079   2.343
  168DPPC   C41 8391   2.779   9.184   2.451
  168DPPC   C42 8392   2.863   9.156   2.575
  168DPPC   C43 8393   2.860   9.275   2.671
  168DPPC   C44 8394   2.946   9.254   2.796
  168DPPC   C45 8395   3.094   9.225   2.774
  168DPPC   C46 8396   3.168   9.231   2.908
  168DPPC   C47 8397   3.313   9.183   2.901
  168DPPC   C48 8398   3.379   9.283   2.806
  168DPPC   C49 8399   3.529   9.253   2.803
  168DPPC   C50 8400   3.573   9.150   2.699
  169DPPC    C1 8401   0.091   2.570   1.614
  169DPPC    C2 8402   0.309   2.512   1.598
  169DPPC    C3 8403   0.151   2.358   1.499
  169DPPC    N4 8404   0.183   2.500   1.523
  169DPPC    C5 8405   0.185   2.582   1.401
  169DPPC    C6 8406   0.279   2.557   1.283
  169DPPC    O7 8407   0.411   2.611   1.296
  169DPPC    P8 8408   0.432   2.757   1.231
  169DPPC    O9 8409   0.319   2.801   1.147
  169DPPC   O10 8410   0.566   2.736   1.171
  169DPPC   O11 8411   0.452   2.818   1.379
  169DPPC   C12 8412   0.580   2.789   1.437
  169DPPC   C13 8413   0.602   2.862   1.570
  169DPPC   O14 8414   0.550   2.801   1.688
  169DPPC   C15 8415   0.637   2.742   1.775
  169DPPC   O16 8416   0.740   2.690   1.733
  169DPPC   C17 8417   0.581   2.695   1.909
  169DPPC   C18 8418   0.648   2.567   1.959
  169DPPC   C19 8419   0.644   2.553   2.112
  169DPPC   C20 8420   0.717   2.428   2.159
  169DPPC   C21 8421   0.629   2.303   2.146
  169DPPC   C22 8422   0.514   2.322   2.245
  169DPPC   C23 8423   0.572   2.312   2.387
  169DPPC   C24 8424   0.462   2.339   2.490
  169DPPC   C25 8425   0.515   2.332   2.633
  169DPPC   C26 8426   0.408   2.347   2.741
  169DPPC   C27 8427   0.350   2.206   2.750
  169DPPC   C28 8428   0.237   2.205   2.852
  169DPPC   C29 8429   0.282   2.213   2.998
  169DPPC   C30 8430   0.161   2.213   3.091
  169DPPC   C31 8431   0.080   2.092   3.042
  169DPPC   C32 8432   0.564   3.008   1.541
  169DPPC   O33 8433   0.587   3.097   1.650
  169DPPC   C34 8434   0.544   3.226   1.639
  169DPPC   O35 8435   0.510   3.279   1.533
  169DPPC   C36 8436   0.565   3.306   1.767
  169DPPC   C37 8437   0.487   3.257   1.889
  169DPPC   C38 8438   0.488   3.376   1.985
  169DPPC   C39 8439   0.414   3.334   2.112
  169DPPC   C40 8440   0.393   3.453   2.205
  169DPPC   C41 8441   0.523   3.532   2.222
  169DPPC   C42 8442   0.604   3.481   2.341
  169DPPC   C43 8443   0.751   3.520   2.332
  169DPPC   C44 8444   0.832   3.492   2.459
  169DPPC   C45 8445   0.982   3.490   2.430
  169DPPC   C46 8446   1.031   3.628   2.386
  169DPPC   C47 8447   1.181   3.654   2.393
  169DPPC   C48 8448   1.220   3.791   2.339
  169DPPC   C49 8449   1.185   3.782   2.190
  169DPPC   C50 8450   1.165   3.911   2.110
  170DPPC    C1 8451   6.837   8.436   1.430
  170DPPC    C2 8452   7.013   8.323   1.364
  170DPPC    C3 8453   7.028   8.483   1.551
  170DPPC    N4 8454   6.954   8.371   1.490
  170DPPC    C5 8455   6.904   8.260   1.572
  170DPPC    C6 8456   7.002   8.170   1.648
  170DPPC    O7 8457   6.928   8.060   1.701
  170DPPC    P8 8458   7.015   7.925   1.690
  170DPPC    O9 8459   7.105   7.941   1.574
  170DPPC   O10 8460   6.925   7.808   1.701
  170DPPC   O11 8461   7.117   7.935   1.814
  170DPPC   C12 8462   7.030   7.904   1.923
  170DPPC   C13 8463   7.103   7.896   2.057
  170DPPC   O14 8464   7.032   7.820   2.157
  170DPPC   C15 8465   7.039   7.684   2.157
  170DPPC   O16 8466   7.075   7.622   2.057
  170DPPC   C17 8467   6.964   7.610   2.268
  170DPPC   C18 8468   6.931   7.688   2.395
  170DPPC   C19 8469   6.881   7.598   2.508
  170DPPC   C20 8470   6.822   7.681   2.623
  170DPPC   C21 8471   6.751   7.596   2.729
  170DPPC   C22 8472   6.702   7.677   2.849
  170DPPC   C23 8473   6.815   7.765   2.903
  170DPPC   C24 8474   6.758   7.858   3.010
  170DPPC   C25 8475   6.636   7.937   2.961
  170DPPC   C26 8476   6.572   8.019   3.074
  170DPPC   C27 8477   6.529   7.908   3.169
  170DPPC   C28 8478   6.453   7.965   3.289
  170DPPC   C29 8479   6.389   7.848   3.365
  170DPPC   C30 8480   6.497   7.750   3.409
  170DPPC   C31 8481   6.417   7.626   3.451
  170DPPC   C32 8482   7.142   8.036   2.104
  170DPPC   O33 8483   7.228   8.043   2.218
  170DPPC   C34 8484   7.254   8.165   2.271
  170DPPC   O35 8485   7.182   8.262   2.243
  170DPPC   C36 8486   7.374   8.179   2.364
  170DPPC   C37 8487   7.490   8.221   2.273
  170DPPC   C38 8488   7.622   8.223   2.349
  170DPPC   C39 8489   7.617   8.330   2.459
  170DPPC   C40 8490   7.751   8.351   2.530
  170DPPC   C41 8491   7.746   8.477   2.615
  170DPPC   C42 8492   7.893   8.504   2.647
  170DPPC   C43 8493   7.921   8.618   2.746
  170DPPC   C44 8494   8.066   8.605   2.792
  170DPPC   C45 8495   8.084   8.700   2.910
  170DPPC   C46 8496   8.217   8.690   2.985
  170DPPC   C47 8497   8.213   8.758   3.122
  170DPPC   C48 8498   8.336   8.705   3.196
  170DPPC   C49 8499   8.325   8.761   3.338
  170DPPC   C50 8500   8.442   8.734   3.433
  171DPPC    C1 8501   5.774   7.430   1.334
  171DPPC    C2 8502   5.710   7.225   1.263
  171DPPC    C3 8503   5.933   7.255   1.369
  171DPPC    N4 8504   5.790   7.288   1.370
  171DPPC    C5 8505   5.738   7.245   1.500
  171DPPC    C6 8506   5.618   7.322   1.555
  171DPPC    O7 8507   5.572   7.254   1.672
  171DPPC    P8 8508   5.445   7.304   1.757
  171DPPC    O9 8509   5.418   7.198   1.856
  171DPPC   O10 8510   5.343   7.323   1.651
  171DPPC   O11 8511   5.517   7.442   1.797
  171DPPC   C12 8512   5.582   7.418   1.922
  171DPPC   C13 8513   5.695   7.517   1.948
  171DPPC   O14 8514   5.789   7.477   2.049
  171DPPC   C15 8515   5.908   7.535   2.079
  171DPPC   O16 8516   5.962   7.620   2.009
  171DPPC   C17 8517   6.001   7.459   2.174
  171DPPC   C18 8518   6.129   7.539   2.197
  171DPPC   C19 8519   6.236   7.481   2.289
  171DPPC   C20 8520   6.195   7.527   2.429
  171DPPC   C21 8521   6.296   7.498   2.540
  171DPPC   C22 8522   6.252   7.576   2.664
  171DPPC   C23 8523   6.325   7.522   2.787
  171DPPC   C24 8524   6.302   7.374   2.816
  171DPPC   C25 8525   6.338   7.333   2.959
  171DPPC   C26 8526   6.228   7.359   3.062
  171DPPC   C27 8527   6.293   7.326   3.197
  171DPPC   C28 8528   6.190   7.328   3.310
  171DPPC   C29 8529   6.227   7.218   3.410
  171DPPC   C30 8530   6.101   7.166   3.478
  171DPPC   C31 8531   6.124   7.059   3.586
  171DPPC   C32 8532   5.638   7.653   1.989
  171DPPC   O33 8533   5.545   7.645   2.097
  171DPPC   C34 8534   5.492   7.763   2.139
  171DPPC   O35 8535   5.524   7.872   2.093
  171DPPC   C36 8536   5.407   7.768   2.266
  171DPPC   C37 8537   5.465   7.859   2.375
  171DPPC   C38 8538   5.374   7.861   2.498
  171DPPC   C39 8539   5.436   7.949   2.606
  171DPPC   C40 8540   5.452   8.092   2.556
  171DPPC   C41 8541   5.535   8.185   2.645
  171DPPC   C42 8542   5.520   8.327   2.592
  171DPPC   C43 8543   5.497   8.426   2.706
  171DPPC   C44 8544   5.620   8.429   2.798
  171DPPC   C45 8545   5.573   8.468   2.938
  171DPPC   C46 8546   5.457   8.376   2.979
  171DPPC   C47 8547   5.391   8.423   3.108
  171DPPC   C48 8548   5.249   8.369   3.128
  171DPPC   C49 8549   5.185   8.455   3.237
  171DPPC   C50 8550   5.035   8.437   3.216
  172DPPC    C1 8551   2.984   5.043   1.618
  172DPPC    C2 8552   2.971   5.036   1.871
  172DPPC    C3 8553   3.084   4.888   1.748
  172DPPC    N4 8554   3.052   5.031   1.748
  172DPPC    C5 8555   3.181   5.098   1.768
  172DPPC    C6 8556   3.178   5.250   1.759
  172DPPC    O7 8557   3.302   5.321   1.763
  172DPPC    P8 8558   3.273   5.469   1.706
  172DPPC    O9 8559   3.131   5.485   1.669
  172DPPC   O10 8560   3.382   5.539   1.634
  172DPPC   O11 8561   3.261   5.546   1.846
  172DPPC   C12 8562   3.395   5.519   1.889
  172DPPC   C13 8563   3.428   5.551   2.035
  172DPPC   O14 8564   3.404   5.440   2.122
  172DPPC   C15 8565   3.514   5.417   2.199
  172DPPC   O16 8566   3.623   5.411   2.142
  172DPPC   C17 8567   3.493   5.319   2.315
  172DPPC   C18 8568   3.448   5.388   2.443
  172DPPC   C19 8569   3.544   5.496   2.494
  172DPPC   C20 8570   3.503   5.547   2.632
  172DPPC   C21 8571   3.590   5.664   2.676
  172DPPC   C22 8572   3.546   5.726   2.809
  172DPPC   C23 8573   3.625   5.853   2.839
  172DPPC   C24 8574   3.547   5.936   2.941
  172DPPC   C25 8575   3.637   6.058   2.964
  172DPPC   C26 8576   3.582   6.144   3.077
  172DPPC   C27 8577   3.637   6.286   3.062
  172DPPC   C28 8578   3.590   6.368   3.183
  172DPPC   C29 8579   3.604   6.288   3.313
  172DPPC   C30 8580   3.620   6.367   3.443
  172DPPC   C31 8581   3.497   6.459   3.451
  172DPPC   C32 8582   3.352   5.681   2.065
  172DPPC   O33 8583   3.354   5.718   2.203
  172DPPC   C34 8584   3.275   5.816   2.254
  172DPPC   O35 8585   3.233   5.901   2.176
  172DPPC   C36 8586   3.273   5.848   2.404
  172DPPC   C37 8587   3.211   5.740   2.493
  172DPPC   C38 8588   3.192   5.790   2.637
  172DPPC   C39 8589   3.105   5.704   2.728
  172DPPC   C40 8590   3.107   5.757   2.871
  172DPPC   C41 8591   3.033   5.665   2.968
  172DPPC   C42 8592   3.053   5.703   3.115
  172DPPC   C43 8593   3.198   5.664   3.145
  172DPPC   C44 8594   3.246   5.731   3.274
  172DPPC   C45 8595   3.213   5.651   3.400
  172DPPC   C46 8596   3.259   5.727   3.525
  172DPPC   C47 8597   3.408   5.759   3.512
  172DPPC   C48 8598   3.463   5.836   3.632
  172DPPC   C49 8599   3.473   5.747   3.756
  172DPPC   C50 8600   3.564   5.624   3.740
  173DPPC    C1 8601   6.056   2.041   2.185
  173DPPC    C2 8602   5.923   2.056   1.994
  173DPPC    C3 8603   5.931   2.248   2.145
  173DPPC    N4 8604   6.007   2.137   2.085
  173DPPC    C5 8605   6.132   2.188   2.028
  173DPPC    C6 8606   6.135   2.294   1.917
  173DPPC    O7 8607   6.257   2.348   1.866
  173DPPC    P8 8608   6.248   2.493   1.797
  173DPPC    O9 8609   6.126   2.469   1.716
  173DPPC   O10 8610   6.374   2.549   1.744
  173DPPC   O11 8611   6.205   2.572   1.931
  173DPPC   C12 8612   6.324   2.631   1.984
  173DPPC   C13 8613   6.303   2.706   2.116
  173DPPC   O14 8614   6.424   2.752   2.178
  173DPPC   C15 8615   6.404   2.865   2.251
  173DPPC   O16 8616   6.317   2.940   2.208
  173DPPC   C17 8617   6.530   2.926   2.314
  173DPPC   C18 8618   6.501   3.012   2.437
  173DPPC   C19 8619   6.591   2.981   2.556
  173DPPC   C20 8620   6.576   2.843   2.620
  173DPPC   C21 8621   6.671   2.831   2.740
  173DPPC   C22 8622   6.642   2.700   2.813
  173DPPC   C23 8623   6.729   2.663   2.934
  173DPPC   C24 8624   6.674   2.756   3.042
  173DPPC   C25 8625   6.745   2.733   3.176
  173DPPC   C26 8626   6.654   2.810   3.272
  173DPPC   C27 8627   6.723   2.830   3.407
  173DPPC   C28 8628   6.752   2.702   3.486
  173DPPC   C29 8629   6.803   2.749   3.623
  173DPPC   C30 8630   6.693   2.833   3.687
  173DPPC   C31 8631   6.729   2.889   3.825
  173DPPC   C32 8632   6.248   2.587   2.195
  173DPPC   O33 8633   6.211   2.601   2.333
  173DPPC   C34 8634   6.189   2.490   2.408
  173DPPC   O35 8635   6.164   2.384   2.351
  173DPPC   C36 8636   6.155   2.511   2.556
  173DPPC   C37 8637   6.263   2.528   2.663
  173DPPC   C38 8638   6.207   2.602   2.785
  173DPPC   C39 8639   6.291   2.608   2.913
  173DPPC   C40 8640   6.244   2.712   3.014
  173DPPC   C41 8641   6.288   2.681   3.158
  173DPPC   C42 8642   6.223   2.782   3.252
  173DPPC   C43 8643   6.287   2.786   3.391
  173DPPC   C44 8644   6.274   2.643   3.444
  173DPPC   C45 8645   6.320   2.649   3.590
  173DPPC   C46 8646   6.242   2.754   3.669
  173DPPC   C47 8647   6.287   2.763   3.815
  173DPPC   C48 8648   6.240   2.897   3.873
  173DPPC   C49 8649   6.330   3.019   3.853
  173DPPC   C50 8650   6.259   3.153   3.867
  174DPPC    C1 8651   8.975   4.946   1.102
  174DPPC    C2 8652   9.121   4.888   1.262
  174DPPC    C3 8653   8.982   4.709   1.184
  174DPPC    N4 8654   9.055   4.831   1.144
  174DPPC    C5 8655   9.140   4.817   1.025
  174DPPC    C6 8656   9.228   4.692   1.024
  174DPPC    O7 8657   9.303   4.681   1.146
  174DPPC    P8 8658   9.373   4.537   1.126
  174DPPC    O9 8659   9.459   4.542   1.005
  174DPPC   O10 8660   9.258   4.444   1.127
  174DPPC   O11 8661   9.459   4.545   1.262
  174DPPC   C12 8662   9.375   4.508   1.372
  174DPPC   C13 8663   9.445   4.525   1.506
  174DPPC   O14 8664   9.365   4.491   1.620
  174DPPC   C15 8665   9.376   4.359   1.652
  174DPPC   O16 8666   9.425   4.276   1.575
  174DPPC   C17 8667   9.315   4.309   1.783
  174DPPC   C18 8668   9.309   4.415   1.893
  174DPPC   C19 8669   9.250   4.353   2.020
  174DPPC   C20 8670   9.242   4.449   2.139
  174DPPC   C21 8671   9.158   4.403   2.258
  174DPPC   C22 8672   9.159   4.493   2.382
  174DPPC   C23 8673   9.098   4.410   2.495
  174DPPC   C24 8674   9.099   4.475   2.634
  174DPPC   C25 8675   9.087   4.368   2.743
  174DPPC   C26 8676   9.061   4.422   2.884
  174DPPC   C27 8677   9.022   4.311   2.982
  174DPPC   C28 8678   8.893   4.242   2.937
  174DPPC   C29 8679   8.859   4.148   3.053
  174DPPC   C30 8680   8.740   4.057   3.020
  174DPPC   C31 8681   8.656   4.025   3.143
  174DPPC   C32 8682   9.514   4.662   1.507
  174DPPC   O33 8683   9.427   4.772   1.480
  174DPPC   C34 8684   9.489   4.893   1.486
  174DPPC   O35 8685   9.612   4.898   1.480
  174DPPC   C36 8686   9.393   5.012   1.481
  174DPPC   C37 8687   9.433   5.112   1.589
  174DPPC   C38 8688   9.339   5.233   1.586
  174DPPC   C39 8689   9.350   5.335   1.699
  174DPPC   C40 8690   9.341   5.273   1.839
  174DPPC   C41 8691   9.324   5.383   1.945
  174DPPC   C42 8692   9.306   5.314   2.080
  174DPPC   C43 8693   9.336   5.413   2.193
  174DPPC   C44 8694   9.300   5.350   2.328
  174DPPC   C45 8695   9.339   5.446   2.441
  174DPPC   C46 8696   9.281   5.402   2.576
  174DPPC   C47 8697   9.323   5.511   2.675
  174DPPC   C48 8698   9.251   5.478   2.806
  174DPPC   C49 8699   9.101   5.489   2.776
  174DPPC   C50 8700   9.008   5.442   2.888
  175DPPC    C1 8701   3.744   1.778   1.885
  175DPPC    C2 8702   3.934   1.894   1.962
  175DPPC    C3 8703   3.728   1.988   2.001
  175DPPC    N4 8704   3.796   1.858   1.997
  175DPPC    C5 8705   3.804   1.793   2.129
  175DPPC    C6 8706   3.673   1.724   2.171
  175DPPC    O7 8707   3.560   1.809   2.189
  175DPPC    P8 8708   3.422   1.728   2.208
  175DPPC    O9 8709   3.462   1.588   2.234
  175DPPC   O10 8710   3.322   1.780   2.111
  175DPPC   O11 8711   3.401   1.799   2.351
  175DPPC   C12 8712   3.434   1.704   2.453
  175DPPC   C13 8713   3.458   1.770   2.589
  175DPPC   O14 8714   3.541   1.702   2.684
  175DPPC   C15 8715   3.674   1.687   2.661
  175DPPC   O16 8716   3.734   1.755   2.578
  175DPPC   C17 8717   3.744   1.608   2.772
  175DPPC   C18 8718   3.728   1.692   2.899
  175DPPC   C19 8719   3.777   1.636   3.033
  175DPPC   C20 8720   3.790   1.746   3.139
  175DPPC   C21 8721   3.828   1.695   3.278
  175DPPC   C22 8722   3.960   1.620   3.296
  175DPPC   C23 8723   3.987   1.587   3.443
  175DPPC   C24 8724   3.999   1.701   3.544
  175DPPC   C25 8725   4.019   1.657   3.689
  175DPPC   C26 8726   4.047   1.783   3.772
  175DPPC   C27 8727   4.090   1.742   3.913
  175DPPC   C28 8728   4.159   1.856   3.989
  175DPPC   C29 8729   4.178   1.831   4.139
  175DPPC   C30 8730   4.270   1.709   4.142
  175DPPC   C31 8731   4.408   1.732   4.081
  175DPPC   C32 8732   3.323   1.827   2.634
  175DPPC   O33 8733   3.229   1.720   2.645
  175DPPC   C34 8734   3.113   1.739   2.714
  175DPPC   O35 8735   3.040   1.825   2.664
  175DPPC   C36 8736   3.058   1.601   2.751
  175DPPC   C37 8737   2.918   1.624   2.808
  175DPPC   C38 8738   2.853   1.489   2.841
  175DPPC   C39 8739   2.938   1.398   2.930
  175DPPC   C40 8740   2.861   1.267   2.944
  175DPPC   C41 8741   2.942   1.173   3.034
  175DPPC   C42 8742   2.967   1.238   3.170
  175DPPC   C43 8743   3.079   1.171   3.249
  175DPPC   C44 8744   3.136   1.248   3.368
  175DPPC   C45 8745   3.250   1.152   3.402
  175DPPC   C46 8746   3.338   1.208   3.513
  175DPPC   C47 8747   3.272   1.245   3.646
  175DPPC   C48 8748   3.388   1.245   3.746
  175DPPC   C49 8749   3.339   1.293   3.883
  175DPPC   C50 8750   3.433   1.265   4.000
  176DPPC    C1 8751   8.316   4.771   1.162
  176DPPC    C2 8752   8.385   4.798   0.931
  176DPPC    C3 8753   8.152   4.777   0.995
  176DPPC    N4 8754   8.284   4.832   1.032
  176DPPC    C5 8755   8.269   4.978   1.043
  176DPPC    C6 8756   8.399   5.059   1.055
  176DPPC    O7 8757   8.443   5.074   1.190
  176DPPC    P8 8758   8.599   5.113   1.199
  176DPPC    O9 8759   8.608   5.245   1.264
  176DPPC   O10 8760   8.655   5.105   1.062
  176DPPC   O11 8761   8.650   4.986   1.284
  176DPPC   C12 8762   8.579   4.964   1.407
  176DPPC   C13 8763   8.643   4.860   1.499
  176DPPC   O14 8764   8.561   4.827   1.612
  176DPPC   C15 8765   8.587   4.705   1.668
  176DPPC   O16 8766   8.646   4.620   1.603
  176DPPC   C17 8767   8.510   4.671   1.796
  176DPPC   C18 8768   8.369   4.613   1.780
  176DPPC   C19 8769   8.305   4.589   1.917
  176DPPC   C20 8770   8.160   4.540   1.927
  176DPPC   C21 8771   8.135   4.480   2.066
  176DPPC   C22 8772   7.992   4.428   2.075
  176DPPC   C23 8773   7.956   4.368   2.212
  176DPPC   C24 8774   7.923   4.480   2.311
  176DPPC   C25 8775   7.897   4.431   2.454
  176DPPC   C26 8776   7.825   4.532   2.543
  176DPPC   C27 8777   7.805   4.486   2.688
  176DPPC   C28 8778   7.726   4.591   2.766
  176DPPC   C29 8779   7.743   4.561   2.915
  176DPPC   C30 8780   7.894   4.581   2.926
  176DPPC   C31 8781   7.948   4.508   3.050
  176DPPC   C32 8782   8.786   4.905   1.527
  176DPPC   O33 8783   8.790   5.036   1.586
  176DPPC   C34 8784   8.914   5.086   1.613
  176DPPC   O35 8785   9.013   5.020   1.582
  176DPPC   C36 8786   8.904   5.209   1.703
  176DPPC   C37 8787   8.900   5.178   1.853
  176DPPC   C38 8788   8.914   5.313   1.922
  176DPPC   C39 8789   8.884   5.297   2.071
  176DPPC   C40 8790   8.918   5.420   2.156
  176DPPC   C41 8791   8.866   5.407   2.299
  176DPPC   C42 8792   8.853   5.538   2.376
  176DPPC   C43 8793   8.798   5.503   2.514
  176DPPC   C44 8794   8.762   5.640   2.572
  176DPPC   C45 8795   8.701   5.630   2.712
  176DPPC   C46 8796   8.575   5.543   2.718
  176DPPC   C47 8797   8.449   5.620   2.680
  176DPPC   C48 8798   8.326   5.529   2.670
  176DPPC   C49 8799   8.228   5.607   2.582
  176DPPC   C50 8800   8.188   5.727   2.668
  177DPPC    C1 8801   9.158   2.625   1.594
  177DPPC    C2 8802   8.969   2.630   1.441
  177DPPC    C3 8803   8.963   2.707   1.663
  177DPPC    N4 8804   9.046   2.704   1.541
  177DPPC    C5 8805   9.100   2.834   1.499
  177DPPC    C6 8806   9.038   2.906   1.380
  177DPPC    O7 8807   8.906   2.953   1.411
  177DPPC    P8 8808   8.918   3.110   1.445
  177DPPC    O9 8809   8.838   3.197   1.356
  177DPPC   O10 8810   9.055   3.139   1.493
  177DPPC   O11 8811   8.834   3.104   1.582
  177DPPC   C12 8812   8.918   3.109   1.698
  177DPPC   C13 8813   8.855   3.140   1.834
  177DPPC   O14 8814   8.800   3.024   1.897
  177DPPC   C15 8815   8.872   2.937   1.973
  177DPPC   O16 8816   8.995   2.930   1.971
  177DPPC   C17 8817   8.792   2.829   2.046
  177DPPC   C18 8818   8.772   2.864   2.194
  177DPPC   C19 8819   8.689   2.767   2.279
  177DPPC   C20 8820   8.662   2.824   2.418
  177DPPC   C21 8821   8.570   2.726   2.492
  177DPPC   C22 8822   8.583   2.731   2.644
  177DPPC   C23 8823   8.495   2.627   2.713
  177DPPC   C24 8824   8.482   2.632   2.866
  177DPPC   C25 8825   8.433   2.767   2.918
  177DPPC   C26 8826   8.398   2.758   3.067
  177DPPC   C27 8827   8.295   2.651   3.102
  177DPPC   C28 8828   8.274   2.633   3.252
  177DPPC   C29 8829   8.156   2.537   3.267
  177DPPC   C30 8830   8.141   2.511   3.417
  177DPPC   C31 8831   8.011   2.445   3.465
  177DPPC   C32 8832   8.750   3.250   1.817
  177DPPC   O33 8833   8.668   3.280   1.930
  177DPPC   C34 8834   8.565   3.204   1.974
  177DPPC   O35 8835   8.521   3.107   1.911
  177DPPC   C36 8836   8.488   3.249   2.098
  177DPPC   C37 8837   8.585   3.308   2.201
  177DPPC   C38 8838   8.507   3.362   2.322
  177DPPC   C39 8839   8.612   3.419   2.418
  177DPPC   C40 8840   8.705   3.306   2.462
  177DPPC   C41 8841   8.796   3.360   2.573
  177DPPC   C42 8842   8.905   3.253   2.582
  177DPPC   C43 8843   8.846   3.130   2.652
  177DPPC   C44 8844   8.946   3.024   2.695
  177DPPC   C45 8845   8.894   2.902   2.772
  177DPPC   C46 8846   9.002   2.830   2.852
  177DPPC   C47 8847   8.961   2.737   2.967
  177DPPC   C48 8848   8.859   2.630   2.929
  177DPPC   C49 8849   8.785   2.561   3.043
  177DPPC   C50 8850   8.870   2.457   3.116
  178DPPC    C1 8851   8.009   2.264   1.745
  178DPPC    C2 8852   8.111   2.477   1.806
  178DPPC    C3 8853   8.187   2.264   1.895
  178DPPC    N4 8854   8.133   2.334   1.778
  178DPPC    C5 8855   8.220   2.320   1.660
  178DPPC    C6 8856   8.371   2.329   1.684
  178DPPC    O7 8857   8.417   2.461   1.710
  178DPPC    P8 8858   8.566   2.463   1.771
  178DPPC    O9 8859   8.604   2.605   1.792
  178DPPC   O10 8860   8.655   2.387   1.681
  178DPPC   O11 8861   8.521   2.387   1.906
  178DPPC   C12 8862   8.484   2.473   2.014
  178DPPC   C13 8863   8.449   2.392   2.139
  178DPPC   O14 8864   8.420   2.471   2.255
  178DPPC   C15 8865   8.287   2.492   2.277
  178DPPC   O16 8866   8.210   2.492   2.181
  178DPPC   C17 8867   8.237   2.517   2.419
  178DPPC   C18 8868   8.085   2.508   2.432
  178DPPC   C19 8869   8.062   2.543   2.580
  178DPPC   C20 8870   8.103   2.688   2.609
  178DPPC   C21 8871   8.064   2.700   2.757
  178DPPC   C22 8872   8.042   2.848   2.789
  178DPPC   C23 8873   8.015   2.856   2.940
  178DPPC   C24 8874   8.003   3.005   2.974
  178DPPC   C25 8875   8.066   3.037   3.109
  178DPPC   C26 8876   8.099   3.185   3.127
  178DPPC   C27 8877   8.126   3.234   3.269
  178DPPC   C28 8878   8.259   3.171   3.312
  178DPPC   C29 8879   8.303   3.221   3.449
  178DPPC   C30 8880   8.441   3.160   3.473
  178DPPC   C31 8881   8.498   3.203   3.609
  178DPPC   C32 8882   8.572   2.304   2.160
  178DPPC   O33 8883   8.563   2.191   2.248
  178DPPC   C34 8884   8.492   2.077   2.230
  178DPPC   O35 8885   8.443   2.051   2.121
  178DPPC   C36 8886   8.486   1.987   2.354
  178DPPC   C37 8887   8.377   2.034   2.451
  178DPPC   C38 8888   8.383   1.963   2.587
  178DPPC   C39 8889   8.258   2.012   2.660
  178DPPC   C40 8890   8.239   1.941   2.794
  178DPPC   C41 8891   8.118   2.004   2.863
  178DPPC   C42 8892   8.101   1.926   2.993
  178DPPC   C43 8893   7.974   1.983   3.055
  178DPPC   C44 8894   7.944   1.929   3.195
  178DPPC   C45 8895   7.840   2.026   3.251
  178DPPC   C46 8896   7.757   1.969   3.367
  178DPPC   C47 8897   7.670   1.852   3.319
  178DPPC   C48 8898   7.588   1.792   3.433
  178DPPC   C49 8899   7.484   1.888   3.491
  178DPPC   C50 8900   7.349   1.816   3.502
  179DPPC    C1 8901   5.276   6.445   1.911
  179DPPC    C2 8902   5.393   6.345   2.093
  179DPPC    C3 8903   5.165   6.340   2.087
  179DPPC    N4 8904   5.282   6.327   1.998
  179DPPC    C5 8905   5.305   6.193   1.943
  179DPPC    C6 8906   5.185   6.136   1.866
  179DPPC    O7 8907   5.152   6.191   1.738
  179DPPC    P8 8908   4.993   6.185   1.716
  179DPPC    O9 8909   4.939   6.051   1.750
  179DPPC   O10 8910   4.950   6.266   1.600
  179DPPC   O11 8911   4.951   6.271   1.846
  179DPPC   C12 8912   4.835   6.354   1.838
  179DPPC   C13 8913   4.780   6.418   1.966
  179DPPC   O14 8914   4.870   6.516   2.020
  179DPPC   C15 8915   4.816   6.605   2.107
  179DPPC   O16 8916   4.708   6.658   2.079
  179DPPC   C17 8917   4.899   6.649   2.227
  179DPPC   C18 8918   4.867   6.568   2.352
  179DPPC   C19 8919   4.958   6.590   2.474
  179DPPC   C20 8920   5.104   6.578   2.430
  179DPPC   C21 8921   5.206   6.579   2.544
  179DPPC   C22 8922   5.187   6.440   2.606
  179DPPC   C23 8923   5.269   6.423   2.734
  179DPPC   C24 8924   5.205   6.514   2.839
  179DPPC   C25 8925   5.277   6.503   2.973
  179DPPC   C26 8926   5.269   6.360   3.029
  179DPPC   C27 8927   5.347   6.364   3.161
  179DPPC   C28 8928   5.315   6.246   3.253
  179DPPC   C29 8929   5.368   6.278   3.393
  179DPPC   C30 8930   5.367   6.156   3.486
  179DPPC   C31 8931   5.228   6.139   3.547
  179DPPC   C32 8932   4.750   6.288   2.041
  179DPPC   O33 8933   4.742   6.289   2.183
  179DPPC   C34 8934   4.712   6.176   2.253
  179DPPC   O35 8935   4.701   6.072   2.189
  179DPPC   C36 8936   4.721   6.176   2.406
  179DPPC   C37 8937   4.854   6.175   2.482
  179DPPC   C38 8938   4.830   6.167   2.633
  179DPPC   C39 8939   4.960   6.135   2.707
  179DPPC   C40 8940   4.951   6.157   2.858
  179DPPC   C41 8941   4.829   6.072   2.892
  179DPPC   C42 8942   4.809   6.044   3.041
  179DPPC   C43 8943   4.686   5.960   3.074
  179DPPC   C44 8944   4.642   5.980   3.219
  179DPPC   C45 8945   4.525   5.887   3.253
  179DPPC   C46 8946   4.472   5.902   3.396
  179DPPC   C47 8947   4.335   5.835   3.401
  179DPPC   C48 8948   4.344   5.683   3.381
  179DPPC   C49 8949   4.241   5.604   3.461
  179DPPC   C50 8950   4.094   5.645   3.452
  180DPPC    C1 8951   5.976   2.670   1.277
  180DPPC    C2 8952   6.199   2.653   1.346
  180DPPC    C3 8953   6.088   2.866   1.343
  180DPPC    N4 8954   6.073   2.723   1.374
  180DPPC    C5 8955   6.020   2.718   1.511
  180DPPC    C6 8956   6.098   2.791   1.619
  180DPPC    O7 8957   6.014   2.807   1.734
  180DPPC    P8 8958   6.087   2.902   1.842
  180DPPC    O9 8959   6.006   3.026   1.843
  180DPPC   O10 8960   6.234   2.903   1.825
  180DPPC   O11 8961   6.052   2.815   1.973
  180DPPC   C12 8962   5.948   2.884   2.043
  180DPPC   C13 8963   5.932   2.815   2.178
  180DPPC   O14 8964   5.796   2.783   2.209
  180DPPC   C15 8965   5.765   2.663   2.267
  180DPPC   O16 8966   5.788   2.562   2.200
  180DPPC   C17 8967   5.682   2.652   2.395
  180DPPC   C18 8968   5.755   2.551   2.484
  180DPPC   C19 8969   5.731   2.549   2.635
  180DPPC   C20 8970   5.796   2.424   2.694
  180DPPC   C21 8971   5.773   2.404   2.844
  180DPPC   C22 8972   5.832   2.267   2.880
  180DPPC   C23 8973   5.985   2.266   2.865
  180DPPC   C24 8974   6.031   2.122   2.887
  180DPPC   C25 8975   6.163   2.099   2.814
  180DPPC   C26 8976   6.258   2.203   2.873
  180DPPC   C27 8977   6.397   2.186   2.811
  180DPPC   C28 8978   6.503   2.279   2.873
  180DPPC   C29 8979   6.495   2.268   3.025
  180DPPC   C30 8980   6.578   2.376   3.094
  180DPPC   C31 8981   6.581   2.348   3.245
  180DPPC   C32 8982   6.025   2.893   2.271
  180DPPC   O33 8983   5.985   2.908   2.408
  180DPPC   C34 8984   6.052   2.999   2.485
  180DPPC   O35 8985   6.108   3.093   2.431
  180DPPC   C36 8986   6.013   3.007   2.633
  180DPPC   C37 8987   5.866   2.977   2.662
  180DPPC   C38 8988   5.835   3.002   2.809
  180DPPC   C39 8989   5.699   2.949   2.852
  180DPPC   C40 8990   5.675   2.963   3.002
  180DPPC   C41 8991   5.555   2.894   3.068
  180DPPC   C42 8992   5.564   2.895   3.221
  180DPPC   C43 8993   5.431   2.839   3.271
  180DPPC   C44 8994   5.411   2.845   3.423
  180DPPC   C45 8995   5.276   2.784   3.456
  180DPPC   C46 8996   5.175   2.872   3.383
  180DPPC   C47 8997   5.150   2.994   3.472
  180DPPC   C48 8998   5.032   3.076   3.420
  180DPPC   C49 8999   4.951   3.134   3.536
  180DPPC   C50 9000   5.041   3.193   3.645
  181DPPC    C1 9001   5.639   5.903   1.464
  181DPPC    C2 9002   5.799   5.867   1.649
  181DPPC    C3 9003   5.586   5.972   1.672
  181DPPC    N4 9004   5.660   5.865   1.604
  181DPPC    C5 9005   5.597   5.737   1.642
  181DPPC    C6 9006   5.618   5.604   1.571
  181DPPC    O7 9007   5.588   5.489   1.651
  181DPPC    P8 9008   5.670   5.357   1.610
  181DPPC    O9 9009   5.750   5.401   1.494
  181DPPC   O10 9010   5.570   5.250   1.588
  181DPPC   O11 9011   5.749   5.339   1.750
  181DPPC   C12 9012   5.652   5.343   1.855
  181DPPC   C13 9013   5.709   5.321   1.996
  181DPPC   O14 9014   5.619   5.372   2.096
  181DPPC   C15 9015   5.529   5.285   2.149
  181DPPC   O16 9016   5.521   5.166   2.122
  181DPPC   C17 9017   5.485   5.344   2.283
  181DPPC   C18 9018   5.350   5.412   2.263
  181DPPC   C19 9019   5.312   5.500   2.382
  181DPPC   C20 9020   5.252   5.417   2.496
  181DPPC   C21 9021   5.268   5.491   2.629
  181DPPC   C22 9022   5.200   5.424   2.748
  181DPPC   C23 9023   5.206   5.518   2.869
  181DPPC   C24 9024   5.172   5.451   3.003
  181DPPC   C25 9025   5.033   5.387   3.003
  181DPPC   C26 9026   4.922   5.491   3.016
  181DPPC   C27 9027   4.790   5.437   2.963
  181DPPC   C28 9028   4.669   5.511   3.022
  181DPPC   C29 9029   4.545   5.466   2.946
  181DPPC   C30 9030   4.424   5.554   2.980
  181DPPC   C31 9031   4.441   5.691   2.912
  181DPPC   C32 9032   5.850   5.380   2.006
  181DPPC   O33 9033   5.927   5.321   2.111
  181DPPC   C34 9034   6.061   5.342   2.113
  181DPPC   O35 9035   6.109   5.430   2.041
  181DPPC   C36 9036   6.142   5.262   2.215
  181DPPC   C37 9037   6.161   5.356   2.334
  181DPPC   C38 9038   6.215   5.296   2.464
  181DPPC   C39 9039   6.207   5.395   2.581
  181DPPC   C40 9040   6.272   5.333   2.705
  181DPPC   C41 9041   6.423   5.306   2.697
  181DPPC   C42 9042   6.470   5.244   2.829
  181DPPC   C43 9043   6.617   5.200   2.834
  181DPPC   C44 9044   6.634   5.092   2.941
  181DPPC   C45 9045   6.541   4.971   2.927
  181DPPC   C46 9046   6.597   4.845   2.993
  181DPPC   C47 9047   6.620   4.880   3.140
  181DPPC   C48 9048   6.698   4.777   3.222
  181DPPC   C49 9049   6.646   4.634   3.216
  181DPPC   C50 9050   6.732   4.527   3.282
  182DPPC    C1 9051   8.078   0.613   1.377
  182DPPC    C2 9052   8.299   0.706   1.354
  182DPPC    C3 9053   8.175   0.667   1.162
  182DPPC    N4 9054   8.162   0.708   1.302
  182DPPC    C5 9055   8.113   0.847   1.312
  182DPPC    C6 9056   7.969   0.880   1.273
  182DPPC    O7 9057   7.950   1.021   1.257
  182DPPC    P8 9058   7.809   1.033   1.180
  182DPPC    O9 9059   7.802   0.914   1.093
  182DPPC   O10 9060   7.794   1.174   1.138
  182DPPC   O11 9061   7.738   0.992   1.318
  182DPPC   C12 9062   7.725   1.111   1.396
  182DPPC   C13 9063   7.663   1.068   1.530
  182DPPC   O14 9064   7.633   1.184   1.608
  182DPPC   C15 9065   7.517   1.254   1.593
  182DPPC   O16 9066   7.429   1.225   1.513
  182DPPC   C17 9067   7.497   1.379   1.680
  182DPPC   C18 9068   7.380   1.363   1.777
  182DPPC   C19 9069   7.349   1.501   1.835
  182DPPC   C20 9070   7.244   1.492   1.945
  182DPPC   C21 9071   7.193   1.629   1.992
  182DPPC   C22 9072   7.094   1.608   2.107
  182DPPC   C23 9073   7.153   1.545   2.233
  182DPPC   C24 9074   7.045   1.521   2.338
  182DPPC   C25 9075   7.112   1.484   2.471
  182DPPC   C26 9076   7.015   1.471   2.589
  182DPPC   C27 9077   7.081   1.467   2.727
  182DPPC   C28 9078   6.996   1.408   2.839
  182DPPC   C29 9079   7.074   1.419   2.970
  182DPPC   C30 9080   6.990   1.341   3.072
  182DPPC   C31 9081   7.043   1.340   3.215
  182DPPC   C32 9082   7.762   0.964   1.584
  182DPPC   O33 9083   7.882   1.034   1.616
  182DPPC   C34 9084   7.986   0.959   1.661
  182DPPC   O35 9085   7.993   0.837   1.650
  182DPPC   C36 9086   8.083   1.045   1.742
  182DPPC   C37 9087   8.039   1.082   1.884
  182DPPC   C38 9088   8.141   1.172   1.954
  182DPPC   C39 9089   8.111   1.186   2.103
  182DPPC   C40 9090   8.222   1.270   2.166
  182DPPC   C41 9091   8.189   1.309   2.310
  182DPPC   C42 9092   8.094   1.429   2.304
  182DPPC   C43 9093   8.067   1.502   2.436
  182DPPC   C44 9094   8.002   1.635   2.397
  182DPPC   C45 9095   7.962   1.714   2.522
  182DPPC   C46 9096   7.836   1.641   2.568
  182DPPC   C47 9097   7.781   1.711   2.692
  182DPPC   C48 9098   7.648   1.649   2.738
  182DPPC   C49 9099   7.602   1.697   2.876
  182DPPC   C50 9100   7.700   1.672   2.990
  183DPPC    C1 9101   7.527   3.547   1.736
  183DPPC    C2 9102   7.560   3.738   1.613
  183DPPC    C3 9103   7.465   3.539   1.507
  183DPPC    N4 9104   7.467   3.625   1.627
  183DPPC    C5 9105   7.336   3.684   1.656
  183DPPC    C6 9106   7.207   3.602   1.660
  183DPPC    O7 9107   7.194   3.493   1.751
  183DPPC    P8 9108   7.054   3.414   1.749
  183DPPC    O9 9109   7.065   3.309   1.853
  183DPPC   O10 9110   7.020   3.389   1.608
  183DPPC   O11 9111   6.970   3.536   1.812
  183DPPC   C12 9112   6.943   3.508   1.950
  183DPPC   C13 9113   7.020   3.607   2.038
  183DPPC   O14 9114   7.036   3.552   2.169
  183DPPC   C15 9115   7.140   3.614   2.233
  183DPPC   O16 9116   7.244   3.648   2.177
  183DPPC   C17 9117   7.137   3.595   2.384
  183DPPC   C18 9118   7.248   3.504   2.438
  183DPPC   C19 9119   7.222   3.484   2.587
  183DPPC   C20 9120   7.318   3.398   2.670
  183DPPC   C21 9121   7.257   3.403   2.811
  183DPPC   C22 9122   7.354   3.327   2.902
  183DPPC   C23 9123   7.298   3.343   3.043
  183DPPC   C24 9124   7.388   3.297   3.158
  183DPPC   C25 9125   7.309   3.283   3.288
  183DPPC   C26 9126   7.380   3.233   3.414
  183DPPC   C27 9127   7.509   3.310   3.446
  183DPPC   C28 9128   7.567   3.277   3.584
  183DPPC   C29 9129   7.467   3.268   3.699
  183DPPC   C30 9130   7.539   3.214   3.823
  183DPPC   C31 9131   7.604   3.077   3.805
  183DPPC   C32 9132   6.945   3.739   2.024
  183DPPC   O33 9133   7.009   3.851   2.087
  183DPPC   C34 9134   7.117   3.906   2.026
  183DPPC   O35 9135   7.175   3.852   1.932
  183DPPC   C36 9136   7.178   4.029   2.093
  183DPPC   C37 9137   7.269   3.991   2.210
  183DPPC   C38 9138   7.181   3.978   2.334
  183DPPC   C39 9139   7.274   3.960   2.454
  183DPPC   C40 9140   7.183   3.948   2.577
  183DPPC   C41 9141   7.232   3.843   2.677
  183DPPC   C42 9142   7.366   3.899   2.727
  183DPPC   C43 9143   7.425   3.824   2.846
  183DPPC   C44 9144   7.325   3.832   2.962
  183DPPC   C45 9145   7.375   3.782   3.098
  183DPPC   C46 9146   7.274   3.818   3.207
  183DPPC   C47 9147   7.149   3.736   3.176
  183DPPC   C48 9148   7.039   3.748   3.281
  183DPPC   C49 9149   6.946   3.628   3.262
  183DPPC   C50 9150   6.865   3.643   3.133
  184DPPC    C1 9151   1.650   1.780   1.580
  184DPPC    C2 9152   1.440   1.807   1.688
  184DPPC    C3 9153   1.634   1.777   1.810
  184DPPC    N4 9154   1.582   1.847   1.691
  184DPPC    C5 9155   1.608   1.990   1.710
  184DPPC    C6 9156   1.552   2.076   1.596
  184DPPC    O7 9157   1.598   2.211   1.608
  184DPPC    P8 9158   1.525   2.276   1.481
  184DPPC    O9 9159   1.488   2.184   1.371
  184DPPC   O10 9160   1.576   2.415   1.473
  184DPPC   O11 9161   1.396   2.297   1.575
  184DPPC   C12 9162   1.419   2.397   1.675
  184DPPC   C13 9163   1.308   2.410   1.780
  184DPPC   O14 9164   1.326   2.530   1.857
  184DPPC   C15 9165   1.215   2.606   1.880
  184DPPC   O16 9166   1.121   2.584   1.804
  184DPPC   C17 9167   1.235   2.728   1.970
  184DPPC   C18 9168   1.266   2.675   2.110
  184DPPC   C19 9169   1.135   2.624   2.170
  184DPPC   C20 9170   1.152   2.603   2.321
  184DPPC   C21 9171   1.023   2.565   2.394
  184DPPC   C22 9172   1.045   2.580   2.544
  184DPPC   C23 9173   0.920   2.512   2.601
  184DPPC   C24 9174   0.900   2.560   2.745
  184DPPC   C25 9175   0.790   2.502   2.833
  184DPPC   C26 9176   0.777   2.558   2.975
  184DPPC   C27 9177   0.648   2.495   3.027
  184DPPC   C28 9178   0.616   2.521   3.175
  184DPPC   C29 9179   0.722   2.448   3.258
  184DPPC   C30 9180   0.696   2.297   3.252
  184DPPC   C31 9181   0.801   2.234   3.343
  184DPPC   C32 9182   1.297   2.274   1.849
  184DPPC   O33 9183   1.420   2.245   1.915
  184DPPC   C34 9184   1.429   2.126   1.981
  184DPPC   O35 9185   1.391   2.026   1.920
  184DPPC   C36 9186   1.554   2.114   2.069
  184DPPC   C37 9187   1.544   2.019   2.189
  184DPPC   C38 9188   1.670   2.033   2.275
  184DPPC   C39 9189   1.646   1.965   2.410
  184DPPC   C40 9190   1.776   1.994   2.485
  184DPPC   C41 9191   1.793   2.146   2.478
  184DPPC   C42 9192   1.710   2.214   2.587
  184DPPC   C43 9193   1.749   2.146   2.719
  184DPPC   C44 9194   1.711   2.226   2.844
  184DPPC   C45 9195   1.776   2.155   2.963
  184DPPC   C46 9196   1.755   2.005   2.941
  184DPPC   C47 9197   1.834   1.915   3.035
  184DPPC   C48 9198   1.808   1.766   3.015
  184DPPC   C49 9199   1.871   1.687   3.130
  184DPPC   C50 9200   1.822   1.542   3.133
  185DPPC    C1 9201   6.606   7.269   1.483
  185DPPC    C2 9202   6.556   7.356   1.718
  185DPPC    C3 9203   6.430   7.415   1.528
  185DPPC    N4 9204   6.510   7.308   1.588
  185DPPC    C5 9205   6.410   7.203   1.611
  185DPPC    C6 9206   6.443   7.057   1.641
  185DPPC    O7 9207   6.551   7.051   1.734
  185DPPC    P8 9208   6.657   6.937   1.693
  185DPPC    O9 9209   6.782   6.979   1.761
  185DPPC   O10 9210   6.653   6.923   1.546
  185DPPC   O11 9211   6.596   6.820   1.786
  185DPPC   C12 9212   6.611   6.861   1.922
  185DPPC   C13 9213   6.515   6.777   2.007
  185DPPC   O14 9214   6.506   6.802   2.148
  185DPPC   C15 9215   6.394   6.755   2.209
  185DPPC   O16 9216   6.303   6.703   2.144
  185DPPC   C17 9217   6.379   6.790   2.357
  185DPPC   C18 9218   6.244   6.856   2.384
  185DPPC   C19 9219   6.195   6.830   2.527
  185DPPC   C20 9220   6.277   6.895   2.639
  185DPPC   C21 9221   6.228   6.866   2.781
  185DPPC   C22 9222   6.323   6.937   2.877
  185DPPC   C23 9223   6.297   6.901   3.024
  185DPPC   C24 9224   6.394   6.965   3.124
  185DPPC   C25 9225   6.383   6.897   3.261
  185DPPC   C26 9226   6.466   6.985   3.355
  185DPPC   C27 9227   6.504   6.912   3.485
  185DPPC   C28 9228   6.584   6.990   3.589
  185DPPC   C29 9229   6.638   6.892   3.694
  185DPPC   C30 9230   6.533   6.863   3.801
  185DPPC   C31 9231   6.588   6.771   3.910
  185DPPC   C32 9232   6.580   6.640   1.984
  185DPPC   O33 9233   6.722   6.633   1.997
  185DPPC   C34 9234   6.774   6.522   1.938
  185DPPC   O35 9235   6.704   6.444   1.874
  185DPPC   C36 9236   6.925   6.521   1.966
  185DPPC   C37 9237   6.975   6.418   2.067
  185DPPC   C38 9238   6.978   6.470   2.210
  185DPPC   C39 9239   7.012   6.357   2.308
  185DPPC   C40 9240   7.023   6.409   2.451
  185DPPC   C41 9241   7.061   6.302   2.553
  185DPPC   C42 9242   7.191   6.222   2.536
  185DPPC   C43 9243   7.187   6.099   2.628
  185DPPC   C44 9244   7.308   6.010   2.600
  185DPPC   C45 9245   7.312   5.895   2.700
  185DPPC   C46 9246   7.438   5.808   2.703
  185DPPC   C47 9247   7.430   5.711   2.585
  185DPPC   C48 9248   7.550   5.617   2.577
  185DPPC   C49 9249   7.686   5.687   2.573
  185DPPC   C50 9250   7.795   5.585   2.541
  186DPPC    C1 9251   6.759   2.197   1.748
  186DPPC    C2 9252   6.756   2.426   1.742
  186DPPC    C3 9253   6.563   2.309   1.658
  186DPPC    N4 9254   6.667   2.311   1.762
  186DPPC    C5 9255   6.605   2.328   1.894
  186DPPC    C6 9256   6.505   2.222   1.940
  186DPPC    O7 9257   6.559   2.090   1.954
  186DPPC    P8 9258   6.450   1.973   1.966
  186DPPC    O9 9259   6.531   1.850   1.980
  186DPPC   O10 9260   6.366   1.996   1.846
  186DPPC   O11 9261   6.395   2.022   2.109
  186DPPC   C12 9262   6.480   1.947   2.196
  186DPPC   C13 9263   6.445   1.974   2.343
  186DPPC   O14 9264   6.329   1.906   2.391
  186DPPC   C15 9265   6.336   1.770   2.398
  186DPPC   O16 9266   6.426   1.715   2.336
  186DPPC   C17 9267   6.232   1.693   2.481
  186DPPC   C18 9268   6.281   1.631   2.612
  186DPPC   C19 9269   6.286   1.721   2.735
  186DPPC   C20 9270   6.302   1.635   2.861
  186DPPC   C21 9271   6.346   1.731   2.971
  186DPPC   C22 9272   6.330   1.681   3.114
  186DPPC   C23 9273   6.361   1.781   3.226
  186DPPC   C24 9274   6.257   1.893   3.236
  186DPPC   C25 9275   6.290   2.016   3.319
  186DPPC   C26 9276   6.213   2.141   3.277
  186DPPC   C27 9277   6.245   2.249   3.380
  186DPPC   C28 9278   6.169   2.218   3.509
  186DPPC   C29 9279   6.224   2.302   3.625
  186DPPC   C30 9280   6.152   2.267   3.755
  186DPPC   C31 9281   6.211   2.342   3.875
  186DPPC   C32 9282   6.447   2.125   2.365
  186DPPC   O33 9283   6.576   2.171   2.406
  186DPPC   C34 9284   6.586   2.306   2.418
  186DPPC   O35 9285   6.486   2.377   2.420
  186DPPC   C36 9286   6.719   2.364   2.467
  186DPPC   C37 9287   6.737   2.329   2.615
  186DPPC   C38 9288   6.877   2.356   2.669
  186DPPC   C39 9289   6.879   2.288   2.806
  186DPPC   C40 9290   7.027   2.280   2.845
  186DPPC   C41 9291   7.045   2.220   2.985
  186DPPC   C42 9292   7.005   2.313   3.099
  186DPPC   C43 9293   7.007   2.248   3.237
  186DPPC   C44 9294   7.008   2.352   3.349
  186DPPC   C45 9295   7.019   2.294   3.489
  186DPPC   C46 9296   6.966   2.400   3.586
  186DPPC   C47 9297   6.927   2.356   3.727
  186DPPC   C48 9298   6.817   2.249   3.729
  186DPPC   C49 9299   6.679   2.295   3.683
  186DPPC   C50 9300   6.578   2.205   3.755
  187DPPC    C1 9301   9.209   1.287   0.615
  187DPPC    C2 9302   8.986   1.258   0.635
  187DPPC    C3 9303   9.129   1.079   0.551
  187DPPC    N4 9304   9.112   1.184   0.653
  187DPPC    C5 9305   9.139   1.149   0.793
  187DPPC    C6 9306   9.060   1.031   0.849
  187DPPC    O7 9307   8.935   1.076   0.902
  187DPPC    P8 9308   8.883   0.944   0.979
  187DPPC    O9 9309   8.970   0.827   0.957
  187DPPC   O10 9310   8.737   0.920   0.972
  187DPPC   O11 9311   8.936   0.988   1.125
  187DPPC   C12 9312   8.836   1.002   1.226
  187DPPC   C13 9313   8.876   1.026   1.371
  187DPPC   O14 9314   8.784   1.005   1.480
  187DPPC   C15 9315   8.743   0.880   1.516
  187DPPC   O16 9316   8.800   0.785   1.464
  187DPPC   C17 9317   8.638   0.861   1.626
  187DPPC   C18 9318   8.655   0.740   1.717
  187DPPC   C19 9319   8.545   0.721   1.821
  187DPPC   C20 9320   8.407   0.695   1.759
  187DPPC   C21 9321   8.318   0.667   1.880
  187DPPC   C22 9322   8.311   0.801   1.953
  187DPPC   C23 9323   8.296   0.746   2.096
  187DPPC   C24 9324   8.298   0.874   2.180
  187DPPC   C25 9325   8.307   0.854   2.332
  187DPPC   C26 9326   8.323   0.992   2.394
  187DPPC   C27 9327   8.342   0.984   2.546
  187DPPC   C28 9328   8.319   1.116   2.620
  187DPPC   C29 9329   8.338   1.084   2.768
  187DPPC   C30 9330   8.489   1.074   2.793
  187DPPC   C31 9331   8.510   1.071   2.945
  187DPPC   C32 9332   8.923   1.171   1.367
  187DPPC   O33 9333   9.001   1.223   1.475
  187DPPC   C34 9334   9.126   1.169   1.482
  187DPPC   O35 9335   9.179   1.124   1.381
  187DPPC   C36 9336   9.191   1.171   1.621
  187DPPC   C37 9337   9.236   1.033   1.670
  187DPPC   C38 9338   9.124   0.959   1.741
  187DPPC   C39 9339   9.084   1.020   1.876
  187DPPC   C40 9340   8.973   0.932   1.933
  187DPPC   C41 9341   9.023   0.788   1.938
  187DPPC   C42 9342   8.913   0.690   1.979
  187DPPC   C43 9343   8.845   0.736   2.108
  187DPPC   C44 9344   8.743   0.635   2.161
  187DPPC   C45 9345   8.673   0.694   2.283
  187DPPC   C46 9346   8.618   0.592   2.383
  187DPPC   C47 9347   8.567   0.674   2.501
  187DPPC   C48 9348   8.551   0.586   2.625
  187DPPC   C49 9349   8.499   0.676   2.737
  187DPPC   C50 9350   8.427   0.604   2.851
  188DPPC    C1 9351   7.422   2.403   1.679
  188DPPC    C2 9352   7.526   2.197   1.613
  188DPPC    C3 9353   7.296   2.241   1.555
  188DPPC    N4 9354   7.429   2.301   1.573
  188DPPC    C5 9355   7.466   2.366   1.447
  188DPPC    C6 9356   7.602   2.425   1.408
  188DPPC    O7 9357   7.714   2.338   1.422
  188DPPC    P8 9358   7.843   2.434   1.411
  188DPPC    O9 9359   7.816   2.534   1.305
  188DPPC   O10 9360   7.968   2.355   1.418
  188DPPC   O11 9361   7.826   2.515   1.550
  188DPPC   C12 9362   7.845   2.653   1.517
  188DPPC   C13 9363   7.879   2.742   1.637
  188DPPC   O14 9364   8.021   2.749   1.655
  188DPPC   C15 9365   8.070   2.872   1.686
  188DPPC   O16 9366   8.041   2.969   1.617
  188DPPC   C17 9367   8.205   2.862   1.758
  188DPPC   C18 9368   8.203   2.815   1.904
  188DPPC   C19 9369   8.131   2.910   2.001
  188DPPC   C20 9370   8.181   2.890   2.145
  188DPPC   C21 9371   8.157   3.007   2.241
  188DPPC   C22 9372   8.234   2.961   2.364
  188DPPC   C23 9373   8.215   3.076   2.463
  188DPPC   C24 9374   8.301   3.039   2.584
  188DPPC   C25 9375   8.321   3.163   2.670
  188DPPC   C26 9376   8.399   3.138   2.799
  188DPPC   C27 9377   8.402   3.269   2.879
  188DPPC   C28 9378   8.472   3.237   3.011
  188DPPC   C29 9379   8.611   3.178   2.990
  188DPPC   C30 9380   8.662   3.146   3.131
  188DPPC   C31 9381   8.674   2.994   3.146
  188DPPC   C32 9382   7.792   2.684   1.749
  188DPPC   O33 9383   7.776   2.765   1.866
  188DPPC   C34 9384   7.671   2.730   1.945
  188DPPC   O35 9385   7.587   2.651   1.901
  188DPPC   C36 9386   7.641   2.814   2.069
  188DPPC   C37 9387   7.765   2.839   2.154
  188DPPC   C38 9388   7.768   2.942   2.268
  188DPPC   C39 9389   7.661   2.896   2.368
  188DPPC   C40 9390   7.667   2.997   2.482
  188DPPC   C41 9391   7.568   2.969   2.596
  188DPPC   C42 9392   7.626   3.004   2.733
  188DPPC   C43 9393   7.534   2.967   2.850
  188DPPC   C44 9394   7.623   2.990   2.972
  188DPPC   C45 9395   7.582   2.917   3.100
  188DPPC   C46 9396   7.687   2.947   3.207
  188DPPC   C47 9397   7.668   2.875   3.340
  188DPPC   C48 9398   7.799   2.884   3.417
  188DPPC   C49 9399   7.784   2.823   3.557
  188DPPC   C50 9400   7.899   2.851   3.653
  189DPPC    C1 9401   8.963   3.732   1.260
  189DPPC    C2 9402   8.842   3.542   1.350
  189DPPC    C3 9403   8.882   3.742   1.483
  189DPPC    N4 9404   8.854   3.689   1.349
  189DPPC    C5 9405   8.721   3.728   1.302
  189DPPC    C6 9406   8.673   3.872   1.322
  189DPPC    O7 9407   8.774   3.966   1.284
  189DPPC    P8 9408   8.733   4.121   1.273
  189DPPC    O9 9409   8.588   4.121   1.244
  189DPPC   O10 9410   8.830   4.189   1.184
  189DPPC   O11 9411   8.754   4.154   1.429
  189DPPC   C12 9412   8.895   4.146   1.453
  189DPPC   C13 9413   8.952   4.222   1.572
  189DPPC   O14 9414   8.925   4.171   1.703
  189DPPC   C15 9415   8.985   4.056   1.745
  189DPPC   O16 9416   9.040   3.983   1.663
  189DPPC   C17 9417   8.949   4.014   1.887
  189DPPC   C18 9418   8.990   4.120   1.990
  189DPPC   C19 9419   8.901   4.110   2.114
  189DPPC   C20 9420   8.756   4.143   2.080
  189DPPC   C21 9421   8.688   4.198   2.206
  189DPPC   C22 9422   8.539   4.222   2.183
  189DPPC   C23 9423   8.489   4.257   2.324
  189DPPC   C24 9424   8.348   4.315   2.310
  189DPPC   C25 9425   8.298   4.376   2.441
  189DPPC   C26 9426   8.296   4.290   2.568
  189DPPC   C27 9427   8.244   4.361   2.693
  189DPPC   C28 9428   8.223   4.272   2.816
  189DPPC   C29 9429   8.353   4.255   2.893
  189DPPC   C30 9430   8.351   4.289   3.042
  189DPPC   C31 9431   8.246   4.206   3.118
  189DPPC   C32 9432   8.928   4.372   1.551
  189DPPC   O33 9433   9.013   4.458   1.627
  189DPPC   C34 9434   9.030   4.586   1.586
  189DPPC   O35 9435   9.001   4.622   1.471
  189DPPC   C36 9436   9.111   4.678   1.678
  189DPPC   C37 9437   9.019   4.750   1.777
  189DPPC   C38 9438   8.975   4.669   1.900
  189DPPC   C39 9439   8.852   4.738   1.958
  189DPPC   C40 9440   8.829   4.709   2.106
  189DPPC   C41 9441   8.709   4.779   2.171
  189DPPC   C42 9442   8.738   4.772   2.320
  189DPPC   C43 9443   8.719   4.628   2.366
  189DPPC   C44 9444   8.696   4.627   2.517
  189DPPC   C45 9445   8.668   4.490   2.580
  189DPPC   C46 9446   8.621   4.524   2.722
  189DPPC   C47 9447   8.725   4.618   2.784
  189DPPC   C48 9448   8.662   4.676   2.910
  189DPPC   C49 9449   8.595   4.566   2.992
  189DPPC   C50 9450   8.533   4.636   3.113
  190DPPC    C1 9451   5.043   7.192   1.677
  190DPPC    C2 9452   4.810   7.259   1.636
  190DPPC    C3 9453   4.913   7.295   1.850
  190DPPC    N4 9454   4.936   7.288   1.705
  190DPPC    C5 9455   4.974   7.428   1.676
  190DPPC    C6 9456   5.105   7.479   1.736
  190DPPC    O7 9457   5.083   7.573   1.841
  190DPPC    P8 9458   5.229   7.627   1.880
  190DPPC    O9 9459   5.188   7.716   1.990
  190DPPC   O10 9460   5.306   7.665   1.759
  190DPPC   O11 9461   5.270   7.484   1.940
  190DPPC   C12 9462   5.209   7.472   2.068
  190DPPC   C13 9463   5.192   7.323   2.099
  190DPPC   O14 9464   5.075   7.277   2.169
  190DPPC   C15 9465   5.046   7.146   2.150
  190DPPC   O16 9466   5.096   7.068   2.069
  190DPPC   C17 9467   4.932   7.102   2.242
  190DPPC   C18 9468   4.990   7.009   2.348
  190DPPC   C19 9469   5.104   7.077   2.424
  190DPPC   C20 9470   5.189   6.961   2.474
  190DPPC   C21 9471   5.341   6.982   2.476
  190DPPC   C22 9472   5.400   6.903   2.593
  190DPPC   C23 9473   5.548   6.938   2.615
  190DPPC   C24 9474   5.583   6.894   2.757
  190DPPC   C25 9475   5.578   6.741   2.766
  190DPPC   C26 9476   5.676   6.664   2.677
  190DPPC   C27 9477   5.631   6.518   2.681
  190DPPC   C28 9478   5.662   6.456   2.817
  190DPPC   C29 9479   5.648   6.303   2.819
  190DPPC   C30 9480   5.708   6.254   2.951
  190DPPC   C31 9481   5.667   6.111   2.984
  190DPPC   C32 9482   5.329   7.287   2.156
  190DPPC   O33 9483   5.372   7.355   2.275
  190DPPC   C34 9484   5.504   7.320   2.281
  190DPPC   O35 9485   5.533   7.209   2.239
  190DPPC   C36 9486   5.600   7.431   2.325
  190DPPC   C37 9487   5.597   7.447   2.477
  190DPPC   C38 9488   5.665   7.577   2.520
  190DPPC   C39 9489   5.816   7.558   2.535
  190DPPC   C40 9490   5.880   7.675   2.610
  190DPPC   C41 9491   5.856   7.804   2.532
  190DPPC   C42 9492   5.901   7.928   2.610
  190DPPC   C43 9493   5.816   7.940   2.737
  190DPPC   C44 9494   5.867   8.046   2.835
  190DPPC   C45 9495   5.785   8.065   2.963
  190DPPC   C46 9496   5.851   8.165   3.058
  190DPPC   C47 9497   5.774   8.190   3.188
  190DPPC   C48 9498   5.853   8.280   3.283
  190DPPC   C49 9499   5.777   8.294   3.415
  190DPPC   C50 9500   5.854   8.340   3.539
  191DPPC    C1 9501   0.994   2.281   1.301
  191DPPC    C2 9502   1.179   2.161   1.195
  191DPPC    C3 9503   1.137   2.142   1.433
  191DPPC    N4 9504   1.076   2.159   1.300
  191DPPC    C5 9505   0.996   2.044   1.255
  191DPPC    C6 9506   0.903   1.974   1.354
  191DPPC    O7 9507   0.805   2.055   1.419
  191DPPC    P8 9508   0.710   1.966   1.514
  191DPPC    O9 9509   0.814   1.886   1.584
  191DPPC   O10 9510   0.630   1.916   1.401
  191DPPC   O11 9511   0.644   2.098   1.577
  191DPPC   C12 9512   0.705   2.102   1.706
  191DPPC   C13 9513   0.719   2.244   1.760
  191DPPC   O14 9514   0.800   2.270   1.876
  191DPPC   C15 9515   0.928   2.227   1.893
  191DPPC   O16 9516   0.999   2.210   1.794
  191DPPC   C17 9517   0.988   2.239   2.034
  191DPPC   C18 9518   0.998   2.101   2.098
  191DPPC   C19 9519   1.050   2.126   2.240
  191DPPC   C20 9520   1.180   2.207   2.247
  191DPPC   C21 9521   1.235   2.165   2.384
  191DPPC   C22 9522   1.294   2.282   2.461
  191DPPC   C23 9523   1.304   2.245   2.609
  191DPPC   C24 9524   1.364   2.358   2.692
  191DPPC   C25 9525   1.327   2.332   2.838
  191DPPC   C26 9526   1.176   2.317   2.861
  191DPPC   C27 9527   1.145   2.266   3.002
  191DPPC   C28 9528   1.230   2.142   3.031
  191DPPC   C29 9529   1.184   2.089   3.167
  191DPPC   C30 9530   1.248   1.957   3.213
  191DPPC   C31 9531   1.194   1.908   3.347
  191DPPC   C32 9532   0.572   2.283   1.779
  191DPPC   O33 9533   0.496   2.202   1.869
  191DPPC   C34 9534   0.360   2.205   1.862
  191DPPC   O35 9535   0.299   2.273   1.780
  191DPPC   C36 9536   0.292   2.093   1.941
  191DPPC   C37 9537   0.216   2.136   2.066
  191DPPC   C38 9538   0.178   2.008   2.141
  191DPPC   C39 9539   0.138   2.046   2.284
  191DPPC   C40 9540   0.012   2.132   2.281
  191DPPC   C41 9541  -0.035   2.129   2.426
  191DPPC   C42 9542  -0.055   1.981   2.457
  191DPPC   C43 9543  -0.076   1.957   2.607
  191DPPC   C44 9544  -0.188   2.040   2.669
  191DPPC   C45 9545  -0.222   1.949   2.787
  191DPPC   C46 9546  -0.337   2.018   2.861
  191DPPC   C47 9547  -0.307   2.138   2.951
  191DPPC   C48 9548  -0.434   2.184   3.023
  191DPPC   C49 9549  -0.486   2.059   3.094
  191DPPC   C50 9550  -0.616   2.058   3.174
  192DPPC    C1 9551   4.809   1.083   1.687
  192DPPC    C2 9552   4.799   0.844   1.694
  192DPPC    C3 9553   5.011   0.952   1.671
  192DPPC    N4 9554   4.878   0.962   1.733
  192DPPC    C5 9555   4.892   0.948   1.879
  192DPPC    C6 9556   4.945   1.052   1.977
  192DPPC    O7 9557   4.879   1.178   1.965
  192DPPC    P8 9558   4.965   1.286   2.048
  192DPPC    O9 9559   4.903   1.415   2.012
  192DPPC   O10 9560   5.105   1.253   2.014
  192DPPC   O11 9561   4.928   1.261   2.202
  192DPPC   C12 9562   4.812   1.326   2.254
  192DPPC   C13 9563   4.818   1.318   2.406
  192DPPC   O14 9564   4.697   1.363   2.468
  192DPPC   C15 9565   4.590   1.280   2.454
  192DPPC   O16 9566   4.589   1.176   2.387
  192DPPC   C17 9567   4.458   1.333   2.511
  192DPPC   C18 9568   4.474   1.457   2.599
  192DPPC   C19 9569   4.344   1.509   2.660
  192DPPC   C20 9570   4.294   1.430   2.781
  192DPPC   C21 9571   4.174   1.496   2.850
  192DPPC   C22 9572   4.120   1.399   2.955
  192DPPC   C23 9573   4.203   1.389   3.083
  192DPPC   C24 9574   4.139   1.298   3.187
  192DPPC   C25 9575   4.237   1.279   3.302
  192DPPC   C26 9576   4.372   1.251   3.234
  192DPPC   C27 9577   4.448   1.164   3.335
  192DPPC   C28 9578   4.544   1.083   3.248
  192DPPC   C29 9579   4.620   0.983   3.336
  192DPPC   C30 9580   4.710   0.900   3.243
  192DPPC   C31 9581   4.845   0.963   3.210
  192DPPC   C32 9582   4.948   1.384   2.454
  192DPPC   O33 9583   4.987   1.338   2.583
  192DPPC   C34 9584   5.115   1.365   2.621
  192DPPC   O35 9585   5.207   1.355   2.540
  192DPPC   C36 9586   5.131   1.336   2.771
  192DPPC   C37 9587   5.189   1.195   2.780
  192DPPC   C38 9588   5.204   1.185   2.932
  192DPPC   C39 9589   5.169   1.043   2.977
  192DPPC   C40 9590   5.237   1.022   3.113
  192DPPC   C41 9591   5.273   0.878   3.147
  192DPPC   C42 9592   5.330   0.871   3.289
  192DPPC   C43 9593   5.369   0.730   3.333
  192DPPC   C44 9594   5.408   0.710   3.480
  192DPPC   C45 9595   5.395   0.564   3.523
  192DPPC   C46 9596   5.473   0.482   3.419
  192DPPC   C47 9597   5.472   0.336   3.464
  192DPPC   C48 9598   5.552   0.254   3.364
  192DPPC   C49 9599   5.586   0.114   3.415
  192DPPC   C50 9600   5.465   0.038   3.469
  193DPPC    C1 9601   5.432   5.740   6.048
  193DPPC    C2 9602   5.297   5.552   6.043
  193DPPC    C3 9603   5.255   5.741   5.909
  193DPPC    N4 9604   5.361   5.651   5.956
  193DPPC    C5 9605   5.454   5.592   5.858
  193DPPC    C6 9606   5.407   5.466   5.786
  193DPPC    O7 9607   5.475   5.448   5.661
  193DPPC    P8 9608   5.444   5.292   5.632
  193DPPC    O9 9609   5.410   5.228   5.761
  193DPPC   O10 9610   5.551   5.233   5.549
  193DPPC   O11 9611   5.316   5.304   5.535
  193DPPC   C12 9612   5.340   5.267   5.399
  193DPPC   C13 9613   5.227   5.313   5.306
  193DPPC   O14 9614   5.218   5.218   5.199
  193DPPC   C15 9615   5.133   5.112   5.212
  193DPPC   O16 9616   5.044   5.119   5.296
  193DPPC   C17 9617   5.129   5.020   5.090
  193DPPC   C18 9618   5.269   5.004   5.031
  193DPPC   C19 9619   5.263   4.889   4.932
  193DPPC   C20 9620   5.363   4.910   4.818
  193DPPC   C21 9621   5.361   4.785   4.729
  193DPPC   C22 9622   5.477   4.797   4.630
  193DPPC   C23 9623   5.479   4.669   4.545
  193DPPC   C24 9624   5.564   4.714   4.426
  193DPPC   C25 9625   5.578   4.602   4.322
  193DPPC   C26 9626   5.638   4.666   4.196
  193DPPC   C27 9627   5.781   4.713   4.223
  193DPPC   C28 9628   5.834   4.796   4.105
  193DPPC   C29 9629   5.838   4.714   3.976
  193DPPC   C30 9630   5.910   4.798   3.871
  193DPPC   C31 9631   5.818   4.901   3.805
  193DPPC   C32 9632   5.248   5.459   5.266
  193DPPC   O33 9633   5.364   5.484   5.186
  193DPPC   C34 9634   5.317   5.507   5.061
  193DPPC   O35 9635   5.208   5.558   5.039
  193DPPC   C36 9636   5.429   5.499   4.956
  193DPPC   C37 9637   5.468   5.352   4.939
  193DPPC   C38 9638   5.610   5.342   4.882
  193DPPC   C39 9639   5.615   5.193   4.851
  193DPPC   C40 9640   5.753   5.145   4.804
  193DPPC   C41 9641   5.765   4.992   4.797
  193DPPC   C42 9642   5.894   4.944   4.731
  193DPPC   C43 9643   5.929   4.800   4.769
  193DPPC   C44 9644   6.047   4.765   4.678
  193DPPC   C45 9645   6.014   4.794   4.531
  193DPPC   C46 9646   6.124   4.743   4.437
  193DPPC   C47 9647   6.141   4.591   4.450
  193DPPC   C48 9648   6.256   4.542   4.363
  193DPPC   C49 9649   6.216   4.550   4.216
  193DPPC   C50 9650   6.327   4.476   4.140
  194DPPC    C1 9651   8.004   5.527   0.920
  194DPPC    C2 9652   7.841   5.701   0.959
  194DPPC    C3 9653   7.828   5.553   0.770
  194DPPC    N4 9654   7.862   5.563   0.913
  194DPPC    C5 9655   7.761   5.479   0.979
  194DPPC    C6 9656   7.770   5.326   0.981
  194DPPC    O7 9657   7.860   5.283   1.083
  194DPPC    P8 9658   7.857   5.123   1.099
  194DPPC    O9 9659   7.883   5.080   0.959
  194DPPC   O10 9660   7.724   5.095   1.158
  194DPPC   O11 9661   7.979   5.094   1.200
  194DPPC   C12 9662   7.947   5.149   1.328
  194DPPC   C13 9663   8.024   5.272   1.377
  194DPPC   O14 9664   8.115   5.241   1.483
  194DPPC   C15 9665   8.199   5.326   1.547
  194DPPC   O16 9666   8.212   5.440   1.503
  194DPPC   C17 9667   8.290   5.279   1.661
  194DPPC   C18 9668   8.235   5.172   1.755
  194DPPC   C19 9669   8.348   5.075   1.790
  194DPPC   C20 9670   8.405   5.059   1.931
  194DPPC   C21 9671   8.298   4.988   2.013
  194DPPC   C22 9672   8.339   4.971   2.159
  194DPPC   C23 9673   8.274   4.848   2.223
  194DPPC   C24 9674   8.242   4.885   2.367
  194DPPC   C25 9675   8.160   4.774   2.432
  194DPPC   C26 9676   8.163   4.802   2.583
  194DPPC   C27 9677   8.302   4.788   2.645
  194DPPC   C28 9678   8.282   4.791   2.796
  194DPPC   C29 9679   8.191   4.898   2.858
  194DPPC   C30 9680   8.208   4.909   3.010
  194DPPC   C31 9681   8.126   5.030   3.056
  194DPPC   C32 9682   7.913   5.365   1.425
  194DPPC   O33 9683   7.829   5.325   1.534
  194DPPC   C34 9684   7.716   5.398   1.551
  194DPPC   O35 9685   7.697   5.492   1.473
  194DPPC   C36 9686   7.634   5.362   1.674
  194DPPC   C37 9687   7.498   5.431   1.676
  194DPPC   C38 9688   7.424   5.410   1.808
  194DPPC   C39 9689   7.295   5.492   1.811
  194DPPC   C40 9690   7.200   5.467   1.928
  194DPPC   C41 9691   7.135   5.328   1.925
  194DPPC   C42 9692   7.057   5.310   2.055
  194DPPC   C43 9693   7.151   5.317   2.176
  194DPPC   C44 9694   7.078   5.321   2.311
  194DPPC   C45 9695   7.189   5.355   2.410
  194DPPC   C46 9696   7.142   5.329   2.553
  194DPPC   C47 9697   7.241   5.364   2.664
  194DPPC   C48 9698   7.176   5.328   2.797
  194DPPC   C49 9699   7.277   5.356   2.908
  194DPPC   C50 9700   7.402   5.271   2.886
  195DPPC    C1 9701   2.510   3.569   5.456
  195DPPC    C2 9702   2.300   3.630   5.401
  195DPPC    C3 9703   2.432   3.583   5.220
  195DPPC    N4 9704   2.406   3.537   5.357
  195DPPC    C5 9705   2.350   3.402   5.372
  195DPPC    C6 9706   2.411   3.283   5.298
  195DPPC    O7 9707   2.536   3.240   5.353
  195DPPC    P8 9708   2.580   3.094   5.301
  195DPPC    O9 9709   2.545   3.095   5.157
  195DPPC   O10 9710   2.526   2.996   5.399
  195DPPC   O11 9711   2.740   3.106   5.308
  195DPPC   C12 9712   2.771   3.213   5.219
  195DPPC   C13 9713   2.843   3.342   5.262
  195DPPC   O14 9714   2.823   3.440   5.159
  195DPPC   C15 9715   2.854   3.572   5.174
  195DPPC   O16 9716   2.836   3.617   5.287
  195DPPC   C17 9717   2.852   3.661   5.050
  195DPPC   C18 9718   2.959   3.619   4.950
  195DPPC   C19 9719   2.945   3.710   4.828
  195DPPC   C20 9720   3.009   3.648   4.704
  195DPPC   C21 9721   2.927   3.524   4.668
  195DPPC   C22 9722   2.958   3.468   4.530
  195DPPC   C23 9723   2.910   3.578   4.435
  195DPPC   C24 9724   2.940   3.558   4.286
  195DPPC   C25 9725   2.894   3.424   4.228
  195DPPC   C26 9726   2.929   3.405   4.080
  195DPPC   C27 9727   3.080   3.421   4.063
  195DPPC   C28 9728   3.102   3.429   3.912
  195DPPC   C29 9729   3.072   3.291   3.852
  195DPPC   C30 9730   3.166   3.196   3.926
  195DPPC   C31 9731   3.158   3.053   3.872
  195DPPC   C32 9732   2.989   3.304   5.286
  195DPPC   O33 9733   3.042   3.212   5.190
  195DPPC   C34 9734   3.173   3.180   5.208
  195DPPC   O35 9735   3.232   3.227   5.304
  195DPPC   C36 9736   3.240   3.082   5.112
  195DPPC   C37 9737   3.307   3.168   5.005
  195DPPC   C38 9738   3.325   3.086   4.876
  195DPPC   C39 9739   3.190   3.075   4.805
  195DPPC   C40 9740   3.224   3.019   4.666
  195DPPC   C41 9741   3.119   3.052   4.559
  195DPPC   C42 9742   3.181   3.010   4.426
  195DPPC   C43 9743   3.087   3.027   4.306
  195DPPC   C44 9744   2.945   2.973   4.319
  195DPPC   C45 9745   2.868   2.991   4.188
  195DPPC   C46 9746   2.720   2.954   4.203
  195DPPC   C47 9747   2.621   3.008   4.100
  195DPPC   C48 9748   2.621   3.160   4.082
  195DPPC   C49 9749   2.588   3.213   3.943
  195DPPC   C50 9750   2.590   3.364   3.968
  196DPPC    C1 9751   0.644   0.144   1.507
  196DPPC    C2 9752   0.505   0.298   1.408
  196DPPC    C3 9753   0.474   0.254   1.643
  196DPPC    N4 9754   0.573   0.269   1.535
  196DPPC    C5 9755   0.676   0.373   1.549
  196DPPC    C6 9756   0.637   0.521   1.555
  196DPPC    O7 9757   0.524   0.564   1.632
  196DPPC    P8 9758   0.522   0.725   1.627
  196DPPC    O9 9759   0.387   0.776   1.594
  196DPPC   O10 9760   0.637   0.772   1.545
  196DPPC   O11 9761   0.584   0.764   1.770
  196DPPC   C12 9762   0.471   0.749   1.855
  196DPPC   C13 9763   0.506   0.723   2.002
  196DPPC   O14 9764   0.394   0.679   2.080
  196DPPC   C15 9765   0.348   0.553   2.058
  196DPPC   O16 9766   0.413   0.471   1.994
  196DPPC   C17 9767   0.212   0.508   2.113
  196DPPC   C18 9768   0.222   0.489   2.265
  196DPPC   C19 9769   0.099   0.437   2.340
  196DPPC   C20 9770   0.142   0.434   2.487
  196DPPC   C21 9771   0.045   0.372   2.587
  196DPPC   C22 9772   0.146   0.305   2.681
  196DPPC   C23 9773   0.063   0.261   2.801
  196DPPC   C24 9774   0.155   0.207   2.910
  196DPPC   C25 9775   0.062   0.147   3.016
  196DPPC   C26 9776   0.131   0.049   3.111
  196DPPC   C27 9777   0.164  -0.087   3.048
  196DPPC   C28 9778   0.217  -0.185   3.153
  196DPPC   C29 9779   0.263  -0.320   3.096
  196DPPC   C30 9780   0.278  -0.450   3.175
  196DPPC   C31 9781   0.309  -0.567   3.082
  196DPPC   C32 9782   0.592   0.841   2.047
  196DPPC   O33 9783   0.528   0.965   2.014
  196DPPC   C34 9784   0.596   1.083   2.012
  196DPPC   O35 9785   0.713   1.075   2.047
  196DPPC   C36 9786   0.516   1.208   1.976
  196DPPC   C37 9787   0.445   1.286   2.087
  196DPPC   C38 9788   0.348   1.389   2.030
  196DPPC   C39 9789   0.270   1.450   2.147
  196DPPC   C40 9790   0.200   1.343   2.230
  196DPPC   C41 9791   0.123   1.410   2.344
  196DPPC   C42 9792   0.058   1.304   2.433
  196DPPC   C43 9793  -0.015   1.373   2.549
  196DPPC   C44 9794  -0.072   1.268   2.645
  196DPPC   C45 9795  -0.098   1.317   2.788
  196DPPC   C46 9796  -0.172   1.217   2.877
  196DPPC   C47 9797  -0.218   1.280   3.009
  196DPPC   C48 9798  -0.282   1.176   3.101
  196DPPC   C49 9799  -0.183   1.128   3.207
  196DPPC   C50 9800  -0.251   1.057   3.324
  197DPPC    C1 9801   8.829   2.064   5.658
  197DPPC    C2 9802   8.878   1.828   5.674
  197DPPC    C3 9803   8.718   1.914   5.524
  197DPPC    N4 9804   8.850   1.940   5.582
  197DPPC    C5 9805   8.964   1.955   5.491
  197DPPC    C6 9806   9.004   1.836   5.402
  197DPPC    O7 9807   8.904   1.781   5.316
  197DPPC    P8 9808   8.975   1.687   5.206
  197DPPC    O9 9809   8.876   1.596   5.143
  197DPPC   O10 9810   9.109   1.645   5.254
  197DPPC   O11 9811   9.004   1.807   5.104
  197DPPC   C12 9812   8.878   1.855   5.056
  197DPPC   C13 9813   8.879   2.000   5.005
  197DPPC   O14 9814   8.752   2.056   4.970
  197DPPC   C15 9815   8.734   2.189   4.993
  197DPPC   O16 9816   8.787   2.238   5.092
  197DPPC   C17 9817   8.622   2.259   4.917
  197DPPC   C18 9818   8.671   2.293   4.776
  197DPPC   C19 9819   8.546   2.309   4.689
  197DPPC   C20 9820   8.590   2.364   4.554
  197DPPC   C21 9821   8.472   2.395   4.462
  197DPPC   C22 9822   8.513   2.418   4.316
  197DPPC   C23 9823   8.388   2.458   4.238
  197DPPC   C24 9824   8.294   2.544   4.323
  197DPPC   C25 9825   8.181   2.591   4.231
  197DPPC   C26 9826   8.148   2.465   4.149
  197DPPC   C27 9827   8.030   2.509   4.062
  197DPPC   C28 9828   7.983   2.381   3.993
  197DPPC   C29 9829   7.857   2.424   3.918
  197DPPC   C30 9830   7.785   2.297   3.871
  197DPPC   C31 9831   7.866   2.199   3.786
  197DPPC   C32 9832   8.978   1.989   4.889
  197DPPC   O33 9833   9.013   2.110   4.822
  197DPPC   C34 9834   9.111   2.105   4.727
  197DPPC   O35 9835   9.194   2.014   4.723
  197DPPC   C36 9836   9.127   2.229   4.640
  197DPPC   C37 9837   9.005   2.246   4.548
  197DPPC   C38 9838   9.014   2.352   4.438
  197DPPC   C39 9839   8.899   2.360   4.338
  197DPPC   C40 9840   8.930   2.499   4.283
  197DPPC   C41 9841   8.900   2.613   4.380
  197DPPC   C42 9842   8.949   2.750   4.332
  197DPPC   C43 9843   8.913   2.860   4.431
  197DPPC   C44 9844   8.993   2.989   4.406
  197DPPC   C45 9845   8.966   3.091   4.516
  197DPPC   C46 9846   9.080   3.192   4.533
  197DPPC   C47 9847   9.015   3.291   4.629
  197DPPC   C48 9848   9.106   3.407   4.673
  197DPPC   C49 9849   9.047   3.490   4.787
  197DPPC   C50 9850   9.029   3.406   4.913
  198DPPC    C1 9851   3.957   4.857   5.244
  198DPPC    C2 9852   3.747   4.794   5.324
  198DPPC    C3 9853   3.931   4.785   5.472
  198DPPC    N4 9854   3.871   4.863   5.363
  198DPPC    C5 9855   3.841   5.000   5.408
  198DPPC    C6 9856   3.944   5.082   5.487
  198DPPC    O7 9857   4.045   5.134   5.401
  198DPPC    P8 9858   4.182   5.128   5.487
  198DPPC    O9 9859   4.207   4.983   5.466
  198DPPC   O10 9860   4.166   5.194   5.618
  198DPPC   O11 9861   4.268   5.213   5.381
  198DPPC   C12 9862   4.320   5.124   5.282
  198DPPC   C13 9863   4.395   5.185   5.163
  198DPPC   O14 9864   4.518   5.257   5.175
  198DPPC   C15 9865   4.625   5.174   5.192
  198DPPC   O16 9866   4.620   5.061   5.239
  198DPPC   C17 9867   4.766   5.227   5.166
  198DPPC   C18 9868   4.768   5.299   5.031
  198DPPC   C19 9869   4.897   5.348   4.965
  198DPPC   C20 9870   4.873   5.396   4.821
  198DPPC   C21 9871   5.008   5.425   4.756
  198DPPC   C22 9872   5.083   5.296   4.723
  198DPPC   C23 9873   5.197   5.338   4.630
  198DPPC   C24 9874   5.275   5.227   4.560
  198DPPC   C25 9875   5.419   5.267   4.527
  198DPPC   C26 9876   5.485   5.160   4.440
  198DPPC   C27 9877   5.630   5.189   4.402
  198DPPC   C28 9878   5.663   5.112   4.274
  198DPPC   C29 9879   5.805   5.149   4.233
  198DPPC   C30 9880   5.899   5.116   4.349
  198DPPC   C31 9881   6.052   5.115   4.340
  198DPPC   C32 9882   4.282   5.255   5.087
  198DPPC   O33 9883   4.178   5.170   5.040
  198DPPC   C34 9884   4.074   5.233   4.978
  198DPPC   O35 9885   4.077   5.353   4.951
  198DPPC   C36 9886   3.947   5.156   4.944
  198DPPC   C37 9887   4.005   5.023   4.895
  198DPPC   C38 9888   4.065   5.023   4.754
  198DPPC   C39 9889   4.127   4.886   4.728
  198DPPC   C40 9890   4.186   4.886   4.587
  198DPPC   C41 9891   4.243   4.749   4.552
  198DPPC   C42 9892   4.351   4.765   4.445
  198DPPC   C43 9893   4.448   4.648   4.432
  198DPPC   C44 9894   4.549   4.672   4.320
  198DPPC   C45 9895   4.667   4.575   4.309
  198DPPC   C46 9896   4.767   4.608   4.198
  198DPPC   C47 9897   4.884   4.510   4.189
  198DPPC   C48 9898   4.845   4.365   4.162
  198DPPC   C49 9899   4.966   4.279   4.125
  198DPPC   C50 9900   4.915   4.143   4.077
  199DPPC    C1 9901   6.945   6.320   5.286
  199DPPC    C2 9902   6.898   6.543   5.221
  199DPPC    C3 9903   6.811   6.369   5.098
  199DPPC    N4 9904   6.839   6.409   5.237
  199DPPC    C5 9905   6.722   6.399   5.326
  199DPPC    C6 9906   6.613   6.505   5.315
  199DPPC    O7 9907   6.529   6.480   5.202
  199DPPC    P8 9908   6.407   6.585   5.199
  199DPPC    O9 9909   6.480   6.714   5.187
  199DPPC   O10 9910   6.314   6.547   5.307
  199DPPC   O11 9911   6.340   6.530   5.064
  199DPPC   C12 9912   6.439   6.473   4.977
  199DPPC   C13 9913   6.407   6.496   4.829
  199DPPC   O14 9914   6.496   6.436   4.734
  199DPPC   C15 9915   6.480   6.305   4.702
  199DPPC   O16 9916   6.410   6.237   4.777
  199DPPC   C17 9917   6.547   6.245   4.579
  199DPPC   C18 9918   6.503   6.296   4.441
  199DPPC   C19 9919   6.590   6.221   4.340
  199DPPC   C20 9920   6.558   6.286   4.206
  199DPPC   C21 9921   6.640   6.203   4.107
  199DPPC   C22 9922   6.635   6.263   3.967
  199DPPC   C23 9923   6.734   6.379   3.958
  199DPPC   C24 9924   6.728   6.427   3.813
  199DPPC   C25 9925   6.816   6.353   3.714
  199DPPC   C26 9926   6.815   6.434   3.584
  199DPPC   C27 9927   6.870   6.575   3.608
  199DPPC   C28 9928   6.870   6.656   3.478
  199DPPC   C29 9929   6.953   6.783   3.495
  199DPPC   C30 9930   6.983   6.864   3.368
  199DPPC   C31 9931   7.057   6.992   3.405
  199DPPC   C32 9932   6.392   6.648   4.824
  199DPPC   O33 9933   6.497   6.735   4.868
  199DPPC   C34 9934   6.463   6.867   4.861
  199DPPC   O35 9935   6.349   6.900   4.832
  199DPPC   C36 9936   6.568   6.964   4.914
  199DPPC   C37 9937   6.568   7.094   4.833
  199DPPC   C38 9938   6.483   7.205   4.894
  199DPPC   C39 9939   6.455   7.324   4.801
  199DPPC   C40 9940   6.388   7.276   4.673
  199DPPC   C41 9941   6.369   7.398   4.583
  199DPPC   C42 9942   6.507   7.454   4.547
  199DPPC   C43 9943   6.583   7.368   4.446
  199DPPC   C44 9944   6.715   7.439   4.417
  199DPPC   C45 9945   6.703   7.579   4.356
  199DPPC   C46 9946   6.839   7.621   4.301
  199DPPC   C47 9947   6.897   7.522   4.199
  199DPPC   C48 9948   7.037   7.564   4.152
  199DPPC   C49 9949   7.127   7.575   4.275
  199DPPC   C50 9950   7.272   7.613   4.241
  200DPPC    C1 9951   2.643   7.581   5.011
  200DPPC    C2 9952   2.725   7.449   5.204
  200DPPC    C3 9953   2.775   7.669   5.168
  200DPPC    N4 9954   2.664   7.574   5.156
  200DPPC    C5 9955   2.560   7.637   5.240
  200DPPC    C6 9956   2.419   7.581   5.227
  200DPPC    O7 9957   2.398   7.441   5.250
  200DPPC    P8 9958   2.248   7.389   5.228
  200DPPC    O9 9959   2.152   7.496   5.262
  200DPPC   O10 9960   2.255   7.265   5.308
  200DPPC   O11 9961   2.256   7.372   5.068
  200DPPC   C12 9962   2.337   7.255   5.050
  200DPPC   C13 9963   2.318   7.196   4.910
  200DPPC   O14 9964   2.400   7.243   4.801
  200DPPC   C15 9965   2.535   7.227   4.802
  200DPPC   O16 9966   2.605   7.221   4.903
  200DPPC   C17 9967   2.586   7.252   4.660
  200DPPC   C18 9968   2.682   7.140   4.619
  200DPPC   C19 9969   2.731   7.179   4.479
  200DPPC   C20 9970   2.840   7.083   4.432
  200DPPC   C21 9971   2.891   7.104   4.290
  200DPPC   C22 9972   2.785   7.091   4.179
  200DPPC   C23 9973   2.860   7.097   4.046
  200DPPC   C24 9974   2.775   7.094   3.918
  200DPPC   C25 9975   2.851   7.107   3.787
  200DPPC   C26 9976   2.926   7.239   3.769
  200DPPC   C27 9977   3.001   7.249   3.635
  200DPPC   C28 9978   3.100   7.365   3.628
  200DPPC   C29 9979   3.167   7.366   3.491
  200DPPC   C30 9980   3.248   7.237   3.473
  200DPPC   C31 9981   3.346   7.226   3.356
  200DPPC   C32 9982   2.166   7.184   4.902
  200DPPC   O33 9983   2.118   7.103   4.795
  200DPPC   C34 9984   1.983   7.091   4.803
  200DPPC   O35 9985   1.916   7.107   4.905
  200DPPC   C36 9986   1.928   7.018   4.680
  200DPPC   C37 9987   1.888   7.103   4.560
  200DPPC   C38 9988   1.851   7.013   4.441
  200DPPC   C39 9989   1.979   6.959   4.377
  200DPPC   C40 9990   1.960   6.847   4.274
  200DPPC   C41 9991   2.088   6.797   4.207
  200DPPC   C42 9992   2.043   6.690   4.108
  200DPPC   C43 9993   1.924   6.744   4.028
  200DPPC   C44 9994   1.852   6.633   3.952
  200DPPC   C45 9995   1.704   6.668   3.931
  200DPPC   C46 9996   1.675   6.803   3.865
  200DPPC   C47 9997   1.531   6.816   3.814
  200DPPC   C48 9998   1.500   6.963   3.788
  200DPPC   C49 9999   1.358   6.999   3.743
  200DPPC   C5010000   1.339   7.150   3.725
  201DPPC    C110001   7.794   1.518   5.638
  201DPPC    C210002   7.804   1.585   5.871
  201DPPC    C310003   7.828   1.361   5.817
  201DPPC    N410004   7.859   1.496   5.768
  201DPPC    C510005   8.005   1.508   5.781
  201DPPC    C610006   8.079   1.619   5.705
  201DPPC    O710007   8.034   1.743   5.761
  201DPPC    P810008   8.087   1.866   5.672
  201DPPC    O910009   8.229   1.833   5.645
  201DPPC   O1010010   8.053   2.003   5.716
  201DPPC   O1110011   8.000   1.831   5.541
  201DPPC   C1210012   8.070   1.890   5.431
  201DPPC   C1310013   7.995   1.917   5.300
  201DPPC   O1410014   7.896   2.021   5.297
  201DPPC   C1510015   7.935   2.151   5.310
  201DPPC   O1610016   8.027   2.180   5.385
  201DPPC   C1710017   7.843   2.251   5.240
  201DPPC   C1810018   7.865   2.250   5.088
  201DPPC   C1910019   7.783   2.362   5.023
  201DPPC   C2010020   7.635   2.326   5.038
  201DPPC   C2110021   7.545   2.432   4.974
  201DPPC   C2210022   7.401   2.386   4.953
  201DPPC   C2310023   7.320   2.498   4.889
  201DPPC   C2410024   7.358   2.512   4.741
  201DPPC   C2510025   7.266   2.615   4.675
  201DPPC   C2610026   7.289   2.616   4.524
  201DPPC   C2710027   7.173   2.679   4.446
  201DPPC   C2810028   7.176   2.639   4.298
  201DPPC   C2910029   7.050   2.660   4.214
  201DPPC   C3010030   7.058   2.603   4.072
  201DPPC   C3110031   6.941   2.506   4.055
  201DPPC   C3210032   7.941   1.777   5.268
  201DPPC   O3310033   8.051   1.688   5.249
  201DPPC   C3410034   8.017   1.559   5.272
  201DPPC   O3510035   7.903   1.532   5.311
  201DPPC   C3610036   8.125   1.455   5.243
  201DPPC   C3710037   8.181   1.471   5.101
  201DPPC   C3810038   8.261   1.350   5.053
  201DPPC   C3910039   8.320   1.371   4.913
  201DPPC   C4010040   8.209   1.420   4.821
  201DPPC   C4110041   8.260   1.469   4.685
  201DPPC   C4210042   8.146   1.554   4.627
  201DPPC   C4310043   8.169   1.627   4.495
  201DPPC   C4410044   8.037   1.689   4.449
  201DPPC   C4510045   7.919   1.594   4.426
  201DPPC   C4610046   7.796   1.672   4.380
  201DPPC   C4710047   7.670   1.585   4.377
  201DPPC   C4810048   7.553   1.680   4.350
  201DPPC   C4910049   7.424   1.616   4.401
  201DPPC   C5010050   7.435   1.584   4.550
  202DPPC    C110051   0.670   2.612   5.553
  202DPPC    C210052   0.885   2.626   5.652
  202DPPC    C310053   0.683   2.697   5.755
  202DPPC    N410054   0.745   2.589   5.677
  202DPPC    C510055   0.723   2.459   5.742
  202DPPC    C610056   0.702   2.331   5.661
  202DPPC    O710057   0.574   2.324   5.598
  202DPPC    P810058   0.545   2.185   5.523
  202DPPC    O910059   0.401   2.153   5.529
  202DPPC   O1010060   0.658   2.105   5.576
  202DPPC   O1110061   0.590   2.243   5.379
  202DPPC   C1210062   0.489   2.311   5.304
  202DPPC   C1310063   0.548   2.416   5.210
  202DPPC   O1410064   0.447   2.458   5.118
  202DPPC   C1510065   0.443   2.585   5.070
  202DPPC   O1610066   0.435   2.678   5.151
  202DPPC   C1710067   0.388   2.604   4.929
  202DPPC   C1810068   0.351   2.743   4.876
  202DPPC   C1910069   0.325   2.737   4.725
  202DPPC   C2010070   0.266   2.876   4.701
  202DPPC   C2110071   0.209   2.901   4.561
  202DPPC   C2210072   0.319   2.900   4.454
  202DPPC   C2310073   0.253   2.940   4.322
  202DPPC   C2410074   0.348   2.899   4.210
  202DPPC   C2510075   0.288   2.908   4.069
  202DPPC   C2610076   0.384   2.843   3.970
  202DPPC   C2710077   0.341   2.862   3.824
  202DPPC   C2810078   0.454   2.809   3.736
  202DPPC   C2910079   0.431   2.834   3.586
  202DPPC   C3010080   0.556   2.813   3.501
  202DPPC   C3110081   0.550   2.882   3.365
  202DPPC   C3210082   0.661   2.332   5.150
  202DPPC   O3310083   0.716   2.363   5.021
  202DPPC   C3410084   0.803   2.274   4.967
  202DPPC   O3510085   0.820   2.168   5.026
  202DPPC   C3610086   0.834   2.291   4.818
  202DPPC   C3710087   0.784   2.427   4.771
  202DPPC   C3810088   0.778   2.443   4.619
  202DPPC   C3910089   0.768   2.595   4.607
  202DPPC   C4010090   0.723   2.645   4.469
  202DPPC   C4110091   0.694   2.796   4.472
  202DPPC   C4210092   0.684   2.839   4.326
  202DPPC   C4310093   0.811   2.800   4.251
  202DPPC   C4410094   0.786   2.800   4.100
  202DPPC   C4510095   0.907   2.766   4.012
  202DPPC   C4610096   0.862   2.751   3.867
  202DPPC   C4710097   0.987   2.758   3.778
  202DPPC   C4810098   0.942   2.729   3.634
  202DPPC   C4910099   1.045   2.740   3.521
  202DPPC   C5010100   0.978   2.688   3.393
  203DPPC    C110101   1.937   7.637   4.347
  203DPPC    C210102   1.726   7.582   4.242
  203DPPC    C310103   1.843   7.424   4.381
  203DPPC    N410104   1.809   7.566   4.362
  203DPPC    C510105   1.734   7.616   4.478
  203DPPC    C610106   1.758   7.578   4.624
  203DPPC    O710107   1.880   7.631   4.677
  203DPPC    P810108   1.949   7.516   4.766
  203DPPC    O910109   1.856   7.405   4.797
  203DPPC   O1010110   2.035   7.589   4.862
  203DPPC   O1110111   2.045   7.446   4.658
  203DPPC   C1210112   2.184   7.477   4.671
  203DPPC   C1310113   2.244   7.430   4.538
  203DPPC   O1410114   2.233   7.527   4.433
  203DPPC   C1510115   2.340   7.604   4.400
  203DPPC   O1610116   2.381   7.670   4.495
  203DPPC   C1710117   2.349   7.646   4.253
  203DPPC   C1810118   2.489   7.636   4.192
  203DPPC   C1910119   2.485   7.636   4.039
  203DPPC   C2010120   2.619   7.644   3.966
  203DPPC   C2110121   2.726   7.545   4.012
  203DPPC   C2210122   2.853   7.555   3.927
  203DPPC   C2310123   2.876   7.700   3.886
  203DPPC   C2410124   3.001   7.724   3.800
  203DPPC   C2510125   3.022   7.873   3.776
  203DPPC   C2610126   3.126   7.897   3.665
  203DPPC   C2710127   3.161   8.042   3.634
  203DPPC   C2810128   3.206   8.109   3.764
  203DPPC   C2910129   3.262   8.249   3.743
  203DPPC   C3010130   3.272   8.308   3.884
  203DPPC   C3110131   3.371   8.425   3.878
  203DPPC   C3210132   2.209   7.284   4.510
  203DPPC   O3310133   2.265   7.225   4.392
  203DPPC   C3410134   2.218   7.266   4.272
  203DPPC   O3510135   2.113   7.330   4.265
  203DPPC   C3610136   2.313   7.260   4.152
  203DPPC   C3710137   2.275   7.147   4.055
  203DPPC   C3810138   2.385   7.139   3.948
  203DPPC   C3910139   2.373   7.009   3.868
  203DPPC   C4010140   2.265   7.023   3.760
  203DPPC   C4110141   2.213   6.885   3.722
  203DPPC   C4210142   2.082   6.892   3.643
  203DPPC   C4310143   2.021   6.754   3.615
  203DPPC   C4410144   1.894   6.779   3.535
  203DPPC   C4510145   1.821   6.657   3.478
  203DPPC   C4610146   1.691   6.706   3.415
  203DPPC   C4710147   1.584   6.598   3.433
  203DPPC   C4810148   1.457   6.648   3.364
  203DPPC   C4910149   1.381   6.752   3.446
  203DPPC   C5010150   1.246   6.797   3.388
  204DPPC    C110151   9.424   7.704   4.593
  204DPPC    C210152   9.614   7.682   4.444
  204DPPC    C310153   9.627   7.608   4.666
  204DPPC    N410154   9.536   7.618   4.551
  204DPPC    C510155   9.499   7.485   4.501
  204DPPC    C610156   9.379   7.422   4.572
  204DPPC    O710157   9.328   7.310   4.500
  204DPPC    P810158   9.236   7.241   4.612
  204DPPC    O910159   9.197   7.337   4.717
  204DPPC   O1010160   9.302   7.111   4.641
  204DPPC   O1110161   9.112   7.224   4.510
  204DPPC   C1210162   9.129   7.096   4.447
  204DPPC   C1310163   9.007   7.051   4.367
  204DPPC   O1410164   8.994   6.914   4.325
  204DPPC   C1510165   8.966   6.818   4.417
  204DPPC   O1610166   8.947   6.848   4.535
  204DPPC   C1710167   8.952   6.676   4.361
  204DPPC   C1810168   8.814   6.634   4.312
  204DPPC   C1910169   8.815   6.496   4.246
  204DPPC   C2010170   8.907   6.495   4.124
  204DPPC   C2110171   8.869   6.374   4.037
  204DPPC   C2210172   8.930   6.408   3.901
  204DPPC   C2310173   8.834   6.371   3.787
  204DPPC   C2410174   8.902   6.424   3.660
  204DPPC   C2510175   9.036   6.352   3.645
  204DPPC   C2610176   9.103   6.398   3.516
  204DPPC   C2710177   9.002   6.412   3.401
  204DPPC   C2810178   9.062   6.475   3.275
  204DPPC   C2910179   8.944   6.540   3.202
  204DPPC   C3010180   8.880   6.444   3.101
  204DPPC   C3110181   8.770   6.516   3.023
  204DPPC   C3210182   8.982   7.160   4.264
  204DPPC   O3310183   9.087   7.194   4.173
  204DPPC   C3410184   9.050   7.286   4.081
  204DPPC   O3510185   8.939   7.338   4.075
  204DPPC   C3610186   9.165   7.325   3.987
  204DPPC   C3710187   9.120   7.369   3.847
  204DPPC   C3810188   9.236   7.386   3.749
  204DPPC   C3910189   9.289   7.246   3.716
  204DPPC   C4010190   9.177   7.173   3.642
  204DPPC   C4110191   9.236   7.044   3.586
  204DPPC   C4210192   9.134   6.969   3.499
  204DPPC   C4310193   9.212   6.855   3.433
  204DPPC   C4410194   9.330   6.903   3.349
  204DPPC   C4510195   9.416   6.786   3.301
  204DPPC   C4610196   9.459   6.693   3.414
  204DPPC   C4710197   9.538   6.580   3.350
  204DPPC   C4810198   9.456   6.534   3.229
  204DPPC   C4910199   9.529   6.433   3.141
  204DPPC   C5010200   9.602   6.323   3.219
  205DPPC    C110201   2.161   8.139   5.498
  205DPPC    C210202   2.381   8.035   5.492
  205DPPC    C310203   2.197   7.927   5.406
  205DPPC    N410204   2.257   8.061   5.418
  205DPPC    C510205   2.279   8.135   5.293
  205DPPC    C610206   2.167   8.138   5.188
  205DPPC    O710207   2.058   8.223   5.225
  205DPPC    P810208   1.920   8.168   5.162
  205DPPC    O910209   1.806   8.248   5.212
  205DPPC   O1010210   1.923   8.022   5.187
  205DPPC   O1110211   1.953   8.198   5.007
  205DPPC   C1210212   1.893   8.324   4.978
  205DPPC   C1310213   1.976   8.452   4.990
  205DPPC   O1410214   1.894   8.565   4.958
  205DPPC   C1510215   1.937   8.690   4.990
  205DPPC   O1610216   2.017   8.703   5.082
  205DPPC   C1710217   1.841   8.798   4.940
  205DPPC   C1810218   1.850   8.814   4.788
  205DPPC   C1910219   1.781   8.948   4.764
  205DPPC   C2010220   1.751   8.976   4.617
  205DPPC   C2110221   1.648   8.871   4.572
  205DPPC   C2210222   1.609   8.879   4.425
  205DPPC   C2310223   1.501   8.772   4.405
  205DPPC   C2410224   1.367   8.823   4.352
  205DPPC   C2510225   1.385   8.894   4.218
  205DPPC   C2610226   1.259   8.951   4.152
  205DPPC   C2710227   1.295   8.994   4.009
  205DPPC   C2810228   1.166   9.059   3.958
  205DPPC   C2910229   1.206   9.114   3.821
  205DPPC   C3010230   1.090   9.159   3.731
  205DPPC   C3110231   1.144   9.227   3.605
  205DPPC   C3210232   2.102   8.442   4.903
  205DPPC   O3310233   2.084   8.426   4.762
  205DPPC   C3410234   2.164   8.498   4.680
  205DPPC   O3510235   2.241   8.587   4.714
  205DPPC   C3610236   2.160   8.467   4.530
  205DPPC   C3710237   2.249   8.351   4.485
  205DPPC   C3810238   2.229   8.333   4.334
  205DPPC   C3910239   2.306   8.211   4.286
  205DPPC   C4010240   2.290   8.196   4.134
  205DPPC   C4110241   2.345   8.065   4.077
  205DPPC   C4210242   2.323   8.077   3.926
  205DPPC   C4310243   2.346   7.942   3.858
  205DPPC   C4410244   2.381   7.986   3.716
  205DPPC   C4510245   2.424   7.875   3.621
  205DPPC   C4610246   2.452   7.927   3.480
  205DPPC   C4710247   2.527   7.829   3.389
  205DPPC   C4810248   2.648   7.778   3.468
  205DPPC   C4910249   2.744   7.698   3.379
  205DPPC   C5010250   2.861   7.636   3.455
  206DPPC    C110251   2.005   5.384   4.846
  206DPPC    C210252   1.932   5.213   4.699
  206DPPC    C310253   2.045   5.147   4.904
  206DPPC    N410254   1.956   5.245   4.841
  206DPPC    C510255   1.841   5.214   4.927
  206DPPC    C610256   1.718   5.305   4.919
  206DPPC    O710257   1.650   5.314   4.794
  206DPPC    P810258   1.505   5.383   4.804
  206DPPC    O910259   1.523   5.459   4.929
  206DPPC   O1010260   1.387   5.293   4.796
  206DPPC   O1110261   1.518   5.487   4.682
  206DPPC   C1210262   1.474   5.416   4.565
  206DPPC   C1310263   1.496   5.491   4.434
  206DPPC   O1410264   1.428   5.434   4.321
  206DPPC   C1510265   1.292   5.444   4.312
  206DPPC   O1610266   1.224   5.508   4.391
  206DPPC   C1710267   1.224   5.368   4.198
  206DPPC   C1810268   1.176   5.456   4.083
  206DPPC   C1910269   1.148   5.354   3.972
  206DPPC   C2010270   1.110   5.430   3.844
  206DPPC   C2110271   1.083   5.333   3.729
  206DPPC   C2210272   1.048   5.422   3.609
  206DPPC   C2310273   1.014   5.345   3.482
  206DPPC   C2410274   0.988   5.441   3.366
  206DPPC   C2510275   1.115   5.524   3.343
  206DPPC   C2610276   1.100   5.631   3.235
  206DPPC   C2710277   1.222   5.714   3.197
  206DPPC   C2810278   1.255   5.832   3.288
  206DPPC   C2910279   1.391   5.896   3.257
  206DPPC   C3010280   1.440   5.986   3.371
  206DPPC   C3110281   1.483   5.905   3.493
  206DPPC   C3210282   1.648   5.475   4.424
  206DPPC   O3310283   1.696   5.356   4.360
  206DPPC   C3410284   1.832   5.348   4.357
  206DPPC   O3510285   1.910   5.408   4.432
  206DPPC   C3610286   1.883   5.221   4.290
  206DPPC   C3710287   1.931   5.254   4.149
  206DPPC   C3810288   1.984   5.126   4.084
  206DPPC   C3910289   2.083   5.056   4.177
  206DPPC   C4010290   2.114   4.935   4.088
  206DPPC   C4110291   2.217   4.837   4.145
  206DPPC   C4210292   2.243   4.740   4.029
  206DPPC   C4310293   2.311   4.811   3.912
  206DPPC   C4410294   2.452   4.858   3.949
  206DPPC   C4510295   2.546   4.878   3.831
  206DPPC   C4610296   2.692   4.912   3.864
  206DPPC   C4710297   2.786   4.907   3.744
  206DPPC   C4810298   2.923   4.960   3.785
  206DPPC   C4910299   3.014   4.973   3.663
  206DPPC   C5010300   3.159   4.993   3.708
  207DPPC    C110301   6.483   0.328   5.947
  207DPPC    C210302   6.690   0.350   5.838
  207DPPC    C310303   6.520   0.223   5.734
  207DPPC    N410304   6.545   0.343   5.815
  207DPPC    C510305   6.486   0.454   5.738
  207DPPC    C610306   6.532   0.599   5.761
  207DPPC    O710307   6.450   0.688   5.684
  207DPPC    P810308   6.510   0.837   5.694
  207DPPC    O910309   6.528   0.869   5.837
  207DPPC   O1010310   6.427   0.926   5.610
  207DPPC   O1110311   6.644   0.792   5.617
  207DPPC   C1210312   6.674   0.853   5.491
  207DPPC   C1310313   6.816   0.900   5.458
  207DPPC   O1410314   6.829   1.013   5.371
  207DPPC   C1510315   6.946   1.083   5.370
  207DPPC   O1610316   7.024   1.066   5.463
  207DPPC   C1710317   6.974   1.174   5.250
  207DPPC   C1810318   6.914   1.313   5.270
  207DPPC   C1910319   6.912   1.402   5.145
  207DPPC   C2010320   6.830   1.349   5.028
  207DPPC   C2110321   6.827   1.440   4.905
  207DPPC   C2210322   6.955   1.419   4.824
  207DPPC   C2310323   6.928   1.514   4.707
  207DPPC   C2410324   7.029   1.490   4.595
  207DPPC   C2510325   6.980   1.566   4.471
  207DPPC   C2610326   7.090   1.554   4.365
  207DPPC   C2710327   7.054   1.597   4.223
  207DPPC   C2810328   7.010   1.744   4.215
  207DPPC   C2910329   6.937   1.763   4.082
  207DPPC   C3010330   6.972   1.905   4.035
  207DPPC   C3110331   6.922   1.934   3.894
  207DPPC   C3210332   6.882   0.774   5.402
  207DPPC   O3310333   6.807   0.708   5.300
  207DPPC   C3410334   6.878   0.612   5.235
  207DPPC   O3510335   6.989   0.573   5.269
  207DPPC   C3610336   6.801   0.543   5.122
  207DPPC   C3710337   6.685   0.623   5.063
  207DPPC   C3810338   6.607   0.548   4.955
  207DPPC   C3910339   6.514   0.637   4.873
  207DPPC   C4010340   6.472   0.554   4.751
  207DPPC   C4110341   6.382   0.440   4.799
  207DPPC   C4210342   6.340   0.352   4.681
  207DPPC   C4310343   6.296   0.210   4.714
  207DPPC   C4410344   6.287   0.122   4.589
  207DPPC   C4510345   6.419   0.125   4.510
  207DPPC   C4610346   6.385   0.062   4.375
  207DPPC   C4710347   6.503   0.019   4.288
  207DPPC   C4810348   6.460  -0.019   4.146
  207DPPC   C4910349   6.590  -0.048   4.069
  207DPPC   C5010350   6.533  -0.115   3.944
  208DPPC    C110351   5.187   1.511   5.427
  208DPPC    C210352   5.334   1.412   5.273
  208DPPC    C310353   5.232   1.636   5.235
  208DPPC    N410354   5.292   1.541   5.329
  208DPPC    C510355   5.411   1.615   5.374
  208DPPC    C610356   5.499   1.557   5.485
  208DPPC    O710357   5.636   1.594   5.466
  208DPPC    P810358   5.744   1.555   5.578
  208DPPC    O910359   5.668   1.556   5.705
  208DPPC   O1010360   5.875   1.615   5.544
  208DPPC   O1110361   5.759   1.399   5.540
  208DPPC   C1210362   5.814   1.392   5.408
  208DPPC   C1310363   5.831   1.251   5.353
  208DPPC   O1410364   5.931   1.250   5.251
  208DPPC   C1510365   6.040   1.170   5.268
  208DPPC   O1610366   6.043   1.082   5.354
  208DPPC   C1710367   6.159   1.211   5.181
  208DPPC   C1810368   6.121   1.311   5.071
  208DPPC   C1910369   6.247   1.388   5.030
  208DPPC   C2010370   6.213   1.440   4.890
  208DPPC   C2110371   6.316   1.533   4.826
  208DPPC   C2210372   6.240   1.588   4.705
  208DPPC   C2310373   6.163   1.712   4.752
  208DPPC   C2410374   6.102   1.783   4.631
  208DPPC   C2510375   6.020   1.906   4.672
  208DPPC   C2610376   5.955   1.961   4.545
  208DPPC   C2710377   5.838   1.877   4.494
  208DPPC   C2810378   5.800   1.938   4.359
  208DPPC   C2910379   5.927   1.925   4.274
  208DPPC   C3010380   5.883   1.968   4.134
  208DPPC   C3110381   5.980   1.920   4.026
  208DPPC   C3210382   5.687   1.207   5.327
  208DPPC   O3310383   5.653   1.182   5.190
  208DPPC   C3410384   5.661   1.285   5.102
  208DPPC   O3510385   5.632   1.398   5.142
  208DPPC   C3610386   5.655   1.250   4.953
  208DPPC   C3710387   5.777   1.304   4.879
  208DPPC   C3810388   5.772   1.285   4.727
  208DPPC   C3910389   5.898   1.343   4.662
  208DPPC   C4010390   5.888   1.344   4.509
  208DPPC   C4110391   5.984   1.450   4.454
  208DPPC   C4210392   5.982   1.425   4.303
  208DPPC   C4310393   6.068   1.519   4.218
  208DPPC   C4410394   6.219   1.509   4.242
  208DPPC   C4510395   6.275   1.617   4.151
  208DPPC   C4610396   6.412   1.641   4.215
  208DPPC   C4710397   6.479   1.504   4.217
  208DPPC   C4810398   6.625   1.499   4.263
  208DPPC   C4910399   6.632   1.536   4.411
  208DPPC   C5010400   6.600   1.407   4.487
  209DPPC    C110401   4.744   3.865   5.945
  209DPPC    C210402   4.883   4.029   5.828
  209DPPC    C310403   4.877   3.791   5.772
  209DPPC    N410404   4.800   3.909   5.816
  209DPPC    C510405   4.694   3.917   5.715
  209DPPC    C610406   4.591   4.024   5.753
  209DPPC    O710407   4.472   4.033   5.674
  209DPPC    P810408   4.380   4.154   5.727
  209DPPC    O910409   4.431   4.181   5.864
  209DPPC   O1010410   4.240   4.115   5.699
  209DPPC   O1110411   4.442   4.275   5.640
  209DPPC   C1210412   4.459   4.237   5.504
  209DPPC   C1310413   4.327   4.216   5.430
  209DPPC   O1410414   4.338   4.155   5.300
  209DPPC   C1510415   4.225   4.097   5.250
  209DPPC   O1610416   4.136   4.067   5.329
  209DPPC   C1710417   4.236   4.033   5.112
  209DPPC   C1810418   4.099   4.001   5.053
  209DPPC   C1910419   4.117   4.007   4.901
  209DPPC   C2010420   4.225   3.906   4.862
  209DPPC   C2110421   4.239   3.898   4.710
  209DPPC   C2210422   4.348   3.797   4.674
  209DPPC   C2310423   4.381   3.779   4.526
  209DPPC   C2410424   4.503   3.687   4.527
  209DPPC   C2510425   4.498   3.551   4.596
  209DPPC   C2610426   4.623   3.462   4.596
  209DPPC   C2710427   4.669   3.425   4.454
  209DPPC   C2810428   4.795   3.340   4.462
  209DPPC   C2910429   4.837   3.305   4.319
  209DPPC   C3010430   4.975   3.240   4.301
  209DPPC   C3110431   5.016   3.199   4.159
  209DPPC   C3210432   4.245   4.344   5.442
  209DPPC   O3310433   4.294   4.464   5.381
  209DPPC   C3410434   4.237   4.585   5.408
  209DPPC   O3510435   4.199   4.614   5.521
  209DPPC   C3610436   4.284   4.697   5.315
  209DPPC   C3710437   4.308   4.639   5.176
  209DPPC   C3810438   4.391   4.734   5.090
  209DPPC   C3910439   4.401   4.675   4.949
  209DPPC   C4010440   4.523   4.725   4.871
  209DPPC   C4110441   4.489   4.874   4.861
  209DPPC   C4210442   4.604   4.936   4.782
  209DPPC   C4310443   4.735   4.926   4.860
  209DPPC   C4410444   4.862   4.962   4.782
  209DPPC   C4510445   4.863   4.885   4.650
  209DPPC   C4610446   4.964   4.946   4.552
  209DPPC   C4710447   4.935   4.882   4.416
  209DPPC   C4810448   5.011   4.940   4.297
  209DPPC   C4910449   5.160   4.908   4.306
  209DPPC   C5010450   5.180   4.756   4.308
  210DPPC    C110451   6.416   1.429   5.796
  210DPPC    C210452   6.375   1.472   6.033
  210DPPC    C310453   6.257   1.299   5.920
  210DPPC    N410454   6.386   1.370   5.928
  210DPPC    C510455   6.488   1.273   5.971
  210DPPC    C610456   6.563   1.204   5.857
  210DPPC    O710457   6.677   1.279   5.814
  210DPPC    P810458   6.763   1.208   5.698
  210DPPC    O910459   6.817   1.080   5.751
  210DPPC   O1010460   6.839   1.325   5.648
  210DPPC   O1110461   6.643   1.181   5.594
  210DPPC   C1210462   6.632   1.299   5.514
  210DPPC   C1310463   6.523   1.303   5.406
  210DPPC   O1410464   6.403   1.364   5.455
  210DPPC   C1510465   6.398   1.496   5.421
  210DPPC   O1610466   6.503   1.559   5.426
  210DPPC   C1710467   6.266   1.574   5.429
  210DPPC   C1810468   6.290   1.707   5.358
  210DPPC   C1910469   6.161   1.789   5.357
  210DPPC   C2010470   6.179   1.913   5.269
  210DPPC   C2110471   6.080   2.017   5.324
  210DPPC   C2210472   6.114   2.154   5.267
  210DPPC   C2310473   6.124   2.151   5.114
  210DPPC   C2410474   6.168   2.284   5.052
  210DPPC   C2510475   6.170   2.261   4.901
  210DPPC   C2610476   6.239   2.369   4.818
  210DPPC   C2710477   6.237   2.341   4.667
  210DPPC   C2810478   6.289   2.464   4.592
  210DPPC   C2910479   6.313   2.393   4.459
  210DPPC   C3010480   6.182   2.356   4.389
  210DPPC   C3110481   6.190   2.256   4.274
  210DPPC   C3210482   6.524   1.159   5.355
  210DPPC   O3310483   6.551   1.144   5.215
  210DPPC   C3410484   6.538   1.020   5.161
  210DPPC   O3510485   6.451   0.947   5.209
  210DPPC   C3610486   6.584   1.008   5.016
  210DPPC   C3710487   6.494   1.081   4.916
  210DPPC   C3810488   6.556   1.114   4.781
  210DPPC   C3910489   6.623   0.982   4.741
  210DPPC   C4010490   6.693   0.992   4.604
  210DPPC   C4110491   6.812   1.087   4.617
  210DPPC   C4210492   6.889   1.101   4.486
  210DPPC   C4310493   6.803   1.135   4.364
  210DPPC   C4410494   6.895   1.166   4.246
  210DPPC   C4510495   6.926   1.035   4.173
  210DPPC   C4610496   6.805   0.973   4.102
  210DPPC   C4710497   6.835   0.854   4.011
  210DPPC   C4810498   6.707   0.822   3.933
  210DPPC   C4910499   6.671   0.936   3.837
  210DPPC   C5010500   6.547   0.903   3.753
  211DPPC    C110501   1.366   7.987   5.205
  211DPPC    C210502   1.503   8.184   5.198
  211DPPC    C310503   1.547   7.997   5.355
  211DPPC    N410504   1.503   8.038   5.221
  211DPPC    C510505   1.596   7.996   5.115
  211DPPC    C610506   1.602   7.853   5.062
  211DPPC    O710507   1.500   7.827   4.966
  211DPPC    P810508   1.522   7.692   4.882
  211DPPC    O910509   1.384   7.641   4.897
  211DPPC   O1010510   1.641   7.629   4.944
  211DPPC   O1110511   1.560   7.790   4.760
  211DPPC   C1210512   1.440   7.844   4.704
  211DPPC   C1310513   1.467   7.947   4.594
  211DPPC   O1410514   1.485   7.894   4.462
  211DPPC   C1510515   1.373   7.862   4.393
  211DPPC   O1610516   1.266   7.855   4.454
  211DPPC   C1710517   1.398   7.789   4.261
  211DPPC   C1810518   1.382   7.898   4.155
  211DPPC   C1910519   1.234   7.935   4.142
  211DPPC   C2010520   1.199   8.008   4.012
  211DPPC   C2110521   1.059   8.067   4.028
  211DPPC   C2210522   1.021   8.164   3.915
  211DPPC   C2310523   1.062   8.096   3.784
  211DPPC   C2410524   1.039   8.198   3.673
  211DPPC   C2510525   1.053   8.141   3.532
  211DPPC   C2610526   0.932   8.061   3.483
  211DPPC   C2710527   0.840   8.150   3.398
  211DPPC   C2810528   0.919   8.220   3.287
  211DPPC   C2910529   0.815   8.280   3.193
  211DPPC   C3010530   0.865   8.376   3.085
  211DPPC   C3110531   0.962   8.313   2.985
  211DPPC   C3210532   1.578   8.037   4.648
  211DPPC   O3310533   1.599   8.152   4.567
  211DPPC   C3410534   1.667   8.241   4.644
  211DPPC   O3510535   1.715   8.206   4.752
  211DPPC   C3610536   1.681   8.384   4.590
  211DPPC   C3710537   1.800   8.393   4.494
  211DPPC   C3810538   1.784   8.522   4.413
  211DPPC   C3910539   1.883   8.525   4.296
  211DPPC   C4010540   1.843   8.656   4.229
  211DPPC   C4110541   1.808   8.630   4.082
  211DPPC   C4210542   1.760   8.757   4.013
  211DPPC   C4310543   1.725   8.732   3.867
  211DPPC   C4410544   1.707   8.854   3.776
  211DPPC   C4510545   1.567   8.913   3.796
  211DPPC   C4610546   1.546   9.044   3.720
  211DPPC   C4710547   1.588   9.021   3.575
  211DPPC   C4810548   1.569   9.156   3.506
  211DPPC   C4910549   1.666   9.268   3.547
  211DPPC   C5010550   1.601   9.388   3.477
  212DPPC    C110551   4.643   8.245   5.593
  212DPPC    C210552   4.697   8.460   5.514
  212DPPC    C310553   4.852   8.288   5.471
  212DPPC    N410554   4.709   8.317   5.483
  212DPPC    C510555   4.630   8.280   5.364
  212DPPC    C610556   4.638   8.361   5.235
  212DPPC    O710557   4.769   8.382   5.181
  212DPPC    P810558   4.755   8.528   5.113
  212DPPC    O910559   4.876   8.556   5.033
  212DPPC   O1010560   4.697   8.612   5.220
  212DPPC   O1110561   4.644   8.510   4.998
  212DPPC   C1210562   4.697   8.403   4.918
  212DPPC   C1310563   4.606   8.348   4.808
  212DPPC   O1410564   4.659   8.235   4.737
  212DPPC   C1510565   4.674   8.113   4.795
  212DPPC   O1610566   4.624   8.096   4.906
  212DPPC   C1710567   4.729   8.006   4.700
  212DPPC   C1810568   4.663   8.026   4.564
  212DPPC   C1910569   4.713   7.935   4.451
  212DPPC   C2010570   4.615   7.975   4.341
  212DPPC   C2110571   4.659   7.904   4.212
  212DPPC   C2210572   4.530   7.839   4.161
  212DPPC   C2310573   4.540   7.752   4.035
  212DPPC   C2410574   4.413   7.670   4.013
  212DPPC   C2510575   4.433   7.585   3.887
  212DPPC   C2610576   4.443   7.661   3.755
  212DPPC   C2710577   4.485   7.544   3.664
  212DPPC   C2810578   4.532   7.578   3.523
  212DPPC   C2910579   4.571   7.456   3.440
  212DPPC   C3010580   4.604   7.484   3.293
  212DPPC   C3110581   4.648   7.346   3.244
  212DPPC   C3210582   4.558   8.471   4.732
  212DPPC   O3310583   4.670   8.536   4.671
  212DPPC   C3410584   4.649   8.652   4.604
  212DPPC   O3510585   4.543   8.714   4.609
  212DPPC   C3610586   4.782   8.712   4.557
  212DPPC   C3710587   4.778   8.718   4.404
  212DPPC   C3810588   4.912   8.725   4.331
  212DPPC   C3910589   4.875   8.752   4.185
  212DPPC   C4010590   5.001   8.766   4.098
  212DPPC   C4110591   5.113   8.665   4.126
  212DPPC   C4210592   5.235   8.687   4.036
  212DPPC   C4310593   5.368   8.621   4.072
  212DPPC   C4410594   5.423   8.680   4.201
  212DPPC   C4510595   5.545   8.596   4.242
  212DPPC   C4610596   5.645   8.597   4.127
  212DPPC   C4710597   5.777   8.545   4.184
  212DPPC   C4810598   5.884   8.515   4.079
  212DPPC   C4910599   5.993   8.445   4.160
  212DPPC   C5010600   6.086   8.399   4.048
  213DPPC    C110601   7.649   1.971   5.870
  213DPPC    C210602   7.712   2.178   5.793
  213DPPC    C310603   7.734   2.009   5.638
  213DPPC    N410604   7.648   2.053   5.749
  213DPPC    C510605   7.516   2.082   5.690
  213DPPC    C610606   7.411   1.972   5.685
  213DPPC    O710607   7.459   1.852   5.623
  213DPPC    P810608   7.391   1.728   5.698
  213DPPC    O910609   7.311   1.775   5.814
  213DPPC   O1010610   7.496   1.625   5.714
  213DPPC   O1110611   7.294   1.673   5.581
  213DPPC   C1210612   7.360   1.655   5.455
  213DPPC   C1310613   7.271   1.629   5.333
  213DPPC   O1410614   7.341   1.574   5.221
  213DPPC   C1510615   7.377   1.443   5.233
  213DPPC   O1610616   7.354   1.377   5.334
  213DPPC   C1710617   7.438   1.377   5.109
  213DPPC   C1810618   7.340   1.356   4.994
  213DPPC   C1910619   7.390   1.265   4.881
  213DPPC   C2010620   7.281   1.239   4.777
  213DPPC   C2110621   7.322   1.143   4.665
  213DPPC   C2210622   7.443   1.195   4.587
  213DPPC   C2310623   7.508   1.076   4.516
  213DPPC   C2410624   7.419   1.060   4.393
  213DPPC   C2510625   7.401   1.189   4.313
  213DPPC   C2610626   7.522   1.190   4.219
  213DPPC   C2710627   7.513   1.316   4.133
  213DPPC   C2810628   7.395   1.296   4.038
  213DPPC   C2910629   7.376   1.404   3.930
  213DPPC   C3010630   7.234   1.410   3.874
  213DPPC   C3110631   7.243   1.507   3.757
  213DPPC   C3210632   7.177   1.750   5.323
  213DPPC   O3310633   7.063   1.731   5.240
  213DPPC   C3410634   6.975   1.833   5.218
  213DPPC   O3510635   6.975   1.932   5.292
  213DPPC   C3610636   6.862   1.812   5.118
  213DPPC   C3710637   6.737   1.775   5.198
  213DPPC   C3810638   6.614   1.790   5.107
  213DPPC   C3910639   6.606   1.924   5.035
  213DPPC   C4010640   6.570   2.028   5.141
  213DPPC   C4110641   6.569   2.173   5.093
  213DPPC   C4210642   6.546   2.279   5.201
  213DPPC   C4310643   6.540   2.420   5.142
  213DPPC   C4410644   6.659   2.475   5.062
  213DPPC   C4510645   6.645   2.622   5.023
  213DPPC   C4610646   6.513   2.639   4.948
  213DPPC   C4710647   6.500   2.780   4.890
  213DPPC   C4810648   6.373   2.808   4.808
  213DPPC   C4910649   6.374   2.954   4.762
  213DPPC   C5010650   6.325   3.040   4.878
  214DPPC    C110651   5.491   7.927   5.507
  214DPPC    C210652   5.507   7.749   5.659
  214DPPC    C310653   5.459   7.690   5.431
  214DPPC    N410654   5.529   7.785   5.518
  214DPPC    C510655   5.675   7.774   5.513
  214DPPC    C610656   5.755   7.816   5.389
  214DPPC    O710657   5.752   7.712   5.291
  214DPPC    P810658   5.838   7.757   5.162
  214DPPC    O910659   5.911   7.629   5.148
  214DPPC   O1010660   5.903   7.884   5.200
  214DPPC   O1110661   5.707   7.764   5.069
  214DPPC   C1210662   5.699   7.654   4.978
  214DPPC   C1310663   5.553   7.639   4.936
  214DPPC   O1410664   5.526   7.524   4.855
  214DPPC   C1510665   5.544   7.402   4.914
  214DPPC   O1610666   5.565   7.380   5.033
  214DPPC   C1710667   5.550   7.299   4.802
  214DPPC   C1810668   5.632   7.175   4.840
  214DPPC   C1910669   5.678   7.096   4.718
  214DPPC   C2010670   5.760   6.968   4.738
  214DPPC   C2110671   5.752   6.876   4.616
  214DPPC   C2210672   5.846   6.757   4.636
  214DPPC   C2310673   5.986   6.820   4.634
  214DPPC   C2410674   6.088   6.706   4.641
  214DPPC   C2510675   6.061   6.599   4.535
  214DPPC   C2610676   6.149   6.474   4.542
  214DPPC   C2710677   6.097   6.371   4.442
  214DPPC   C2810678   5.944   6.376   4.439
  214DPPC   C2910679   5.895   6.289   4.323
  214DPPC   C3010680   5.894   6.138   4.349
  214DPPC   C3110681   5.883   6.048   4.227
  214DPPC   C3210682   5.533   7.770   4.859
  214DPPC   O3310683   5.624   7.819   4.761
  214DPPC   C3410684   5.584   7.941   4.716
  214DPPC   O3510685   5.502   8.005   4.783
  214DPPC   C3610686   5.645   8.006   4.592
  214DPPC   C3710687   5.702   7.904   4.494
  214DPPC   C3810688   5.797   7.962   4.389
  214DPPC   C3910689   5.873   7.843   4.329
  214DPPC   C4010690   5.937   7.874   4.194
  214DPPC   C4110691   6.029   7.753   4.177
  214DPPC   C4210692   6.016   7.708   4.032
  214DPPC   C4310693   6.109   7.590   4.003
  214DPPC   C4410694   6.251   7.616   4.054
  214DPPC   C4510695   6.352   7.516   3.997
  214DPPC   C4610696   6.303   7.376   4.034
  214DPPC   C4710697   6.391   7.258   3.991
  214DPPC   C4810698   6.530   7.273   4.053
  214DPPC   C4910699   6.613   7.149   4.016
  214DPPC   C5010700   6.748   7.155   4.087
  215DPPC    C110701   8.056   0.314   5.146
  215DPPC    C210702   8.139   0.445   5.335
  215DPPC    C310703   7.950   0.319   5.345
  215DPPC    N410704   8.086   0.315   5.290
  215DPPC    C510705   8.148   0.194   5.347
  215DPPC    C610706   8.299   0.185   5.325
  215DPPC    O710707   8.342   0.117   5.207
  215DPPC    P810708   8.484   0.165   5.149
  215DPPC    O910709   8.583   0.078   5.216
  215DPPC   O1010710   8.475   0.307   5.190
  215DPPC   O1110711   8.451   0.134   4.994
  215DPPC   C1210712   8.391   0.249   4.936
  215DPPC   C1310713   8.372   0.224   4.786
  215DPPC   O1410714   8.341   0.342   4.710
  215DPPC   C1510715   8.235   0.423   4.735
  215DPPC   O1610716   8.182   0.427   4.845
  215DPPC   C1710717   8.208   0.526   4.625
  215DPPC   C1810718   8.169   0.441   4.504
  215DPPC   C1910719   8.147   0.514   4.371
  215DPPC   C2010720   8.109   0.409   4.267
  215DPPC   C2110721   8.069   0.467   4.131
  215DPPC   C2210722   8.188   0.547   4.080
  215DPPC   C2310723   8.143   0.614   3.949
  215DPPC   C2410724   8.079   0.747   3.988
  215DPPC   C2510725   8.027   0.821   3.864
  215DPPC   C2610726   7.962   0.952   3.909
  215DPPC   C2710727   7.901   1.003   3.778
  215DPPC   C2810728   7.823   0.891   3.708
  215DPPC   C2910729   7.740   0.927   3.585
  215DPPC   C3010730   7.613   0.995   3.634
  215DPPC   C3110731   7.546   0.926   3.753
  215DPPC   C3210732   8.259   0.121   4.779
  215DPPC   O3310733   8.214   0.102   4.645
  215DPPC   C3410734   8.290   0.063   4.538
  215DPPC   O3510735   8.388  -0.005   4.569
  215DPPC   C3610736   8.227   0.080   4.400
  215DPPC   C3710737   8.149  -0.043   4.353
  215DPPC   C3810738   8.079   0.004   4.225
  215DPPC   C3910739   7.975  -0.103   4.191
  215DPPC   C4010740   7.881  -0.067   4.076
  215DPPC   C4110741   7.803  -0.191   4.033
  215DPPC   C4210742   7.701  -0.153   3.925
  215DPPC   C4310743   7.775  -0.110   3.798
  215DPPC   C4410744   7.675  -0.103   3.682
  215DPPC   C4510745   7.568   0.006   3.688
  215DPPC   C4610746   7.470   0.000   3.570
  215DPPC   C4710747   7.397  -0.134   3.564
  215DPPC   C4810748   7.333  -0.137   3.425
  215DPPC   C4910749   7.270  -0.273   3.391
  215DPPC   C5010750   7.287  -0.305   3.242
  216DPPC    C110751   4.427   0.257   5.030
  216DPPC    C210752   4.492   0.452   4.888
  216DPPC    C310753   4.332   0.479   5.055
  216DPPC    N410754   4.452   0.401   5.020
  216DPPC    C510755   4.550   0.438   5.124
  216DPPC    C610756   4.611   0.578   5.132
  216DPPC    O710757   4.531   0.679   5.194
  216DPPC    P810758   4.615   0.815   5.177
  216DPPC    O910759   4.760   0.785   5.193
  216DPPC   O1010760   4.530   0.883   5.277
  216DPPC   O1110761   4.569   0.854   5.028
  216DPPC   C1210762   4.431   0.892   5.021
  216DPPC   C1310763   4.380   0.931   4.882
  216DPPC   O1410764   4.319   0.815   4.824
  216DPPC   C1510765   4.186   0.786   4.831
  216DPPC   O1610766   4.131   0.821   4.935
  216DPPC   C1710767   4.163   0.651   4.762
  216DPPC   C1810768   4.236   0.629   4.629
  216DPPC   C1910769   4.218   0.491   4.566
  216DPPC   C2010770   4.255   0.490   4.418
  216DPPC   C2110771   4.224   0.361   4.341
  216DPPC   C2210772   4.283   0.350   4.201
  216DPPC   C2310773   4.435   0.348   4.181
  216DPPC   C2410774   4.484   0.357   4.036
  216DPPC   C2510775   4.531   0.216   4.000
  216DPPC   C2610776   4.652   0.221   3.906
  216DPPC   C2710777   4.718   0.093   3.855
  216DPPC   C2810778   4.831   0.124   3.757
  216DPPC   C2910779   4.897  -0.003   3.701
  216DPPC   C3010780   4.810  -0.077   3.600
  216DPPC   C3110781   4.756   0.009   3.485
  216DPPC   C3210782   4.485   1.004   4.799
  216DPPC   O3310783   4.503   1.145   4.817
  216DPPC   C3410784   4.604   1.197   4.742
  216DPPC   O3510785   4.694   1.126   4.698
  216DPPC   C3610786   4.583   1.341   4.694
  216DPPC   C3710787   4.492   1.355   4.572
  216DPPC   C3810788   4.427   1.494   4.582
  216DPPC   C3910789   4.308   1.511   4.488
  216DPPC   C4010790   4.216   1.398   4.534
  216DPPC   C4110791   4.114   1.355   4.428
  216DPPC   C4210792   4.003   1.460   4.416
  216DPPC   C4310793   3.897   1.406   4.319
  216DPPC   C4410794   3.945   1.380   4.176
  216DPPC   C4510795   3.832   1.418   4.080
  216DPPC   C4610796   3.856   1.375   3.935
  216DPPC   C4710797   3.757   1.435   3.835
  216DPPC   C4810798   3.774   1.352   3.707
  216DPPC   C4910799   3.686   1.404   3.593
  216DPPC   C5010800   3.695   1.314   3.469
  217DPPC    C110801   5.499   6.888   5.413
  217DPPC    C210802   5.518   7.057   5.255
  217DPPC    C310803   5.380   6.875   5.210
  217DPPC    N410804   5.420   6.967   5.318
  217DPPC    C510805   5.298   7.020   5.382
  217DPPC    C610806   5.310   7.161   5.440
  217DPPC    O710807   5.188   7.235   5.434
  217DPPC    P810808   5.204   7.373   5.515
  217DPPC    O910809   5.326   7.387   5.597
  217DPPC   O1010810   5.083   7.443   5.564
  217DPPC   O1110811   5.254   7.451   5.383
  217DPPC   C1210812   5.149   7.469   5.288
  217DPPC   C1310813   5.189   7.527   5.152
  217DPPC   O1410814   5.096   7.622   5.097
  217DPPC   C1510815   5.124   7.707   4.995
  217DPPC   O1610816   5.238   7.747   4.973
  217DPPC   C1710817   5.004   7.766   4.919
  217DPPC   C1810818   5.037   7.787   4.771
  217DPPC   C1910819   5.084   7.930   4.742
  217DPPC   C2010820   5.070   7.967   4.595
  217DPPC   C2110821   5.139   7.874   4.495
  217DPPC   C2210822   5.121   7.920   4.350
  217DPPC   C2310823   5.198   7.821   4.262
  217DPPC   C2410824   5.176   7.871   4.119
  217DPPC   C2510825   5.026   7.856   4.092
  217DPPC   C2610826   5.010   7.880   3.941
  217DPPC   C2710827   4.866   7.904   3.897
  217DPPC   C2810828   4.861   7.990   3.771
  217DPPC   C2910829   4.916   7.909   3.654
  217DPPC   C3010830   4.941   8.008   3.540
  217DPPC   C3110831   5.014   7.934   3.427
  217DPPC   C3210832   5.232   7.409   5.064
  217DPPC   O3310833   5.122   7.317   5.064
  217DPPC   C3410834   5.163   7.197   5.013
  217DPPC   O3510835   5.278   7.168   4.982
  217DPPC   C3610836   5.049   7.096   5.003
  217DPPC   C3710837   4.948   7.134   4.895
  217DPPC   C3810838   5.010   7.106   4.757
  217DPPC   C3910839   4.902   7.046   4.667
  217DPPC   C4010840   4.892   7.097   4.523
  217DPPC   C4110841   4.769   7.043   4.449
  217DPPC   C4210842   4.788   7.066   4.299
  217DPPC   C4310843   4.917   7.014   4.235
  217DPPC   C4410844   4.897   7.063   4.091
  217DPPC   C4510845   5.020   7.029   4.006
  217DPPC   C4610846   4.989   7.051   3.858
  217DPPC   C4710847   5.114   7.027   3.773
  217DPPC   C4810848   5.195   7.140   3.839
  217DPPC   C4910849   5.316   7.173   3.751
  217DPPC   C5010850   5.421   7.269   3.806
  218DPPC    C110851   1.997   4.302   5.744
  218DPPC    C210852   2.178   4.413   5.663
  218DPPC    C310853   2.201   4.277   5.861
  218DPPC    N410854   2.142   4.285   5.726
  218DPPC    C510855   2.159   4.172   5.634
  218DPPC    C610856   2.299   4.150   5.576
  218DPPC    O710857   2.309   4.043   5.482
  218DPPC    P810858   2.458   4.033   5.423
  218DPPC    O910859   2.483   3.888   5.407
  218DPPC   O1010860   2.559   4.109   5.500
  218DPPC   O1110861   2.427   4.073   5.270
  218DPPC   C1210862   2.380   3.964   5.190
  218DPPC   C1310863   2.227   3.971   5.180
  218DPPC   O1410864   2.185   3.853   5.111
  218DPPC   C1510865   2.055   3.814   5.121
  218DPPC   O1610866   1.980   3.873   5.199
  218DPPC   C1710867   2.006   3.699   5.032
  218DPPC   C1810868   1.936   3.755   4.909
  218DPPC   C1910869   1.890   3.636   4.824
  218DPPC   C2010870   1.834   3.673   4.686
  218DPPC   C2110871   1.849   3.554   4.590
  218DPPC   C2210872   1.802   3.603   4.453
  218DPPC   C2310873   1.747   3.485   4.372
  218DPPC   C2410874   1.723   3.529   4.227
  218DPPC   C2510875   1.638   3.430   4.148
  218DPPC   C2610876   1.622   3.485   4.006
  218DPPC   C2710877   1.560   3.380   3.914
  218DPPC   C2810878   1.528   3.441   3.778
  218DPPC   C2910879   1.650   3.513   3.720
  218DPPC   C3010880   1.636   3.541   3.570
  218DPPC   C3110881   1.763   3.613   3.524
  218DPPC   C3210882   2.199   4.105   5.111
  218DPPC   O3310883   2.271   4.118   4.988
  218DPPC   C3410884   2.254   4.236   4.922
  218DPPC   O3510885   2.149   4.298   4.925
  218DPPC   C3610886   2.338   4.245   4.794
  218DPPC   C3710887   2.247   4.269   4.674
  218DPPC   C3810888   2.321   4.254   4.541
  218DPPC   C3910889   2.440   4.347   4.513
  218DPPC   C4010890   2.481   4.327   4.367
  218DPPC   C4110891   2.594   4.424   4.332
  218DPPC   C4210892   2.605   4.456   4.183
  218DPPC   C4310893   2.737   4.531   4.162
  218DPPC   C4410894   2.738   4.657   4.250
  218DPPC   C4510895   2.878   4.717   4.232
  218DPPC   C4610896   2.891   4.851   4.306
  218DPPC   C4710897   3.036   4.900   4.303
  218DPPC   C4810898   3.092   4.905   4.160
  218DPPC   C4910899   3.242   4.936   4.167
  218DPPC   C5010900   3.306   4.921   4.028
  219DPPC    C110901   8.930   6.814   4.964
  219DPPC    C210902   9.108   6.920   4.878
  219DPPC    C310903   9.140   6.809   5.083
  219DPPC    N410904   9.075   6.797   4.952
  219DPPC    C510905   9.119   6.698   4.852
  219DPPC    C610906   9.047   6.572   4.802
  219DPPC    O710907   9.134   6.494   4.719
  219DPPC    P810908   9.036   6.374   4.678
  219DPPC    O910909   8.924   6.443   4.610
  219DPPC   O1010910   9.005   6.291   4.797
  219DPPC   O1110911   9.121   6.272   4.587
  219DPPC   C1210912   9.129   6.344   4.464
  219DPPC   C1310913   9.215   6.286   4.351
  219DPPC   O1410914   9.203   6.359   4.228
  219DPPC   C1510915   9.296   6.347   4.129
  219DPPC   O1610916   9.397   6.282   4.156
  219DPPC   C1710917   9.287   6.432   4.002
  219DPPC   C1810918   9.357   6.374   3.879
  219DPPC   C1910919   9.379   6.483   3.775
  219DPPC   C2010920   9.502   6.458   3.687
  219DPPC   C2110921   9.483   6.325   3.614
  219DPPC   C2210922   9.626   6.270   3.611
  219DPPC   C2310923   9.629   6.124   3.567
  219DPPC   C2410924   9.775   6.092   3.538
  219DPPC   C2510925   9.770   5.951   3.478
  219DPPC   C2610926   9.680   5.864   3.565
  219DPPC   C2710927   9.619   5.746   3.488
  219DPPC   C2810928   9.538   5.807   3.374
  219DPPC   C2910929   9.418   5.890   3.419
  219DPPC   C3010930   9.400   5.998   3.312
  219DPPC   C3110931   9.266   6.070   3.336
  219DPPC   C3210932   9.185   6.137   4.333
  219DPPC   O3310933   9.051   6.092   4.316
  219DPPC   C3410934   9.040   5.957   4.316
  219DPPC   O3510935   9.127   5.895   4.379
  219DPPC   C3610936   8.918   5.890   4.254
  219DPPC   C3710937   8.893   5.758   4.328
  219DPPC   C3810938   8.756   5.708   4.282
  219DPPC   C3910939   8.755   5.668   4.135
  219DPPC   C4010940   8.624   5.610   4.081
  219DPPC   C4110941   8.623   5.589   3.930
  219DPPC   C4210942   8.489   5.523   3.895
  219DPPC   C4310943   8.482   5.486   3.747
  219DPPC   C4410944   8.512   5.609   3.661
  219DPPC   C4510945   8.529   5.573   3.514
  219DPPC   C4610946   8.395   5.521   3.462
  219DPPC   C4710947   8.398   5.541   3.310
  219DPPC   C4810948   8.265   5.527   3.236
  219DPPC   C4910949   8.290   5.494   3.089
  219DPPC   C5010950   8.152   5.480   3.023
  220DPPC    C110951   4.559   6.735   5.199
  220DPPC    C210952   4.400   6.572   5.210
  220DPPC    C310953   4.412   6.716   5.026
  220DPPC    N410954   4.494   6.633   5.116
  220DPPC    C510955   4.573   6.532   5.043
  220DPPC    C610956   4.684   6.465   5.124
  220DPPC    O710957   4.633   6.373   5.220
  220DPPC    P810958   4.727   6.250   5.265
  220DPPC    O910959   4.654   6.200   5.384
  220DPPC   O1010960   4.864   6.305   5.257
  220DPPC   O1110961   4.678   6.163   5.139
  220DPPC   C1210962   4.785   6.125   5.051
  220DPPC   C1310963   4.746   6.087   4.908
  220DPPC   O1410964   4.863   6.061   4.828
  220DPPC   C1510965   4.902   5.930   4.829
  220DPPC   O1610966   4.854   5.849   4.907
  220DPPC   C1710967   5.029   5.908   4.746
  220DPPC   C1810968   5.014   5.914   4.594
  220DPPC   C1910969   5.140   5.904   4.508
  220DPPC   C2010970   5.210   5.769   4.522
  220DPPC   C2110971   5.321   5.729   4.425
  220DPPC   C2210972   5.265   5.690   4.288
  220DPPC   C2310973   5.387   5.672   4.198
  220DPPC   C2410974   5.497   5.577   4.244
  220DPPC   C2510975   5.597   5.538   4.135
  220DPPC   C2610976   5.549   5.428   4.041
  220DPPC   C2710977   5.661   5.388   3.945
  220DPPC   C2810978   5.600   5.295   3.840
  220DPPC   C2910979   5.708   5.253   3.740
  220DPPC   C3010980   5.671   5.298   3.599
  220DPPC   C3110981   5.799   5.304   3.515
  220DPPC   C3210982   4.669   6.206   4.852
  220DPPC   O3310983   4.616   6.202   4.719
  220DPPC   C3410984   4.551   6.313   4.675
  220DPPC   O3510985   4.548   6.419   4.736
  220DPPC   C3610986   4.478   6.290   4.542
  220DPPC   C3710987   4.584   6.308   4.433
  220DPPC   C3810988   4.639   6.170   4.397
  220DPPC   C3910989   4.739   6.189   4.283
  220DPPC   C4010990   4.706   6.124   4.148
  220DPPC   C4110991   4.565   6.159   4.100
  220DPPC   C4210992   4.538   6.068   3.980
  220DPPC   C4310993   4.648   6.079   3.874
  220DPPC   C4410994   4.615   5.993   3.751
  220DPPC   C4510995   4.742   5.972   3.669
  220DPPC   C4610996   4.814   6.104   3.642
  220DPPC   C4710997   4.736   6.201   3.553
  220DPPC   C4810998   4.816   6.330   3.536
  220DPPC   C4910999   4.749   6.428   3.440
  220DPPC   C5011000   4.832   6.556   3.455
  221DPPC    C111001   0.382   6.243   4.471
  221DPPC    C211002   0.331   6.049   4.352
  221DPPC    C311003   0.464   6.209   4.241
  221DPPC    N411004   0.437   6.149   4.373
  221DPPC    C511005   0.558   6.086   4.427
  221DPPC    C611006   0.683   6.164   4.469
  221DPPC    O711007   0.779   6.110   4.560
  221DPPC    P811008   0.888   6.226   4.585
  221DPPC    O911009   0.973   6.184   4.698
  221DPPC   O1011010   0.815   6.355   4.584
  221DPPC   O1111011   0.960   6.211   4.442
  221DPPC   C1211012   1.080   6.136   4.453
  221DPPC   C1311013   1.150   6.103   4.321
  221DPPC   O1411014   1.246   6.188   4.257
  221DPPC   C1511015   1.371   6.207   4.308
  221DPPC   O1611016   1.412   6.129   4.393
  221DPPC   C1711017   1.454   6.295   4.215
  221DPPC   C1811018   1.399   6.438   4.205
  221DPPC   C1911019   1.295   6.463   4.096
  221DPPC   C2011020   1.349   6.427   3.957
  221DPPC   C2111021   1.243   6.426   3.847
  221DPPC   C2211022   1.314   6.373   3.723
  221DPPC   C2311023   1.222   6.376   3.601
  221DPPC   C2411024   1.297   6.310   3.484
  221DPPC   C2511025   1.210   6.323   3.358
  221DPPC   C2611026   1.079   6.245   3.372
  221DPPC   C2711027   0.989   6.248   3.249
  221DPPC   C2811028   0.925   6.385   3.222
  221DPPC   C2911029   0.887   6.416   3.077
  221DPPC   C3011030   0.988   6.514   3.018
  221DPPC   C3111031   0.991   6.630   3.118
  221DPPC   C3211032   1.034   6.070   4.227
  221DPPC   O3311033   0.996   5.934   4.254
  221DPPC   C3411034   0.877   5.914   4.192
  221DPPC   O3511035   0.800   6.007   4.167
  221DPPC   C3611036   0.826   5.772   4.212
  221DPPC   C3711037   0.799   5.705   4.077
  221DPPC   C3811038   0.726   5.571   4.092
  221DPPC   C3911039   0.730   5.462   3.986
  221DPPC   C4011040   0.658   5.507   3.858
  221DPPC   C4111041   0.709   5.407   3.754
  221DPPC   C4211042   0.651   5.448   3.619
  221DPPC   C4311043   0.498   5.436   3.612
  221DPPC   C4411044   0.438   5.434   3.471
  221DPPC   C4511045   0.290   5.394   3.469
  221DPPC   C4611046   0.226   5.437   3.336
  221DPPC   C4711047   0.093   5.366   3.312
  221DPPC   C4811048   0.035   5.397   3.173
  221DPPC   C4911049  -0.095   5.319   3.150
  221DPPC   C5011050  -0.073   5.169   3.169
  222DPPC    C111051   5.846   4.117   6.319
  222DPPC    C211052   5.664   3.986   6.328
  222DPPC    C311053   5.705   4.105   6.121
  222DPPC    N411054   5.767   4.029   6.232
  222DPPC    C511055   5.871   3.941   6.179
  222DPPC    C611056   5.852   3.793   6.144
  222DPPC    O711057   5.735   3.768   6.066
  222DPPC    P811058   5.708   3.609   6.074
  222DPPC    O911059   5.561   3.603   6.091
  222DPPC   O1011060   5.799   3.538   6.166
  222DPPC   O1111061   5.765   3.577   5.927
  222DPPC   C1211062   5.673   3.626   5.829
  222DPPC   C1311063   5.711   3.623   5.681
  222DPPC   O1411064   5.596   3.638   5.595
  222DPPC   C1511065   5.560   3.753   5.531
  222DPPC   O1611066   5.624   3.854   5.559
  222DPPC   C1711067   5.485   3.724   5.401
  222DPPC   C1811068   5.503   3.815   5.279
  222DPPC   C1911069   5.639   3.825   5.210
  222DPPC   C2011070   5.624   3.931   5.102
  222DPPC   C2111071   5.513   3.898   5.002
  222DPPC   C2211072   5.551   3.966   4.870
  222DPPC   C2311073   5.441   3.965   4.764
  222DPPC   C2411074   5.483   4.058   4.650
  222DPPC   C2511075   5.373   4.073   4.546
  222DPPC   C2611076   5.303   4.209   4.549
  222DPPC   C2711077   5.230   4.230   4.416
  222DPPC   C2811078   5.158   4.365   4.419
  222DPPC   C2911079   5.084   4.369   4.553
  222DPPC   C3011080   5.011   4.498   4.589
  222DPPC   C3111081   5.013   4.497   4.742
  222DPPC   C3211082   5.792   3.494   5.663
  222DPPC   O3311083   5.887   3.498   5.556
  222DPPC   C3411084   5.929   3.382   5.500
  222DPPC   O3511085   5.875   3.273   5.513
  222DPPC   C3611086   6.046   3.398   5.401
  222DPPC   C3711087   5.994   3.396   5.258
  222DPPC   C3811088   5.878   3.485   5.214
  222DPPC   C3911089   5.852   3.459   5.065
  222DPPC   C4011090   5.753   3.553   4.997
  222DPPC   C4111091   5.760   3.534   4.846
  222DPPC   C4211092   5.668   3.630   4.770
  222DPPC   C4311093   5.674   3.607   4.619
  222DPPC   C4411094   5.583   3.716   4.562
  222DPPC   C4511095   5.582   3.707   4.410
  222DPPC   C4611096   5.481   3.794   4.335
  222DPPC   C4711097   5.516   3.798   4.186
  222DPPC   C4811098   5.423   3.888   4.104
  222DPPC   C4911099   5.271   3.871   4.116
  222DPPC   C5011100   5.197   3.933   3.998
  223DPPC    C111101   3.440   7.435   5.804
  223DPPC    C211102   3.522   7.213   5.825
  223DPPC    C311103   3.293   7.252   5.771
  223DPPC    N411104   3.431   7.299   5.749
  223DPPC    C511105   3.492   7.293   5.615
  223DPPC    C611106   3.437   7.385   5.505
  223DPPC    O711107   3.479   7.350   5.373
  223DPPC    P811108   3.396   7.432   5.263
  223DPPC    O911109   3.474   7.554   5.235
  223DPPC   O1011110   3.260   7.430   5.320
  223DPPC   O1111111   3.421   7.312   5.158
  223DPPC   C1211112   3.541   7.338   5.085
  223DPPC   C1311113   3.605   7.219   5.012
  223DPPC   O1411114   3.713   7.271   4.934
  223DPPC   C1511115   3.828   7.198   4.933
  223DPPC   O1611116   3.835   7.095   4.999
  223DPPC   C1711117   3.947   7.248   4.851
  223DPPC   C1811118   3.902   7.308   4.718
  223DPPC   C1911119   3.844   7.201   4.625
  223DPPC   C2011120   3.819   7.253   4.483
  223DPPC   C2111121   3.780   7.156   4.372
  223DPPC   C2211122   3.909   7.107   4.306
  223DPPC   C2311123   3.894   7.020   4.181
  223DPPC   C2411124   3.862   7.115   4.065
  223DPPC   C2511125   3.877   7.048   3.929
  223DPPC   C2611126   4.022   7.031   3.881
  223DPPC   C2711127   4.022   6.974   3.739
  223DPPC   C2811128   3.974   6.828   3.739
  223DPPC   C2911129   4.016   6.757   3.610
  223DPPC   C3011130   3.943   6.623   3.601
  223DPPC   C3111131   3.991   6.553   3.473
  223DPPC   C3211132   3.490   7.149   4.939
  223DPPC   O3311133   3.416   7.215   4.836
  223DPPC   C3411134   3.314   7.146   4.777
  223DPPC   O3511135   3.281   7.040   4.830
  223DPPC   C3611136   3.250   7.201   4.649
  223DPPC   C3711137   3.348   7.206   4.532
  223DPPC   C3811138   3.284   7.237   4.396
  223DPPC   C3911139   3.387   7.267   4.288
  223DPPC   C4011140   3.339   7.296   4.145
  223DPPC   C4111141   3.461   7.327   4.058
  223DPPC   C4211142   3.416   7.391   3.926
  223DPPC   C4311143   3.544   7.409   3.844
  223DPPC   C4411144   3.505   7.446   3.701
  223DPPC   C4511145   3.622   7.472   3.606
  223DPPC   C4611146   3.573   7.489   3.462
  223DPPC   C4711147   3.691   7.530   3.374
  223DPPC   C4811148   3.646   7.544   3.229
  223DPPC   C4911149   3.769   7.517   3.141
  223DPPC   C5011150   3.735   7.542   2.994
  224DPPC    C111151   3.544   3.481   5.990
  224DPPC    C211152   3.327   3.396   5.917
  224DPPC    C311153   3.342   3.609   6.003
  224DPPC    N411154   3.417   3.512   5.922
  224DPPC    C511155   3.437   3.581   5.794
  224DPPC    C611156   3.543   3.528   5.697
  224DPPC    O711157   3.530   3.392   5.657
  224DPPC    P811158   3.671   3.330   5.609
  224DPPC    O911159   3.618   3.192   5.612
  224DPPC   O1011160   3.769   3.386   5.704
  224DPPC   O1111161   3.669   3.397   5.463
  224DPPC   C1211162   3.657   3.290   5.369
  224DPPC   C1311163   3.656   3.330   5.221
  224DPPC   O1411164   3.648   3.220   5.130
  224DPPC   C1511165   3.740   3.120   5.122
  224DPPC   O1611166   3.838   3.122   5.196
  224DPPC   C1711167   3.748   3.047   4.988
  224DPPC   C1811168   3.732   3.146   4.873
  224DPPC   C1911169   3.735   3.069   4.740
  224DPPC   C2011170   3.729   3.163   4.619
  224DPPC   C2111171   3.732   3.109   4.476
  224DPPC   C2211172   3.616   3.016   4.438
  224DPPC   C2311173   3.637   2.970   4.294
  224DPPC   C2411174   3.523   2.886   4.237
  224DPPC   C2511175   3.541   2.871   4.086
  224DPPC   C2611176   3.668   2.792   4.054
  224DPPC   C2711177   3.656   2.712   3.924
  224DPPC   C2811178   3.631   2.796   3.798
  224DPPC   C2911179   3.648   2.718   3.668
  224DPPC   C3011180   3.631   2.806   3.544
  224DPPC   C3111181   3.647   2.727   3.414
  224DPPC   C3211182   3.784   3.413   5.209
  224DPPC   O3311183   3.770   3.514   5.109
  224DPPC   C3411184   3.886   3.578   5.077
  224DPPC   O3511185   3.988   3.570   5.145
  224DPPC   C3611186   3.876   3.667   4.953
  224DPPC   C3711187   3.793   3.613   4.835
  224DPPC   C3811188   3.807   3.713   4.720
  224DPPC   C3911189   3.740   3.661   4.592
  224DPPC   C4011190   3.749   3.760   4.476
  224DPPC   C4111191   3.705   3.693   4.345
  224DPPC   C4211192   3.751   3.759   4.215
  224DPPC   C4311193   3.672   3.699   4.099
  224DPPC   C4411194   3.703   3.780   3.973
  224DPPC   C4511195   3.648   3.704   3.852
  224DPPC   C4611196   3.635   3.800   3.734
  224DPPC   C4711197   3.635   3.721   3.603
  224DPPC   C4811198   3.754   3.626   3.593
  224DPPC   C4911199   3.726   3.548   3.465
  224DPPC   C5011200   3.819   3.430   3.433
  225DPPC    C111201   8.951   3.125   5.238
  225DPPC    C211202   9.139   3.256   5.238
  225DPPC    C311203   9.037   3.189   5.446
  225DPPC    N411204   9.077   3.145   5.312
  225DPPC    C511205   9.161   3.025   5.319
  225DPPC    C611206   9.291   3.029   5.400
  225DPPC    O711207   9.385   3.133   5.371
  225DPPC    P811208   9.511   3.106   5.467
  225DPPC    O911209   9.477   3.003   5.568
  225DPPC   O1011210   9.571   3.239   5.494
  225DPPC   O1111211   9.596   3.029   5.354
  225DPPC   C1211212   9.672   3.119   5.273
  225DPPC   C1311213   9.658   3.097   5.123
  225DPPC   O1411214   9.738   3.196   5.056
  225DPPC   C1511215   9.872   3.187   5.034
  225DPPC   O1611216   9.942   3.154   5.129
  225DPPC   C1711217   9.919   3.293   4.935
  225DPPC   C1811218   9.915   3.228   4.796
  225DPPC   C1911219   9.952   3.330   4.689
  225DPPC   C2011220   9.912   3.274   4.552
  225DPPC   C2111221   9.964   3.358   4.435
  225DPPC   C2211222   9.887   3.314   4.311
  225DPPC   C2311223   9.937   3.376   4.180
  225DPPC   C2411224   9.841   3.341   4.066
  225DPPC   C2511225   9.892   3.390   3.930
  225DPPC   C2611226   9.793   3.370   3.815
  225DPPC   C2711227   9.847   3.426   3.684
  225DPPC   C2811228   9.770   3.364   3.567
  225DPPC   C2911229   9.858   3.375   3.443
  225DPPC   C3011230   9.789   3.316   3.320
  225DPPC   C3111231   9.870   3.347   3.194
  225DPPC   C3211232   9.508   3.099   5.097
  225DPPC   O3311233   9.471   3.000   5.000
  225DPPC   C3411234   9.350   3.013   4.939
  225DPPC   O3511235   9.274   3.102   4.977
  225DPPC   C3611236   9.316   2.896   4.847
  225DPPC   C3711237   9.353   2.942   4.706
  225DPPC   C3811238   9.308   2.817   4.629
  225DPPC   C3911239   9.343   2.831   4.481
  225DPPC   C4011240   9.350   2.695   4.411
  225DPPC   C4111241   9.373   2.708   4.261
  225DPPC   C4211242   9.390   2.570   4.197
  225DPPC   C4311243   9.372   2.595   4.047
  225DPPC   C4411244   9.411   2.470   3.967
  225DPPC   C4511245   9.400   2.490   3.815
  225DPPC   C4611246   9.522   2.573   3.775
  225DPPC   C4711247   9.516   2.606   3.625
  225DPPC   C4811248   9.521   2.481   3.537
  225DPPC   C4911249   9.541   2.506   3.387
  225DPPC   C5011250   9.673   2.583   3.373
  226DPPC    C111251   3.823   7.963   5.500
  226DPPC    C211252   3.794   8.193   5.477
  226DPPC    C311253   4.011   8.119   5.459
  226DPPC    N411254   3.873   8.080   5.427
  226DPPC    C511255   3.839   8.061   5.285
  226DPPC    C611256   3.922   7.966   5.197
  226DPPC    O711257   4.029   8.035   5.132
  226DPPC    P811258   4.118   7.921   5.062
  226DPPC    O911259   4.011   7.866   4.977
  226DPPC   O1011260   4.163   7.852   5.186
  226DPPC   O1111261   4.204   8.048   5.015
  226DPPC   C1211262   4.163   8.114   4.895
  226DPPC   C1311263   4.263   8.128   4.780
  226DPPC   O1411264   4.218   8.202   4.665
  226DPPC   C1511265   4.241   8.336   4.656
  226DPPC   O1611266   4.275   8.397   4.757
  226DPPC   C1711267   4.194   8.402   4.527
  226DPPC   C1811268   4.303   8.471   4.444
  226DPPC   C1911269   4.431   8.389   4.422
  226DPPC   C2011270   4.521   8.431   4.306
  226DPPC   C2111271   4.660   8.367   4.318
  226DPPC   C2211272   4.734   8.383   4.185
  226DPPC   C2311273   4.876   8.329   4.198
  226DPPC   C2411274   4.936   8.318   4.058
  226DPPC   C2511275   5.081   8.271   4.051
  226DPPC   C2611276   5.141   8.272   3.910
  226DPPC   C2711277   5.280   8.210   3.920
  226DPPC   C2811278   5.358   8.235   3.792
  226DPPC   C2911279   5.285   8.168   3.675
  226DPPC   C3011280   5.385   8.146   3.562
  226DPPC   C3111281   5.494   8.049   3.606
  226DPPC   C3211282   4.326   7.992   4.751
  226DPPC   O3311283   4.229   7.888   4.740
  226DPPC   C3411284   4.282   7.763   4.741
  226DPPC   O3511285   4.400   7.738   4.763
  226DPPC   C3611286   4.186   7.646   4.715
  226DPPC   C3711287   4.156   7.620   4.567
  226DPPC   C3811288   4.267   7.554   4.486
  226DPPC   C3911289   4.215   7.428   4.417
  226DPPC   C4011290   4.335   7.385   4.333
  226DPPC   C4111291   4.300   7.294   4.215
  226DPPC   C4211292   4.422   7.274   4.126
  226DPPC   C4311293   4.377   7.207   3.996
  226DPPC   C4411294   4.496   7.201   3.901
  226DPPC   C4511295   4.441   7.164   3.763
  226DPPC   C4611296   4.554   7.100   3.683
  226DPPC   C4711297   4.512   7.053   3.543
  226DPPC   C4811298   4.636   6.996   3.474
  226DPPC   C4911299   4.611   6.957   3.329
  226DPPC   C5011300   4.741   6.925   3.253
  227DPPC    C111301   4.694   4.141   1.459
  227DPPC    C211302   4.750   4.356   1.413
  227DPPC    C311303   4.521   4.304   1.397
  227DPPC    N411304   4.642   4.277   1.475
  227DPPC    C511305   4.624   4.320   1.615
  227DPPC    C611306   4.607   4.470   1.641
  227DPPC    O711307   4.580   4.498   1.778
  227DPPC    P811308   4.639   4.640   1.826
  227DPPC    O911309   4.567   4.682   1.948
  227DPPC   O1011310   4.654   4.725   1.705
  227DPPC   O1111311   4.791   4.602   1.864
  227DPPC   C1211312   4.796   4.592   2.006
  227DPPC   C1311313   4.932   4.535   2.045
  227DPPC   O1411314   4.941   4.460   2.166
  227DPPC   C1511315   4.874   4.342   2.180
  227DPPC   O1611316   4.815   4.298   2.082
  227DPPC   C1711317   4.866   4.278   2.319
  227DPPC   C1811318   4.982   4.184   2.353
  227DPPC   C1911319   4.982   4.161   2.505
  227DPPC   C2011320   5.086   4.065   2.562
  227DPPC   C2111321   5.059   4.039   2.710
  227DPPC   C2211322   5.167   3.960   2.784
  227DPPC   C2311323   5.139   3.912   2.926
  227DPPC   C2411324   5.276   3.919   2.993
  227DPPC   C2511325   5.227   3.866   3.128
  227DPPC   C2611326   5.336   3.846   3.234
  227DPPC   C2711327   5.268   3.825   3.369
  227DPPC   C2811328   5.366   3.814   3.487
  227DPPC   C2911329   5.304   3.766   3.618
  227DPPC   C3011330   5.254   3.623   3.599
  227DPPC   C3111331   5.204   3.583   3.738
  227DPPC   C3211332   5.035   4.646   2.022
  227DPPC   O3311333   5.025   4.741   2.129
  227DPPC   C3411334   5.135   4.820   2.142
  227DPPC   O3511335   5.208   4.838   2.045
  227DPPC   C3611336   5.151   4.914   2.262
  227DPPC   C3711337   5.275   4.873   2.341
  227DPPC   C3811338   5.310   4.961   2.462
  227DPPC   C3911339   5.230   4.932   2.589
  227DPPC   C4011340   5.271   5.024   2.704
  227DPPC   C4111341   5.212   5.001   2.843
  227DPPC   C4211342   5.308   5.062   2.945
  227DPPC   C4311343   5.232   5.059   3.078
  227DPPC   C4411344   5.300   5.122   3.200
  227DPPC   C4511345   5.236   5.064   3.327
  227DPPC   C4611346   5.334   5.097   3.440
  227DPPC   C4711347   5.298   5.009   3.560
  227DPPC   C4811348   5.404   5.036   3.668
  227DPPC   C4911349   5.357   4.942   3.778
  227DPPC   C5011350   5.440   4.953   3.906
  228DPPC    C111351   5.525   2.760   1.987
  228DPPC    C211352   5.687   2.683   1.817
  228DPPC    C311353   5.491   2.577   1.833
  228DPPC    N411354   5.547   2.712   1.850
  228DPPC    C511355   5.470   2.787   1.750
  228DPPC    C611356   5.475   2.940   1.751
  228DPPC    O711357   5.599   2.984   1.696
  228DPPC    P811358   5.587   3.140   1.660
  228DPPC    O911359   5.451   3.161   1.607
  228DPPC   O1011360   5.706   3.174   1.578
  228DPPC   O1111361   5.588   3.213   1.803
  228DPPC   C1211362   5.713   3.183   1.865
  228DPPC   C1311363   5.719   3.201   2.017
  228DPPC   O1411364   5.648   3.100   2.089
  228DPPC   C1511365   5.666   3.106   2.224
  228DPPC   O1611366   5.764   3.153   2.281
  228DPPC   C1711367   5.572   3.010   2.298
  228DPPC   C1811368   5.521   3.084   2.422
  228DPPC   C1911369   5.440   2.987   2.507
  228DPPC   C2011370   5.388   3.072   2.622
  228DPPC   C2111371   5.301   2.992   2.720
  228DPPC   C2211372   5.257   3.101   2.818
  228DPPC   C2311373   5.194   3.044   2.946
  228DPPC   C2411374   5.061   2.979   2.906
  228DPPC   C2511375   4.968   2.960   3.026
  228DPPC   C2611376   4.854   2.861   2.999
  228DPPC   C2711377   4.817   2.780   3.124
  228DPPC   C2811378   4.935   2.696   3.173
  228DPPC   C2911379   4.883   2.629   3.300
  228DPPC   C3011380   4.993   2.531   3.343
  228DPPC   C3111381   4.944   2.427   3.444
  228DPPC   C3211382   5.678   3.344   2.052
  228DPPC   O3311383   5.783   3.441   2.054
  228DPPC   C3411384   5.742   3.568   2.081
  228DPPC   O3511385   5.629   3.602   2.045
  228DPPC   C3611386   5.859   3.654   2.128
  228DPPC   C3711387   5.837   3.746   2.248
  228DPPC   C3811388   5.860   3.675   2.382
  228DPPC   C3911389   5.854   3.788   2.485
  228DPPC   C4011390   5.852   3.728   2.625
  228DPPC   C4111391   5.847   3.845   2.723
  228DPPC   C4211392   5.844   3.765   2.854
  228DPPC   C4311393   5.825   3.863   2.970
  228DPPC   C4411394   5.805   3.781   3.097
  228DPPC   C4511395   5.756   3.881   3.203
  228DPPC   C4611396   5.790   3.843   3.347
  228DPPC   C4711397   5.925   3.906   3.380
  228DPPC   C4811398   6.046   3.834   3.319
  228DPPC   C4911399   6.166   3.915   3.369
  228DPPC   C5011400   6.295   3.867   3.303
  229DPPC    C111401   3.275   3.956   2.053
  229DPPC    C211402   3.507   3.997   2.042
  229DPPC    C311403   3.414   3.872   2.231
  229DPPC    N411404   3.406   3.900   2.086
  229DPPC    C511405   3.432   3.773   2.017
  229DPPC    C611406   3.331   3.660   2.041
  229DPPC    O711407   3.388   3.533   2.006
  229DPPC    P811408   3.301   3.402   2.039
  229DPPC    O911409   3.387   3.304   1.968
  229DPPC   O1011410   3.162   3.433   1.998
  229DPPC   O1111411   3.333   3.412   2.197
  229DPPC   C1211412   3.355   3.282   2.252
  229DPPC   C1311413   3.384   3.278   2.402
  229DPPC   O1411414   3.266   3.251   2.479
  229DPPC   C1511415   3.236   3.121   2.508
  229DPPC   O1611416   3.294   3.030   2.449
  229DPPC   C1711417   3.122   3.090   2.605
  229DPPC   C1811418   3.174   2.990   2.709
  229DPPC   C1911419   3.075   2.966   2.823
  229DPPC   C2011420   3.131   2.868   2.926
  229DPPC   C2111421   3.071   2.891   3.065
  229DPPC   C2211422   3.025   2.758   3.126
  229DPPC   C2311423   2.956   2.786   3.259
  229DPPC   C2411424   2.880   2.661   3.303
  229DPPC   C2511425   2.845   2.654   3.452
  229DPPC   C2611426   2.761   2.530   3.481
  229DPPC   C2711427   2.766   2.477   3.624
  229DPPC   C2811428   2.745   2.594   3.721
  229DPPC   C2911429   2.749   2.534   3.862
  229DPPC   C3011430   2.801   2.609   3.984
  229DPPC   C3111431   2.805   2.511   4.102
  229DPPC   C3211432   3.453   3.405   2.451
  229DPPC   O3311433   3.575   3.437   2.382
  229DPPC   C3411434   3.630   3.559   2.402
  229DPPC   O3511435   3.571   3.660   2.440
  229DPPC   C3611436   3.771   3.565   2.341
  229DPPC   C3711437   3.889   3.540   2.435
  229DPPC   C3811438   3.866   3.618   2.565
  229DPPC   C3911439   3.994   3.607   2.649
  229DPPC   C4011440   3.984   3.693   2.775
  229DPPC   C4111441   4.109   3.671   2.861
  229DPPC   C4211442   4.073   3.719   3.002
  229DPPC   C4311443   4.188   3.751   3.098
  229DPPC   C4411444   4.125   3.786   3.233
  229DPPC   C4511445   4.233   3.818   3.336
  229DPPC   C4611446   4.180   3.844   3.477
  229DPPC   C4711447   4.128   3.988   3.487
  229DPPC   C4811448   4.089   4.019   3.631
  229DPPC   C4911449   4.073   4.170   3.646
  229DPPC   C5011450   4.025   4.195   3.789
  230DPPC    C111451   5.529   1.120   2.198
  230DPPC    C211452   5.368   1.108   2.383
  230DPPC    C311453   5.350   1.265   2.202
  230DPPC    N411454   5.388   1.128   2.238
  230DPPC    C511455   5.316   1.016   2.176
  230DPPC    C611456   5.339   0.966   2.033
  230DPPC    O711457   5.228   0.911   1.963
  230DPPC    P811458   5.263   0.764   1.909
  230DPPC    O911459   5.391   0.781   1.838
  230DPPC   O1011460   5.150   0.715   1.826
  230DPPC   O1111461   5.278   0.699   2.055
  230DPPC   C1211462   5.148   0.652   2.093
  230DPPC   C1311463   5.111   0.667   2.241
  230DPPC   O1411464   5.070   0.796   2.287
  230DPPC   C1511465   4.945   0.845   2.262
  230DPPC   O1611466   4.871   0.806   2.172
  230DPPC   C1711467   4.890   0.954   2.354
  230DPPC   C1811468   4.875   0.898   2.496
  230DPPC   C1911469   4.833   1.018   2.580
  230DPPC   C2011470   4.833   0.978   2.728
  230DPPC   C2111471   4.797   1.105   2.806
  230DPPC   C2211472   4.647   1.135   2.811
  230DPPC   C2311473   4.638   1.247   2.915
  230DPPC   C2411474   4.739   1.357   2.882
  230DPPC   C2511475   4.718   1.464   2.989
  230DPPC   C2611476   4.765   1.407   3.124
  230DPPC   C2711477   4.747   1.491   3.250
  230DPPC   C2811478   4.780   1.393   3.363
  230DPPC   C2911479   4.914   1.321   3.352
  230DPPC   C3011480   4.929   1.248   3.485
  230DPPC   C3111481   5.048   1.153   3.498
  230DPPC   C3211482   5.232   0.609   2.315
  230DPPC   O3311483   5.237   0.592   2.456
  230DPPC   C3411484   5.283   0.705   2.515
  230DPPC   O3511485   5.334   0.799   2.454
  230DPPC   C3611486   5.270   0.714   2.667
  230DPPC   C3711487   5.278   0.575   2.730
  230DPPC   C3811488   5.301   0.586   2.881
  230DPPC   C3911489   5.274   0.451   2.946
  230DPPC   C4011490   5.294   0.450   3.098
  230DPPC   C4111491   5.258   0.307   3.141
  230DPPC   C4211492   5.111   0.270   3.127
  230DPPC   C4311493   5.040   0.339   3.244
  230DPPC   C4411494   4.889   0.317   3.243
  230DPPC   C4511495   4.811   0.388   3.355
  230DPPC   C4611496   4.659   0.375   3.348
  230DPPC   C4711497   4.592   0.457   3.459
  230DPPC   C4811498   4.600   0.605   3.424
  230DPPC   C4911499   4.461   0.658   3.387
  230DPPC   C5011500   4.354   0.627   3.492
  231DPPC    C111501   1.072   0.230   1.685
  231DPPC    C211502   1.153   0.410   1.587
  231DPPC    C311503   1.322   0.282   1.700
  231DPPC    N411504   1.197   0.274   1.622
  231DPPC    C511505   1.224   0.199   1.499
  231DPPC    C611506   1.306   0.070   1.496
  231DPPC    O711507   1.240  -0.037   1.565
  231DPPC    P811508   1.346  -0.154   1.598
  231DPPC    O911509   1.441  -0.111   1.703
  231DPPC   O1011510   1.368  -0.235   1.476
  231DPPC   O1111511   1.230  -0.234   1.675
  231DPPC   C1211512   1.219  -0.179   1.807
  231DPPC   C1311513   1.083  -0.201   1.873
  231DPPC   O1411514   1.063  -0.131   1.997
  231DPPC   C1511515   0.962  -0.040   2.001
  231DPPC   O1611516   0.887  -0.027   1.904
  231DPPC   C1711517   0.952   0.054   2.122
  231DPPC   C1811518   0.988   0.198   2.086
  231DPPC   C1911519   0.939   0.301   2.189
  231DPPC   C2011520   0.787   0.318   2.187
  231DPPC   C2111521   0.750   0.435   2.278
  231DPPC   C2211522   0.803   0.418   2.420
  231DPPC   C2311523   0.770   0.537   2.509
  231DPPC   C2411524   0.803   0.498   2.653
  231DPPC   C2511525   0.762   0.621   2.734
  231DPPC   C2611526   0.798   0.607   2.882
  231DPPC   C2711527   0.758   0.729   2.966
  231DPPC   C2811528   0.764   0.691   3.114
  231DPPC   C2911529   0.767   0.819   3.199
  231DPPC   C3011530   0.783   0.789   3.348
  231DPPC   C3111531   0.665   0.710   3.404
  231DPPC   C3211532   1.064  -0.353   1.868
  231DPPC   O3311533   1.185  -0.421   1.902
  231DPPC   C3411534   1.169  -0.554   1.927
  231DPPC   O3511535   1.103  -0.621   1.848
  231DPPC   C3611536   1.274  -0.612   2.022
  231DPPC   C3711537   1.203  -0.649   2.152
  231DPPC   C3811538   1.318  -0.718   2.224
  231DPPC   C3911539   1.290  -0.793   2.355
  231DPPC   C4011540   1.423  -0.850   2.405
  231DPPC   C4111541   1.407  -0.931   2.534
  231DPPC   C4211542   1.548  -0.971   2.577
  231DPPC   C4311543   1.618  -0.839   2.611
  231DPPC   C4411544   1.740  -0.849   2.702
  231DPPC   C4511545   1.804  -0.710   2.705
  231DPPC   C4611546   1.946  -0.723   2.649
  231DPPC   C4711547   2.029  -0.595   2.664
  231DPPC   C4811548   2.163  -0.632   2.728
  231DPPC   C4911549   2.283  -0.571   2.656
  231DPPC   C5011550   2.407  -0.647   2.705
  232DPPC    C111551   7.702   6.907   1.166
  232DPPC    C211552   7.806   7.034   1.347
  232DPPC    C311553   7.583   7.068   1.291
  232DPPC    N411554   7.686   6.963   1.301
  232DPPC    C511555   7.654   6.852   1.392
  232DPPC    C611556   7.765   6.751   1.424
  232DPPC    O711557   7.715   6.632   1.486
  232DPPC    P811558   7.787   6.496   1.438
  232DPPC    O911559   7.833   6.510   1.298
  232DPPC   O1011560   7.698   6.386   1.481
  232DPPC   O1111561   7.910   6.498   1.542
  232DPPC   C1211562   7.869   6.458   1.673
  232DPPC   C1311563   7.950   6.524   1.785
  232DPPC   O1411564   7.953   6.447   1.906
  232DPPC   C1511565   8.061   6.366   1.923
  232DPPC   O1611566   8.152   6.370   1.841
  232DPPC   C1711567   8.066   6.285   2.053
  232DPPC   C1811568   8.194   6.309   2.133
  232DPPC   C1911569   8.184   6.220   2.257
  232DPPC   C2011570   8.291   6.245   2.365
  232DPPC   C2111571   8.258   6.156   2.485
  232DPPC   C2211572   8.358   6.160   2.601
  232DPPC   C2311573   8.308   6.080   2.721
  232DPPC   C2411574   8.395   6.115   2.842
  232DPPC   C2511575   8.546   6.112   2.821
  232DPPC   C2611576   8.615   6.143   2.954
  232DPPC   C2711577   8.614   6.018   3.042
  232DPPC   C2811578   8.677   6.045   3.180
  232DPPC   C2911579   8.605   6.159   3.252
  232DPPC   C3011580   8.654   6.179   3.396
  232DPPC   C3111581   8.574   6.290   3.465
  232DPPC   C3211582   7.900   6.669   1.789
  232DPPC   O3311583   7.760   6.686   1.813
  232DPPC   C3411584   7.719   6.815   1.802
  232DPPC   O3511585   7.783   6.895   1.733
  232DPPC   C3611586   7.581   6.843   1.861
  232DPPC   C3711587   7.589   6.938   1.981
  232DPPC   C3811588   7.621   6.853   2.104
  232DPPC   C3911589   7.630   6.956   2.217
  232DPPC   C4011590   7.495   7.026   2.235
  232DPPC   C4111591   7.500   7.122   2.354
  232DPPC   C4211592   7.550   7.041   2.473
  232DPPC   C4311593   7.556   7.122   2.603
  232DPPC   C4411594   7.602   7.041   2.724
  232DPPC   C4511595   7.729   6.960   2.698
  232DPPC   C4611596   7.731   6.840   2.793
  232DPPC   C4711597   7.875   6.789   2.798
  232DPPC   C4811598   7.893   6.664   2.885
  232DPPC   C4911599   7.786   6.565   2.838
  232DPPC   C5011600   7.781   6.448   2.937
  233DPPC    C111601   0.413   5.384   1.132
  233DPPC    C211602   0.585   5.220   1.135
  233DPPC    C311603   0.621   5.437   1.074
  233DPPC    N411604   0.551   5.357   1.176
  233DPPC    C511605   0.586   5.380   1.317
  233DPPC    C611606   0.572   5.524   1.365
  233DPPC    O711607   0.694   5.579   1.416
  233DPPC    P811608   0.667   5.732   1.457
  233DPPC    O911609   0.578   5.777   1.347
  233DPPC   O1011610   0.792   5.805   1.487
  233DPPC   O1111611   0.577   5.709   1.589
  233DPPC   C1211612   0.532   5.826   1.658
  233DPPC   C1311613   0.412   5.909   1.611
  233DPPC   O1411614   0.394   6.029   1.688
  233DPPC   C1511615   0.458   6.143   1.651
  233DPPC   O1611616   0.538   6.135   1.558
  233DPPC   C1711617   0.452   6.261   1.748
  233DPPC   C1811618   0.587   6.301   1.807
  233DPPC   C1911619   0.555   6.406   1.913
  233DPPC   C2011620   0.686   6.458   1.974
  233DPPC   C2111621   0.763   6.349   2.048
  233DPPC   C2211622   0.890   6.400   2.117
  233DPPC   C2311623   0.956   6.279   2.183
  233DPPC   C2411624   1.102   6.309   2.215
  233DPPC   C2511625   1.162   6.199   2.303
  233DPPC   C2611626   1.160   6.066   2.227
  233DPPC   C2711627   1.257   5.965   2.289
  233DPPC   C2811628   1.249   5.978   2.441
  233DPPC   C2911629   1.353   5.885   2.505
  233DPPC   C3011630   1.331   5.879   2.657
  233DPPC   C3111631   1.407   5.763   2.722
  233DPPC   C3211632   0.293   5.815   1.634
  233DPPC   O3311633   0.307   5.737   1.753
  233DPPC   C3411634   0.198   5.660   1.779
  233DPPC   O3511635   0.107   5.658   1.696
  233DPPC   C3611636   0.193   5.584   1.912
  233DPPC   C3711637   0.125   5.665   2.023
  233DPPC   C3811638   0.194   5.798   2.053
  233DPPC   C3911639   0.120   5.886   2.153
  233DPPC   C4011640   0.205   6.008   2.191
  233DPPC   C4111641   0.340   5.962   2.246
  233DPPC   C4211642   0.431   6.080   2.282
  233DPPC   C4311643   0.563   6.023   2.332
  233DPPC   C4411644   0.661   6.117   2.403
  233DPPC   C4511645   0.759   6.040   2.492
  233DPPC   C4611646   0.810   6.129   2.605
  233DPPC   C4711647   0.934   6.067   2.670
  233DPPC   C4811648   0.990   6.156   2.782
  233DPPC   C4911649   1.081   6.073   2.873
  233DPPC   C5011650   0.986   5.963   2.922
  234DPPC    C111651   8.535   1.903   1.004
  234DPPC    C211652   8.464   1.682   1.053
  234DPPC    C311653   8.674   1.709   0.983
  234DPPC    N411654   8.575   1.777   1.068
  234DPPC    C511655   8.624   1.789   1.206
  234DPPC    C611656   8.733   1.882   1.260
  234DPPC    O711657   8.862   1.866   1.200
  234DPPC    P811658   8.958   1.991   1.231
  234DPPC    O911659   8.861   2.099   1.202
  234DPPC   O1011660   9.076   1.961   1.146
  234DPPC   O1111661   8.979   1.942   1.383
  234DPPC   C1211662   8.933   2.040   1.477
  234DPPC   C1311663   8.904   1.966   1.608
  234DPPC   O1411664   8.880   2.058   1.715
  234DPPC   C1511665   8.780   2.020   1.800
  234DPPC   O1611666   8.671   1.983   1.757
  234DPPC   C1711667   8.791   2.078   1.941
  234DPPC   C1811668   8.938   2.095   1.979
  234DPPC   C1911669   8.966   2.107   2.129
  234DPPC   C2011670   8.922   1.984   2.210
  234DPPC   C2111671   8.952   1.998   2.359
  234DPPC   C2211672   8.894   1.873   2.426
  234DPPC   C2311673   8.886   1.906   2.576
  234DPPC   C2411674   8.774   1.828   2.644
  234DPPC   C2511675   8.771   1.862   2.794
  234DPPC   C2611676   8.648   1.808   2.866
  234DPPC   C2711677   8.643   1.833   3.017
  234DPPC   C2811678   8.516   1.776   3.081
  234DPPC   C2911679   8.521   1.773   3.234
  234DPPC   C3011680   8.385   1.723   3.282
  234DPPC   C3111681   8.382   1.724   3.435
  234DPPC   C3211682   9.035   1.894   1.639
  234DPPC   O3311683   9.040   1.790   1.737
  234DPPC   C3411684   8.982   1.667   1.729
  234DPPC   O3511685   8.961   1.625   1.616
  234DPPC   C3611686   8.988   1.575   1.851
  234DPPC   C3711687   8.877   1.635   1.939
  234DPPC   C3811688   8.877   1.555   2.070
  234DPPC   C3911689   8.753   1.594   2.150
  234DPPC   C4011690   8.735   1.531   2.288
  234DPPC   C4111691   8.589   1.563   2.320
  234DPPC   C4211692   8.545   1.503   2.453
  234DPPC   C4311693   8.412   1.560   2.502
  234DPPC   C4411694   8.383   1.488   2.634
  234DPPC   C4511695   8.279   1.576   2.704
  234DPPC   C4611696   8.253   1.508   2.839
  234DPPC   C4711697   8.375   1.472   2.924
  234DPPC   C4811698   8.342   1.408   3.058
  234DPPC   C4911699   8.465   1.368   3.140
  234DPPC   C5011700   8.425   1.271   3.252
  235DPPC    C111701   2.596   4.070   1.891
  235DPPC    C211702   2.410   4.218   1.869
  235DPPC    C311703   2.500   4.168   2.082
  235DPPC    N411704   2.535   4.194   1.942
  235DPPC    C511705   2.629   4.307   1.947
  235DPPC    C611706   2.677   4.357   1.811
  235DPPC    O711707   2.754   4.476   1.824
  235DPPC    P811708   2.796   4.522   1.675
  235DPPC    O911709   2.772   4.411   1.580
  235DPPC   O1011710   2.929   4.585   1.662
  235DPPC   O1111711   2.677   4.628   1.650
  235DPPC   C1211712   2.700   4.729   1.748
  235DPPC   C1311713   2.583   4.821   1.785
  235DPPC   O1411714   2.628   4.935   1.860
  235DPPC   C1511715   2.541   5.038   1.866
  235DPPC   O1611716   2.448   5.046   1.785
  235DPPC   C1711717   2.557   5.136   1.983
  235DPPC   C1811718   2.589   5.051   2.106
  235DPPC   C1911719   2.475   4.968   2.164
  235DPPC   C2011720   2.539   4.910   2.291
  235DPPC   C2111721   2.448   4.818   2.373
  235DPPC   C2211722   2.508   4.816   2.514
  235DPPC   C2311723   2.471   4.941   2.593
  235DPPC   C2411724   2.545   4.933   2.726
  235DPPC   C2511725   2.530   5.072   2.787
  235DPPC   C2611726   2.382   5.112   2.797
  235DPPC   C2711727   2.355   5.251   2.854
  235DPPC   C2811728   2.384   5.237   3.004
  235DPPC   C2911729   2.357   5.359   3.091
  235DPPC   C3011730   2.369   5.316   3.238
  235DPPC   C3111731   2.309   5.413   3.339
  235DPPC   C3211732   2.470   4.730   1.834
  235DPPC   O3311733   2.473   4.652   1.953
  235DPPC   C3411734   2.359   4.588   1.990
  235DPPC   O3511735   2.282   4.563   1.898
  235DPPC   C3611736   2.365   4.522   2.128
  235DPPC   C3711737   2.233   4.452   2.161
  235DPPC   C3811738   2.241   4.370   2.290
  235DPPC   C3911739   2.289   4.441   2.416
  235DPPC   C4011740   2.275   4.356   2.543
  235DPPC   C4111741   2.322   4.420   2.674
  235DPPC   C4211742   2.228   4.526   2.731
  235DPPC   C4311743   2.308   4.588   2.846
  235DPPC   C4411744   2.202   4.674   2.914
  235DPPC   C4511745   2.252   4.730   3.048
  235DPPC   C4611746   2.186   4.861   3.093
  235DPPC   C4711747   2.248   4.915   3.222
  235DPPC   C4811748   2.233   4.811   3.334
  235DPPC   C4911749   2.295   4.872   3.460
  235DPPC   C5011750   2.441   4.911   3.435
  236DPPC    C111751   0.274   1.152   1.111
  236DPPC    C211752   0.141   1.278   0.953
  236DPPC    C311753   0.039   1.112   1.092
  236DPPC    N411754   0.144   1.216   1.087
  236DPPC    C511755   0.118   1.308   1.198
  236DPPC    C611756   0.184   1.446   1.205
  236DPPC    O711757   0.327   1.440   1.216
  236DPPC    P811758   0.393   1.587   1.213
  236DPPC    O911759   0.315   1.662   1.112
  236DPPC   O1011760   0.539   1.563   1.208
  236DPPC   O1111761   0.332   1.636   1.354
  236DPPC   C1211762   0.401   1.577   1.464
  236DPPC   C1311763   0.378   1.662   1.589
  236DPPC   O1411764   0.475   1.645   1.694
  236DPPC   C1511765   0.509   1.746   1.779
  236DPPC   O1611766   0.484   1.861   1.745
  236DPPC   C1711767   0.622   1.726   1.880
  236DPPC   C1811768   0.592   1.820   1.997
  236DPPC   C1911769   0.700   1.800   2.103
  236DPPC   C2011770   0.678   1.897   2.219
  236DPPC   C2111771   0.568   1.842   2.310
  236DPPC   C2211772   0.578   1.896   2.452
  236DPPC   C2311773   0.481   1.816   2.540
  236DPPC   C2411774   0.339   1.815   2.484
  236DPPC   C2511775   0.244   1.788   2.601
  236DPPC   C2611776   0.292   1.653   2.655
  236DPPC   C2711777   0.207   1.608   2.774
  236DPPC   C2811778   0.194   1.706   2.892
  236DPPC   C2911779   0.087   1.650   2.985
  236DPPC   C3011780   0.086   1.726   3.118
  236DPPC   C3111781  -0.036   1.700   3.207
  236DPPC   C3211782   0.233   1.627   1.622
  236DPPC   O3311783   0.220   1.486   1.640
  236DPPC   C3411784   0.093   1.437   1.633
  236DPPC   O3511785   0.002   1.505   1.584
  236DPPC   C3611786   0.064   1.297   1.686
  236DPPC   C3711787   0.055   1.294   1.839
  236DPPC   C3811788  -0.092   1.317   1.877
  236DPPC   C3911789  -0.128   1.267   2.017
  236DPPC   C4011790  -0.271   1.290   2.066
  236DPPC   C4111791  -0.279   1.247   2.212
  236DPPC   C4211792  -0.259   1.096   2.227
  236DPPC   C4311793  -0.264   1.053   2.374
  236DPPC   C4411794  -0.254   0.902   2.392
  236DPPC   C4511795  -0.253   0.886   2.545
  236DPPC   C4611796  -0.220   0.745   2.593
  236DPPC   C4711797  -0.228   0.734   2.746
  236DPPC   C4811798  -0.101   0.795   2.807
  236DPPC   C4911799  -0.112   0.807   2.959
  236DPPC   C5011800   0.012   0.877   3.015
  237DPPC    C111801   7.367   7.752   1.629
  237DPPC    C211802   7.579   7.640   1.654
  237DPPC    C311803   7.424   7.569   1.507
  237DPPC    N411804   7.482   7.694   1.557
  237DPPC    C511805   7.552   7.764   1.448
  237DPPC    C611806   7.594   7.910   1.468
  237DPPC    O711807   7.485   8.003   1.471
  237DPPC    P811808   7.541   8.152   1.498
  237DPPC    O911809   7.444   8.253   1.452
  237DPPC   O1011810   7.684   8.151   1.462
  237DPPC   O1111811   7.521   8.136   1.657
  237DPPC   C1211812   7.386   8.140   1.704
  237DPPC   C1311813   7.381   8.156   1.857
  237DPPC   O1411814   7.381   8.290   1.907
  237DPPC   C1511815   7.270   8.368   1.892
  237DPPC   O1611816   7.170   8.316   1.842
  237DPPC   C1711817   7.281   8.514   1.936
  237DPPC   C1811818   7.373   8.515   2.058
  237DPPC   C1911819   7.382   8.654   2.122
  237DPPC   C2011820   7.446   8.643   2.260
  237DPPC   C2111821   7.339   8.613   2.365
  237DPPC   C2211822   7.405   8.629   2.502
  237DPPC   C2311823   7.309   8.614   2.620
  237DPPC   C2411824   7.371   8.673   2.746
  237DPPC   C2511825   7.387   8.824   2.727
  237DPPC   C2611826   7.483   8.872   2.836
  237DPPC   C2711827   7.474   8.811   2.977
  237DPPC   C2811828   7.580   8.863   3.074
  237DPPC   C2911829   7.725   8.847   3.027
  237DPPC   C3011830   7.813   8.912   3.134
  237DPPC   C3111831   7.783   9.061   3.146
  237DPPC   C3211832   7.476   8.049   1.911
  237DPPC   O3311833   7.402   7.930   1.935
  237DPPC   C3411834   7.481   7.834   1.990
  237DPPC   O3511835   7.599   7.817   1.958
  237DPPC   C3611836   7.420   7.722   2.074
  237DPPC   C3711837   7.417   7.758   2.223
  237DPPC   C3811838   7.385   7.641   2.317
  237DPPC   C3911839   7.366   7.684   2.462
  237DPPC   C4011840   7.317   7.568   2.550
  237DPPC   C4111841   7.255   7.632   2.674
  237DPPC   C4211842   7.196   7.521   2.761
  237DPPC   C4311843   7.296   7.412   2.801
  237DPPC   C4411844   7.406   7.480   2.883
  237DPPC   C4511845   7.506   7.376   2.935
  237DPPC   C4611846   7.599   7.445   3.035
  237DPPC   C4711847   7.718   7.351   3.058
  237DPPC   C4811848   7.678   7.211   3.105
  237DPPC   C4911849   7.806   7.137   3.067
  237DPPC   C5011850   7.918   7.183   3.161
  238DPPC    C111851   3.267   2.093   2.341
  238DPPC    C211852   3.344   2.151   2.125
  238DPPC    C311853   3.112   2.104   2.152
  238DPPC    N411854   3.230   2.163   2.217
  238DPPC    C511855   3.175   2.297   2.239
  238DPPC    C611856   3.251   2.391   2.332
  238DPPC    O711857   3.351   2.467   2.262
  238DPPC    P811858   3.424   2.573   2.359
  238DPPC    O911859   3.349   2.594   2.485
  238DPPC   O1011860   3.490   2.684   2.287
  238DPPC   O1111861   3.540   2.464   2.386
  238DPPC   C1211862   3.535   2.443   2.528
  238DPPC   C1311863   3.585   2.313   2.590
  238DPPC   O1411864   3.536   2.299   2.724
  238DPPC   C1511865   3.524   2.175   2.779
  238DPPC   O1611866   3.521   2.074   2.708
  238DPPC   C1711867   3.489   2.163   2.927
  238DPPC   C1811868   3.609   2.139   3.019
  238DPPC   C1911869   3.586   2.143   3.170
  238DPPC   C2011870   3.529   2.273   3.226
  238DPPC   C2111871   3.507   2.252   3.376
  238DPPC   C2211872   3.449   2.382   3.433
  238DPPC   C2311873   3.456   2.375   3.586
  238DPPC   C2411874   3.596   2.347   3.643
  238DPPC   C2511875   3.580   2.331   3.794
  238DPPC   C2611876   3.526   2.205   3.862
  238DPPC   C2711877   3.556   2.207   4.012
  238DPPC   C2811878   3.461   2.298   4.090
  238DPPC   C2911879   3.485   2.279   4.239
  238DPPC   C3011880   3.444   2.138   4.280
  238DPPC   C3111881   3.450   2.098   4.428
  238DPPC   C3211882   3.737   2.318   2.575
  238DPPC   O3311883   3.803   2.444   2.590
  238DPPC   C3411884   3.937   2.450   2.572
  238DPPC   O3511885   4.000   2.347   2.548
  238DPPC   C3611886   4.004   2.588   2.574
  238DPPC   C3711887   4.077   2.622   2.704
  238DPPC   C3811888   4.164   2.748   2.694
  238DPPC   C3911889   4.249   2.763   2.820
  238DPPC   C4011890   4.156   2.756   2.941
  238DPPC   C4111891   4.223   2.761   3.079
  238DPPC   C4211892   4.119   2.731   3.187
  238DPPC   C4311893   4.163   2.727   3.333
  238DPPC   C4411894   4.060   2.718   3.447
  238DPPC   C4511895   3.982   2.587   3.442
  238DPPC   C4611896   4.045   2.469   3.517
  238DPPC   C4711897   3.956   2.345   3.504
  238DPPC   C4811898   3.985   2.226   3.595
  238DPPC   C4911899   4.093   2.138   3.532
  238DPPC   C5011900   4.038   2.104   3.393
  239DPPC    C111901   3.297   2.653   2.004
  239DPPC    C211902   3.477   2.750   1.872
  239DPPC    C311903   3.311   2.606   1.777
  239DPPC    N411904   3.334   2.713   1.875
  239DPPC    C511905   3.266   2.838   1.839
  239DPPC    C611906   3.114   2.822   1.824
  239DPPC    O711907   3.046   2.916   1.741
  239DPPC    P811908   2.897   2.862   1.713
  239DPPC    O911909   2.928   2.723   1.675
  239DPPC   O1011910   2.846   2.960   1.614
  239DPPC   O1111911   2.848   2.885   1.865
  239DPPC   C1211912   2.726   2.960   1.868
  239DPPC   C1311913   2.613   2.858   1.880
  239DPPC   O1411914   2.478   2.898   1.852
  239DPPC   C1511915   2.374   2.811   1.852
  239DPPC   O1611916   2.379   2.689   1.839
  239DPPC   C1711917   2.236   2.875   1.872
  239DPPC   C1811918   2.182   2.844   2.012
  239DPPC   C1911919   2.058   2.930   2.036
  239DPPC   C2011920   1.991   2.916   2.172
  239DPPC   C2111921   2.083   2.976   2.279
  239DPPC   C2211922   1.998   2.970   2.406
  239DPPC   C2311923   2.060   3.064   2.510
  239DPPC   C2411924   1.987   3.063   2.644
  239DPPC   C2511925   1.860   3.148   2.642
  239DPPC   C2611926   1.795   3.172   2.779
  239DPPC   C2711927   1.892   3.232   2.881
  239DPPC   C2811928   1.809   3.243   3.009
  239DPPC   C2911929   1.886   3.343   3.096
  239DPPC   C3011930   1.795   3.381   3.212
  239DPPC   C3111931   1.693   3.484   3.161
  239DPPC   C3211932   2.642   2.824   2.026
  239DPPC   O3311933   2.611   2.922   2.125
  239DPPC   C3411934   2.605   2.875   2.253
  239DPPC   O3511935   2.621   2.757   2.282
  239DPPC   C3611936   2.564   2.980   2.357
  239DPPC   C3711937   2.551   2.910   2.493
  239DPPC   C3811938   2.453   2.988   2.580
  239DPPC   C3911939   2.452   2.928   2.721
  239DPPC   C4011940   2.376   3.017   2.820
  239DPPC   C4111941   2.432   2.986   2.959
  239DPPC   C4211942   2.350   3.060   3.064
  239DPPC   C4311943   2.389   3.039   3.210
  239DPPC   C4411944   2.296   3.095   3.319
  239DPPC   C4511945   2.327   3.238   3.363
  239DPPC   C4611946   2.208   3.310   3.426
  239DPPC   C4711947   2.221   3.352   3.573
  239DPPC   C4811948   2.087   3.389   3.636
  239DPPC   C4911949   2.114   3.444   3.776
  239DPPC   C5011950   2.159   3.330   3.867
  240DPPC    C111951   1.260   4.726   1.213
  240DPPC    C211952   1.462   4.740   1.099
  240DPPC    C311953   1.244   4.779   0.991
  240DPPC    N411954   1.330   4.802   1.109
  240DPPC    C511955   1.341   4.947   1.131
  240DPPC    C611956   1.401   4.983   1.267
  240DPPC    O711957   1.306   5.023   1.366
  240DPPC    P811958   1.396   5.050   1.497
  240DPPC    O911959   1.305   5.127   1.585
  240DPPC   O1011960   1.517   5.115   1.441
  240DPPC   O1111961   1.410   4.893   1.528
  240DPPC   C1211962   1.301   4.850   1.610
  240DPPC   C1311963   1.261   4.703   1.622
  240DPPC   O1411964   1.140   4.679   1.695
  240DPPC   C1511965   1.027   4.647   1.627
  240DPPC   O1611966   1.041   4.635   1.505
  240DPPC   C1711967   0.893   4.623   1.697
  240DPPC   C1811968   0.836   4.742   1.774
  240DPPC   C1911969   0.691   4.708   1.809
  240DPPC   C2011970   0.652   4.828   1.895
  240DPPC   C2111971   0.580   4.770   2.017
  240DPPC   C2211972   0.540   4.886   2.108
  240DPPC   C2311973   0.678   4.941   2.146
  240DPPC   C2411974   0.657   5.046   2.256
  240DPPC   C2511975   0.801   5.081   2.297
  240DPPC   C2611976   0.885   5.162   2.198
  240DPPC   C2711977   1.020   5.170   2.270
  240DPPC   C2811978   0.986   5.221   2.410
  240DPPC   C2911979   1.110   5.273   2.484
  240DPPC   C3011980   1.078   5.309   2.629
  240DPPC   C3111981   1.166   5.421   2.685
  240DPPC   C3211982   1.389   4.638   1.674
  240DPPC   O3311983   1.431   4.679   1.805
  240DPPC   C3411984   1.512   4.589   1.865
  240DPPC   O3511985   1.562   4.497   1.800
  240DPPC   C3611986   1.541   4.606   2.015
  240DPPC   C3711987   1.441   4.703   2.079
  240DPPC   C3811988   1.469   4.684   2.228
  240DPPC   C3911989   1.499   4.539   2.266
  240DPPC   C4011990   1.507   4.509   2.416
  240DPPC   C4111991   1.377   4.524   2.496
  240DPPC   C4211992   1.411   4.513   2.645
  240DPPC   C4311993   1.291   4.566   2.723
  240DPPC   C4411994   1.307   4.575   2.875
  240DPPC   C4511995   1.201   4.667   2.936
  240DPPC   C4611996   1.233   4.672   3.085
  240DPPC   C4711997   1.361   4.749   3.120
  240DPPC   C4811998   1.376   4.757   3.272
  240DPPC   C4911999   1.486   4.856   3.306
  240DPPC   C5012000   1.483   4.906   3.451
  241DPPC    C112001   3.034   3.248   1.741
  241DPPC    C212002   3.238   3.288   1.647
  241DPPC    C312003   3.041   3.307   1.515
  241DPPC    N412004   3.100   3.339   1.646
  241DPPC    C512005   3.098   3.484   1.666
  241DPPC    C612006   2.957   3.534   1.697
  241DPPC    O712007   2.960   3.677   1.700
  241DPPC    P812008   2.808   3.714   1.739
  241DPPC    O912009   2.723   3.613   1.674
  241DPPC   O1012010   2.774   3.857   1.720
  241DPPC   O1112011   2.812   3.679   1.896
  241DPPC   C1212012   2.893   3.787   1.943
  241DPPC   C1312013   2.891   3.795   2.096
  241DPPC   O1412014   2.972   3.905   2.139
  241DPPC   C1512015   2.912   4.024   2.167
  241DPPC   O1612016   2.837   4.071   2.082
  241DPPC   C1712017   2.984   4.109   2.271
  241DPPC   C1812018   3.073   4.044   2.378
  241DPPC   C1912019   3.130   4.158   2.462
  241DPPC   C2012020   3.248   4.116   2.549
  241DPPC   C2112021   3.210   4.021   2.663
  241DPPC   C2212022   3.331   4.012   2.757
  241DPPC   C2312023   3.357   3.866   2.794
  241DPPC   C2412024   3.476   3.872   2.890
  241DPPC   C2512025   3.521   3.738   2.949
  241DPPC   C2612026   3.641   3.758   3.041
  241DPPC   C2712027   3.688   3.620   3.088
  241DPPC   C2812028   3.700   3.519   2.974
  241DPPC   C2912029   3.757   3.391   3.036
  241DPPC   C3012030   3.781   3.288   2.925
  241DPPC   C3112031   3.654   3.281   2.840
  241DPPC   C3212032   2.953   3.662   2.140
  241DPPC   O3312033   2.950   3.629   2.279
  241DPPC   C3412034   3.053   3.670   2.357
  241DPPC   O3512035   3.165   3.708   2.322
  241DPPC   C3612036   3.021   3.633   2.502
  241DPPC   C3712037   3.131   3.551   2.569
  241DPPC   C3812038   3.093   3.513   2.712
  241DPPC   C3912039   3.195   3.423   2.782
  241DPPC   C4012040   3.140   3.397   2.922
  241DPPC   C4112041   3.231   3.317   3.016
  241DPPC   C4212042   3.157   3.289   3.146
  241DPPC   C4312043   3.247   3.207   3.239
  241DPPC   C4412044   3.202   3.247   3.379
  241DPPC   C4512045   3.188   3.399   3.389
  241DPPC   C4612046   3.091   3.420   3.505
  241DPPC   C4712047   3.051   3.560   3.553
  241DPPC   C4812048   2.926   3.555   3.641
  241DPPC   C4912049   2.889   3.696   3.688
  241DPPC   C5012050   2.761   3.697   3.771
  242DPPC    C112051   5.222   5.196   1.835
  242DPPC    C212052   5.217   5.179   1.605
  242DPPC    C312053   5.043   5.298   1.711
  242DPPC    N412054   5.187   5.273   1.714
  242DPPC    C512055   5.269   5.394   1.709
  242DPPC    C612056   5.241   5.501   1.815
  242DPPC    O712057   5.336   5.608   1.824
  242DPPC    P812058   5.264   5.752   1.824
  242DPPC    O912059   5.132   5.715   1.879
  242DPPC   O1012060   5.276   5.822   1.695
  242DPPC   O1112061   5.368   5.827   1.922
  242DPPC   C1212062   5.433   5.740   2.015
  242DPPC   C1312063   5.528   5.825   2.100
  242DPPC   O1412064   5.618   5.764   2.194
  242DPPC   C1512065   5.725   5.694   2.147
  242DPPC   O1612066   5.760   5.699   2.030
  242DPPC   C1712067   5.799   5.607   2.249
  242DPPC   C1812068   5.730   5.597   2.385
  242DPPC   C1912069   5.813   5.662   2.497
  242DPPC   C2012070   5.753   5.641   2.636
  242DPPC   C2112071   5.864   5.665   2.738
  242DPPC   C2212072   5.809   5.694   2.878
  242DPPC   C2312073   5.905   5.715   2.996
  242DPPC   C2412074   5.991   5.589   3.012
  242DPPC   C2512075   6.051   5.588   3.153
  242DPPC   C2612076   6.144   5.469   3.173
  242DPPC   C2712077   6.067   5.337   3.173
  242DPPC   C2812078   6.161   5.222   3.212
  242DPPC   C2912079   6.085   5.089   3.217
  242DPPC   C3012080   6.182   4.976   3.254
  242DPPC   C3112081   6.102   4.845   3.261
  242DPPC   C3212082   5.426   5.927   2.151
  242DPPC   O3312083   5.320   5.872   2.230
  242DPPC   C3412084   5.227   5.964   2.268
  242DPPC   O3512085   5.254   6.079   2.232
  242DPPC   C3612086   5.123   5.930   2.375
  242DPPC   C3712087   4.992   5.880   2.314
  242DPPC   C3812088   4.893   5.811   2.408
  242DPPC   C3912089   4.950   5.684   2.472
  242DPPC   C4012090   4.831   5.610   2.533
  242DPPC   C4112091   4.888   5.477   2.584
  242DPPC   C4212092   4.771   5.379   2.589
  242DPPC   C4312093   4.825   5.245   2.639
  242DPPC   C4412094   4.722   5.133   2.650
  242DPPC   C4512095   4.599   5.181   2.728
  242DPPC   C4612096   4.528   5.058   2.783
  242DPPC   C4712097   4.467   4.979   2.666
  242DPPC   C4812098   4.411   4.840   2.698
  242DPPC   C4912099   4.320   4.803   2.580
  242DPPC   C5012100   4.209   4.907   2.564
  243DPPC    C112101   8.242   6.219   1.521
  243DPPC    C212102   8.397   6.140   1.693
  243DPPC    C312103   8.172   6.045   1.649
  243DPPC    N412104   8.295   6.103   1.593
  243DPPC    C512105   8.344   5.991   1.511
  243DPPC    C612106   8.457   6.022   1.412
  243DPPC    O712107   8.513   5.907   1.348
  243DPPC    P812108   8.651   5.953   1.280
  243DPPC    O912109   8.658   6.089   1.222
  243DPPC   O1012110   8.700   5.833   1.208
  243DPPC   O1112111   8.735   5.979   1.415
  243DPPC   C1212112   8.795   5.856   1.457
  243DPPC   C1312113   8.800   5.825   1.607
  243DPPC   O1412114   8.701   5.732   1.651
  243DPPC   C1512115   8.711   5.597   1.632
  243DPPC   O1612116   8.779   5.554   1.539
  243DPPC   C1712117   8.599   5.525   1.707
  243DPPC   C1812118   8.648   5.508   1.850
  243DPPC   C1912119   8.545   5.457   1.951
  243DPPC   C2012120   8.426   5.553   1.966
  243DPPC   C2112121   8.357   5.484   2.084
  243DPPC   C2212122   8.451   5.463   2.203
  243DPPC   C2312123   8.432   5.328   2.271
  243DPPC   C2412124   8.505   5.304   2.404
  243DPPC   C2512125   8.498   5.152   2.414
  243DPPC   C2612126   8.576   5.105   2.537
  243DPPC   C2712127   8.510   5.168   2.660
  243DPPC   C2812128   8.577   5.133   2.794
  243DPPC   C2912129   8.521   5.198   2.920
  243DPPC   C3012130   8.607   5.150   3.037
  243DPPC   C3112131   8.562   5.216   3.168
  243DPPC   C3212132   8.795   5.963   1.674
  243DPPC   O3312133   8.787   5.965   1.816
  243DPPC   C3412134   8.749   6.086   1.868
  243DPPC   O3512135   8.721   6.180   1.795
  243DPPC   C3612136   8.718   6.078   2.018
  243DPPC   C3712137   8.804   5.974   2.090
  243DPPC   C3812138   8.762   5.955   2.236
  243DPPC   C3912139   8.789   6.085   2.311
  243DPPC   C4012140   8.769   6.055   2.460
  243DPPC   C4112141   8.804   6.176   2.546
  243DPPC   C4212142   8.723   6.296   2.495
  243DPPC   C4312143   8.746   6.401   2.604
  243DPPC   C4412144   8.894   6.439   2.592
  243DPPC   C4512145   8.929   6.551   2.691
  243DPPC   C4612146   9.078   6.571   2.718
  243DPPC   C4712147   9.117   6.426   2.750
  243DPPC   C4812148   9.242   6.418   2.839
  243DPPC   C4912149   9.311   6.283   2.860
  243DPPC   C5012150   9.245   6.197   2.968
  244DPPC    C112151   6.684   3.066   1.549
  244DPPC    C212152   6.808   2.882   1.465
  244DPPC    C312153   6.861   3.101   1.386
  244DPPC    N412154   6.817   3.023   1.503
  244DPPC    C512155   6.912   3.053   1.611
  244DPPC    C612156   7.051   2.990   1.621
  244DPPC    O712157   7.048   2.867   1.694
  244DPPC    P812158   7.186   2.787   1.677
  244DPPC    O912159   7.290   2.871   1.613
  244DPPC   O1012160   7.134   2.669   1.604
  244DPPC   O1112161   7.209   2.749   1.832
  244DPPC   C1212162   7.111   2.654   1.874
  244DPPC   C1312163   7.122   2.624   2.023
  244DPPC   O1412164   7.064   2.732   2.097
  244DPPC   C1512165   6.945   2.703   2.156
  244DPPC   O1612166   6.873   2.616   2.108
  244DPPC   C1712167   6.886   2.808   2.251
  244DPPC   C1812168   6.860   2.763   2.394
  244DPPC   C1912169   6.994   2.743   2.464
  244DPPC   C2012170   6.979   2.702   2.610
  244DPPC   C2112171   7.112   2.694   2.686
  244DPPC   C2212172   7.084   2.655   2.831
  244DPPC   C2312173   7.216   2.623   2.902
  244DPPC   C2412174   7.203   2.636   3.053
  244DPPC   C2512175   7.130   2.766   3.088
  244DPPC   C2612176   7.109   2.787   3.239
  244DPPC   C2712177   7.239   2.789   3.320
  244DPPC   C2812178   7.215   2.798   3.471
  244DPPC   C2912179   7.344   2.790   3.553
  244DPPC   C3012180   7.316   2.779   3.703
  244DPPC   C3112181   7.240   2.899   3.760
  244DPPC   C3212182   7.269   2.598   2.056
  244DPPC   O3312183   7.305   2.546   2.184
  244DPPC   C3412184   7.354   2.642   2.266
  244DPPC   O3512185   7.363   2.761   2.233
  244DPPC   C3612186   7.397   2.588   2.403
  244DPPC   C3712187   7.542   2.542   2.387
  244DPPC   C3812188   7.596   2.459   2.504
  244DPPC   C3912189   7.607   2.523   2.643
  244DPPC   C4012190   7.714   2.450   2.724
  244DPPC   C4112191   7.760   2.529   2.846
  244DPPC   C4212192   7.710   2.469   2.977
  244DPPC   C4312193   7.774   2.548   3.092
  244DPPC   C4412194   7.712   2.501   3.224
  244DPPC   C4512195   7.560   2.521   3.220
  244DPPC   C4612196   7.479   2.475   3.342
  244DPPC   C4712197   7.509   2.334   3.392
  244DPPC   C4812198   7.443   2.305   3.527
  244DPPC   C4912199   7.509   2.395   3.632
  244DPPC   C5012200   7.419   2.369   3.754
  245DPPC    C112201   5.390   3.608   1.513
  245DPPC    C212202   5.455   3.500   1.713
  245DPPC    C312203   5.594   3.669   1.632
  245DPPC    N412204   5.452   3.630   1.645
  245DPPC    C512205   5.389   3.734   1.728
  245DPPC    C612206   5.341   3.863   1.662
  245DPPC    O712207   5.439   3.966   1.653
  245DPPC    P812208   5.351   4.097   1.616
  245DPPC    O912209   5.269   4.058   1.499
  245DPPC   O1012210   5.431   4.220   1.601
  245DPPC   O1112211   5.258   4.105   1.748
  245DPPC   C1212212   5.330   4.151   1.863
  245DPPC   C1312213   5.239   4.191   1.979
  245DPPC   O1412214   5.302   4.260   2.088
  245DPPC   C1512215   5.312   4.396   2.089
  245DPPC   O1612216   5.301   4.461   1.985
  245DPPC   C1712217   5.387   4.441   2.214
  245DPPC   C1812218   5.296   4.429   2.337
  245DPPC   C1912219   5.360   4.507   2.451
  245DPPC   C2012220   5.282   4.503   2.583
  245DPPC   C2112221   5.346   4.588   2.693
  245DPPC   C2212222   5.242   4.587   2.804
  245DPPC   C2312223   5.314   4.648   2.925
  245DPPC   C2412224   5.212   4.639   3.039
  245DPPC   C2512225   5.275   4.684   3.171
  245DPPC   C2612226   5.193   4.628   3.287
  245DPPC   C2712227   5.278   4.617   3.414
  245DPPC   C2812228   5.198   4.579   3.539
  245DPPC   C2912229   5.279   4.580   3.669
  245DPPC   C3012230   5.203   4.527   3.791
  245DPPC   C3112231   5.301   4.522   3.909
  245DPPC   C3212232   5.158   4.066   2.010
  245DPPC   O3312233   5.244   3.965   2.064
  245DPPC   C3412234   5.181   3.844   2.067
  245DPPC   O3512235   5.068   3.837   2.021
  245DPPC   C3612236   5.270   3.726   2.107
  245DPPC   C3712237   5.264   3.676   2.251
  245DPPC   C3812238   5.384   3.587   2.284
  245DPPC   C3912239   5.392   3.551   2.432
  245DPPC   C4012240   5.513   3.464   2.469
  245DPPC   C4112241   5.501   3.406   2.610
  245DPPC   C4212242   5.638   3.365   2.664
  245DPPC   C4312243   5.618   3.352   2.815
  245DPPC   C4412244   5.573   3.491   2.862
  245DPPC   C4512245   5.581   3.494   3.015
  245DPPC   C4612246   5.505   3.381   3.084
  245DPPC   C4712247   5.513   3.390   3.237
  245DPPC   C4812248   5.428   3.287   3.311
  245DPPC   C4912249   5.447   3.312   3.461
  245DPPC   C5012250   5.594   3.316   3.502
  246DPPC    C112251   9.244   7.972   1.358
  246DPPC    C212252   9.414   8.099   1.445
  246DPPC    C312253   9.245   8.011   1.590
  246DPPC    N412254   9.332   7.981   1.475
  246DPPC    C512255   9.422   7.865   1.472
  246DPPC    C612256   9.495   7.810   1.594
  246DPPC    O712257   9.593   7.909   1.627
  246DPPC    P812258   9.686   7.845   1.741
  246DPPC    O912259   9.803   7.935   1.756
  246DPPC   O1012260   9.695   7.698   1.735
  246DPPC   O1112261   9.573   7.883   1.849
  246DPPC   C1212262   9.583   8.020   1.888
  246DPPC   C1312263   9.452   8.098   1.899
  246DPPC   O1412264   9.482   8.235   1.931
  246DPPC   C1512265   9.526   8.327   1.842
  246DPPC   O1612266   9.513   8.294   1.724
  246DPPC   C1712267   9.602   8.451   1.891
  246DPPC   C1812268   9.550   8.528   2.012
  246DPPC   C1912269   9.636   8.650   2.048
  246DPPC   C2012270   9.785   8.623   2.067
  246DPPC   C2112271   9.840   8.581   2.204
  246DPPC   C2212272   9.993   8.578   2.205
  246DPPC   C2312273  10.054   8.567   2.345
  246DPPC   C2412274   9.985   8.448   2.412
  246DPPC   C2512275   9.994   8.451   2.565
  246DPPC   C2612276   9.908   8.342   2.629
  246DPPC   C2712277   9.927   8.337   2.781
  246DPPC   C2812278  10.062   8.285   2.829
  246DPPC   C2912279  10.069   8.146   2.765
  246DPPC   C3012280  10.191   8.075   2.824
  246DPPC   C3112281  10.191   7.940   2.752
  246DPPC   C3212282   9.342   8.049   1.993
  246DPPC   O3312283   9.264   7.943   1.938
  246DPPC   C3412284   9.180   7.891   2.032
  246DPPC   O3512285   9.196   7.918   2.151
  246DPPC   C3612286   9.097   7.778   1.971
  246DPPC   C3712287   8.949   7.778   2.011
  246DPPC   C3812288   8.928   7.705   2.144
  246DPPC   C3912289   8.783   7.707   2.194
  246DPPC   C4012290   8.772   7.642   2.332
  246DPPC   C4112291   8.822   7.743   2.436
  246DPPC   C4212292   8.790   7.694   2.578
  246DPPC   C4312293   8.874   7.769   2.681
  246DPPC   C4412294   8.832   7.726   2.822
  246DPPC   C4512295   8.953   7.698   2.911
  246DPPC   C4612296   9.027   7.829   2.938
  246DPPC   C4712297   9.145   7.821   3.036
  246DPPC   C4812298   9.225   7.950   3.048
  246DPPC   C4912299   9.275   8.001   2.913
  246DPPC   C5012300   9.369   8.122   2.913
  247DPPC    C112301   7.027   1.286   0.978
  247DPPC    C212302   7.269   1.304   0.995
  247DPPC    C312303   7.154   1.168   1.151
  247DPPC    N412304   7.153   1.216   1.012
  247DPPC    C512305   7.142   1.101   0.921
  247DPPC    C612306   7.258   1.002   0.912
  247DPPC    O712307   7.291   0.937   1.035
  247DPPC    P812308   7.451   0.948   1.045
  247DPPC    O912309   7.469   1.053   1.148
  247DPPC   O1012310   7.518   0.959   0.914
  247DPPC   O1112311   7.477   0.804   1.112
  247DPPC   C1212312   7.466   0.828   1.253
  247DPPC   C1312313   7.474   0.705   1.343
  247DPPC   O1412314   7.437   0.736   1.479
  247DPPC   C1512315   7.306   0.727   1.513
  247DPPC   O1612316   7.209   0.721   1.438
  247DPPC   C1712317   7.284   0.757   1.662
  247DPPC   C1812318   7.366   0.880   1.699
  247DPPC   C1912319   7.351   0.908   1.849
  247DPPC   C2012320   7.436   1.020   1.910
  247DPPC   C2112321   7.389   1.064   2.049
  247DPPC   C2212322   7.384   0.946   2.146
  247DPPC   C2312323   7.304   0.978   2.273
  247DPPC   C2412324   7.362   1.108   2.329
  247DPPC   C2512325   7.362   1.105   2.482
  247DPPC   C2612326   7.429   1.216   2.563
  247DPPC   C2712327   7.422   1.185   2.713
  247DPPC   C2812328   7.503   1.286   2.795
  247DPPC   C2912329   7.468   1.287   2.944
  247DPPC   C3012330   7.537   1.179   3.027
  247DPPC   C3112331   7.512   1.194   3.177
  247DPPC   C3212332   7.621   0.674   1.315
  247DPPC   O3312333   7.711   0.636   1.419
  247DPPC   C3412334   7.684   0.513   1.470
  247DPPC   O3512335   7.626   0.427   1.404
  247DPPC   C3612336   7.746   0.482   1.606
  247DPPC   C3712337   7.706   0.593   1.704
  247DPPC   C3812338   7.805   0.617   1.818
  247DPPC   C3912339   7.748   0.727   1.908
  247DPPC   C4012340   7.824   0.743   2.040
  247DPPC   C4112341   7.778   0.848   2.141
  247DPPC   C4212342   7.859   0.863   2.270
  247DPPC   C4312343   7.823   0.997   2.334
  247DPPC   C4412344   7.885   1.011   2.473
  247DPPC   C4512345   7.869   1.155   2.522
  247DPPC   C4612346   7.923   1.157   2.665
  247DPPC   C4712347   7.903   1.286   2.744
  247DPPC   C4812348   7.935   1.267   2.893
  247DPPC   C4912349   7.889   1.380   2.985
  247DPPC   C5012350   7.929   1.354   3.130
  248DPPC    C112351   6.300   1.288   1.673
  248DPPC    C212352   6.438   1.459   1.784
  248DPPC    C312353   6.211   1.470   1.789
  248DPPC    N412354   6.320   1.371   1.793
  248DPPC    C512355   6.328   1.299   1.921
  248DPPC    C612356   6.222   1.192   1.945
  248DPPC    O712357   6.090   1.236   1.975
  248DPPC    P812358   5.978   1.127   1.935
  248DPPC    O912359   5.998   1.085   1.795
  248DPPC   O1012360   5.851   1.192   1.973
  248DPPC   O1112361   6.012   1.009   2.040
  248DPPC   C1212362   5.988   1.056   2.173
  248DPPC   C1312363   6.039   0.957   2.277
  248DPPC   O1412364   5.961   0.951   2.397
  248DPPC   C1512365   5.836   0.898   2.396
  248DPPC   O1612366   5.782   0.859   2.293
  248DPPC   C1712367   5.767   0.882   2.532
  248DPPC   C1812368   5.688   1.012   2.555
  248DPPC   C1912369   5.606   1.008   2.684
  248DPPC   C2012370   5.689   0.985   2.809
  248DPPC   C2112371   5.616   0.998   2.943
  248DPPC   C2212372   5.705   1.043   3.059
  248DPPC   C2312373   5.649   0.989   3.190
  248DPPC   C2412374   5.732   1.013   3.316
  248DPPC   C2512375   5.654   0.957   3.435
  248DPPC   C2612376   5.740   0.982   3.559
  248DPPC   C2712377   5.655   0.967   3.686
  248DPPC   C2812378   5.540   1.067   3.672
  248DPPC   C2912379   5.451   1.082   3.795
  248DPPC   C3012380   5.393   1.220   3.830
  248DPPC   C3112381   5.304   1.277   3.720
  248DPPC   C3212382   6.190   0.961   2.302
  248DPPC   O3312383   6.230   1.097   2.323
  248DPPC   C3412384   6.357   1.129   2.361
  248DPPC   O3512385   6.460   1.065   2.344
  248DPPC   C3612386   6.354   1.277   2.400
  248DPPC   C3712387   6.475   1.315   2.486
  248DPPC   C3812388   6.487   1.238   2.618
  248DPPC   C3912389   6.524   1.331   2.733
  248DPPC   C4012390   6.523   1.229   2.846
  248DPPC   C4112391   6.586   1.305   2.964
  248DPPC   C4212392   6.553   1.223   3.088
  248DPPC   C4312393   6.613   1.275   3.219
  248DPPC   C4412394   6.656   1.167   3.318
  248DPPC   C4512395   6.759   1.224   3.416
  248DPPC   C4612396   6.801   1.142   3.538
  248DPPC   C4712397   6.922   1.208   3.604
  248DPPC   C4812398   7.005   1.129   3.706
  248DPPC   C4912399   7.083   1.007   3.656
  248DPPC   C5012400   7.146   0.921   3.766
  249DPPC    C112401   1.825   5.613   1.569
  249DPPC    C212402   1.997   5.728   1.446
  249DPPC    C312403   1.987   5.493   1.447
  249DPPC    N412404   1.904   5.614   1.445
  249DPPC    C512405   1.828   5.626   1.319
  249DPPC    C612406   1.769   5.760   1.278
  249DPPC    O712407   1.656   5.807   1.353
  249DPPC    P812408   1.641   5.965   1.324
  249DPPC    O912409   1.500   6.003   1.348
  249DPPC   O1012410   1.738   6.012   1.223
  249DPPC   O1112411   1.713   5.988   1.466
  249DPPC   C1212412   1.630   5.945   1.574
  249DPPC   C1312413   1.705   5.924   1.706
  249DPPC   O1412414   1.616   5.915   1.819
  249DPPC   C1512415   1.551   5.797   1.835
  249DPPC   O1612416   1.572   5.706   1.755
  249DPPC   C1712417   1.463   5.771   1.958
  249DPPC   C1812418   1.542   5.766   2.089
  249DPPC   C1912419   1.614   5.631   2.101
  249DPPC   C2012420   1.696   5.642   2.229
  249DPPC   C2112421   1.599   5.667   2.346
  249DPPC   C2212422   1.663   5.675   2.485
  249DPPC   C2312423   1.725   5.544   2.535
  249DPPC   C2412424   1.796   5.579   2.666
  249DPPC   C2512425   1.891   5.469   2.713
  249DPPC   C2612426   1.933   5.503   2.856
  249DPPC   C2712427   1.959   5.379   2.942
  249DPPC   C2812428   1.966   5.424   3.089
  249DPPC   C2912429   1.954   5.297   3.173
  249DPPC   C3012430   1.817   5.230   3.183
  249DPPC   C3112431   1.820   5.084   3.230
  249DPPC   C3212432   1.800   6.044   1.714
  249DPPC   O3312433   1.901   6.051   1.815
  249DPPC   C3412434   1.993   5.951   1.820
  249DPPC   O3512435   2.004   5.863   1.734
  249DPPC   C3612436   2.096   5.960   1.933
  249DPPC   C3712437   2.057   5.860   2.042
  249DPPC   C3812438   2.162   5.825   2.146
  249DPPC   C3912439   2.106   5.752   2.269
  249DPPC   C4012440   2.211   5.763   2.380
  249DPPC   C4112441   2.149   5.691   2.500
  249DPPC   C4212442   2.256   5.677   2.609
  249DPPC   C4312443   2.308   5.814   2.651
  249DPPC   C4412444   2.213   5.887   2.747
  249DPPC   C4512445   2.250   5.851   2.891
  249DPPC   C4612446   2.393   5.867   2.944
  249DPPC   C4712447   2.396   5.884   3.096
  249DPPC   C4812448   2.542   5.893   3.139
  249DPPC   C4912449   2.569   5.925   3.286
  249DPPC   C5012450   2.470   5.840   3.365
  250DPPC    C112451   8.687   8.137   1.065
  250DPPC    C212452   8.875   8.191   1.196
  250DPPC    C312453   8.917   8.162   0.968
  250DPPC    N412454   8.815   8.210   1.063
  250DPPC    C512455   8.806   8.351   1.023
  250DPPC    C612456   8.791   8.467   1.121
  250DPPC    O712457   8.910   8.488   1.198
  250DPPC    P812458   8.879   8.579   1.327
  250DPPC    O912459   8.815   8.700   1.271
  250DPPC   O1012460   9.016   8.585   1.384
  250DPPC   O1112461   8.777   8.463   1.372
  250DPPC   C1212462   8.713   8.497   1.495
  250DPPC   C1312463   8.654   8.383   1.578
  250DPPC   O1412464   8.568   8.426   1.684
  250DPPC   C1512465   8.438   8.385   1.683
  250DPPC   O1612466   8.392   8.315   1.593
  250DPPC   C1712467   8.346   8.439   1.792
  250DPPC   C1812468   8.342   8.351   1.917
  250DPPC   C1912469   8.291   8.440   2.031
  250DPPC   C2012470   8.281   8.360   2.161
  250DPPC   C2112471   8.169   8.258   2.149
  250DPPC   C2212472   8.142   8.210   2.292
  250DPPC   C2312473   8.035   8.102   2.276
  250DPPC   C2412474   8.011   8.019   2.401
  250DPPC   C2512475   7.884   7.933   2.394
  250DPPC   C2612476   7.849   7.872   2.529
  250DPPC   C2712477   7.714   7.799   2.524
  250DPPC   C2812478   7.711   7.728   2.660
  250DPPC   C2912479   7.749   7.820   2.776
  250DPPC   C3012480   7.762   7.728   2.898
  250DPPC   C3112481   7.803   7.826   3.008
  250DPPC   C3212482   8.771   8.288   1.608
  250DPPC   O3312483   8.873   8.360   1.677
  250DPPC   C3412484   8.978   8.282   1.716
  250DPPC   O3512485   8.983   8.163   1.685
  250DPPC   C3612486   9.087   8.339   1.807
  250DPPC   C3712487   9.029   8.357   1.948
  250DPPC   C3812488   9.121   8.446   2.031
  250DPPC   C3912489   9.061   8.463   2.171
  250DPPC   C4012490   9.164   8.531   2.260
  250DPPC   C4112491   9.120   8.533   2.407
  250DPPC   C4212492   9.223   8.601   2.497
  250DPPC   C4312493   9.353   8.521   2.499
  250DPPC   C4412494   9.351   8.380   2.560
  250DPPC   C4512495   9.494   8.325   2.559
  250DPPC   C4612496   9.517   8.259   2.424
  250DPPC   C4712497   9.656   8.196   2.422
  250DPPC   C4812498   9.687   8.134   2.285
  250DPPC   C4912499   9.833   8.088   2.276
  250DPPC   C5012500   9.870   7.991   2.388
  251DPPC    C112501   6.512   5.708   1.440
  251DPPC    C212502   6.731   5.695   1.353
  251DPPC    C312503   6.578   5.850   1.262
  251DPPC    N412504   6.623   5.789   1.387
  251DPPC    C512505   6.666   5.890   1.485
  251DPPC    C612506   6.582   6.013   1.520
  251DPPC    O712507   6.466   5.986   1.600
  251DPPC    P812508   6.387   6.103   1.678
  251DPPC    O912509   6.282   6.021   1.742
  251DPPC   O1012510   6.351   6.212   1.585
  251DPPC   O1112511   6.491   6.162   1.786
  251DPPC   C1212512   6.538   6.043   1.849
  251DPPC   C1312513   6.630   6.073   1.968
  251DPPC   O1412514   6.690   5.952   2.015
  251DPPC   C1512515   6.825   5.941   2.010
  251DPPC   O1612516   6.894   5.990   1.920
  251DPPC   C1712517   6.880   5.837   2.108
  251DPPC   C1812518   6.926   5.908   2.235
  251DPPC   C1912519   6.981   5.808   2.337
  251DPPC   C2012520   7.103   5.734   2.281
  251DPPC   C2112521   7.216   5.832   2.253
  251DPPC   C2212522   7.336   5.756   2.195
  251DPPC   C2312523   7.467   5.830   2.168
  251DPPC   C2412524   7.568   5.730   2.111
  251DPPC   C2512525   7.705   5.798   2.112
  251DPPC   C2612526   7.784   5.729   2.223
  251DPPC   C2712527   7.910   5.816   2.233
  251DPPC   C2812528   8.000   5.822   2.110
  251DPPC   C2912529   8.130   5.893   2.147
  251DPPC   C3012530   8.230   5.902   2.032
  251DPPC   C3112531   8.367   5.939   2.089
  251DPPC   C3212532   6.552   6.164   2.063
  251DPPC   O3312533   6.638   6.254   2.133
  251DPPC   C3412534   6.564   6.339   2.210
  251DPPC   O3512535   6.442   6.342   2.197
  251DPPC   C3612536   6.629   6.435   2.309
  251DPPC   C3712537   6.533   6.442   2.428
  251DPPC   C3812538   6.607   6.516   2.541
  251DPPC   C3912539   6.553   6.481   2.680
  251DPPC   C4012540   6.594   6.577   2.792
  251DPPC   C4112541   6.555   6.510   2.924
  251DPPC   C4212542   6.597   6.603   3.039
  251DPPC   C4312543   6.583   6.544   3.179
  251DPPC   C4412544   6.444   6.485   3.202
  251DPPC   C4512545   6.423   6.435   3.346
  251DPPC   C4612546   6.440   6.565   3.425
  251DPPC   C4712547   6.442   6.538   3.576
  251DPPC   C4812548   6.303   6.524   3.637
  251DPPC   C4912549   6.230   6.659   3.634
  251DPPC   C5012550   6.086   6.655   3.685
  252DPPC    C112551   4.421   2.611   1.680
  252DPPC    C212552   4.618   2.636   1.827
  252DPPC    C312553   4.426   2.750   1.864
  252DPPC    N412554   4.472   2.619   1.817
  252DPPC    C512555   4.422   2.495   1.879
  252DPPC    C612556   4.276   2.456   1.903
  252DPPC    O712557   4.204   2.557   1.973
  252DPPC    P812558   4.070   2.490   2.033
  252DPPC    O912559   4.112   2.374   2.115
  252DPPC   O1012560   3.980   2.472   1.917
  252DPPC   O1112561   4.032   2.616   2.124
  252DPPC   C1212562   4.132   2.634   2.225
  252DPPC   C1312563   4.193   2.774   2.227
  252DPPC   O1412564   4.303   2.793   2.318
  252DPPC   C1512565   4.414   2.868   2.297
  252DPPC   O1612566   4.432   2.936   2.196
  252DPPC   C1712567   4.505   2.872   2.420
  252DPPC   C1812568   4.594   2.748   2.427
  252DPPC   C1912569   4.649   2.737   2.569
  252DPPC   C2012570   4.755   2.628   2.589
  252DPPC   C2112571   4.778   2.591   2.736
  252DPPC   C2212572   4.820   2.446   2.759
  252DPPC   C2312573   4.820   2.418   2.910
  252DPPC   C2412574   4.865   2.274   2.931
  252DPPC   C2512575   4.912   2.237   3.072
  252DPPC   C2612576   4.966   2.095   3.085
  252DPPC   C2712577   4.851   2.003   3.046
  252DPPC   C2812578   4.896   1.865   2.996
  252DPPC   C2912579   5.011   1.876   2.896
  252DPPC   C3012580   5.099   1.751   2.882
  252DPPC   C3112581   5.229   1.783   2.808
  252DPPC   C3212582   4.079   2.874   2.250
  252DPPC   O3312583   3.997   2.854   2.365
  252DPPC   C3412584   3.889   2.936   2.361
  252DPPC   O3512585   3.866   2.999   2.258
  252DPPC   C3612586   3.805   2.946   2.489
  252DPPC   C3712587   3.692   2.844   2.472
  252DPPC   C3812588   3.591   2.839   2.587
  252DPPC   C3912589   3.670   2.797   2.711
  252DPPC   C4012590   3.585   2.791   2.838
  252DPPC   C4112591   3.662   2.725   2.952
  252DPPC   C4212592   3.709   2.581   2.928
  252DPPC   C4312593   3.793   2.530   3.046
  252DPPC   C4412594   3.843   2.390   3.009
  252DPPC   C4512595   3.988   2.377   3.056
  252DPPC   C4612596   4.053   2.240   3.038
  252DPPC   C4712597   4.058   2.205   2.889
  252DPPC   C4812598   4.140   2.076   2.886
  252DPPC   C4912599   4.064   1.979   2.978
  252DPPC   C5012600   4.116   1.835   2.972
  253DPPC    C112601   3.768   7.549   1.726
  253DPPC    C212602   3.739   7.781   1.674
  253DPPC    C312603   3.561   7.619   1.627
  253DPPC    N412604   3.670   7.658   1.717
  253DPPC    C512605   3.611   7.672   1.851
  253DPPC    C612606   3.691   7.687   1.981
  253DPPC    O712607   3.748   7.813   2.019
  253DPPC    P812608   3.905   7.801   2.052
  253DPPC    O912609   3.976   7.930   2.042
  253DPPC   O1012610   3.957   7.697   1.960
  253DPPC   O1112611   3.898   7.754   2.206
  253DPPC   C1212612   3.824   7.849   2.283
  253DPPC   C1312613   3.747   7.780   2.396
  253DPPC   O1412614   3.651   7.857   2.470
  253DPPC   C1512615   3.520   7.858   2.431
  253DPPC   O1612616   3.484   7.798   2.330
  253DPPC   C1712617   3.422   7.933   2.521
  253DPPC   C1812618   3.278   7.893   2.490
  253DPPC   C1912619   3.191   7.977   2.585
  253DPPC   C2012620   3.047   7.929   2.603
  253DPPC   C2112621   3.004   7.991   2.735
  253DPPC   C2212622   2.865   7.936   2.770
  253DPPC   C2312623   2.816   8.018   2.889
  253DPPC   C2412624   2.665   8.020   2.912
  253DPPC   C2512625   2.622   8.075   3.048
  253DPPC   C2612626   2.477   8.040   3.085
  253DPPC   C2712627   2.380   8.110   2.989
  253DPPC   C2812628   2.327   8.249   3.025
  253DPPC   C2912629   2.256   8.311   2.904
  253DPPC   C3012630   2.211   8.447   2.958
  253DPPC   C3112631   2.130   8.541   2.870
  253DPPC   C3212632   3.854   7.718   2.485
  253DPPC   O3312633   3.957   7.793   2.550
  253DPPC   C3412634   4.056   7.727   2.615
  253DPPC   O3512635   4.052   7.604   2.624
  253DPPC   C3612636   4.176   7.807   2.667
  253DPPC   C3712637   4.165   7.869   2.807
  253DPPC   C3812638   4.294   7.947   2.827
  253DPPC   C3912639   4.306   8.084   2.759
  253DPPC   C4012640   4.434   8.156   2.804
  253DPPC   C4112641   4.560   8.070   2.792
  253DPPC   C4212642   4.667   8.126   2.886
  253DPPC   C4312643   4.770   8.014   2.897
  253DPPC   C4412644   4.883   8.065   2.988
  253DPPC   C4512645   5.010   7.985   2.959
  253DPPC   C4612646   5.124   8.031   3.049
  253DPPC   C4712647   5.243   7.940   3.018
  253DPPC   C4812648   5.352   7.968   3.121
  253DPPC   C4912649   5.469   7.870   3.141
  253DPPC   C5012650   5.558   7.897   3.262
  254DPPC    C112651   3.071   1.469   2.371
  254DPPC    C212652   2.978   1.689   2.352
  254DPPC    C312653   3.093   1.586   2.175
  254DPPC    N412654   2.996   1.561   2.282
  254DPPC    C512655   2.873   1.499   2.230
  254DPPC    C612656   2.796   1.555   2.110
  254DPPC    O712657   2.661   1.589   2.141
  254DPPC    P812658   2.611   1.659   2.005
  254DPPC    O912659   2.668   1.580   1.894
  254DPPC   O1012660   2.637   1.802   2.035
  254DPPC   O1112661   2.463   1.625   2.057
  254DPPC   C1212662   2.418   1.719   2.156
  254DPPC   C1312663   2.272   1.717   2.201
  254DPPC   O1412664   2.228   1.801   2.308
  254DPPC   C1512665   2.248   1.935   2.299
  254DPPC   O1612666   2.297   2.000   2.207
  254DPPC   C1712667   2.188   2.012   2.417
  254DPPC   C1812668   2.294   2.076   2.507
  254DPPC   C1912669   2.230   2.119   2.639
  254DPPC   C2012670   2.345   2.152   2.733
  254DPPC   C2112671   2.290   2.232   2.851
  254DPPC   C2212672   2.369   2.198   2.977
  254DPPC   C2312673   2.378   2.054   3.027
  254DPPC   C2412674   2.268   2.014   3.126
  254DPPC   C2512675   2.293   1.872   3.178
  254DPPC   C2612676   2.185   1.844   3.282
  254DPPC   C2712677   2.192   1.713   3.360
  254DPPC   C2812678   2.329   1.723   3.429
  254DPPC   C2912679   2.362   1.599   3.513
  254DPPC   C3012680   2.248   1.562   3.609
  254DPPC   C3112681   2.304   1.453   3.700
  254DPPC   C3212682   2.256   1.566   2.225
  254DPPC   O3312683   2.326   1.515   2.339
  254DPPC   C3412684   2.352   1.382   2.331
  254DPPC   O3512685   2.314   1.315   2.235
  254DPPC   C3612686   2.437   1.327   2.446
  254DPPC   C3712687   2.356   1.230   2.532
  254DPPC   C3812688   2.450   1.171   2.637
  254DPPC   C3912689   2.383   1.069   2.728
  254DPPC   C4012690   2.486   1.018   2.829
  254DPPC   C4112691   2.433   0.904   2.916
  254DPPC   C4212692   2.558   0.834   2.968
  254DPPC   C4312693   2.642   0.900   3.077
  254DPPC   C4412694   2.745   0.796   3.121
  254DPPC   C4512695   2.819   0.829   3.251
  254DPPC   C4612696   2.732   0.838   3.377
  254DPPC   C4712697   2.825   0.828   3.499
  254DPPC   C4812698   2.754   0.815   3.634
  254DPPC   C4912699   2.856   0.804   3.747
  254DPPC   C5012700   2.808   0.865   3.879
  255DPPC    C112701   1.499   7.703   1.690
  255DPPC    C212702   1.507   7.474   1.615
  255DPPC    C312703   1.343   7.611   1.534
  255DPPC    N412704   1.484   7.613   1.575
  255DPPC    C512705   1.566   7.663   1.464
  255DPPC    C612706   1.718   7.677   1.467
  255DPPC    O712707   1.808   7.566   1.464
  255DPPC    P812708   1.963   7.604   1.444
  255DPPC    O912709   1.967   7.725   1.360
  255DPPC   O1012710   2.032   7.477   1.411
  255DPPC   O1112711   1.972   7.631   1.603
  255DPPC   C1212712   1.956   7.504   1.668
  255DPPC   C1312713   1.975   7.506   1.819
  255DPPC   O1412714   1.983   7.376   1.878
  255DPPC   C1512715   2.108   7.323   1.892
  255DPPC   O1612716   2.208   7.367   1.837
  255DPPC   C1712717   2.117   7.190   1.968
  255DPPC   C1812718   2.002   7.149   2.059
  255DPPC   C1912719   2.042   7.035   2.153
  255DPPC   C2012720   1.919   6.971   2.218
  255DPPC   C2112721   1.848   6.877   2.120
  255DPPC   C2212722   1.719   6.820   2.178
  255DPPC   C2312723   1.740   6.718   2.291
  255DPPC   C2412724   1.610   6.694   2.369
  255DPPC   C2512725   1.641   6.570   2.453
  255DPPC   C2612726   1.532   6.542   2.556
  255DPPC   C2712727   1.541   6.394   2.595
  255DPPC   C2812728   1.423   6.354   2.684
  255DPPC   C2912729   1.429   6.437   2.812
  255DPPC   C3012730   1.354   6.345   2.908
  255DPPC   C3112731   1.419   6.211   2.942
  255DPPC   C3212732   1.869   7.606   1.867
  255DPPC   O3312733   1.877   7.672   1.994
  255DPPC   C3412734   1.755   7.721   2.029
  255DPPC   O3512735   1.660   7.704   1.953
  255DPPC   C3612736   1.722   7.772   2.169
  255DPPC   C3712737   1.794   7.904   2.194
  255DPPC   C3812738   1.750   7.962   2.328
  255DPPC   C3912739   1.820   8.095   2.357
  255DPPC   C4012740   1.784   8.129   2.502
  255DPPC   C4112741   1.841   8.269   2.525
  255DPPC   C4212742   1.818   8.321   2.667
  255DPPC   C4312743   1.909   8.239   2.759
  255DPPC   C4412744   1.834   8.173   2.875
  255DPPC   C4512745   1.943   8.092   2.946
  255DPPC   C4612746   1.893   8.030   3.076
  255DPPC   C4712747   1.994   7.937   3.143
  255DPPC   C4812748   1.960   7.790   3.118
  255DPPC   C4912749   2.069   7.705   3.183
  255DPPC   C5012750   2.064   7.734   3.333
  256DPPC    C112751   2.695   6.745   1.722
  256DPPC    C212752   2.657   6.519   1.772
  256DPPC    C312753   2.546   6.633   1.584
  256DPPC    N412754   2.670   6.614   1.661
  256DPPC    C512755   2.781   6.587   1.569
  256DPPC    C612756   2.822   6.440   1.559
  256DPPC    O712757   2.722   6.368   1.486
  256DPPC    P812758   2.768   6.215   1.471
  256DPPC    O912759   2.915   6.222   1.456
  256DPPC   O1012760   2.670   6.172   1.369
  256DPPC   O1112761   2.715   6.179   1.619
  256DPPC   C1212762   2.575   6.172   1.593
  256DPPC   C1312763   2.497   6.119   1.714
  256DPPC   O1412764   2.451   6.222   1.803
  256DPPC   C1512765   2.326   6.273   1.791
  256DPPC   O1612766   2.259   6.266   1.688
  256DPPC   C1712767   2.293   6.377   1.898
  256DPPC   C1812768   2.218   6.304   2.010
  256DPPC   C1912769   2.172   6.419   2.100
  256DPPC   C2012770   2.088   6.353   2.210
  256DPPC   C2112771   2.065   6.458   2.318
  256DPPC   C2212772   2.183   6.518   2.395
  256DPPC   C2312773   2.132   6.602   2.512
  256DPPC   C2412774   2.093   6.739   2.455
  256DPPC   C2512775   2.047   6.817   2.579
  256DPPC   C2612776   1.939   6.749   2.663
  256DPPC   C2712777   1.909   6.807   2.801
  256DPPC   C2812778   1.781   6.749   2.860
  256DPPC   C2912779   1.808   6.604   2.902
  256DPPC   C3012780   1.709   6.563   3.011
  256DPPC   C3112781   1.764   6.434   3.073
  256DPPC   C3212782   2.581   6.003   1.767
  256DPPC   O3312783   2.524   5.919   1.867
  256DPPC   C3412784   2.598   5.814   1.913
  256DPPC   O3512785   2.717   5.802   1.886
  256DPPC   C3612786   2.509   5.710   1.982
  256DPPC   C3712787   2.580   5.647   2.103
  256DPPC   C3812788   2.486   5.584   2.205
  256DPPC   C3912789   2.439   5.448   2.152
  256DPPC   C4012790   2.332   5.394   2.247
  256DPPC   C4112791   2.400   5.376   2.383
  256DPPC   C4212792   2.286   5.345   2.481
  256DPPC   C4312793   2.217   5.216   2.437
  256DPPC   C4412794   2.113   5.161   2.534
  256DPPC   C4512795   2.063   5.023   2.488
  256DPPC   C4612796   1.949   4.983   2.581
  256DPPC   C4712797   1.997   4.973   2.726
  256DPPC   C4812798   1.875   4.969   2.819
  256DPPC   C4912799   1.864   4.823   2.864
  256DPPC   C5012800   1.740   4.815   2.953
  257SOL     OW12801   0.230   0.628   0.113
  257SOL    HW112802   0.137   0.626   0.150
  257SOL    HW212803   0.231   0.589   0.021
  258SOL     OW12804   0.225   0.275   0.996
  258SOL    HW112805   0.260   0.258   1.088
  258SOL    HW212806   0.137   0.230   0.984
  259SOL     OW12807   0.019   0.368   0.647
  259SOL    HW112808  -0.063   0.411   0.686
  259SOL    HW212809  -0.009   0.295   0.584
  260SOL     OW12810   0.569   1.275   1.165
  260SOL    HW112811   0.476   1.268   1.128
  260SOL    HW212812   0.580   1.364   1.209
  261SOL     OW12813   1.555   1.511   0.703
  261SOL    HW112814   1.498   1.495   0.784
  261SOL    HW212815   1.496   1.521   0.623
  262SOL     OW12816   1.755   0.607   0.231
  262SOL    HW112817   1.743   0.594   0.132
  262SOL    HW212818   1.725   0.526   0.280
  263SOL     OW12819   0.768   1.144   1.023
  263SOL    HW112820   0.690   1.161   1.083
  263SOL    HW212821   0.802   1.231   0.987
  264SOL     OW12822   0.850   0.798   1.823
  264SOL    HW112823   0.846   0.874   1.888
  264SOL    HW212824   0.872   0.834   1.732
  265SOL     OW12825   0.685   1.012   0.665
  265SOL    HW112826   0.754   0.996   0.735
  265SOL    HW212827   0.612   1.069   0.703
  266SOL     OW12828   0.686   1.161   1.803
  266SOL    HW112829   0.746   1.240   1.817
  266SOL    HW212830   0.600   1.192   1.762
  267SOL     OW12831   1.603   0.447   0.737
  267SOL    HW112832   1.529   0.493   0.687
  267SOL    HW212833   1.654   0.515   0.790
  268SOL     OW12834   0.231   1.713   0.483
  268SOL    HW112835   0.265   1.790   0.537
  268SOL    HW212836   0.275   1.713   0.393
  269SOL     OW12837   0.230   1.434   0.538
  269SOL    HW112838   0.204   1.530   0.538
  269SOL    HW212839   0.159   1.380   0.583
  270SOL     OW12840   1.594   0.114   1.480
  270SOL    HW112841   1.576   0.181   1.408
  270SOL    HW212842   1.591   0.160   1.569
  271SOL     OW12843   0.122   0.643   0.563
  271SOL    HW112844   0.077   0.555   0.580
  271SOL    HW212845   0.121   0.697   0.647
  272SOL     OW12846   1.842   1.767   0.359
  272SOL    HW112847   1.896   1.738   0.439
  272SOL    HW212848   1.872   1.857   0.330
  273SOL     OW12849   0.027   1.596   0.117
  273SOL    HW112850   0.008   1.500   0.138
  273SOL    HW212851  -0.006   1.654   0.192
  274SOL     OW12852   1.689   0.922   0.612
  274SOL    HW112853   1.784   0.893   0.620
  274SOL    HW212854   1.681   0.987   0.537
  275SOL     OW12855   1.641   1.108   0.432
  275SOL    HW112856   1.727   1.110   0.380
  275SOL    HW212857   1.655   1.155   0.520
  276SOL     OW12858   0.613   1.365   0.726
  276SOL    HW112859   0.564   1.278   0.735
  276SOL    HW212860   0.590   1.408   0.639
  277SOL     OW12861   0.809   0.004   0.502
  277SOL    HW112862   0.849   0.095   0.493
  277SOL    HW212863   0.709   0.012   0.508
  278SOL     OW12864   0.197   0.976   1.264
  278SOL    HW112865   0.286   0.931   1.250
  278SOL    HW212866   0.124   0.911   1.245
  279SOL     OW12867   1.525   0.999   0.190
  279SOL    HW112868   1.462   0.923   0.203
  279SOL    HW212869   1.573   1.017   0.276
  280SOL     OW12870   1.187   1.792   1.616
  280SOL    HW112871   1.211   1.852   1.540
  280SOL    HW212872   1.194   1.697   1.586
  281SOL     OW12873   0.317   0.251   1.801
  281SOL    HW112874   0.388   0.322   1.807
  281SOL    HW212875   0.229   0.290   1.829
  282SOL     OW12876   1.466   1.417   0.953
  282SOL    HW112877   1.407   1.423   1.033
  282SOL    HW212878   1.451   1.329   0.907
  283SOL     OW12879   1.667   1.714   0.572
  283SOL    HW112880   1.626   1.691   0.484
  283SOL    HW212881   1.649   1.640   0.637
  284SOL     OW12882   0.598   0.729   0.270
  284SOL    HW112883   0.622   0.798   0.202
  284SOL    HW212884   0.520   0.762   0.324
  285SOL     OW12885   1.394   0.469   1.674
  285SOL    HW112886   1.374   0.512   1.762
  285SOL    HW212887   1.472   0.407   1.683
  286SOL     OW12888   0.973   0.890   1.572
  286SOL    HW112889   1.019   0.806   1.543
  286SOL    HW212890   0.917   0.924   1.497
  287SOL     OW12891   0.991   0.410   1.242
  287SOL    HW112892   0.914   0.444   1.296
  287SOL    HW212893   0.957   0.359   1.163
  288SOL     OW12894   0.076   0.811   0.789
  288SOL    HW112895   0.175   0.799   0.798
  288SOL    HW212896   0.052   0.906   0.810
  289SOL     OW12897   0.130   1.821   1.571
  289SOL    HW112898   0.120   1.806   1.670
  289SOL    HW212899   0.044   1.857   1.535
  290SOL     OW12900   0.865   0.348   0.195
  290SOL    HW112901   0.924   0.411   0.146
  290SOL    HW212902   0.884   0.254   0.166
  291SOL     OW12903   1.362   1.144   0.545
  291SOL    HW112904   1.445   1.115   0.497
  291SOL    HW212905   1.313   1.211   0.489
  292SOL     OW12906   0.550   0.196   0.885
  292SOL    HW112907   0.545   0.191   0.985
  292SOL    HW212908   0.552   0.292   0.856
  293SOL     OW12909   1.008   1.456   0.477
  293SOL    HW112910   0.962   1.528   0.425
  293SOL    HW212911   1.004   1.476   0.575
  294SOL     OW12912   0.351   1.801   0.853
  294SOL    HW112913   0.401   1.715   0.859
  294SOL    HW212914   0.416   1.878   0.850
  295SOL     OW12915   1.795   1.066   0.873
  295SOL    HW112916   1.733   1.051   0.797
  295SOL    HW212917   1.743   1.077   0.958
  296SOL     OW12918   0.321   0.943   0.242
  296SOL    HW112919   0.403   0.982   0.200
  296SOL    HW212920   0.294   0.861   0.193
  297SOL     OW12921   1.458   0.735   0.728
  297SOL    HW112922   1.453   0.670   0.803
  297SOL    HW212923   1.538   0.794   0.741
  298SOL     OW12924   0.461   1.266   1.727
  298SOL    HW112925   0.411   1.267   1.641
  298SOL    HW212926   0.398   1.248   1.803
  299SOL     OW12927   1.111   1.776   0.237
  299SOL    HW112928   1.051   1.714   0.287
  299SOL    HW212929   1.142   1.732   0.152
  300SOL     OW12930   0.464   1.743   0.323
  300SOL    HW112931   0.497   1.782   0.409
  300SOL    HW212932   0.540   1.736   0.258
  301SOL     OW12933   1.400   0.107   0.426
  301SOL    HW112934   1.376   0.070   0.336
  301SOL    HW212935   1.499   0.123   0.430
  302SOL     OW12936   0.940   1.698   0.904
  302SOL    HW112937   1.020   1.641   0.925
  302SOL    HW212938   0.891   1.658   0.827
  303SOL     OW12939   0.382   0.700   0.480
  303SOL    HW112940   0.427   0.610   0.477
  303SOL    HW212941   0.288   0.689   0.513
  304SOL     OW12942   1.547   0.222   1.729
  304SOL    HW112943   1.542   0.259   1.821
  304SOL    HW212944   1.475   0.153   1.717
  305SOL     OW12945   0.614   0.122   0.117
  305SOL    HW112946   0.712   0.100   0.124
  305SOL    HW212947   0.583   0.105   0.024
  306SOL     OW12948   0.781   0.264   1.749
  306SOL    HW112949   0.848   0.203   1.792
  306SOL    HW212950   0.708   0.283   1.814
  307SOL     OW12951   0.888   1.514   1.195
  307SOL    HW112952   0.865   1.489   1.101
  307SOL    HW212953   0.949   1.445   1.234
  308SOL     OW12954   0.803   1.402   0.924
  308SOL    HW112955   0.893   1.416   0.882
  308SOL    HW212956   0.732   1.404   0.853
  309SOL     OW12957   0.539   0.064   0.512
  309SOL    HW112958   0.458   0.065   0.570
  309SOL    HW212959   0.542   0.147   0.457
  310SOL     OW12960   1.434   1.188   0.041
  310SOL    HW112961   1.466   1.112   0.098
  310SOL    HW212962   1.342   1.215   0.071
  311SOL     OW12963   0.297   0.035   0.171
  311SOL    HW112964   0.346   0.119   0.150
  311SOL    HW212965   0.359  -0.030   0.216
  312SOL     OW12966   0.935   0.236   0.480
  312SOL    HW112967   0.887   0.277   0.402
  312SOL    HW212968   1.034   0.234   0.461
  313SOL     OW12969   1.076   0.683   1.464
  313SOL    HW112970   0.996   0.622   1.467
  313SOL    HW212971   1.157   0.630   1.440
  314SOL     OW12972   1.227   1.570   0.793
  314SOL    HW112973   1.248   1.644   0.728
  314SOL    HW212974   1.295   1.570   0.866
  315SOL     OW12975   0.459   1.152   0.741
  315SOL    HW112976   0.388   1.125   0.806
  315SOL    HW212977   0.433   1.124   0.648
  316SOL     OW12978   1.271   1.797   0.591
  316SOL    HW112979   1.315   1.861   0.527
  316SOL    HW212980   1.221   1.849   0.661
  317SOL     OW12981   1.032   0.549   0.016
  317SOL    HW112982   0.991   0.631  -0.023
  317SOL    HW212983   1.096   0.575   0.089
  318SOL     OW12984   0.561   0.222   1.147
  318SOL    HW112985   0.599   0.138   1.184
  318SOL    HW212986   0.473   0.241   1.191
  319SOL     OW12987   1.017   0.039   0.753
  319SOL    HW112988   0.945   0.044   0.684
  319SOL    HW212989   0.993  -0.030   0.822
  320SOL     OW12990   1.429   1.173   0.867
  320SOL    HW112991   1.374   1.089   0.860
  320SOL    HW212992   1.455   1.202   0.775
  321SOL     OW12993   1.466   0.590   0.992
  321SOL    HW112994   1.436   0.495   0.999
  321SOL    HW212995   1.539   0.606   1.058
  322SOL     OW12996   1.857   0.833   0.377
  322SOL    HW112997   1.899   0.769   0.441
  322SOL    HW212998   1.819   0.782   0.299
  323SOL     OW12999   1.664   1.280   0.657
  323SOL    HW113000   1.763   1.288   0.671
  323SOL    HW213001   1.619   1.364   0.688
  324SOL     OW13002   1.390   0.575   0.078
  324SOL    HW113003   1.336   0.554   0.159
  324SOL    HW213004   1.481   0.534   0.087
  325SOL     OW13005   0.527   0.256   0.328
  325SOL    HW113006   0.554   0.197   0.253
  325SOL    HW213007   0.527   0.351   0.297
  326SOL     OW13008   1.111   1.195   1.100
  326SOL    HW113009   1.071   1.239   1.181
  326SOL    HW213010   1.070   1.232   1.017
  327SOL     OW13011   1.638   1.099   1.079
  327SOL    HW113012   1.643   1.180   1.138
  327SOL    HW213013   1.552   1.101   1.028
  328SOL     OW13014   0.915   0.089   1.402
  328SOL    HW113015   0.940   0.069   1.307
  328SOL    HW213016   0.987   0.145   1.444
  329SOL     OW13017   0.980   1.116   1.719
  329SOL    HW113018   0.881   1.122   1.729
  329SOL    HW213019   1.003   1.036   1.663
  330SOL     OW13020   0.410   0.813   1.251
  330SOL    HW113021   0.496   0.825   1.301
  330SOL    HW213022   0.368   0.726   1.278
  331SOL     OW13023   1.274   0.386   1.262
  331SOL    HW113024   1.295   0.460   1.326
  331SOL    HW213025   1.185   0.403   1.219
  332SOL     OW13026   0.367   1.100   0.501
  332SOL    HW113027   0.360   1.183   0.445
  332SOL    HW213028   0.371   1.020   0.441
  333SOL     OW13029   0.566   0.537   0.865
  333SOL    HW113030   0.578   0.603   0.791
  333SOL    HW213031   0.612   0.571   0.948
  334SOL     OW13032   1.252   1.348   0.388
  334SOL    HW113033   1.302   1.425   0.428
  334SOL    HW213034   1.157   1.350   0.420
  335SOL     OW13035   1.272   1.445   1.142
  335SOL    HW113036   1.319   1.458   1.229
  335SOL    HW213037   1.206   1.371   1.151
  336SOL     OW13038   1.582   0.639   0.472
  336SOL    HW113039   1.551   0.700   0.545
  336SOL    HW213040   1.632   0.691   0.403
  337SOL     OW13041   0.504   0.050   1.740
  337SOL    HW113042   0.462  -0.007   1.670
  337SOL    HW213043   0.438   0.119   1.772
  338SOL     OW13044   0.573   0.870   1.029
  338SOL    HW113045   0.617   0.959   1.020
  338SOL    HW213046   0.510   0.870   1.106
  339SOL     OW13047   1.360   0.862   1.045
  339SOL    HW113048   1.285   0.862   0.979
  339SOL    HW213049   1.397   0.770   1.054
  340SOL     OW13050   1.209   0.525   0.275
  340SOL    HW113051   1.222   0.441   0.329
  340SOL    HW213052   1.180   0.599   0.335
  341SOL     OW13053   0.307   0.213   1.231
  341SOL    HW113054   0.284   0.250   1.321
  341SOL    HW213055   0.277   0.118   1.225
  342SOL     OW13056   0.732   0.634   1.064
  342SOL    HW113057   0.791   0.608   0.988
  342SOL    HW213058   0.704   0.730   1.053
  343SOL     OW13059   1.728   0.935   1.854
  343SOL    HW113060   1.682   0.928   1.765
  343SOL    HW213061   1.666   0.979   1.920
  344SOL     OW13062   0.307   0.063   0.618
  344SOL    HW113063   0.296   0.157   0.651
  344SOL    HW213064   0.302   0.000   0.695
  345SOL     OW13065   1.622   0.367   0.374
  345SOL    HW113066   1.624   0.291   0.438
  345SOL    HW213067   1.574   0.444   0.414
  346SOL     OW13068   1.859   1.518   1.605
  346SOL    HW113069   1.873   1.545   1.510
  346SOL    HW213070   1.942   1.540   1.658
  347SOL     OW13071   1.540   0.274   0.125
  347SOL    HW113072   1.479   0.199   0.148
  347SOL    HW213073   1.562   0.326   0.208
  348SOL     OW13074   1.303   0.838   0.042
  348SOL    HW113075   1.337   0.745   0.057
  348SOL    HW213076   1.321   0.865  -0.053
  349SOL     OW13077   1.068   1.333   0.849
  349SOL    HW113078   1.075   1.249   0.794
  349SOL    HW213079   1.130   1.402   0.813
  350SOL     OW13080   0.319   0.810   0.949
  350SOL    HW113081   0.412   0.846   0.954
  350SOL    HW213082   0.313   0.725   1.001
  351SOL     OW13083   0.339   0.509   1.006
  351SOL    HW113084   0.287   0.426   0.989
  351SOL    HW213085   0.416   0.514   0.942
  352SOL     OW13086   0.008   1.326   0.200
  352SOL    HW113087  -0.085   1.347   0.169
  352SOL    HW213088   0.018   1.227   0.213
  353SOL     OW13089   0.088   1.801   0.927
  353SOL    HW113090   0.046   1.715   0.900
  353SOL    HW213091   0.182   1.804   0.893
  354SOL     OW13092   0.504   1.568   0.910
  354SOL    HW113093   0.570   1.642   0.919
  354SOL    HW213094   0.548   1.489   0.868
  355SOL     OW13095   1.002   0.796   1.238
  355SOL    HW113096   1.043   0.764   1.324
  355SOL    HW213097   0.906   0.769   1.235
  356SOL     OW13098   1.657   0.604   1.206
  356SOL    HW113099   1.619   0.535   1.268
  356SOL    HW213100   1.739   0.568   1.162
  357SOL     OW13101   0.671   0.464   1.269
  357SOL    HW113102   0.637   0.375   1.239
  357SOL    HW213103   0.697   0.518   1.189
  358SOL     OW13104   0.473   0.500   0.191
  358SOL    HW113105   0.534   0.580   0.195
  358SOL    HW213106   0.378   0.531   0.198
  359SOL     OW13107   0.159   1.137   1.466
  359SOL    HW113108   0.181   1.076   1.542
  359SOL    HW213109   0.169   1.088   1.380
  360SOL     OW13110   1.347   1.059   1.234
  360SOL    HW113111   1.371   0.996   1.160
  360SOL    HW213112   1.257   1.099   1.216
  361SOL     OW13113   1.302   0.855   0.309
  361SOL    HW113114   1.216   0.824   0.351
  361SOL    HW213115   1.298   0.841   0.210
  362SOL     OW13116   1.759   1.747   1.154
  362SOL    HW113117   1.820   1.777   1.081
  362SOL    HW213118   1.721   1.658   1.132
  363SOL     OW13119   1.252   1.731   1.128
  363SOL    HW113120   1.336   1.736   1.074
  363SOL    HW213121   1.229   1.635   1.146
  364SOL     OW13122   0.903   0.086   0.133
  364SOL    HW113123   0.954   0.087   0.047
  364SOL    HW213124   0.959   0.044   0.204
  365SOL     OW13125   1.726   0.135   0.523
  365SOL    HW113126   1.799   0.118   0.456
  365SOL    HW213127   1.695   0.048   0.561
  366SOL     OW13128   0.130   1.794   1.851
  366SOL    HW113129   0.089   1.720   1.904
  366SOL    HW213130   0.194   1.845   1.909
  367SOL     OW13131   1.280   0.927   0.672
  367SOL    HW113132   1.340   0.846   0.674
  367SOL    HW213133   1.320   0.996   0.612
  368SOL     OW13134   0.830   1.273   1.422
  368SOL    HW113135   0.825   1.306   1.517
  368SOL    HW213136   0.744   1.292   1.376
  369SOL     OW13137   0.672   1.616   0.154
  369SOL    HW113138   0.681   1.626   0.055
  369SOL    HW213139   0.632   1.527   0.175
  370SOL     OW13140   1.841   0.175   0.963
  370SOL    HW113141   1.880   0.090   0.927
  370SOL    HW213142   1.743   0.177   0.944
  371SOL     OW13143   0.263   0.326   0.720
  371SOL    HW113144   0.184   0.377   0.686
  371SOL    HW213145   0.254   0.311   0.818
  372SOL     OW13146   1.194   1.612   0.031
  372SOL    HW113147   1.200   1.519   0.068
  372SOL    HW213148   1.135   1.612  -0.049
  373SOL     OW13149   0.822   1.002   1.372
  373SOL    HW113150   0.862   1.001   1.280
  373SOL    HW213151   0.832   1.094   1.412
  374SOL     OW13152   0.372   1.288   1.490
  374SOL    HW113153   0.359   1.381   1.456
  374SOL    HW213154   0.288   1.236   1.477
  375SOL     OW13155   1.039   1.098   0.696
  375SOL    HW113156   0.969   1.051   0.750
  375SOL    HW213157   1.098   1.030   0.653
  376SOL     OW13158   1.014   0.236   0.971
  376SOL    HW113159   1.006   0.200   0.878
  376SOL    HW213160   1.012   0.160   1.036
  377SOL     OW13161   0.590   1.487   0.491
  377SOL    HW113162   0.632   1.429   0.421
  377SOL    HW213163   0.546   1.566   0.447
  378SOL     OW13164   1.709   0.385   1.381
  378SOL    HW113165   1.782   0.454   1.385
  378SOL    HW213166   1.737   0.310   1.322
  379SOL     OW13167   0.255   1.348   0.290
  379SOL    HW113168   0.159   1.349   0.263
  379SOL    HW213169   0.267   1.401   0.374
  380SOL     OW13170   0.075   0.345   0.033
  380SOL    HW113171  -0.017   0.317   0.004
  380SOL    HW213172   0.106   0.422  -0.023
  381SOL     OW13173   0.072   0.166   0.318
  381SOL    HW113174   0.055   0.249   0.264
  381SOL    HW213175   0.162   0.129   0.296
  382SOL     OW13176   1.183   1.335   0.119
  382SOL    HW113177   1.084   1.324   0.121
  382SOL    HW213178   1.217   1.350   0.212
  383SOL     OW13179   1.493   1.767   0.959
  383SOL    HW113180   1.526   1.831   0.890
  383SOL    HW213181   1.559   1.761   1.034
  384SOL     OW13182   1.777   0.342   1.642
  384SOL    HW113183   1.760   0.373   1.548
  384SOL    HW213184   1.693   0.305   1.680
  385SOL     OW13185   0.661   1.790   0.953
  385SOL    HW113186   0.615   1.878   0.940
  385SOL    HW213187   0.760   1.802   0.946
  386SOL     OW13188   1.083   0.984   0.087
  386SOL    HW113189   1.060   1.037   0.005
  386SOL    HW213190   1.164   0.928   0.068
  387SOL     OW13191   1.861   1.569   0.851
  387SOL    HW113192   1.790   1.557   0.781
  387SOL    HW213193   1.862   1.490   0.911
  388SOL     OW13194   0.079   1.240   0.653
  388SOL    HW113195   0.078   1.193   0.741
  388SOL    HW213196   0.161   1.212   0.602
  389SOL     OW13197   1.824   0.192   1.227
  389SOL    HW113198   1.820   0.102   1.271
  389SOL    HW213199   1.827   0.181   1.128
  390SOL     OW13200   0.428   0.424   0.520
  390SOL    HW113201   0.458   0.352   0.458
  390SOL    HW213202   0.389   0.384   0.603
  391SOL     OW13203   1.705   1.487   1.104
  391SOL    HW113204   1.612   1.462   1.077
  391SOL    HW213205   1.731   1.437   1.186
  392SOL     OW13206   0.317   0.547   1.280
  392SOL    HW113207   0.355   0.488   1.352
  392SOL    HW213208   0.357   0.521   1.192
  393SOL     OW13209   0.812   1.586   0.687
  393SOL    HW113210   0.844   1.596   0.593
  393SOL    HW213211   0.733   1.524   0.689
  394SOL     OW13212   1.424   0.214   1.112
  394SOL    HW113213   1.476   0.149   1.167
  394SOL    HW213214   1.375   0.277   1.173
  395SOL     OW13215   1.001   0.034   1.154
  395SOL    HW113216   0.938  -0.038   1.123
  395SOL    HW213217   1.094  -0.002   1.154
  396SOL     OW13218   1.352   0.052   0.168
  396SOL    HW113219   1.387   0.011   0.084
  396SOL    HW213220   1.262   0.014   0.188
  397SOL     OW13221   1.593   0.221   0.882
  397SOL    HW113222   1.509   0.220   0.936
  397SOL    HW213223   1.595   0.304   0.826
  398SOL     OW13224   0.039   1.077   0.300
  398SOL    HW113225   0.138   1.066   0.291
  398SOL    HW213226  -0.001   0.991   0.332
  399SOL     OW13227   0.875   1.646   0.337
  399SOL    HW113228   0.798   1.611   0.283
  399SOL    HW213229   0.843   1.717   0.399
  400SOL     OW13230   0.569   1.275   3.027
  400SOL    HW113231   0.476   1.268   2.990
  400SOL    HW213232   0.580   1.364   3.071
  401SOL     OW13233   0.850   0.798   3.685
  401SOL    HW113234   0.846   0.874   3.750
  401SOL    HW213235   0.872   0.834   3.594
  402SOL     OW13236   0.335   1.435   2.923
  402SOL    HW113237   0.257   1.404   2.870
  402SOL    HW213238   0.393   1.493   2.866
  403SOL     OW13239   1.460   1.505   3.201
  403SOL    HW113240   1.484   1.599   3.227
  403SOL    HW213241   1.444   1.451   3.283
  404SOL     OW13242   1.127   1.341   3.552
  404SOL    HW113243   1.174   1.341   3.640
  404SOL    HW213244   1.079   1.254   3.541
  405SOL     OW13245   0.240   1.091   2.748
  405SOL    HW113246   0.254   1.007   2.800
  405SOL    HW213247   0.185   1.155   2.803
  406SOL     OW13248   0.620   1.786   3.301
  406SOL    HW113249   0.528   1.769   3.336
  406SOL    HW213250   0.648   1.878   3.327
  407SOL     OW13251   0.027   1.596   1.979
  407SOL    HW113252   0.008   1.500   2.000
  407SOL    HW213253  -0.006   1.654   2.054
  408SOL     OW13254   0.317   0.251   3.663
  408SOL    HW113255   0.388   0.322   3.669
  408SOL    HW213256   0.229   0.290   3.691
  409SOL     OW13257   1.281   0.345   2.806
  409SOL    HW113258   1.195   0.295   2.793
  409SOL    HW213259   1.343   0.291   2.862
  410SOL     OW13260   1.576   1.662   2.169
  410SOL    HW113261   1.665   1.708   2.172
  410SOL    HW213262   1.555   1.638   2.074
  411SOL     OW13263   1.394   0.469   3.536
  411SOL    HW113264   1.374   0.512   3.624
  411SOL    HW213265   1.472   0.407   3.545
  412SOL     OW13266   0.973   0.890   3.434
  412SOL    HW113267   1.019   0.806   3.405
  412SOL    HW213268   0.917   0.924   3.359
  413SOL     OW13269   1.041   0.701   2.291
  413SOL    HW113270   1.067   0.697   2.387
  413SOL    HW213271   0.956   0.650   2.277
  414SOL     OW13272   0.076   0.811   2.651
  414SOL    HW113273   0.175   0.799   2.660
  414SOL    HW213274   0.052   0.906   2.672
  415SOL     OW13275   0.130   1.821   3.433
  415SOL    HW113276   0.120   1.806   3.532
  415SOL    HW213277   0.044   1.857   3.397
  416SOL     OW13278   0.550   0.196   2.747
  416SOL    HW113279   0.545   0.191   2.847
  416SOL    HW213280   0.552   0.292   2.718
  417SOL     OW13281   1.008   1.456   2.339
  417SOL    HW113282   0.962   1.528   2.287
  417SOL    HW213283   1.004   1.476   2.437
  418SOL     OW13284   1.795   1.066   2.735
  418SOL    HW113285   1.733   1.051   2.659
  418SOL    HW213286   1.743   1.077   2.820
  419SOL     OW13287   1.227   1.550   3.368
  419SOL    HW113288   1.233   1.473   3.432
  419SOL    HW213289   1.175   1.524   3.288
  420SOL     OW13290   1.111   1.776   2.099
  420SOL    HW113291   1.051   1.714   2.149
  420SOL    HW213292   1.142   1.732   2.014
  421SOL     OW13293   0.940   1.698   2.766
  421SOL    HW113294   1.020   1.641   2.787
  421SOL    HW213295   0.891   1.658   2.689
  422SOL     OW13296   1.547   0.222   3.591
  422SOL    HW113297   1.542   0.259   3.683
  422SOL    HW213298   1.475   0.153   3.579
  423SOL     OW13299   0.614   0.122   1.979
  423SOL    HW113300   0.712   0.100   1.986
  423SOL    HW213301   0.583   0.105   1.886
  424SOL     OW13302   0.888   1.514   3.057
  424SOL    HW113303   0.865   1.489   2.963
  424SOL    HW213304   0.949   1.445   3.096
  425SOL     OW13305   1.351   0.590   3.295
  425SOL    HW113306   1.379   0.547   3.380
  425SOL    HW213307   1.376   0.686   3.296
  426SOL     OW13308   1.076   0.683   3.326
  426SOL    HW113309   0.996   0.622   3.329
  426SOL    HW213310   1.157   0.630   3.302
  427SOL     OW13311   0.459   1.152   2.603
  427SOL    HW113312   0.388   1.125   2.668
  427SOL    HW213313   0.433   1.124   2.510
  428SOL     OW13314   0.078   0.556   3.248
  428SOL    HW113315   0.170   0.555   3.207
  428SOL    HW213316   0.072   0.630   3.315
  429SOL     OW13317   0.561   0.222   3.009
  429SOL    HW113318   0.599   0.138   3.046
  429SOL    HW213319   0.473   0.241   3.053
  430SOL     OW13320   1.466   0.590   2.854
  430SOL    HW113321   1.436   0.495   2.861
  430SOL    HW213322   1.539   0.606   2.920
  431SOL     OW13323   1.754   1.223   3.450
  431SOL    HW113324   1.845   1.184   3.437
  431SOL    HW213325   1.762   1.319   3.474
  432SOL     OW13326   0.980   1.116   3.581
  432SOL    HW113327   0.881   1.122   3.591
  432SOL    HW213328   1.003   1.036   3.525
  433SOL     OW13329   0.367   1.100   2.363
  433SOL    HW113330   0.360   1.183   2.307
  433SOL    HW213331   0.371   1.020   2.303
  434SOL     OW13332   0.566   0.537   2.727
  434SOL    HW113333   0.578   0.603   2.653
  434SOL    HW213334   0.612   0.571   2.810
  435SOL     OW13335   1.272   1.445   3.004
  435SOL    HW113336   1.319   1.458   3.091
  435SOL    HW213337   1.206   1.371   3.013
  436SOL     OW13338   0.354   1.510   3.191
  436SOL    HW113339   0.333   1.466   3.104
  436SOL    HW213340   0.451   1.536   3.194
  437SOL     OW13341   0.402   0.751   3.460
  437SOL    HW113342   0.470   0.806   3.413
  437SOL    HW213343   0.442   0.663   3.487
  438SOL     OW13344   1.360   0.862   2.907
  438SOL    HW113345   1.285   0.862   2.841
  438SOL    HW213346   1.397   0.770   2.916
  439SOL     OW13347   1.728   0.935   3.716
  439SOL    HW113348   1.682   0.928   3.627
  439SOL    HW213349   1.666   0.979   3.782
  440SOL     OW13350   0.307   0.063   2.480
  440SOL    HW113351   0.296   0.157   2.513
  440SOL    HW213352   0.302   0.000   2.557
  441SOL     OW13353   1.622   0.367   2.236
  441SOL    HW113354   1.624   0.291   2.300
  441SOL    HW213355   1.574   0.444   2.276
  442SOL     OW13356   1.023   0.766   2.828
  442SOL    HW113357   1.038   0.787   2.924
  442SOL    HW213358   0.993   0.671   2.819
  443SOL     OW13359   0.980   1.573   3.562
  443SOL    HW113360   0.960   1.617   3.474
  443SOL    HW213361   1.019   1.482   3.546
  444SOL     OW13362   1.859   1.518   3.467
  444SOL    HW113363   1.873   1.545   3.372
  444SOL    HW213364   1.942   1.540   3.520
  445SOL     OW13365   1.540   0.274   1.987
  445SOL    HW113366   1.479   0.199   2.010
  445SOL    HW213367   1.562   0.326   2.070
  446SOL     OW13368   0.339   0.509   2.868
  446SOL    HW113369   0.287   0.426   2.851
  446SOL    HW213370   0.416   0.514   2.804
  447SOL     OW13371   1.138   0.380   3.540
  447SOL    HW113372   1.093   0.443   3.604
  447SOL    HW213373   1.231   0.411   3.523
  448SOL     OW13374   0.504   1.568   2.772
  448SOL    HW113375   0.570   1.642   2.781
  448SOL    HW213376   0.548   1.489   2.730
  449SOL     OW13377   0.040   0.544   2.976
  449SOL    HW113378   0.125   0.511   2.935
  449SOL    HW213379   0.053   0.559   3.074
  450SOL     OW13380   1.369   0.950   3.522
  450SOL    HW113381   1.408   1.039   3.542
  450SOL    HW213382   1.379   0.930   3.425
  451SOL     OW13383   0.671   0.464   3.131
  451SOL    HW113384   0.637   0.375   3.101
  451SOL    HW213385   0.697   0.518   3.051
  452SOL     OW13386   0.930   1.678   3.327
  452SOL    HW113387   0.906   1.660   3.232
  452SOL    HW213388   0.960   1.772   3.337
  453SOL     OW13389   1.252   1.731   2.990
  453SOL    HW113390   1.336   1.736   2.936
  453SOL    HW213391   1.229   1.635   3.008
  454SOL     OW13392   0.688   1.662   3.578
  454SOL    HW113393   0.632   1.743   3.587
  454SOL    HW213394   0.740   1.666   3.492
  455SOL     OW13395   1.726   0.135   2.385
  455SOL    HW113396   1.799   0.118   2.318
  455SOL    HW213397   1.695   0.048   2.423
  456SOL     OW13398   0.130   1.794   3.713
  456SOL    HW113399   0.089   1.720   3.766
  456SOL    HW213400   0.194   1.845   3.771
  457SOL     OW13401   0.830   1.273   3.284
  457SOL    HW113402   0.825   1.306   3.379
  457SOL    HW213403   0.744   1.292   3.238
  458SOL     OW13404   1.650   1.720   3.256
  458SOL    HW113405   1.703   1.730   3.172
  458SOL    HW213406   1.623   1.810   3.290
  459SOL     OW13407   1.194   1.612   1.893
  459SOL    HW113408   1.200   1.519   1.930
  459SOL    HW213409   1.135   1.612   1.813
  460SOL     OW13410   0.822   1.002   3.234
  460SOL    HW113411   0.862   1.001   3.142
  460SOL    HW213412   0.832   1.094   3.274
  461SOL     OW13413   0.916   0.910   2.153
  461SOL    HW113414   0.979   0.948   2.085
  461SOL    HW213415   0.956   0.827   2.192
  462SOL     OW13416   1.504   1.607   1.906
  462SOL    HW113417   1.412   1.644   1.913
  462SOL    HW213418   1.542   1.627   1.816
  463SOL     OW13419   1.614   1.292   3.151
  463SOL    HW113420   1.674   1.295   3.231
  463SOL    HW213421   1.539   1.356   3.164
  464SOL     OW13422   1.709   0.385   3.243
  464SOL    HW113423   1.782   0.454   3.247
  464SOL    HW213424   1.737   0.310   3.184
  465SOL     OW13425   0.075   0.345   1.895
  465SOL    HW113426  -0.017   0.317   1.866
  465SOL    HW213427   0.106   0.422   1.839
  466SOL     OW13428   1.493   1.767   2.821
  466SOL    HW113429   1.526   1.831   2.752
  466SOL    HW213430   1.559   1.761   2.896
  467SOL     OW13431   0.716   0.565   3.570
  467SOL    HW113432   0.735   0.630   3.644
  467SOL    HW213433   0.776   0.485   3.579
  468SOL     OW13434   1.777   0.342   3.504
  468SOL    HW113435   1.760   0.373   3.410
  468SOL    HW213436   1.693   0.305   3.542
  469SOL     OW13437   0.859   1.374   1.878
  469SOL    HW113438   0.813   1.389   1.966
  469SOL    HW213439   0.903   1.459   1.848
  470SOL     OW13440   0.661   1.790   2.815
  470SOL    HW113441   0.615   1.878   2.802
  470SOL    HW213442   0.760   1.802   2.808
  471SOL     OW13443   0.672   1.391   3.486
  471SOL    HW113444   0.594   1.341   3.524
  471SOL    HW213445   0.669   1.486   3.517
  472SOL     OW13446   1.824   0.192   3.089
  472SOL    HW113447   1.820   0.102   3.133
  472SOL    HW213448   1.827   0.181   2.990
  473SOL     OW13449   0.428   0.424   2.382
  473SOL    HW113450   0.458   0.352   2.320
  473SOL    HW213451   0.389   0.384   2.465
  474SOL     OW13452   0.618   1.567   3.146
  474SOL    HW113453   0.613   1.649   3.203
  474SOL    HW213454   0.707   1.564   3.101
  475SOL     OW13455   1.352   0.052   2.030
  475SOL    HW113456   1.387   0.011   1.946
  475SOL    HW213457   1.262   0.014   2.050
  476SOL     OW13458   0.875   1.646   2.199
  476SOL    HW113459   0.798   1.611   2.145
  476SOL    HW213460   0.843   1.717   2.261
  477SOL     OW13461   0.225   0.275   4.720
  477SOL    HW113462   0.260   0.258   4.812
  477SOL    HW213463   0.137   0.230   4.708
  478SOL     OW13464   0.019   0.368   4.371
  478SOL    HW113465  -0.063   0.411   4.410
  478SOL    HW213466  -0.009   0.295   4.308
  479SOL     OW13467   0.569   1.275   4.889
  479SOL    HW113468   0.476   1.268   4.852
  479SOL    HW213469   0.580   1.364   4.933
  480SOL     OW13470   1.555   1.511   4.427
  480SOL    HW113471   1.498   1.495   4.508
  480SOL    HW213472   1.496   1.521   4.347
  481SOL     OW13473   1.135   0.703   4.441
  481SOL    HW113474   1.192   0.781   4.416
  481SOL    HW213475   1.075   0.729   4.517
  482SOL     OW13476   1.755   0.607   3.955
  482SOL    HW113477   1.743   0.594   3.856
  482SOL    HW213478   1.725   0.526   4.004
  483SOL     OW13479   0.768   1.144   4.747
  483SOL    HW113480   0.690   1.161   4.807
  483SOL    HW213481   0.802   1.231   4.711
  484SOL     OW13482   0.850   0.798   5.547
  484SOL    HW113483   0.846   0.874   5.612
  484SOL    HW213484   0.872   0.834   5.456
  485SOL     OW13485   0.686   1.161   5.527
  485SOL    HW113486   0.746   1.240   5.541
  485SOL    HW213487   0.600   1.192   5.486
  486SOL     OW13488   0.231   1.713   4.207
  486SOL    HW113489   0.265   1.790   4.261
  486SOL    HW213490   0.275   1.713   4.117
  487SOL     OW13491   0.620   1.786   5.163
  487SOL    HW113492   0.528   1.769   5.198
  487SOL    HW213493   0.648   1.878   5.189
  488SOL     OW13494   1.594   0.114   5.204
  488SOL    HW113495   1.576   0.181   5.132
  488SOL    HW213496   1.591   0.160   5.293
  489SOL     OW13497   1.842   1.767   4.083
  489SOL    HW113498   1.896   1.738   4.163
  489SOL    HW213499   1.872   1.857   4.054
  490SOL     OW13500   1.525   0.999   3.914
  490SOL    HW113501   1.462   0.923   3.927
  490SOL    HW213502   1.573   1.017   4.000
  491SOL     OW13503   0.317   0.251   5.525
  491SOL    HW113504   0.388   0.322   5.531
  491SOL    HW213505   0.229   0.290   5.553
  492SOL     OW13506   0.598   0.729   3.994
  492SOL    HW113507   0.622   0.798   3.926
  492SOL    HW213508   0.520   0.762   4.048
  493SOL     OW13509   1.281   0.345   4.668
  493SOL    HW113510   1.195   0.295   4.655
  493SOL    HW213511   1.343   0.291   4.724
  494SOL     OW13512   0.807   0.605   5.189
  494SOL    HW113513   0.760   0.602   5.278
  494SOL    HW213514   0.756   0.550   5.123
  495SOL     OW13515   0.991   0.410   4.966
  495SOL    HW113516   0.914   0.444   5.020
  495SOL    HW213517   0.957   0.359   4.887
  496SOL     OW13518   0.550   0.196   4.609
  496SOL    HW113519   0.545   0.191   4.709
  496SOL    HW213520   0.552   0.292   4.580
  497SOL     OW13521   0.351   1.801   4.577
  497SOL    HW113522   0.401   1.715   4.583
  497SOL    HW213523   0.416   1.878   4.574
  498SOL     OW13524   0.321   0.943   3.966
  498SOL    HW113525   0.403   0.982   3.924
  498SOL    HW213526   0.294   0.861   3.917
  499SOL     OW13527   1.458   0.735   4.452
  499SOL    HW113528   1.453   0.670   4.527
  499SOL    HW213529   1.538   0.794   4.465
  500SOL     OW13530   0.940   1.698   4.628
  500SOL    HW113531   1.020   1.641   4.649
  500SOL    HW213532   0.891   1.658   4.551
  501SOL     OW13533   0.382   0.700   4.204
  501SOL    HW113534   0.427   0.610   4.201
  501SOL    HW213535   0.288   0.689   4.237
  502SOL     OW13536   1.547   0.222   5.453
  502SOL    HW113537   1.542   0.259   5.545
  502SOL    HW213538   1.475   0.153   5.441
  503SOL     OW13539   0.781   0.264   5.473
  503SOL    HW113540   0.848   0.203   5.516
  503SOL    HW213541   0.708   0.283   5.538
  504SOL     OW13542   0.803   1.402   4.648
  504SOL    HW113543   0.893   1.416   4.606
  504SOL    HW213544   0.732   1.404   4.577
  505SOL     OW13545   0.297   0.035   3.895
  505SOL    HW113546   0.346   0.119   3.874
  505SOL    HW213547   0.359  -0.030   3.940
  506SOL     OW13548   1.271   1.797   4.315
  506SOL    HW113549   1.315   1.861   4.251
  506SOL    HW213550   1.221   1.849   4.385
  507SOL     OW13551   0.561   0.222   4.871
  507SOL    HW113552   0.599   0.138   4.908
  507SOL    HW213553   0.473   0.241   4.915
  508SOL     OW13554   1.466   0.590   4.716
  508SOL    HW113555   1.436   0.495   4.723
  508SOL    HW213556   1.539   0.606   4.782
  509SOL     OW13557   0.488   1.385   3.898
  509SOL    HW113558   0.401   1.370   3.945
  509SOL    HW213559   0.471   1.411   3.803
  510SOL     OW13560   1.664   1.280   4.381
  510SOL    HW113561   1.763   1.288   4.395
  510SOL    HW213562   1.619   1.364   4.412
  511SOL     OW13563   1.754   1.223   5.312
  511SOL    HW113564   1.845   1.184   5.299
  511SOL    HW213565   1.762   1.319   5.336
  512SOL     OW13566   0.915   0.089   5.126
  512SOL    HW113567   0.940   0.069   5.031
  512SOL    HW213568   0.987   0.145   5.168
  513SOL     OW13569   1.274   0.386   4.986
  513SOL    HW113570   1.295   0.460   5.050
  513SOL    HW213571   1.185   0.403   4.943
  514SOL     OW13572   1.252   1.348   4.112
  514SOL    HW113573   1.302   1.425   4.152
  514SOL    HW213574   1.157   1.350   4.144
  515SOL     OW13575   1.013   0.105   5.494
  515SOL    HW113576   1.019   0.190   5.442
  515SOL    HW213577   1.045   0.029   5.437
  516SOL     OW13578   0.504   0.050   5.464
  516SOL    HW113579   0.462  -0.007   5.394
  516SOL    HW213580   0.438   0.119   5.496
  517SOL     OW13581   1.360   0.862   4.769
  517SOL    HW113582   1.285   0.862   4.703
  517SOL    HW213583   1.397   0.770   4.778
  518SOL     OW13584   1.622   0.367   4.098
  518SOL    HW113585   1.624   0.291   4.162
  518SOL    HW213586   1.574   0.444   4.138
  519SOL     OW13587   0.350   0.898   5.528
  519SOL    HW113588   0.426   0.942   5.576
  519SOL    HW213589   0.385   0.851   5.446
  520SOL     OW13590   1.303   0.838   3.766
  520SOL    HW113591   1.337   0.745   3.781
  520SOL    HW213592   1.321   0.865   3.671
  521SOL     OW13593   0.339   0.509   4.730
  521SOL    HW113594   0.287   0.426   4.713
  521SOL    HW213595   0.416   0.514   4.666
  522SOL     OW13596   1.138   0.380   5.402
  522SOL    HW113597   1.093   0.443   5.466
  522SOL    HW213598   1.231   0.411   5.385
  523SOL     OW13599   1.160   0.207   5.201
  523SOL    HW113600   1.160   0.271   5.278
  523SOL    HW213601   1.188   0.255   5.118
  524SOL     OW13602   0.189   0.520   5.446
  524SOL    HW113603   0.248   0.480   5.376
  524SOL    HW213604   0.131   0.591   5.405
  525SOL     OW13605   1.302   0.855   4.033
  525SOL    HW113606   1.216   0.824   4.075
  525SOL    HW213607   1.298   0.841   3.934
  526SOL     OW13608   1.759   1.747   4.878
  526SOL    HW113609   1.820   1.777   4.805
  526SOL    HW213610   1.721   1.658   4.856
  527SOL     OW13611   0.688   1.662   5.440
  527SOL    HW113612   0.632   1.743   5.449
  527SOL    HW213613   0.740   1.666   5.354
  528SOL     OW13614   0.130   1.794   5.575
  528SOL    HW113615   0.089   1.720   5.628
  528SOL    HW213616   0.194   1.845   5.633
  529SOL     OW13617   1.280   0.927   4.396
  529SOL    HW113618   1.340   0.846   4.398
  529SOL    HW213619   1.320   0.996   4.336
  530SOL     OW13620   0.830   1.273   5.146
  530SOL    HW113621   0.825   1.306   5.241
  530SOL    HW213622   0.744   1.292   5.100
  531SOL     OW13623   0.672   1.616   3.878
  531SOL    HW113624   0.681   1.626   3.779
  531SOL    HW213625   0.632   1.527   3.899
  532SOL     OW13626   0.263   0.326   4.444
  532SOL    HW113627   0.184   0.377   4.410
  532SOL    HW213628   0.254   0.311   4.542
  533SOL     OW13629   0.105   1.013   5.450
  533SOL    HW113630   0.028   0.980   5.504
  533SOL    HW213631   0.190   0.983   5.492
  534SOL     OW13632   0.672   0.203   5.213
  534SOL    HW113633   0.762   0.187   5.173
  534SOL    HW213634   0.680   0.208   5.312
  535SOL     OW13635   1.183   1.335   3.843
  535SOL    HW113636   1.084   1.324   3.845
  535SOL    HW213637   1.217   1.350   3.936
  536SOL     OW13638   0.613   0.842   5.155
  536SOL    HW113639   0.669   0.923   5.138
  536SOL    HW213640   0.672   0.762   5.158
  537SOL     OW13641   0.716   0.565   5.432
  537SOL    HW113642   0.735   0.630   5.506
  537SOL    HW213643   0.776   0.485   5.441
  538SOL     OW13644   1.674   0.883   4.978
  538SOL    HW113645   1.647   0.794   4.941
  538SOL    HW213646   1.675   0.951   4.905
  539SOL     OW13647   0.594   0.745   4.376
  539SOL    HW113648   0.644   0.830   4.357
  539SOL    HW213649   0.506   0.747   4.328
  540SOL     OW13650   1.777   0.342   5.366
  540SOL    HW113651   1.760   0.373   5.272
  540SOL    HW213652   1.693   0.305   5.404
  541SOL     OW13653   1.730   0.934   5.241
  541SOL    HW113654   1.768   1.025   5.256
  541SOL    HW213655   1.722   0.917   5.142
  542SOL     OW13656   1.083   0.984   3.811
  542SOL    HW113657   1.060   1.037   3.729
  542SOL    HW213658   1.164   0.928   3.792
  543SOL     OW13659   0.221   1.314   5.568
  543SOL    HW113660   0.156   1.241   5.547
  543SOL    HW213661   0.225   1.328   5.666
  544SOL     OW13662   0.079   1.240   4.377
  544SOL    HW113663   0.078   1.193   4.465
  544SOL    HW213664   0.161   1.212   4.326
  545SOL     OW13665   0.672   1.391   5.348
  545SOL    HW113666   0.594   1.341   5.386
  545SOL    HW213667   0.669   1.486   5.379
  546SOL     OW13668   1.705   1.487   4.828
  546SOL    HW113669   1.612   1.462   4.801
  546SOL    HW213670   1.731   1.437   4.910
  547SOL     OW13671   1.424   0.214   4.836
  547SOL    HW113672   1.476   0.149   4.891
  547SOL    HW213673   1.375   0.277   4.897
  548SOL     OW13674   0.618   1.567   5.008
  548SOL    HW113675   0.613   1.649   5.065
  548SOL    HW213676   0.707   1.564   4.963
  549SOL     OW13677   0.875   1.646   4.061
  549SOL    HW113678   0.798   1.611   4.007
  549SOL    HW213679   0.843   1.717   4.123
  550SOL     OW13680   0.230   0.628   5.699
  550SOL    HW113681   0.137   0.626   5.736
  550SOL    HW213682   0.231   0.589   5.607
  551SOL     OW13683   0.225   0.275   6.582
  551SOL    HW113684   0.260   0.258   6.674
  551SOL    HW213685   0.137   0.230   6.570
  552SOL     OW13686   1.555   1.511   6.289
  552SOL    HW113687   1.498   1.495   6.370
  552SOL    HW213688   1.496   1.521   6.209
  553SOL     OW13689   1.135   0.703   6.303
  553SOL    HW113690   1.192   0.781   6.278
  553SOL    HW213691   1.075   0.729   6.379
  554SOL     OW13692   1.755   0.607   5.817
  554SOL    HW113693   1.743   0.594   5.718
  554SOL    HW213694   1.725   0.526   5.866
  555SOL     OW13695   1.603   0.447   6.323
  555SOL    HW113696   1.529   0.493   6.273
  555SOL    HW213697   1.654   0.515   6.376
  556SOL     OW13698   0.240   1.091   6.472
  556SOL    HW113699   0.254   1.007   6.524
  556SOL    HW213700   0.185   1.155   6.527
  557SOL     OW13701   0.620   1.786   7.025
  557SOL    HW113702   0.528   1.769   7.060
  557SOL    HW213703   0.648   1.878   7.051
  558SOL     OW13704   0.606   0.964   5.709
  558SOL    HW113705   0.613   1.048   5.655
  558SOL    HW213706   0.652   0.977   5.797
  559SOL     OW13707   0.122   0.643   6.149
  559SOL    HW113708   0.077   0.555   6.166
  559SOL    HW213709   0.121   0.697   6.233
  560SOL     OW13710   1.842   1.767   5.945
  560SOL    HW113711   1.896   1.738   6.025
  560SOL    HW213712   1.872   1.857   5.916
  561SOL     OW13713   0.027   1.596   5.703
  561SOL    HW113714   0.008   1.500   5.724
  561SOL    HW213715  -0.006   1.654   5.778
  562SOL     OW13716   1.689   0.922   6.198
  562SOL    HW113717   1.784   0.893   6.206
  562SOL    HW213718   1.681   0.987   6.123
  563SOL     OW13719   1.641   1.108   6.018
  563SOL    HW113720   1.727   1.110   5.966
  563SOL    HW213721   1.655   1.155   6.106
  564SOL     OW13722   0.809   0.004   6.088
  564SOL    HW113723   0.849   0.095   6.079
  564SOL    HW213724   0.709   0.012   6.094
  565SOL     OW13725   0.197   0.976   6.850
  565SOL    HW113726   0.286   0.931   6.836
  565SOL    HW213727   0.124   0.911   6.831
  566SOL     OW13728   1.525   0.999   5.776
  566SOL    HW113729   1.462   0.923   5.789
  566SOL    HW213730   1.573   1.017   5.862
  567SOL     OW13731   1.466   1.417   6.539
  567SOL    HW113732   1.407   1.423   6.619
  567SOL    HW213733   1.451   1.329   6.493
  568SOL     OW13734   1.667   1.714   6.158
  568SOL    HW113735   1.626   1.691   6.070
  568SOL    HW213736   1.649   1.640   6.223
  569SOL     OW13737   0.598   0.729   5.856
  569SOL    HW113738   0.622   0.798   5.788
  569SOL    HW213739   0.520   0.762   5.910
  570SOL     OW13740   1.281   0.345   6.530
  570SOL    HW113741   1.195   0.295   6.517
  570SOL    HW213742   1.343   0.291   6.586
  571SOL     OW13743   1.576   1.662   5.893
  571SOL    HW113744   1.665   1.708   5.896
  571SOL    HW213745   1.555   1.638   5.798
  572SOL     OW13746   0.991   0.410   6.828
  572SOL    HW113747   0.914   0.444   6.882
  572SOL    HW213748   0.957   0.359   6.749
  573SOL     OW13749   1.041   0.701   6.015
  573SOL    HW113750   1.067   0.697   6.111
  573SOL    HW213751   0.956   0.650   6.001
  574SOL     OW13752   0.076   0.811   6.375
  574SOL    HW113753   0.175   0.799   6.384
  574SOL    HW213754   0.052   0.906   6.396
  575SOL     OW13755   0.130   1.821   7.157
  575SOL    HW113756   0.120   1.806   7.256
  575SOL    HW213757   0.044   1.857   7.121
  576SOL     OW13758   0.865   0.348   5.781
  576SOL    HW113759   0.924   0.411   5.732
  576SOL    HW213760   0.884   0.254   5.752
  577SOL     OW13761   1.362   1.144   6.131
  577SOL    HW113762   1.445   1.115   6.083
  577SOL    HW213763   1.313   1.211   6.075
  578SOL     OW13764   0.550   0.196   6.471
  578SOL    HW113765   0.545   0.191   6.571
  578SOL    HW213766   0.552   0.292   6.442
  579SOL     OW13767   1.008   1.456   6.063
  579SOL    HW113768   0.962   1.528   6.011
  579SOL    HW213769   1.004   1.476   6.161
  580SOL     OW13770   1.795   1.066   6.459
  580SOL    HW113771   1.733   1.051   6.383
  580SOL    HW213772   1.743   1.077   6.544
  581SOL     OW13773   0.321   0.943   5.828
  581SOL    HW113774   0.403   0.982   5.786
  581SOL    HW213775   0.294   0.861   5.779
  582SOL     OW13776   1.458   0.735   6.314
  582SOL    HW113777   1.453   0.670   6.389
  582SOL    HW213778   1.538   0.794   6.327
  583SOL     OW13779   1.111   1.776   5.823
  583SOL    HW113780   1.051   1.714   5.873
  583SOL    HW213781   1.142   1.732   5.738
  584SOL     OW13782   0.464   1.743   5.909
  584SOL    HW113783   0.497   1.782   5.995
  584SOL    HW213784   0.540   1.736   5.844
  585SOL     OW13785   1.400   0.107   6.012
  585SOL    HW113786   1.376   0.070   5.922
  585SOL    HW213787   1.499   0.123   6.016
  586SOL     OW13788   0.249   1.785   6.827
  586SOL    HW113789   0.306   1.720   6.877
  586SOL    HW213790   0.233   1.752   6.734
  587SOL     OW13791   0.940   1.698   6.490
  587SOL    HW113792   1.020   1.641   6.511
  587SOL    HW213793   0.891   1.658   6.413
  588SOL     OW13794   0.382   0.700   6.066
  588SOL    HW113795   0.427   0.610   6.063
  588SOL    HW213796   0.288   0.689   6.099
  589SOL     OW13797   0.614   0.122   5.703
  589SOL    HW113798   0.712   0.100   5.710
  589SOL    HW213799   0.583   0.105   5.610
  590SOL     OW13800   0.922   0.503   6.485
  590SOL    HW113801   0.897   0.494   6.389
  590SOL    HW213802   0.970   0.421   6.516
  591SOL     OW13803   0.539   0.064   6.098
  591SOL    HW113804   0.458   0.065   6.156
  591SOL    HW213805   0.542   0.147   6.043
  592SOL     OW13806   0.297   0.035   5.757
  592SOL    HW113807   0.346   0.119   5.736
  592SOL    HW213808   0.359  -0.030   5.802
  593SOL     OW13809   0.935   0.236   6.066
  593SOL    HW113810   0.887   0.277   5.988
  593SOL    HW213811   1.034   0.234   6.047
  594SOL     OW13812   1.227   1.570   6.379
  594SOL    HW113813   1.248   1.644   6.314
  594SOL    HW213814   1.295   1.570   6.452
  595SOL     OW13815   1.271   1.797   6.177
  595SOL    HW113816   1.315   1.861   6.113
  595SOL    HW213817   1.221   1.849   6.247
  596SOL     OW13818   1.032   0.549   5.602
  596SOL    HW113819   0.991   0.631   5.563
  596SOL    HW213820   1.096   0.575   5.675
  597SOL     OW13821   0.561   0.222   6.733
  597SOL    HW113822   0.599   0.138   6.770
  597SOL    HW213823   0.473   0.241   6.777
  598SOL     OW13824   0.866   0.454   6.228
  598SOL    HW113825   0.834   0.526   6.166
  598SOL    HW213826   0.890   0.373   6.175
  599SOL     OW13827   1.017   0.039   6.339
  599SOL    HW113828   0.945   0.044   6.270
  599SOL    HW213829   0.993  -0.030   6.408
  600SOL     OW13830   1.429   1.173   6.453
  600SOL    HW113831   1.374   1.089   6.446
  600SOL    HW213832   1.455   1.202   6.361
  601SOL     OW13833   1.466   0.590   6.578
  601SOL    HW113834   1.436   0.495   6.585
  601SOL    HW213835   1.539   0.606   6.644
  602SOL     OW13836   1.857   0.833   5.963
  602SOL    HW113837   1.899   0.769   6.027
  602SOL    HW213838   1.819   0.782   5.885
  603SOL     OW13839   0.488   1.385   5.760
  603SOL    HW113840   0.401   1.370   5.807
  603SOL    HW213841   0.471   1.411   5.665
  604SOL     OW13842   1.664   1.280   6.243
  604SOL    HW113843   1.763   1.288   6.257
  604SOL    HW213844   1.619   1.364   6.274
  605SOL     OW13845   0.527   0.256   5.914
  605SOL    HW113846   0.554   0.197   5.839
  605SOL    HW213847   0.527   0.351   5.883
  606SOL     OW13848   1.111   1.195   6.686
  606SOL    HW113849   1.071   1.239   6.767
  606SOL    HW213850   1.070   1.232   6.603
  607SOL     OW13851   1.638   1.099   6.665
  607SOL    HW113852   1.643   1.180   6.724
  607SOL    HW213853   1.552   1.101   6.614
  608SOL     OW13854   0.410   0.813   6.837
  608SOL    HW113855   0.496   0.825   6.887
  608SOL    HW213856   0.368   0.726   6.864
  609SOL     OW13857   1.274   0.386   6.848
  609SOL    HW113858   1.295   0.460   6.912
  609SOL    HW213859   1.185   0.403   6.805
  610SOL     OW13860   0.566   0.537   6.451
  610SOL    HW113861   0.578   0.603   6.377
  610SOL    HW213862   0.612   0.571   6.534
  611SOL     OW13863   1.252   1.348   5.974
  611SOL    HW113864   1.302   1.425   6.014
  611SOL    HW213865   1.157   1.350   6.006
  612SOL     OW13866   1.272   1.445   6.728
  612SOL    HW113867   1.319   1.458   6.815
  612SOL    HW213868   1.206   1.371   6.737
  613SOL     OW13869   1.582   0.639   6.058
  613SOL    HW113870   1.551   0.700   6.131
  613SOL    HW213871   1.632   0.691   5.989
  614SOL     OW13872   0.573   0.870   6.615
  614SOL    HW113873   0.617   0.959   6.606
  614SOL    HW213874   0.510   0.870   6.692
  615SOL     OW13875   1.360   0.862   6.631
  615SOL    HW113876   1.285   0.862   6.565
  615SOL    HW213877   1.397   0.770   6.640
  616SOL     OW13878   1.209   0.525   5.861
  616SOL    HW113879   1.222   0.441   5.915
  616SOL    HW213880   1.180   0.599   5.921
  617SOL     OW13881   0.307   0.213   6.817
  617SOL    HW113882   0.284   0.250   6.907
  617SOL    HW213883   0.277   0.118   6.811
  618SOL     OW13884   0.037   1.310   6.868
  618SOL    HW113885   0.090   1.261   6.936
  618SOL    HW213886   0.059   1.408   6.873
  619SOL     OW13887   0.732   0.634   6.650
  619SOL    HW113888   0.791   0.608   6.574
  619SOL    HW213889   0.704   0.730   6.639
  620SOL     OW13890   0.307   0.063   6.204
  620SOL    HW113891   0.296   0.157   6.237
  620SOL    HW213892   0.302   0.000   6.281
  621SOL     OW13893   1.622   0.367   5.960
  621SOL    HW113894   1.624   0.291   6.024
  621SOL    HW213895   1.574   0.444   6.000
  622SOL     OW13896   1.023   0.766   6.552
  622SOL    HW113897   1.038   0.787   6.648
  622SOL    HW213898   0.993   0.671   6.543
  623SOL     OW13899   1.540   0.274   5.711
  623SOL    HW113900   1.479   0.199   5.734
  623SOL    HW213901   1.562   0.326   5.794
  624SOL     OW13902   0.319   0.810   6.535
  624SOL    HW113903   0.412   0.846   6.540
  624SOL    HW213904   0.313   0.725   6.587
  625SOL     OW13905   0.339   0.509   6.592
  625SOL    HW113906   0.287   0.426   6.575
  625SOL    HW213907   0.416   0.514   6.528
  626SOL     OW13908   1.160   0.207   7.063
  626SOL    HW113909   1.160   0.271   7.140
  626SOL    HW213910   1.188   0.255   6.980
  627SOL     OW13911   0.008   1.326   5.786
  627SOL    HW113912  -0.085   1.347   5.755
  627SOL    HW213913   0.018   1.227   5.799
  628SOL     OW13914   0.088   1.801   6.513
  628SOL    HW113915   0.046   1.715   6.486
  628SOL    HW213916   0.182   1.804   6.479
  629SOL     OW13917   0.040   0.544   6.700
  629SOL    HW113918   0.125   0.511   6.659
  629SOL    HW213919   0.053   0.559   6.798
  630SOL     OW13920   0.815   0.572   5.911
  630SOL    HW113921   0.822   0.483   5.865
  630SOL    HW213922   0.721   0.606   5.903
  631SOL     OW13923   1.657   0.604   6.792
  631SOL    HW113924   1.619   0.535   6.854
  631SOL    HW213925   1.739   0.568   6.748
  632SOL     OW13926   0.671   0.464   6.855
  632SOL    HW113927   0.637   0.375   6.825
  632SOL    HW213928   0.697   0.518   6.775
  633SOL     OW13929   0.930   1.678   7.051
  633SOL    HW113930   0.906   1.660   6.956
  633SOL    HW213931   0.960   1.772   7.061
  634SOL     OW13932   0.473   0.500   5.777
  634SOL    HW113933   0.534   0.580   5.781
  634SOL    HW213934   0.378   0.531   5.784
  635SOL     OW13935   1.347   1.059   6.820
  635SOL    HW113936   1.371   0.996   6.746
  635SOL    HW213937   1.257   1.099   6.802
  636SOL     OW13938   1.302   0.855   5.895
  636SOL    HW113939   1.216   0.824   5.937
  636SOL    HW213940   1.298   0.841   5.796
  637SOL     OW13941   1.252   1.731   6.714
  637SOL    HW113942   1.336   1.736   6.660
  637SOL    HW213943   1.229   1.635   6.732
  638SOL     OW13944   0.083   1.258   6.608
  638SOL    HW113945   0.078   1.257   6.708
  638SOL    HW213946   0.000   1.217   6.570
  639SOL     OW13947   1.726   0.135   6.109
  639SOL    HW113948   1.799   0.118   6.042
  639SOL    HW213949   1.695   0.048   6.147
  640SOL     OW13950   1.388   1.573   6.063
  640SOL    HW113951   1.455   1.585   5.989
  640SOL    HW213952   1.348   1.662   6.086
  641SOL     OW13953   1.280   0.927   6.258
  641SOL    HW113954   1.340   0.846   6.260
  641SOL    HW213955   1.320   0.996   6.198
  642SOL     OW13956   0.672   1.616   5.740
  642SOL    HW113957   0.681   1.626   5.641
  642SOL    HW213958   0.632   1.527   5.761
  643SOL     OW13959   1.841   0.175   6.549
  643SOL    HW113960   1.880   0.090   6.513
  643SOL    HW213961   1.743   0.177   6.530
  644SOL     OW13962   0.263   0.326   6.306
  644SOL    HW113963   0.184   0.377   6.272
  644SOL    HW213964   0.254   0.311   6.404
  645SOL     OW13965   1.194   1.612   5.617
  645SOL    HW113966   1.200   1.519   5.654
  645SOL    HW213967   1.135   1.612   5.537
  646SOL     OW13968   0.916   0.910   5.877
  646SOL    HW113969   0.979   0.948   5.809
  646SOL    HW213970   0.956   0.827   5.916
  647SOL     OW13971   1.014   0.236   6.557
  647SOL    HW113972   1.006   0.200   6.464
  647SOL    HW213973   1.012   0.160   6.622
  648SOL     OW13974   1.709   0.385   6.967
  648SOL    HW113975   1.782   0.454   6.971
  648SOL    HW213976   1.737   0.310   6.908
  649SOL     OW13977   0.075   0.345   5.619
  649SOL    HW113978  -0.017   0.317   5.590
  649SOL    HW213979   0.106   0.422   5.563
  650SOL     OW13980   0.072   0.166   5.904
  650SOL    HW113981   0.055   0.249   5.850
  650SOL    HW213982   0.162   0.129   5.882
  651SOL     OW13983   1.183   1.335   5.705
  651SOL    HW113984   1.084   1.324   5.707
  651SOL    HW213985   1.217   1.350   5.798
  652SOL     OW13986   1.493   1.767   6.545
  652SOL    HW113987   1.526   1.831   6.476
  652SOL    HW213988   1.559   1.761   6.620
  653SOL     OW13989   1.450   1.220   7.219
  653SOL    HW113990   1.441   1.210   7.318
  653SOL    HW213991   1.546   1.213   7.193
  654SOL     OW13992   1.674   0.883   6.840
  654SOL    HW113993   1.647   0.794   6.803
  654SOL    HW213994   1.675   0.951   6.767
  655SOL     OW13995   1.225   0.325   6.035
  655SOL    HW113996   1.290   0.251   6.024
  655SOL    HW213997   1.245   0.375   6.119
  656SOL     OW13998   0.594   0.745   6.238
  656SOL    HW113999   0.644   0.830   6.219
  656SOL    HW214000   0.506   0.747   6.190
  657SOL     OW14001   1.730   0.934   7.103
  657SOL    HW114002   1.768   1.025   7.118
  657SOL    HW214003   1.722   0.917   7.004
  658SOL     OW14004   0.859   1.374   5.602
  658SOL    HW114005   0.813   1.389   5.690
  658SOL    HW214006   0.903   1.459   5.572
  659SOL     OW14007   0.661   1.790   6.539
  659SOL    HW114008   0.615   1.878   6.526
  659SOL    HW214009   0.760   1.802   6.532
  660SOL     OW14010   0.079   1.240   6.239
  660SOL    HW114011   0.078   1.193   6.327
  660SOL    HW214012   0.161   1.212   6.188
  661SOL     OW14013   1.824   0.192   6.813
  661SOL    HW114014   1.820   0.102   6.857
  661SOL    HW214015   1.827   0.181   6.714
  662SOL     OW14016   0.428   0.424   6.106
  662SOL    HW114017   0.458   0.352   6.044
  662SOL    HW214018   0.389   0.384   6.189
  663SOL     OW14019   0.812   1.586   6.273
  663SOL    HW114020   0.844   1.596   6.179
  663SOL    HW214021   0.733   1.524   6.275
  664SOL     OW14022   1.424   0.214   6.698
  664SOL    HW114023   1.476   0.149   6.753
  664SOL    HW214024   1.375   0.277   6.759
  665SOL     OW14025   1.001   0.034   6.740
  665SOL    HW114026   0.938  -0.038   6.709
  665SOL    HW214027   1.094  -0.002   6.740
  666SOL     OW14028   1.352   0.052   5.754
  666SOL    HW114029   1.387   0.011   5.670
  666SOL    HW214030   1.262   0.014   5.774
  667SOL     OW14031   1.300   0.453   6.277
  667SOL    HW114032   1.241   0.533   6.281
  667SOL    HW214033   1.315   0.418   6.370
  668SOL     OW14034   1.593   0.221   6.468
  668SOL    HW114035   1.509   0.220   6.522
  668SOL    HW214036   1.595   0.304   6.412
  669SOL     OW14037   0.039   1.077   5.886
  669SOL    HW114038   0.138   1.066   5.877
  669SOL    HW214039  -0.001   0.991   5.918
  670SOL     OW14040   0.875   1.646   5.923
  670SOL    HW114041   0.798   1.611   5.869
  670SOL    HW214042   0.843   1.717   5.985
  671SOL     OW14043   0.230   2.490   0.113
  671SOL    HW114044   0.137   2.488   0.150
  671SOL    HW214045   0.231   2.451   0.021
  672SOL     OW14046   0.225   2.137   0.996
  672SOL    HW114047   0.260   2.120   1.088
  672SOL    HW214048   0.137   2.092   0.984
  673SOL     OW14049   0.019   2.230   0.647
  673SOL    HW114050  -0.063   2.273   0.686
  673SOL    HW214051  -0.009   2.157   0.584
  674SOL     OW14052   0.569   3.137   1.165
  674SOL    HW114053   0.476   3.130   1.128
  674SOL    HW214054   0.580   3.226   1.209
  675SOL     OW14055   1.135   2.565   0.717
  675SOL    HW114056   1.192   2.643   0.692
  675SOL    HW214057   1.075   2.591   0.793
  676SOL     OW14058   1.755   2.469   0.231
  676SOL    HW114059   1.743   2.456   0.132
  676SOL    HW214060   1.725   2.388   0.280
  677SOL     OW14061   0.335   3.297   1.061
  677SOL    HW114062   0.257   3.266   1.008
  677SOL    HW214063   0.393   3.355   1.004
  678SOL     OW14064   1.460   3.367   1.339
  678SOL    HW114065   1.484   3.461   1.365
  678SOL    HW214066   1.444   3.313   1.421
  679SOL     OW14067   0.438   2.254   1.499
  679SOL    HW114068   0.520   2.198   1.508
  679SOL    HW214069   0.357   2.196   1.503
  680SOL     OW14070   1.603   2.309   0.737
  680SOL    HW114071   1.529   2.355   0.687
  680SOL    HW214072   1.654   2.377   0.790
  681SOL     OW14073   0.231   3.575   0.483
  681SOL    HW114074   0.265   3.652   0.537
  681SOL    HW214075   0.275   3.575   0.393
  682SOL     OW14076   0.230   3.296   0.538
  682SOL    HW114077   0.204   3.392   0.538
  682SOL    HW214078   0.159   3.242   0.583
  683SOL     OW14079   0.240   2.953   0.886
  683SOL    HW114080   0.254   2.869   0.938
  683SOL    HW214081   0.185   3.017   0.941
  684SOL     OW14082   0.606   2.826   0.123
  684SOL    HW114083   0.613   2.910   0.069
  684SOL    HW214084   0.652   2.839   0.211
  685SOL     OW14085   0.122   2.505   0.563
  685SOL    HW114086   0.077   2.417   0.580
  685SOL    HW214087   0.121   2.559   0.647
  686SOL     OW14088   1.842   3.629   0.359
  686SOL    HW114089   1.896   3.600   0.439
  686SOL    HW214090   1.872   3.719   0.330
  687SOL     OW14091   0.027   3.458   0.117
  687SOL    HW114092   0.008   3.362   0.138
  687SOL    HW214093  -0.006   3.516   0.192
  688SOL     OW14094   1.689   2.784   0.612
  688SOL    HW114095   1.784   2.755   0.620
  688SOL    HW214096   1.681   2.849   0.537
  689SOL     OW14097   1.641   2.970   0.432
  689SOL    HW114098   1.727   2.972   0.380
  689SOL    HW214099   1.655   3.017   0.520
  690SOL     OW14100   0.809   1.866   0.502
  690SOL    HW114101   0.849   1.957   0.493
  690SOL    HW214102   0.709   1.874   0.508
  691SOL     OW14103   1.525   2.861   0.190
  691SOL    HW114104   1.462   2.785   0.203
  691SOL    HW214105   1.573   2.879   0.276
  692SOL     OW14106   1.667   3.576   0.572
  692SOL    HW114107   1.626   3.553   0.484
  692SOL    HW214108   1.649   3.502   0.637
  693SOL     OW14109   0.598   2.591   0.270
  693SOL    HW114110   0.622   2.660   0.202
  693SOL    HW214111   0.520   2.624   0.324
  694SOL     OW14112   1.281   2.207   0.944
  694SOL    HW114113   1.195   2.157   0.931
  694SOL    HW214114   1.343   2.153   1.000
  695SOL     OW14115   1.576   3.524   0.307
  695SOL    HW114116   1.665   3.570   0.310
  695SOL    HW214117   1.555   3.500   0.212
  696SOL     OW14118   0.807   2.467   1.465
  696SOL    HW114119   0.760   2.464   1.554
  696SOL    HW214120   0.756   2.412   1.399
  697SOL     OW14121   0.973   2.752   1.572
  697SOL    HW114122   1.019   2.668   1.543
  697SOL    HW214123   0.917   2.786   1.497
  698SOL     OW14124   0.076   2.673   0.789
  698SOL    HW114125   0.175   2.661   0.798
  698SOL    HW214126   0.052   2.768   0.810
  699SOL     OW14127   0.130   3.683   1.571
  699SOL    HW114128   0.120   3.668   1.670
  699SOL    HW214129   0.044   3.719   1.535
  700SOL     OW14130   0.865   2.210   0.195
  700SOL    HW114131   0.924   2.273   0.146
  700SOL    HW214132   0.884   2.116   0.166
  701SOL     OW14133   1.719   2.447   1.831
  701SOL    HW114134   1.693   2.536   1.795
  701SOL    HW214135   1.717   2.379   1.758
  702SOL     OW14136   1.362   3.006   0.545
  702SOL    HW114137   1.445   2.977   0.497
  702SOL    HW214138   1.313   3.073   0.489
  703SOL     OW14139   0.550   2.058   0.885
  703SOL    HW114140   0.545   2.053   0.985
  703SOL    HW214141   0.552   2.154   0.856
  704SOL     OW14142   0.351   3.663   0.853
  704SOL    HW114143   0.401   3.577   0.859
  704SOL    HW214144   0.416   3.740   0.850
  705SOL     OW14145   1.795   2.928   0.873
  705SOL    HW114146   1.733   2.913   0.797
  705SOL    HW214147   1.743   2.939   0.958
  706SOL     OW14148   0.321   2.805   0.242
  706SOL    HW114149   0.403   2.844   0.200
  706SOL    HW214150   0.294   2.723   0.193
  707SOL     OW14151   1.458   2.597   0.728
  707SOL    HW114152   1.453   2.532   0.803
  707SOL    HW214153   1.538   2.656   0.741
  708SOL     OW14154   1.111   3.638   0.237
  708SOL    HW114155   1.051   3.576   0.287
  708SOL    HW214156   1.142   3.594   0.152
  709SOL     OW14157   1.632   3.239   0.081
  709SOL    HW114158   1.600   3.333   0.071
  709SOL    HW214159   1.556   3.176   0.069
  710SOL     OW14160   0.464   3.605   0.323
  710SOL    HW114161   0.497   3.644   0.409
  710SOL    HW214162   0.540   3.598   0.258
  711SOL     OW14163   1.400   1.969   0.426
  711SOL    HW114164   1.376   1.932   0.336
  711SOL    HW214165   1.499   1.985   0.430
  712SOL     OW14166   0.940   3.560   0.904
  712SOL    HW114167   1.020   3.503   0.925
  712SOL    HW214168   0.891   3.520   0.827
  713SOL     OW14169   0.382   2.562   0.480
  713SOL    HW114170   0.427   2.472   0.477
  713SOL    HW214171   0.288   2.551   0.513
  714SOL     OW14172   0.803   3.264   0.924
  714SOL    HW114173   0.893   3.278   0.882
  714SOL    HW214174   0.732   3.266   0.853
  715SOL     OW14175   0.922   2.365   0.899
  715SOL    HW114176   0.897   2.356   0.803
  715SOL    HW214177   0.970   2.283   0.930
  716SOL     OW14178   0.539   1.926   0.512
  716SOL    HW114179   0.458   1.927   0.570
  716SOL    HW214180   0.542   2.009   0.457
  717SOL     OW14181   1.434   3.050   0.041
  717SOL    HW114182   1.466   2.974   0.098
  717SOL    HW214183   1.342   3.077   0.071
  718SOL     OW14184   0.297   1.897   0.171
  718SOL    HW114185   0.346   1.981   0.150
  718SOL    HW214186   0.359   1.832   0.216
  719SOL     OW14187   0.935   2.098   0.480
  719SOL    HW114188   0.887   2.139   0.402
  719SOL    HW214189   1.034   2.096   0.461
  720SOL     OW14190   1.076   2.545   1.464
  720SOL    HW114191   0.996   2.484   1.467
  720SOL    HW214192   1.157   2.492   1.440
  721SOL     OW14193   1.271   3.659   0.591
  721SOL    HW114194   1.315   3.723   0.527
  721SOL    HW214195   1.221   3.711   0.661
  722SOL     OW14196   1.032   2.411   0.016
  722SOL    HW114197   0.991   2.493  -0.023
  722SOL    HW214198   1.096   2.437   0.089
  723SOL     OW14199   0.561   2.084   1.147
  723SOL    HW114200   0.599   2.000   1.184
  723SOL    HW214201   0.473   2.103   1.191
  724SOL     OW14202   0.866   2.316   0.642
  724SOL    HW114203   0.834   2.388   0.580
  724SOL    HW214204   0.890   2.235   0.589
  725SOL     OW14205   1.017   1.901   0.753
  725SOL    HW114206   0.945   1.906   0.684
  725SOL    HW214207   0.993   1.832   0.822
  726SOL     OW14208   1.429   3.035   0.867
  726SOL    HW114209   1.374   2.951   0.860
  726SOL    HW214210   1.455   3.064   0.775
  727SOL     OW14211   1.466   2.452   0.992
  727SOL    HW114212   1.436   2.357   0.999
  727SOL    HW214213   1.539   2.468   1.058
  728SOL     OW14214   1.857   2.695   0.377
  728SOL    HW114215   1.899   2.631   0.441
  728SOL    HW214216   1.819   2.644   0.299
  729SOL     OW14217   0.488   3.247   0.174
  729SOL    HW114218   0.401   3.232   0.221
  729SOL    HW214219   0.471   3.273   0.079
  730SOL     OW14220   1.664   3.142   0.657
  730SOL    HW114221   1.763   3.150   0.671
  730SOL    HW214222   1.619   3.226   0.688
  731SOL     OW14223   1.390   2.437   0.078
  731SOL    HW114224   1.336   2.416   0.159
  731SOL    HW214225   1.481   2.396   0.087
  732SOL     OW14226   0.527   2.118   0.328
  732SOL    HW114227   0.554   2.059   0.253
  732SOL    HW214228   0.527   2.213   0.297
  733SOL     OW14229   1.111   3.057   1.100
  733SOL    HW114230   1.071   3.101   1.181
  733SOL    HW214231   1.070   3.094   1.017
  734SOL     OW14232   0.367   2.962   0.501
  734SOL    HW114233   0.360   3.045   0.445
  734SOL    HW214234   0.371   2.882   0.441
  735SOL     OW14235   0.566   2.399   0.865
  735SOL    HW114236   0.578   2.465   0.791
  735SOL    HW214237   0.612   2.433   0.948
  736SOL     OW14238   1.272   3.307   1.142
  736SOL    HW114239   1.319   3.320   1.229
  736SOL    HW214240   1.206   3.233   1.151
  737SOL     OW14241   1.582   2.501   0.472
  737SOL    HW114242   1.551   2.562   0.545
  737SOL    HW214243   1.632   2.553   0.403
  738SOL     OW14244   1.013   1.967   1.770
  738SOL    HW114245   1.019   2.052   1.718
  738SOL    HW214246   1.045   1.891   1.713
  739SOL     OW14247   1.360   2.724   1.045
  739SOL    HW114248   1.285   2.724   0.979
  739SOL    HW214249   1.397   2.632   1.054
  740SOL     OW14250   1.209   2.387   0.275
  740SOL    HW114251   1.222   2.303   0.329
  740SOL    HW214252   1.180   2.461   0.335
  741SOL     OW14253   0.307   2.075   1.231
  741SOL    HW114254   0.284   2.112   1.321
  741SOL    HW214255   0.277   1.980   1.225
  742SOL     OW14256   0.307   1.925   0.618
  742SOL    HW114257   0.296   2.019   0.651
  742SOL    HW214258   0.302   1.862   0.695
  743SOL     OW14259   1.622   2.229   0.374
  743SOL    HW114260   1.624   2.153   0.438
  743SOL    HW214261   1.574   2.306   0.414
  744SOL     OW14262   1.023   2.628   0.966
  744SOL    HW114263   1.038   2.649   1.062
  744SOL    HW214264   0.993   2.533   0.957
  745SOL     OW14265   0.350   2.760   1.804
  745SOL    HW114266   0.426   2.804   1.852
  745SOL    HW214267   0.385   2.713   1.722
  746SOL     OW14268   1.540   2.136   0.125
  746SOL    HW114269   1.479   2.061   0.148
  746SOL    HW214270   1.562   2.188   0.208
  747SOL     OW14271   1.303   2.700   0.042
  747SOL    HW114272   1.337   2.607   0.057
  747SOL    HW214273   1.321   2.727  -0.053
  748SOL     OW14274   1.068   3.195   0.849
  748SOL    HW114275   1.075   3.111   0.794
  748SOL    HW214276   1.130   3.264   0.813
  749SOL     OW14277   0.319   2.672   0.949
  749SOL    HW114278   0.412   2.708   0.954
  749SOL    HW214279   0.313   2.587   1.001
  750SOL     OW14280   0.339   2.371   1.006
  750SOL    HW114281   0.287   2.288   0.989
  750SOL    HW214282   0.416   2.376   0.942
  751SOL     OW14283   0.008   3.188   0.200
  751SOL    HW114284  -0.085   3.209   0.169
  751SOL    HW214285   0.018   3.089   0.213
  752SOL     OW14286   0.088   3.663   0.927
  752SOL    HW114287   0.046   3.577   0.900
  752SOL    HW214288   0.182   3.666   0.893
  753SOL     OW14289   0.504   3.430   0.910
  753SOL    HW114290   0.570   3.504   0.919
  753SOL    HW214291   0.548   3.351   0.868
  754SOL     OW14292   1.002   2.658   1.238
  754SOL    HW114293   1.043   2.626   1.324
  754SOL    HW214294   0.906   2.631   1.235
  755SOL     OW14295   0.040   2.406   1.114
  755SOL    HW114296   0.125   2.373   1.073
  755SOL    HW214297   0.053   2.421   1.212
  756SOL     OW14298   0.815   2.434   0.325
  756SOL    HW114299   0.822   2.345   0.279
  756SOL    HW214300   0.721   2.468   0.317
  757SOL     OW14301   1.657   2.466   1.206
  757SOL    HW114302   1.619   2.397   1.268
  757SOL    HW214303   1.739   2.430   1.162
  758SOL     OW14304   0.671   2.326   1.269
  758SOL    HW114305   0.637   2.237   1.239
  758SOL    HW214306   0.697   2.380   1.189
  759SOL     OW14307   0.473   2.362   0.191
  759SOL    HW114308   0.534   2.442   0.195
  759SOL    HW214309   0.378   2.393   0.198
  760SOL     OW14310   1.347   2.921   1.234
  760SOL    HW114311   1.371   2.858   1.160
  760SOL    HW214312   1.257   2.961   1.216
  761SOL     OW14313   1.302   2.717   0.309
  761SOL    HW114314   1.216   2.686   0.351
  761SOL    HW214315   1.298   2.703   0.210
  762SOL     OW14316   1.759   3.609   1.154
  762SOL    HW114317   1.820   3.639   1.081
  762SOL    HW214318   1.721   3.520   1.132
  763SOL     OW14319   0.083   3.120   1.022
  763SOL    HW114320   0.078   3.119   1.122
  763SOL    HW214321   0.000   3.079   0.984
  764SOL     OW14322   0.903   1.948   0.133
  764SOL    HW114323   0.954   1.949   0.047
  764SOL    HW214324   0.959   1.906   0.204
  765SOL     OW14325   1.726   1.997   0.523
  765SOL    HW114326   1.799   1.980   0.456
  765SOL    HW214327   1.695   1.910   0.561
  766SOL     OW14328   1.388   3.435   0.477
  766SOL    HW114329   1.455   3.447   0.403
  766SOL    HW214330   1.348   3.524   0.500
  767SOL     OW14331   1.280   2.789   0.672
  767SOL    HW114332   1.340   2.708   0.674
  767SOL    HW214333   1.320   2.858   0.612
  768SOL     OW14334   0.830   3.135   1.422
  768SOL    HW114335   0.825   3.168   1.517
  768SOL    HW214336   0.744   3.154   1.376
  769SOL     OW14337   0.672   3.478   0.154
  769SOL    HW114338   0.681   3.488   0.055
  769SOL    HW214339   0.632   3.389   0.175
  770SOL     OW14340   1.841   2.037   0.963
  770SOL    HW114341   1.880   1.952   0.927
  770SOL    HW214342   1.743   2.039   0.944
  771SOL     OW14343   0.263   2.188   0.720
  771SOL    HW114344   0.184   2.239   0.686
  771SOL    HW214345   0.254   2.173   0.818
  772SOL     OW14346   1.194   3.474   0.031
  772SOL    HW114347   1.200   3.381   0.068
  772SOL    HW214348   1.135   3.474  -0.049
  773SOL     OW14349   0.822   2.864   1.372
  773SOL    HW114350   0.862   2.863   1.280
  773SOL    HW214351   0.832   2.956   1.412
  774SOL     OW14352   1.504   3.469   0.044
  774SOL    HW114353   1.412   3.506   0.051
  774SOL    HW214354   1.542   3.489  -0.046
  775SOL     OW14355   1.014   2.098   0.971
  775SOL    HW114356   1.006   2.062   0.878
  775SOL    HW214357   1.012   2.022   1.036
  776SOL     OW14358   1.709   2.247   1.381
  776SOL    HW114359   1.782   2.316   1.385
  776SOL    HW214360   1.737   2.172   1.322
  777SOL     OW14361   0.255   3.210   0.290
  777SOL    HW114362   0.159   3.211   0.263
  777SOL    HW214363   0.267   3.263   0.374
  778SOL     OW14364   0.075   2.207   0.033
  778SOL    HW114365  -0.017   2.179   0.004
  778SOL    HW214366   0.106   2.284  -0.023
  779SOL     OW14367   0.072   2.028   0.318
  779SOL    HW114368   0.055   2.111   0.264
  779SOL    HW214369   0.162   1.991   0.296
  780SOL     OW14370   1.183   3.197   0.119
  780SOL    HW114371   1.084   3.186   0.121
  780SOL    HW214372   1.217   3.212   0.212
  781SOL     OW14373   1.674   2.745   1.254
  781SOL    HW114374   1.647   2.656   1.217
  781SOL    HW214375   1.675   2.813   1.181
  782SOL     OW14376   1.225   2.187   0.449
  782SOL    HW114377   1.290   2.113   0.438
  782SOL    HW214378   1.245   2.237   0.533
  783SOL     OW14379   0.859   3.236   0.016
  783SOL    HW114380   0.813   3.251   0.104
  783SOL    HW214381   0.903   3.321  -0.014
  784SOL     OW14382   0.661   3.652   0.953
  784SOL    HW114383   0.615   3.740   0.940
  784SOL    HW214384   0.760   3.664   0.946
  785SOL     OW14385   1.083   2.846   0.087
  785SOL    HW114386   1.060   2.899   0.005
  785SOL    HW214387   1.164   2.790   0.068
  786SOL     OW14388   1.861   3.431   0.851
  786SOL    HW114389   1.790   3.419   0.781
  786SOL    HW214390   1.862   3.352   0.911
  787SOL     OW14391   0.079   3.102   0.653
  787SOL    HW114392   0.078   3.055   0.741
  787SOL    HW214393   0.161   3.074   0.602
  788SOL     OW14394   1.824   2.054   1.227
  788SOL    HW114395   1.820   1.964   1.271
  788SOL    HW214396   1.827   2.043   1.128
  789SOL     OW14397   0.428   2.286   0.520
  789SOL    HW114398   0.458   2.214   0.458
  789SOL    HW214399   0.389   2.246   0.603
  790SOL     OW14400   1.424   2.076   1.112
  790SOL    HW114401   1.476   2.011   1.167
  790SOL    HW214402   1.375   2.139   1.173
  791SOL     OW14403   0.770   3.192   0.301
  791SOL    HW114404   0.724   3.105   0.318
  791SOL    HW214405   0.861   3.189   0.342
  792SOL     OW14406   1.352   1.914   0.168
  792SOL    HW114407   1.387   1.873   0.084
  792SOL    HW214408   1.262   1.876   0.188
  793SOL     OW14409   1.300   2.315   0.691
  793SOL    HW114410   1.241   2.395   0.695
  793SOL    HW214411   1.315   2.280   0.784
  794SOL     OW14412   1.593   2.083   0.882
  794SOL    HW114413   1.509   2.082   0.936
  794SOL    HW214414   1.595   2.166   0.826
  795SOL     OW14415   0.039   2.939   0.300
  795SOL    HW114416   0.138   2.928   0.291
  795SOL    HW214417  -0.001   2.853   0.332
  796SOL     OW14418   0.230   2.490   1.975
  796SOL    HW114419   0.137   2.488   2.012
  796SOL    HW214420   0.231   2.451   1.883
  797SOL     OW14421   0.685   2.874   2.527
  797SOL    HW114422   0.754   2.858   2.597
  797SOL    HW214423   0.612   2.931   2.565
  798SOL     OW14424   0.335   3.297   2.923
  798SOL    HW114425   0.257   3.266   2.870
  798SOL    HW214426   0.393   3.355   2.866
  799SOL     OW14427   0.231   3.575   2.345
  799SOL    HW114428   0.265   3.652   2.399
  799SOL    HW214429   0.275   3.575   2.255
  800SOL     OW14430   1.127   3.203   3.552
  800SOL    HW114431   1.174   3.203   3.640
  800SOL    HW214432   1.079   3.116   3.541
  801SOL     OW14433   0.230   3.296   2.400
  801SOL    HW114434   0.204   3.392   2.400
  801SOL    HW214435   0.159   3.242   2.445
  802SOL     OW14436   1.641   2.970   2.294
  802SOL    HW114437   1.727   2.972   2.242
  802SOL    HW214438   1.655   3.017   2.382
  803SOL     OW14439   1.525   2.861   2.052
  803SOL    HW114440   1.462   2.785   2.065
  803SOL    HW214441   1.573   2.879   2.138
  804SOL     OW14442   1.576   3.524   2.169
  804SOL    HW114443   1.665   3.570   2.172
  804SOL    HW214444   1.555   3.500   2.074
  805SOL     OW14445   0.991   2.272   3.104
  805SOL    HW114446   0.914   2.306   3.158
  805SOL    HW214447   0.957   2.221   3.025
  806SOL     OW14448   0.550   2.058   2.747
  806SOL    HW114449   0.545   2.053   2.847
  806SOL    HW214450   0.552   2.154   2.718
  807SOL     OW14451   0.351   3.663   2.715
  807SOL    HW114452   0.401   3.577   2.721
  807SOL    HW214453   0.416   3.740   2.712
  808SOL     OW14454   0.461   3.128   3.589
  808SOL    HW114455   0.411   3.129   3.503
  808SOL    HW214456   0.398   3.110   3.665
  809SOL     OW14457   1.111   3.638   2.099
  809SOL    HW114458   1.051   3.576   2.149
  809SOL    HW214459   1.142   3.594   2.014
  810SOL     OW14460   0.249   3.647   3.103
  810SOL    HW114461   0.306   3.582   3.153
  810SOL    HW214462   0.233   3.614   3.010
  811SOL     OW14463   0.781   2.126   3.611
  811SOL    HW114464   0.848   2.065   3.654
  811SOL    HW214465   0.708   2.145   3.676
  812SOL     OW14466   0.888   3.376   3.057
  812SOL    HW114467   0.865   3.351   2.963
  812SOL    HW214468   0.949   3.307   3.096
  813SOL     OW14469   0.922   2.365   2.761
  813SOL    HW114470   0.897   2.356   2.665
  813SOL    HW214471   0.970   2.283   2.792
  814SOL     OW14472   1.076   2.545   3.326
  814SOL    HW114473   0.996   2.484   3.329
  814SOL    HW214474   1.157   2.492   3.302
  815SOL     OW14475   1.227   3.432   2.655
  815SOL    HW114476   1.248   3.506   2.590
  815SOL    HW214477   1.295   3.432   2.728
  816SOL     OW14478   1.032   2.411   1.878
  816SOL    HW114479   0.991   2.493   1.839
  816SOL    HW214480   1.096   2.437   1.951
  817SOL     OW14481   0.866   2.316   2.504
  817SOL    HW114482   0.834   2.388   2.442
  817SOL    HW214483   0.890   2.235   2.451
  818SOL     OW14484   1.429   3.035   2.729
  818SOL    HW114485   1.374   2.951   2.722
  818SOL    HW214486   1.455   3.064   2.637
  819SOL     OW14487   1.638   2.961   2.941
  819SOL    HW114488   1.643   3.042   3.000
  819SOL    HW214489   1.552   2.963   2.890
  820SOL     OW14490   0.915   1.951   3.264
  820SOL    HW114491   0.940   1.931   3.169
  820SOL    HW214492   0.987   2.007   3.306
  821SOL     OW14493   0.410   2.675   3.113
  821SOL    HW114494   0.496   2.687   3.163
  821SOL    HW214495   0.368   2.588   3.140
  822SOL     OW14496   0.064   3.426   3.193
  822SOL    HW114497   0.018   3.508   3.159
  822SOL    HW214498   0.162   3.445   3.202
  823SOL     OW14499   0.402   2.613   3.460
  823SOL    HW114500   0.470   2.668   3.413
  823SOL    HW214501   0.442   2.525   3.487
  824SOL     OW14502   1.587   2.641   3.532
  824SOL    HW114503   1.495   2.679   3.527
  824SOL    HW214504   1.647   2.688   3.467
  825SOL     OW14505   1.013   1.967   3.632
  825SOL    HW114506   1.019   2.052   3.580
  825SOL    HW214507   1.045   1.891   3.575
  826SOL     OW14508   0.504   1.912   3.602
  826SOL    HW114509   0.462   1.855   3.532
  826SOL    HW214510   0.438   1.981   3.634
  827SOL     OW14511   0.573   2.732   2.891
  827SOL    HW114512   0.617   2.821   2.882
  827SOL    HW214513   0.510   2.732   2.968
  828SOL     OW14514   0.037   3.172   3.144
  828SOL    HW114515   0.090   3.123   3.212
  828SOL    HW214516   0.059   3.270   3.149
  829SOL     OW14517   1.728   2.797   3.716
  829SOL    HW114518   1.682   2.790   3.627
  829SOL    HW214519   1.666   2.841   3.782
  830SOL     OW14520   0.980   3.435   3.562
  830SOL    HW114521   0.960   3.479   3.474
  830SOL    HW214522   1.019   3.344   3.546
  831SOL     OW14523   1.859   3.380   3.467
  831SOL    HW114524   1.873   3.407   3.372
  831SOL    HW214525   1.942   3.402   3.520
  832SOL     OW14526   0.319   2.672   2.811
  832SOL    HW114527   0.412   2.708   2.816
  832SOL    HW214528   0.313   2.587   2.863
  833SOL     OW14529   0.088   3.663   2.789
  833SOL    HW114530   0.046   3.577   2.762
  833SOL    HW214531   0.182   3.666   2.755
  834SOL     OW14532   0.504   3.430   2.772
  834SOL    HW114533   0.570   3.504   2.781
  834SOL    HW214534   0.548   3.351   2.730
  835SOL     OW14535   1.002   2.658   3.100
  835SOL    HW114536   1.043   2.626   3.186
  835SOL    HW214537   0.906   2.631   3.097
  836SOL     OW14538   0.040   2.406   2.976
  836SOL    HW114539   0.125   2.373   2.935
  836SOL    HW214540   0.053   2.421   3.074
  837SOL     OW14541   1.657   2.466   3.068
  837SOL    HW114542   1.619   2.397   3.130
  837SOL    HW214543   1.739   2.430   3.024
  838SOL     OW14544   0.473   2.362   2.053
  838SOL    HW114545   0.534   2.442   2.057
  838SOL    HW214546   0.378   2.393   2.060
  839SOL     OW14547   1.347   2.921   3.096
  839SOL    HW114548   1.371   2.858   3.022
  839SOL    HW214549   1.257   2.961   3.078
  840SOL     OW14550   0.083   3.120   2.884
  840SOL    HW114551   0.078   3.119   2.984
  840SOL    HW214552   0.000   3.079   2.846
  841SOL     OW14553   1.388   3.435   2.339
  841SOL    HW114554   1.455   3.447   2.265
  841SOL    HW214555   1.348   3.524   2.362
  842SOL     OW14556   1.280   2.789   2.534
  842SOL    HW114557   1.340   2.708   2.536
  842SOL    HW214558   1.320   2.858   2.474
  843SOL     OW14559   0.916   2.772   2.153
  843SOL    HW114560   0.979   2.810   2.085
  843SOL    HW214561   0.956   2.689   2.192
  844SOL     OW14562   1.614   3.154   3.151
  844SOL    HW114563   1.674   3.157   3.231
  844SOL    HW214564   1.539   3.218   3.164
  845SOL     OW14565   1.014   2.098   2.833
  845SOL    HW114566   1.006   2.062   2.740
  845SOL    HW214567   1.012   2.022   2.898
  846SOL     OW14568   0.255   3.210   2.152
  846SOL    HW114569   0.159   3.211   2.125
  846SOL    HW214570   0.267   3.263   2.236
  847SOL     OW14571   0.105   2.875   3.588
  847SOL    HW114572   0.028   2.842   3.642
  847SOL    HW214573   0.190   2.845   3.630
  848SOL     OW14574   0.613   2.704   3.293
  848SOL    HW114575   0.669   2.785   3.276
  848SOL    HW214576   0.672   2.624   3.296
  849SOL     OW14577   0.716   2.427   3.570
  849SOL    HW114578   0.735   2.492   3.644
  849SOL    HW214579   0.776   2.347   3.579
  850SOL     OW14580   0.594   2.607   2.514
  850SOL    HW114581   0.644   2.692   2.495
  850SOL    HW214582   0.506   2.609   2.466
  851SOL     OW14583   0.661   3.652   2.815
  851SOL    HW114584   0.615   3.740   2.802
  851SOL    HW214585   0.760   3.664   2.808
  852SOL     OW14586   0.859   2.818   2.723
  852SOL    HW114587   0.913   2.749   2.771
  852SOL    HW214588   0.827   2.887   2.789
  853SOL     OW14589   0.221   3.176   3.706
  853SOL    HW114590   0.156   3.103   3.685
  853SOL    HW214591   0.225   3.190   3.804
  854SOL     OW14592   0.672   3.253   3.486
  854SOL    HW114593   0.594   3.203   3.524
  854SOL    HW214594   0.669   3.348   3.517
  855SOL     OW14595   0.317   2.409   3.142
  855SOL    HW114596   0.355   2.350   3.214
  855SOL    HW214597   0.357   2.383   3.054
  856SOL     OW14598   1.001   1.896   3.016
  856SOL    HW114599   0.938   1.824   2.985
  856SOL    HW214600   1.094   1.860   3.016
  857SOL     OW14601   0.618   3.429   3.146
  857SOL    HW114602   0.613   3.511   3.203
  857SOL    HW214603   0.707   3.426   3.101
  858SOL     OW14604   0.039   2.939   2.162
  858SOL    HW114605   0.138   2.928   2.153
  858SOL    HW214606  -0.001   2.853   2.194
  859SOL     OW14607   0.230   2.490   3.837
  859SOL    HW114608   0.137   2.488   3.874
  859SOL    HW214609   0.231   2.451   3.745
  860SOL     OW14610   1.135   2.565   4.441
  860SOL    HW114611   1.192   2.643   4.416
  860SOL    HW214612   1.075   2.591   4.517
  861SOL     OW14613   0.686   3.023   5.527
  861SOL    HW114614   0.746   3.102   5.541
  861SOL    HW214615   0.600   3.054   5.486
  862SOL     OW14616   1.127   3.203   5.414
  862SOL    HW114617   1.174   3.203   5.502
  862SOL    HW214618   1.079   3.116   5.403
  863SOL     OW14619   0.606   2.826   3.847
  863SOL    HW114620   0.613   2.910   3.793
  863SOL    HW214621   0.652   2.839   3.935
  864SOL     OW14622   1.594   1.976   5.204
  864SOL    HW114623   1.576   2.043   5.132
  864SOL    HW214624   1.591   2.022   5.293
  865SOL     OW14625   1.842   3.629   4.083
  865SOL    HW114626   1.896   3.600   4.163
  865SOL    HW214627   1.872   3.719   4.054
  866SOL     OW14628   0.027   3.458   3.841
  866SOL    HW114629   0.008   3.362   3.862
  866SOL    HW214630  -0.006   3.516   3.916
  867SOL     OW14631   1.641   2.970   4.156
  867SOL    HW114632   1.727   2.972   4.104
  867SOL    HW214633   1.655   3.017   4.244
  868SOL     OW14634   1.525   2.861   3.914
  868SOL    HW114635   1.462   2.785   3.927
  868SOL    HW214636   1.573   2.879   4.000
  869SOL     OW14637   1.187   3.654   5.340
  869SOL    HW114638   1.211   3.714   5.264
  869SOL    HW214639   1.194   3.559   5.310
  870SOL     OW14640   0.598   2.591   3.994
  870SOL    HW114641   0.622   2.660   3.926
  870SOL    HW214642   0.520   2.624   4.048
  871SOL     OW14643   1.041   2.563   4.153
  871SOL    HW114644   1.067   2.559   4.249
  871SOL    HW214645   0.956   2.512   4.139
  872SOL     OW14646   0.076   2.673   4.513
  872SOL    HW114647   0.175   2.661   4.522
  872SOL    HW214648   0.052   2.768   4.534
  873SOL     OW14649   1.719   2.447   5.555
  873SOL    HW114650   1.693   2.536   5.519
  873SOL    HW214651   1.717   2.379   5.482
  874SOL     OW14652   0.461   3.128   5.451
  874SOL    HW114653   0.411   3.129   5.365
  874SOL    HW214654   0.398   3.110   5.527
  875SOL     OW14655   0.202   2.147   5.222
  875SOL    HW114656   0.122   2.207   5.209
  875SOL    HW214657   0.192   2.098   5.308
  876SOL     OW14658   0.464   3.605   4.047
  876SOL    HW114659   0.497   3.644   4.133
  876SOL    HW214660   0.540   3.598   3.982
  877SOL     OW14661   0.888   3.376   4.919
  877SOL    HW114662   0.865   3.351   4.825
  877SOL    HW214663   0.949   3.307   4.958
  878SOL     OW14664   1.351   2.452   5.157
  878SOL    HW114665   1.379   2.409   5.242
  878SOL    HW214666   1.376   2.548   5.158
  879SOL     OW14667   1.227   3.432   4.517
  879SOL    HW114668   1.248   3.506   4.452
  879SOL    HW214669   1.295   3.432   4.590
  880SOL     OW14670   0.866   2.316   4.366
  880SOL    HW114671   0.834   2.388   4.304
  880SOL    HW214672   0.890   2.235   4.313
  881SOL     OW14673   1.664   3.142   4.381
  881SOL    HW114674   1.763   3.150   4.395
  881SOL    HW214675   1.619   3.226   4.412
  882SOL     OW14676   1.390   2.437   3.802
  882SOL    HW114677   1.336   2.416   3.883
  882SOL    HW214678   1.481   2.396   3.811
  883SOL     OW14679   0.527   2.118   4.052
  883SOL    HW114680   0.554   2.059   3.977
  883SOL    HW214681   0.527   2.213   4.021
  884SOL     OW14682   1.638   2.961   4.803
  884SOL    HW114683   1.643   3.042   4.862
  884SOL    HW214684   1.552   2.963   4.752
  885SOL     OW14685   0.915   1.951   5.126
  885SOL    HW114686   0.940   1.931   5.031
  885SOL    HW214687   0.987   2.007   5.168
  886SOL     OW14688   0.980   2.978   5.443
  886SOL    HW114689   0.881   2.984   5.453
  886SOL    HW214690   1.003   2.898   5.387
  887SOL     OW14691   0.566   2.399   4.589
  887SOL    HW114692   0.578   2.465   4.515
  887SOL    HW214693   0.612   2.433   4.672
  888SOL     OW14694   1.582   2.501   4.196
  888SOL    HW114695   1.551   2.562   4.269
  888SOL    HW214696   1.632   2.553   4.127
  889SOL     OW14697   1.587   2.641   5.394
  889SOL    HW114698   1.495   2.679   5.389
  889SOL    HW214699   1.647   2.688   5.329
  890SOL     OW14700   0.504   1.912   5.464
  890SOL    HW114701   0.462   1.855   5.394
  890SOL    HW214702   0.438   1.981   5.496
  891SOL     OW14703   0.573   2.732   4.753
  891SOL    HW114704   0.617   2.821   4.744
  891SOL    HW214705   0.510   2.732   4.830
  892SOL     OW14706   1.360   2.724   4.769
  892SOL    HW114707   1.285   2.724   4.703
  892SOL    HW214708   1.397   2.632   4.778
  893SOL     OW14709   1.728   2.797   5.578
  893SOL    HW114710   1.682   2.790   5.489
  893SOL    HW214711   1.666   2.841   5.644
  894SOL     OW14712   0.307   1.925   4.342
  894SOL    HW114713   0.296   2.019   4.375
  894SOL    HW214714   0.302   1.862   4.419
  895SOL     OW14715   1.859   3.380   5.329
  895SOL    HW114716   1.873   3.407   5.234
  895SOL    HW214717   1.942   3.402   5.382
  896SOL     OW14718   1.303   2.700   3.766
  896SOL    HW114719   1.337   2.607   3.781
  896SOL    HW214720   1.321   2.727   3.671
  897SOL     OW14721   1.068   3.195   4.573
  897SOL    HW114722   1.075   3.111   4.518
  897SOL    HW214723   1.130   3.264   4.537
  898SOL     OW14724   1.160   2.069   5.201
  898SOL    HW114725   1.160   2.133   5.278
  898SOL    HW214726   1.188   2.117   5.118
  899SOL     OW14727   0.088   3.663   4.651
  899SOL    HW114728   0.046   3.577   4.624
  899SOL    HW214729   0.182   3.666   4.617
  900SOL     OW14730   0.189   2.382   5.446
  900SOL    HW114731   0.248   2.342   5.376
  900SOL    HW214732   0.131   2.453   5.405
  901SOL     OW14733   1.369   2.812   5.384
  901SOL    HW114734   1.408   2.901   5.404
  901SOL    HW214735   1.379   2.792   5.287
  902SOL     OW14736   0.815   2.434   4.049
  902SOL    HW114737   0.822   2.345   4.003
  902SOL    HW214738   0.721   2.468   4.041
  903SOL     OW14739   0.252   3.426   5.468
  903SOL    HW114740   0.222   3.483   5.544
  903SOL    HW214741   0.245   3.329   5.494
  904SOL     OW14742   0.930   3.540   5.189
  904SOL    HW114743   0.906   3.522   5.094
  904SOL    HW214744   0.960   3.634   5.199
  905SOL     OW14745   1.302   2.717   4.033
  905SOL    HW114746   1.216   2.686   4.075
  905SOL    HW214747   1.298   2.703   3.934
  906SOL     OW14748   0.083   3.120   4.746
  906SOL    HW114749   0.078   3.119   4.846
  906SOL    HW214750   0.000   3.079   4.708
  907SOL     OW14751   0.688   3.524   5.440
  907SOL    HW114752   0.632   3.605   5.449
  907SOL    HW214753   0.740   3.528   5.354
  908SOL     OW14754   1.726   1.997   4.247
  908SOL    HW114755   1.799   1.980   4.180
  908SOL    HW214756   1.695   1.910   4.285
  909SOL     OW14757   1.280   2.789   4.396
  909SOL    HW114758   1.340   2.708   4.398
  909SOL    HW214759   1.320   2.858   4.336
  910SOL     OW14760   0.830   3.135   5.146
  910SOL    HW114761   0.825   3.168   5.241
  910SOL    HW214762   0.744   3.154   5.100
  911SOL     OW14763   0.672   3.478   3.878
  911SOL    HW114764   0.681   3.488   3.779
  911SOL    HW214765   0.632   3.389   3.899
  912SOL     OW14766   0.263   2.188   4.444
  912SOL    HW114767   0.184   2.239   4.410
  912SOL    HW214768   0.254   2.173   4.542
  913SOL     OW14769   1.039   2.960   4.420
  913SOL    HW114770   0.969   2.913   4.474
  913SOL    HW214771   1.098   2.892   4.377
  914SOL     OW14772   0.105   2.875   5.450
  914SOL    HW114773   0.028   2.842   5.504
  914SOL    HW214774   0.190   2.845   5.492
  915SOL     OW14775   0.672   2.065   5.213
  915SOL    HW114776   0.762   2.049   5.173
  915SOL    HW214777   0.680   2.070   5.312
  916SOL     OW14778   0.075   2.207   3.757
  916SOL    HW114779  -0.017   2.179   3.728
  916SOL    HW214780   0.106   2.284   3.701
  917SOL     OW14781   0.072   2.028   4.042
  917SOL    HW114782   0.055   2.111   3.988
  917SOL    HW214783   0.162   1.991   4.020
  918SOL     OW14784   1.183   3.197   3.843
  918SOL    HW114785   1.084   3.186   3.845
  918SOL    HW214786   1.217   3.212   3.936
  919SOL     OW14787   1.450   3.082   5.357
  919SOL    HW114788   1.441   3.072   5.456
  919SOL    HW214789   1.546   3.075   5.331
  920SOL     OW14790   1.674   2.745   4.978
  920SOL    HW114791   1.647   2.656   4.941
  920SOL    HW214792   1.675   2.813   4.905
  921SOL     OW14793   1.730   2.796   5.241
  921SOL    HW114794   1.768   2.887   5.256
  921SOL    HW214795   1.722   2.779   5.142
  922SOL     OW14796   0.672   3.253   5.348
  922SOL    HW114797   0.594   3.203   5.386
  922SOL    HW214798   0.669   3.348   5.379
  923SOL     OW14799   0.618   3.429   5.008
  923SOL    HW114800   0.613   3.511   5.065
  923SOL    HW214801   0.707   3.426   4.963
  924SOL     OW14802   1.300   2.315   4.415
  924SOL    HW114803   1.241   2.395   4.419
  924SOL    HW214804   1.315   2.280   4.508
  925SOL     OW14805   1.593   2.083   4.606
  925SOL    HW114806   1.509   2.082   4.660
  925SOL    HW214807   1.595   2.166   4.550
  926SOL     OW14808   0.875   3.508   4.061
  926SOL    HW114809   0.798   3.473   4.007
  926SOL    HW214810   0.843   3.579   4.123
  927SOL     OW14811   0.230   2.490   5.699
  927SOL    HW114812   0.137   2.488   5.736
  927SOL    HW214813   0.231   2.451   5.607
  928SOL     OW14814   0.225   2.137   6.582
  928SOL    HW114815   0.260   2.120   6.674
  928SOL    HW214816   0.137   2.092   6.570
  929SOL     OW14817   0.019   2.230   6.233
  929SOL    HW114818  -0.063   2.273   6.272
  929SOL    HW214819  -0.009   2.157   6.170
  930SOL     OW14820   0.569   3.137   6.751
  930SOL    HW114821   0.476   3.130   6.714
  930SOL    HW214822   0.580   3.226   6.795
  931SOL     OW14823   1.555   3.373   6.289
  931SOL    HW114824   1.498   3.357   6.370
  931SOL    HW214825   1.496   3.383   6.209
  932SOL     OW14826   1.135   2.565   6.303
  932SOL    HW114827   1.192   2.643   6.278
  932SOL    HW214828   1.075   2.591   6.379
  933SOL     OW14829   1.755   2.469   5.817
  933SOL    HW114830   1.743   2.456   5.718
  933SOL    HW214831   1.725   2.388   5.866
  934SOL     OW14832   0.768   3.006   6.609
  934SOL    HW114833   0.690   3.023   6.669
  934SOL    HW214834   0.802   3.093   6.573
  935SOL     OW14835   0.685   2.874   6.251
  935SOL    HW114836   0.754   2.858   6.321
  935SOL    HW214837   0.612   2.931   6.289
  936SOL     OW14838   0.335   3.297   6.647
  936SOL    HW114839   0.257   3.266   6.594
  936SOL    HW214840   0.393   3.355   6.590
  937SOL     OW14841   1.603   2.309   6.323
  937SOL    HW114842   1.529   2.355   6.273
  937SOL    HW214843   1.654   2.377   6.376
  938SOL     OW14844   0.231   3.575   6.069
  938SOL    HW114845   0.265   3.652   6.123
  938SOL    HW214846   0.275   3.575   5.979
  939SOL     OW14847   0.230   3.296   6.124
  939SOL    HW114848   0.204   3.392   6.124
  939SOL    HW214849   0.159   3.242   6.169
  940SOL     OW14850   0.240   2.953   6.472
  940SOL    HW114851   0.254   2.869   6.524
  940SOL    HW214852   0.185   3.017   6.527
  941SOL     OW14853   0.620   3.648   7.025
  941SOL    HW114854   0.528   3.631   7.060
  941SOL    HW214855   0.648   3.740   7.051
  942SOL     OW14856   0.122   2.505   6.149
  942SOL    HW114857   0.077   2.417   6.166
  942SOL    HW214858   0.121   2.559   6.233
  943SOL     OW14859   1.842   3.629   5.945
  943SOL    HW114860   1.896   3.600   6.025
  943SOL    HW214861   1.872   3.719   5.916
  944SOL     OW14862   1.689   2.784   6.198
  944SOL    HW114863   1.784   2.755   6.206
  944SOL    HW214864   1.681   2.849   6.123
  945SOL     OW14865   1.641   2.970   6.018
  945SOL    HW114866   1.727   2.972   5.966
  945SOL    HW214867   1.655   3.017   6.106
  946SOL     OW14868   0.613   3.227   6.312
  946SOL    HW114869   0.564   3.140   6.321
  946SOL    HW214870   0.590   3.270   6.225
  947SOL     OW14871   0.809   1.866   6.088
  947SOL    HW114872   0.849   1.957   6.079
  947SOL    HW214873   0.709   1.874   6.094
  948SOL     OW14874   0.197   2.838   6.850
  948SOL    HW114875   0.286   2.793   6.836
  948SOL    HW214876   0.124   2.773   6.831
  949SOL     OW14877   1.525   2.861   5.776
  949SOL    HW114878   1.462   2.785   5.789
  949SOL    HW214879   1.573   2.879   5.862
  950SOL     OW14880   1.466   3.279   6.539
  950SOL    HW114881   1.407   3.285   6.619
  950SOL    HW214882   1.451   3.191   6.493
  951SOL     OW14883   1.667   3.576   6.158
  951SOL    HW114884   1.626   3.553   6.070
  951SOL    HW214885   1.649   3.502   6.223
  952SOL     OW14886   1.281   2.207   6.530
  952SOL    HW114887   1.195   2.157   6.517
  952SOL    HW214888   1.343   2.153   6.586
  953SOL     OW14889   1.576   3.524   5.893
  953SOL    HW114890   1.665   3.570   5.896
  953SOL    HW214891   1.555   3.500   5.798
  954SOL     OW14892   0.991   2.272   6.828
  954SOL    HW114893   0.914   2.306   6.882
  954SOL    HW214894   0.957   2.221   6.749
  955SOL     OW14895   1.041   2.563   6.015
  955SOL    HW114896   1.067   2.559   6.111
  955SOL    HW214897   0.956   2.512   6.001
  956SOL     OW14898   0.076   2.673   6.375
  956SOL    HW114899   0.175   2.661   6.384
  956SOL    HW214900   0.052   2.768   6.396
  957SOL     OW14901   0.130   3.683   7.157
  957SOL    HW114902   0.120   3.668   7.256
  957SOL    HW214903   0.044   3.719   7.121
  958SOL     OW14904   1.362   3.006   6.131
  958SOL    HW114905   1.445   2.977   6.083
  958SOL    HW214906   1.313   3.073   6.075
  959SOL     OW14907   0.550   2.058   6.471
  959SOL    HW114908   0.545   2.053   6.571
  959SOL    HW214909   0.552   2.154   6.442
  960SOL     OW14910   1.008   3.318   6.063
  960SOL    HW114911   0.962   3.390   6.011
  960SOL    HW214912   1.004   3.338   6.161
  961SOL     OW14913   0.351   3.663   6.439
  961SOL    HW114914   0.401   3.577   6.445
  961SOL    HW214915   0.416   3.740   6.436
  962SOL     OW14916   1.795   2.928   6.459
  962SOL    HW114917   1.733   2.913   6.383
  962SOL    HW214918   1.743   2.939   6.544
  963SOL     OW14919   0.321   2.805   5.828
  963SOL    HW114920   0.403   2.844   5.786
  963SOL    HW214921   0.294   2.723   5.779
  964SOL     OW14922   1.458   2.597   6.314
  964SOL    HW114923   1.453   2.532   6.389
  964SOL    HW214924   1.538   2.656   6.327
  965SOL     OW14925   1.111   3.638   5.823
  965SOL    HW114926   1.051   3.576   5.873
  965SOL    HW214927   1.142   3.594   5.738
  966SOL     OW14928   0.464   3.605   5.909
  966SOL    HW114929   0.497   3.644   5.995
  966SOL    HW214930   0.540   3.598   5.844
  967SOL     OW14931   1.400   1.969   6.012
  967SOL    HW114932   1.376   1.932   5.922
  967SOL    HW214933   1.499   1.985   6.016
  968SOL     OW14934   0.249   3.647   6.827
  968SOL    HW114935   0.306   3.582   6.877
  968SOL    HW214936   0.233   3.614   6.734
  969SOL     OW14937   0.940   3.560   6.490
  969SOL    HW114938   1.020   3.503   6.511
  969SOL    HW214939   0.891   3.520   6.413
  970SOL     OW14940   0.382   2.562   6.066
  970SOL    HW114941   0.427   2.472   6.063
  970SOL    HW214942   0.288   2.551   6.099
  971SOL     OW14943   0.614   1.984   5.703
  971SOL    HW114944   0.712   1.962   5.710
  971SOL    HW214945   0.583   1.967   5.610
  972SOL     OW14946   0.803   3.264   6.510
  972SOL    HW114947   0.893   3.278   6.468
  972SOL    HW214948   0.732   3.266   6.439
  973SOL     OW14949   0.922   2.365   6.485
  973SOL    HW114950   0.897   2.356   6.389
  973SOL    HW214951   0.970   2.283   6.516
  974SOL     OW14952   0.539   1.926   6.098
  974SOL    HW114953   0.458   1.927   6.156
  974SOL    HW214954   0.542   2.009   6.043
  975SOL     OW14955   1.434   3.050   5.627
  975SOL    HW114956   1.466   2.974   5.684
  975SOL    HW214957   1.342   3.077   5.657
  976SOL     OW14958   0.297   1.897   5.757
  976SOL    HW114959   0.346   1.981   5.736
  976SOL    HW214960   0.359   1.832   5.802
  977SOL     OW14961   0.935   2.098   6.066
  977SOL    HW114962   0.887   2.139   5.988
  977SOL    HW214963   1.034   2.096   6.047
  978SOL     OW14964   1.227   3.432   6.379
  978SOL    HW114965   1.248   3.506   6.314
  978SOL    HW214966   1.295   3.432   6.452
  979SOL     OW14967   0.459   3.014   6.327
  979SOL    HW114968   0.388   2.987   6.392
  979SOL    HW214969   0.433   2.986   6.234
  980SOL     OW14970   1.271   3.659   6.177
  980SOL    HW114971   1.315   3.723   6.113
  980SOL    HW214972   1.221   3.711   6.247
  981SOL     OW14973   0.561   2.084   6.733
  981SOL    HW114974   0.599   2.000   6.770
  981SOL    HW214975   0.473   2.103   6.777
  982SOL     OW14976   0.866   2.316   6.228
  982SOL    HW114977   0.834   2.388   6.166
  982SOL    HW214978   0.890   2.235   6.175
  983SOL     OW14979   1.017   1.901   6.339
  983SOL    HW114980   0.945   1.906   6.270
  983SOL    HW214981   0.993   1.832   6.408
  984SOL     OW14982   1.429   3.035   6.453
  984SOL    HW114983   1.374   2.951   6.446
  984SOL    HW214984   1.455   3.064   6.361
  985SOL     OW14985   1.466   2.452   6.578
  985SOL    HW114986   1.436   2.357   6.585
  985SOL    HW214987   1.539   2.468   6.644
  986SOL     OW14988   1.857   2.695   5.963
  986SOL    HW114989   1.899   2.631   6.027
  986SOL    HW214990   1.819   2.644   5.885
  987SOL     OW14991   0.488   3.247   5.760
  987SOL    HW114992   0.401   3.232   5.807
  987SOL    HW214993   0.471   3.273   5.665
  988SOL     OW14994   1.664   3.142   6.243
  988SOL    HW114995   1.763   3.150   6.257
  988SOL    HW214996   1.619   3.226   6.274
  989SOL     OW14997   1.390   2.437   5.664
  989SOL    HW114998   1.336   2.416   5.745
  989SOL    HW214999   1.481   2.396   5.673
  990SOL     OW15000   0.527   2.118   5.914
  990SOL    HW115001   0.554   2.059   5.839
  990SOL    HW215002   0.527   2.213   5.883
  991SOL     OW15003   1.111   3.057   6.686
  991SOL    HW115004   1.071   3.101   6.767
  991SOL    HW215005   1.070   3.094   6.603
  992SOL     OW15006   1.638   2.961   6.665
  992SOL    HW115007   1.643   3.042   6.724
  992SOL    HW215008   1.552   2.963   6.614
  993SOL     OW15009   0.705   2.912   5.954
  993SOL    HW115010   0.691   2.919   6.053
  993SOL    HW215011   0.789   2.861   5.936
  994SOL     OW15012   0.410   2.675   6.837
  994SOL    HW115013   0.496   2.687   6.887
  994SOL    HW215014   0.368   2.588   6.864
  995SOL     OW15015   1.274   2.248   6.848
  995SOL    HW115016   1.295   2.322   6.912
  995SOL    HW215017   1.185   2.265   6.805
  996SOL     OW15018   0.367   2.962   6.087
  996SOL    HW115019   0.360   3.045   6.031
  996SOL    HW215020   0.371   2.882   6.027
  997SOL     OW15021   0.566   2.399   6.451
  997SOL    HW115022   0.578   2.465   6.377
  997SOL    HW215023   0.612   2.433   6.534
  998SOL     OW15024   1.252   3.210   5.974
  998SOL    HW115025   1.302   3.287   6.014
  998SOL    HW215026   1.157   3.212   6.006
  999SOL     OW15027   1.272   3.307   6.728
  999SOL    HW115028   1.319   3.320   6.815
  999SOL    HW215029   1.206   3.233   6.737
 1000SOL     OW15030   1.582   2.501   6.058
 1000SOL    HW115031   1.551   2.562   6.131
 1000SOL    HW215032   1.632   2.553   5.989
 1001SOL     OW15033   0.354   3.372   6.915
 1001SOL    HW115034   0.333   3.328   6.828
 1001SOL    HW215035   0.451   3.398   6.918
 1002SOL     OW15036   0.573   2.732   6.615
 1002SOL    HW115037   0.617   2.821   6.606
 1002SOL    HW215038   0.510   2.732   6.692
 1003SOL     OW15039   1.360   2.724   6.631
 1003SOL    HW115040   1.285   2.724   6.565
 1003SOL    HW215041   1.397   2.632   6.640
 1004SOL     OW15042   1.209   2.387   5.861
 1004SOL    HW115043   1.222   2.303   5.915
 1004SOL    HW215044   1.180   2.461   5.921
 1005SOL     OW15045   0.307   2.075   6.817
 1005SOL    HW115046   0.284   2.112   6.907
 1005SOL    HW215047   0.277   1.980   6.811
 1006SOL     OW15048   0.037   3.172   6.868
 1006SOL    HW115049   0.090   3.123   6.936
 1006SOL    HW215050   0.059   3.270   6.873
 1007SOL     OW15051   0.732   2.496   6.650
 1007SOL    HW115052   0.791   2.470   6.574
 1007SOL    HW215053   0.704   2.592   6.639
 1008SOL     OW15054   1.622   2.229   5.960
 1008SOL    HW115055   1.624   2.153   6.024
 1008SOL    HW215056   1.574   2.306   6.000
 1009SOL     OW15057   1.023   2.628   6.552
 1009SOL    HW115058   1.038   2.649   6.648
 1009SOL    HW215059   0.993   2.533   6.543
 1010SOL     OW15060   1.540   2.136   5.711
 1010SOL    HW115061   1.479   2.061   5.734
 1010SOL    HW215062   1.562   2.188   5.794
 1011SOL     OW15063   1.303   2.700   5.628
 1011SOL    HW115064   1.337   2.607   5.643
 1011SOL    HW215065   1.321   2.727   5.533
 1012SOL     OW15066   1.068   3.195   6.435
 1012SOL    HW115067   1.075   3.111   6.380
 1012SOL    HW215068   1.130   3.264   6.399
 1013SOL     OW15069   0.319   2.672   6.535
 1013SOL    HW115070   0.412   2.708   6.540
 1013SOL    HW215071   0.313   2.587   6.587
 1014SOL     OW15072   0.339   2.371   6.592
 1014SOL    HW115073   0.287   2.288   6.575
 1014SOL    HW215074   0.416   2.376   6.528
 1015SOL     OW15075   1.160   2.069   7.063
 1015SOL    HW115076   1.160   2.133   7.140
 1015SOL    HW215077   1.188   2.117   6.980
 1016SOL     OW15078   0.088   3.663   6.513
 1016SOL    HW115079   0.046   3.577   6.486
 1016SOL    HW215080   0.182   3.666   6.479
 1017SOL     OW15081   0.504   3.430   6.496
 1017SOL    HW115082   0.570   3.504   6.505
 1017SOL    HW215083   0.548   3.351   6.454
 1018SOL     OW15084   1.002   2.658   6.824
 1018SOL    HW115085   1.043   2.626   6.910
 1018SOL    HW215086   0.906   2.631   6.821
 1019SOL     OW15087   0.040   2.406   6.700
 1019SOL    HW115088   0.125   2.373   6.659
 1019SOL    HW215089   0.053   2.421   6.798
 1020SOL     OW15090   1.657   2.466   6.792
 1020SOL    HW115091   1.619   2.397   6.854
 1020SOL    HW215092   1.739   2.430   6.748
 1021SOL     OW15093   0.671   2.326   6.855
 1021SOL    HW115094   0.637   2.237   6.825
 1021SOL    HW215095   0.697   2.380   6.775
 1022SOL     OW15096   0.930   3.540   7.051
 1022SOL    HW115097   0.906   3.522   6.956
 1022SOL    HW215098   0.960   3.634   7.061
 1023SOL     OW15099   0.473   2.362   5.777
 1023SOL    HW115100   0.534   2.442   5.781
 1023SOL    HW215101   0.378   2.393   5.784
 1024SOL     OW15102   1.347   2.921   6.820
 1024SOL    HW115103   1.371   2.858   6.746
 1024SOL    HW215104   1.257   2.961   6.802
 1025SOL     OW15105   1.302   2.717   5.895
 1025SOL    HW115106   1.216   2.686   5.937
 1025SOL    HW215107   1.298   2.703   5.796
 1026SOL     OW15108   1.759   3.609   6.740
 1026SOL    HW115109   1.820   3.639   6.667
 1026SOL    HW215110   1.721   3.520   6.718
 1027SOL     OW15111   1.252   3.593   6.714
 1027SOL    HW115112   1.336   3.598   6.660
 1027SOL    HW215113   1.229   3.497   6.732
 1028SOL     OW15114   0.083   3.120   6.608
 1028SOL    HW115115   0.078   3.119   6.708
 1028SOL    HW215116   0.000   3.079   6.570
 1029SOL     OW15117   1.726   1.997   6.109
 1029SOL    HW115118   1.799   1.980   6.042
 1029SOL    HW215119   1.695   1.910   6.147
 1030SOL     OW15120   1.388   3.435   6.063
 1030SOL    HW115121   1.455   3.447   5.989
 1030SOL    HW215122   1.348   3.524   6.086
 1031SOL     OW15123   1.280   2.789   6.258
 1031SOL    HW115124   1.340   2.708   6.260
 1031SOL    HW215125   1.320   2.858   6.198
 1032SOL     OW15126   0.672   3.478   5.740
 1032SOL    HW115127   0.681   3.488   5.641
 1032SOL    HW215128   0.632   3.389   5.761
 1033SOL     OW15129   1.650   3.582   6.980
 1033SOL    HW115130   1.703   3.592   6.896
 1033SOL    HW215131   1.623   3.672   7.014
 1034SOL     OW15132   1.841   2.037   6.549
 1034SOL    HW115133   1.880   1.952   6.513
 1034SOL    HW215134   1.743   2.039   6.530
 1035SOL     OW15135   0.263   2.188   6.306
 1035SOL    HW115136   0.184   2.239   6.272
 1035SOL    HW215137   0.254   2.173   6.404
 1036SOL     OW15138   0.822   2.864   6.958
 1036SOL    HW115139   0.862   2.863   6.866
 1036SOL    HW215140   0.832   2.956   6.998
 1037SOL     OW15141   0.916   2.772   5.877
 1037SOL    HW115142   0.979   2.810   5.809
 1037SOL    HW215143   0.956   2.689   5.916
 1038SOL     OW15144   1.039   2.960   6.282
 1038SOL    HW115145   0.969   2.913   6.336
 1038SOL    HW215146   1.098   2.892   6.239
 1039SOL     OW15147   1.014   2.098   6.557
 1039SOL    HW115148   1.006   2.062   6.464
 1039SOL    HW215149   1.012   2.022   6.622
 1040SOL     OW15150   0.590   3.349   6.077
 1040SOL    HW115151   0.632   3.291   6.007
 1040SOL    HW215152   0.546   3.428   6.033
 1041SOL     OW15153   1.709   2.247   6.967
 1041SOL    HW115154   1.782   2.316   6.971
 1041SOL    HW215155   1.737   2.172   6.908
 1042SOL     OW15156   0.075   2.207   5.619
 1042SOL    HW115157  -0.017   2.179   5.590
 1042SOL    HW215158   0.106   2.284   5.563
 1043SOL     OW15159   0.072   2.028   5.904
 1043SOL    HW115160   0.055   2.111   5.850
 1043SOL    HW215161   0.162   1.991   5.882
 1044SOL     OW15162   1.183   3.197   5.705
 1044SOL    HW115163   1.084   3.186   5.707
 1044SOL    HW215164   1.217   3.212   5.798
 1045SOL     OW15165   1.493   3.629   6.545
 1045SOL    HW115166   1.526   3.693   6.476
 1045SOL    HW215167   1.559   3.623   6.620
 1046SOL     OW15168   1.450   3.082   7.219
 1046SOL    HW115169   1.441   3.072   7.318
 1046SOL    HW215170   1.546   3.075   7.193
 1047SOL     OW15171   1.674   2.745   6.840
 1047SOL    HW115172   1.647   2.656   6.803
 1047SOL    HW215173   1.675   2.813   6.767
 1048SOL     OW15174   1.225   2.187   6.035
 1048SOL    HW115175   1.290   2.113   6.024
 1048SOL    HW215176   1.245   2.237   6.119
 1049SOL     OW15177   0.594   2.607   6.238
 1049SOL    HW115178   0.644   2.692   6.219
 1049SOL    HW215179   0.506   2.609   6.190
 1050SOL     OW15180   1.730   2.796   7.103
 1050SOL    HW115181   1.768   2.887   7.118
 1050SOL    HW215182   1.722   2.779   7.004
 1051SOL     OW15183   0.661   3.652   6.539
 1051SOL    HW115184   0.615   3.740   6.526
 1051SOL    HW215185   0.760   3.664   6.532
 1052SOL     OW15186   0.859   2.818   6.447
 1052SOL    HW115187   0.913   2.749   6.495
 1052SOL    HW215188   0.827   2.887   6.513
 1053SOL     OW15189   1.083   2.846   5.673
 1053SOL    HW115190   1.060   2.899   5.591
 1053SOL    HW215191   1.164   2.790   5.654
 1054SOL     OW15192   1.861   3.431   6.437
 1054SOL    HW115193   1.790   3.419   6.367
 1054SOL    HW215194   1.862   3.352   6.497
 1055SOL     OW15195   0.079   3.102   6.239
 1055SOL    HW115196   0.078   3.055   6.327
 1055SOL    HW215197   0.161   3.074   6.188
 1056SOL     OW15198   0.428   2.286   6.106
 1056SOL    HW115199   0.458   2.214   6.044
 1056SOL    HW215200   0.389   2.246   6.189
 1057SOL     OW15201   1.705   3.349   6.690
 1057SOL    HW115202   1.612   3.324   6.663
 1057SOL    HW215203   1.731   3.299   6.772
 1058SOL     OW15204   0.812   3.448   6.273
 1058SOL    HW115205   0.844   3.458   6.179
 1058SOL    HW215206   0.733   3.386   6.275
 1059SOL     OW15207   1.424   2.076   6.698
 1059SOL    HW115208   1.476   2.011   6.753
 1059SOL    HW215209   1.375   2.139   6.759
 1060SOL     OW15210   1.001   1.896   6.740
 1060SOL    HW115211   0.938   1.824   6.709
 1060SOL    HW215212   1.094   1.860   6.740
 1061SOL     OW15213   0.770   3.192   5.887
 1061SOL    HW115214   0.724   3.105   5.904
 1061SOL    HW215215   0.861   3.189   5.928
 1062SOL     OW15216   1.352   1.914   5.754
 1062SOL    HW115217   1.387   1.873   5.670
 1062SOL    HW215218   1.262   1.876   5.774
 1063SOL     OW15219   1.300   2.315   6.277
 1063SOL    HW115220   1.241   2.395   6.281
 1063SOL    HW215221   1.315   2.280   6.370
 1064SOL     OW15222   1.593   2.083   6.468
 1064SOL    HW115223   1.509   2.082   6.522
 1064SOL    HW215224   1.595   2.166   6.412
 1065SOL     OW15225   0.875   3.508   5.923
 1065SOL    HW115226   0.798   3.473   5.869
 1065SOL    HW215227   0.843   3.579   5.985
 1066SOL     OW15228   0.230   4.352   0.113
 1066SOL    HW115229   0.137   4.350   0.150
 1066SOL    HW215230   0.231   4.313   0.021
 1067SOL     OW15231   0.225   3.999   0.996
 1067SOL    HW115232   0.260   3.982   1.088
 1067SOL    HW215233   0.137   3.954   0.984
 1068SOL     OW15234   0.019   4.092   0.647
 1068SOL    HW115235  -0.063   4.135   0.686
 1068SOL    HW215236  -0.009   4.019   0.584
 1069SOL     OW15237   1.555   5.235   0.703
 1069SOL    HW115238   1.498   5.219   0.784
 1069SOL    HW215239   1.496   5.245   0.623
 1070SOL     OW15240   1.135   4.427   0.717
 1070SOL    HW115241   1.192   4.505   0.692
 1070SOL    HW215242   1.075   4.453   0.793
 1071SOL     OW15243   1.755   4.331   0.231
 1071SOL    HW115244   1.743   4.318   0.132
 1071SOL    HW215245   1.725   4.250   0.280
 1072SOL     OW15246   0.768   4.868   1.023
 1072SOL    HW115247   0.690   4.885   1.083
 1072SOL    HW215248   0.802   4.955   0.987
 1073SOL     OW15249   0.685   4.736   0.665
 1073SOL    HW115250   0.754   4.720   0.735
 1073SOL    HW215251   0.612   4.793   0.703
 1074SOL     OW15252   0.335   5.159   1.061
 1074SOL    HW115253   0.257   5.128   1.008
 1074SOL    HW215254   0.393   5.217   1.004
 1075SOL     OW15255   1.603   4.171   0.737
 1075SOL    HW115256   1.529   4.217   0.687
 1075SOL    HW215257   1.654   4.239   0.790
 1076SOL     OW15258   0.231   5.437   0.483
 1076SOL    HW115259   0.265   5.514   0.537
 1076SOL    HW215260   0.275   5.437   0.393
 1077SOL     OW15261   1.127   5.065   1.690
 1077SOL    HW115262   1.174   5.065   1.778
 1077SOL    HW215263   1.079   4.978   1.679
 1078SOL     OW15264   0.230   5.158   0.538
 1078SOL    HW115265   0.204   5.254   0.538
 1078SOL    HW215266   0.159   5.104   0.583
 1079SOL     OW15267   0.240   4.815   0.886
 1079SOL    HW115268   0.254   4.731   0.938
 1079SOL    HW215269   0.185   4.879   0.941
 1080SOL     OW15270   0.606   4.688   0.123
 1080SOL    HW115271   0.613   4.772   0.069
 1080SOL    HW215272   0.652   4.701   0.211
 1081SOL     OW15273   1.594   3.838   1.480
 1081SOL    HW115274   1.576   3.905   1.408
 1081SOL    HW215275   1.591   3.884   1.569
 1082SOL     OW15276   0.122   4.367   0.563
 1082SOL    HW115277   0.077   4.279   0.580
 1082SOL    HW215278   0.121   4.421   0.647
 1083SOL     OW15279   1.842   5.491   0.359
 1083SOL    HW115280   1.896   5.462   0.439
 1083SOL    HW215281   1.872   5.581   0.330
 1084SOL     OW15282   0.027   5.320   0.117
 1084SOL    HW115283   0.008   5.224   0.138
 1084SOL    HW215284  -0.006   5.378   0.192
 1085SOL     OW15285   1.689   4.646   0.612
 1085SOL    HW115286   1.784   4.617   0.620
 1085SOL    HW215287   1.681   4.711   0.537
 1086SOL     OW15288   1.641   4.832   0.432
 1086SOL    HW115289   1.727   4.834   0.380
 1086SOL    HW215290   1.655   4.879   0.520
 1087SOL     OW15291   0.613   5.089   0.726
 1087SOL    HW115292   0.564   5.002   0.735
 1087SOL    HW215293   0.590   5.132   0.639
 1088SOL     OW15294   0.809   3.728   0.502
 1088SOL    HW115295   0.849   3.819   0.493
 1088SOL    HW215296   0.709   3.736   0.508
 1089SOL     OW15297   0.197   4.700   1.264
 1089SOL    HW115298   0.286   4.655   1.250
 1089SOL    HW215299   0.124   4.635   1.245
 1090SOL     OW15300   1.525   4.723   0.190
 1090SOL    HW115301   1.462   4.647   0.203
 1090SOL    HW215302   1.573   4.741   0.276
 1091SOL     OW15303   1.187   5.516   1.616
 1091SOL    HW115304   1.211   5.576   1.540
 1091SOL    HW215305   1.194   5.421   1.586
 1092SOL     OW15306   1.466   5.141   0.953
 1092SOL    HW115307   1.407   5.147   1.033
 1092SOL    HW215308   1.451   5.053   0.907
 1093SOL     OW15309   1.667   5.438   0.572
 1093SOL    HW115310   1.626   5.415   0.484
 1093SOL    HW215311   1.649   5.364   0.637
 1094SOL     OW15312   0.598   4.453   0.270
 1094SOL    HW115313   0.622   4.522   0.202
 1094SOL    HW215314   0.520   4.486   0.324
 1095SOL     OW15315   1.281   4.069   0.944
 1095SOL    HW115316   1.195   4.019   0.931
 1095SOL    HW215317   1.343   4.015   1.000
 1096SOL     OW15318   1.576   5.386   0.307
 1096SOL    HW115319   1.665   5.432   0.310
 1096SOL    HW215320   1.555   5.362   0.212
 1097SOL     OW15321   0.807   4.329   1.465
 1097SOL    HW115322   0.760   4.326   1.554
 1097SOL    HW215323   0.756   4.274   1.399
 1098SOL     OW15324   1.041   4.425   0.429
 1098SOL    HW115325   1.067   4.421   0.525
 1098SOL    HW215326   0.956   4.374   0.415
 1099SOL     OW15327   0.076   4.535   0.789
 1099SOL    HW115328   0.175   4.523   0.798
 1099SOL    HW215329   0.052   4.630   0.810
 1100SOL     OW15330   0.865   4.072   0.195
 1100SOL    HW115331   0.924   4.135   0.146
 1100SOL    HW215332   0.884   3.978   0.166
 1101SOL     OW15333   1.362   4.868   0.545
 1101SOL    HW115334   1.445   4.839   0.497
 1101SOL    HW215335   1.313   4.935   0.489
 1102SOL     OW15336   0.550   3.920   0.885
 1102SOL    HW115337   0.545   3.915   0.985
 1102SOL    HW215338   0.552   4.016   0.856
 1103SOL     OW15339   1.008   5.180   0.477
 1103SOL    HW115340   0.962   5.252   0.425
 1103SOL    HW215341   1.004   5.200   0.575
 1104SOL     OW15342   0.351   5.525   0.853
 1104SOL    HW115343   0.401   5.439   0.859
 1104SOL    HW215344   0.416   5.602   0.850
 1105SOL     OW15345   1.795   4.790   0.873
 1105SOL    HW115346   1.733   4.775   0.797
 1105SOL    HW215347   1.743   4.801   0.958
 1106SOL     OW15348   0.321   4.667   0.242
 1106SOL    HW115349   0.403   4.706   0.200
 1106SOL    HW215350   0.294   4.585   0.193
 1107SOL     OW15351   1.458   4.459   0.728
 1107SOL    HW115352   1.453   4.394   0.803
 1107SOL    HW215353   1.538   4.518   0.741
 1108SOL     OW15354   0.202   4.009   1.498
 1108SOL    HW115355   0.122   4.069   1.485
 1108SOL    HW215356   0.192   3.960   1.584
 1109SOL     OW15357   1.632   5.101   0.081
 1109SOL    HW115358   1.600   5.195   0.071
 1109SOL    HW215359   1.556   5.038   0.069
 1110SOL     OW15360   0.464   5.467   0.323
 1110SOL    HW115361   0.497   5.506   0.409
 1110SOL    HW215362   0.540   5.460   0.258
 1111SOL     OW15363   1.400   3.831   0.426
 1111SOL    HW115364   1.376   3.794   0.336
 1111SOL    HW215365   1.499   3.847   0.430
 1112SOL     OW15366   0.249   5.509   1.241
 1112SOL    HW115367   0.306   5.444   1.291
 1112SOL    HW215368   0.233   5.476   1.148
 1113SOL     OW15369   0.940   5.422   0.904
 1113SOL    HW115370   1.020   5.365   0.925
 1113SOL    HW215371   0.891   5.382   0.827
 1114SOL     OW15372   0.382   4.424   0.480
 1114SOL    HW115373   0.427   4.334   0.477
 1114SOL    HW215374   0.288   4.413   0.513
 1115SOL     OW15375   0.781   3.988   1.749
 1115SOL    HW115376   0.848   3.927   1.792
 1115SOL    HW215377   0.708   4.007   1.814
 1116SOL     OW15378   0.888   5.238   1.195
 1116SOL    HW115379   0.865   5.213   1.101
 1116SOL    HW215380   0.949   5.169   1.234
 1117SOL     OW15381   1.351   4.314   1.433
 1117SOL    HW115382   1.379   4.271   1.518
 1117SOL    HW215383   1.376   4.410   1.434
 1118SOL     OW15384   0.803   5.126   0.924
 1118SOL    HW115385   0.893   5.140   0.882
 1118SOL    HW215386   0.732   5.128   0.853
 1119SOL     OW15387   0.922   4.227   0.899
 1119SOL    HW115388   0.897   4.218   0.803
 1119SOL    HW215389   0.970   4.145   0.930
 1120SOL     OW15390   0.539   3.788   0.512
 1120SOL    HW115391   0.458   3.789   0.570
 1120SOL    HW215392   0.542   3.871   0.457
 1121SOL     OW15393   1.434   4.912   0.041
 1121SOL    HW115394   1.466   4.836   0.098
 1121SOL    HW215395   1.342   4.939   0.071
 1122SOL     OW15396   0.297   3.759   0.171
 1122SOL    HW115397   0.346   3.843   0.150
 1122SOL    HW215398   0.359   3.694   0.216
 1123SOL     OW15399   0.935   3.960   0.480
 1123SOL    HW115400   0.887   4.001   0.402
 1123SOL    HW215401   1.034   3.958   0.461
 1124SOL     OW15402   1.076   4.407   1.464
 1124SOL    HW115403   0.996   4.346   1.467
 1124SOL    HW215404   1.157   4.354   1.440
 1125SOL     OW15405   1.227   5.294   0.793
 1125SOL    HW115406   1.248   5.368   0.728
 1125SOL    HW215407   1.295   5.294   0.866
 1126SOL     OW15408   0.459   4.876   0.741
 1126SOL    HW115409   0.388   4.849   0.806
 1126SOL    HW215410   0.433   4.848   0.648
 1127SOL     OW15411   1.271   5.521   0.591
 1127SOL    HW115412   1.315   5.585   0.527
 1127SOL    HW215413   1.221   5.573   0.661
 1128SOL     OW15414   1.032   4.273   0.016
 1128SOL    HW115415   0.991   4.355  -0.023
 1128SOL    HW215416   1.096   4.299   0.089
 1129SOL     OW15417   0.866   4.178   0.642
 1129SOL    HW115418   0.834   4.250   0.580
 1129SOL    HW215419   0.890   4.097   0.589
 1130SOL     OW15420   1.017   3.763   0.753
 1130SOL    HW115421   0.945   3.768   0.684
 1130SOL    HW215422   0.993   3.694   0.822
 1131SOL     OW15423   1.429   4.897   0.867
 1131SOL    HW115424   1.374   4.813   0.860
 1131SOL    HW215425   1.455   4.926   0.775
 1132SOL     OW15426   1.466   4.314   0.992
 1132SOL    HW115427   1.436   4.219   0.999
 1132SOL    HW215428   1.539   4.330   1.058
 1133SOL     OW15429   1.857   4.557   0.377
 1133SOL    HW115430   1.899   4.493   0.441
 1133SOL    HW215431   1.819   4.506   0.299
 1134SOL     OW15432   0.488   5.109   0.174
 1134SOL    HW115433   0.401   5.094   0.221
 1134SOL    HW215434   0.471   5.135   0.079
 1135SOL     OW15435   1.664   5.004   0.657
 1135SOL    HW115436   1.763   5.012   0.671
 1135SOL    HW215437   1.619   5.088   0.688
 1136SOL     OW15438   1.390   4.299   0.078
 1136SOL    HW115439   1.336   4.278   0.159
 1136SOL    HW215440   1.481   4.258   0.087
 1137SOL     OW15441   0.527   3.980   0.328
 1137SOL    HW115442   0.554   3.921   0.253
 1137SOL    HW215443   0.527   4.075   0.297
 1138SOL     OW15444   1.064   5.071   1.340
 1138SOL    HW115445   0.984   5.048   1.395
 1138SOL    HW215446   1.147   5.045   1.389
 1139SOL     OW15447   1.592   5.353   1.625
 1139SOL    HW115448   1.619   5.387   1.535
 1139SOL    HW215449   1.671   5.315   1.671
 1140SOL     OW15450   1.111   4.919   1.100
 1140SOL    HW115451   1.071   4.963   1.181
 1140SOL    HW215452   1.070   4.956   1.017
 1141SOL     OW15453   0.915   3.813   1.402
 1141SOL    HW115454   0.940   3.793   1.307
 1141SOL    HW215455   0.987   3.869   1.444
 1142SOL     OW15456   0.705   4.774   0.368
 1142SOL    HW115457   0.691   4.781   0.467
 1142SOL    HW215458   0.789   4.723   0.350
 1143SOL     OW15459   1.274   4.110   1.262
 1143SOL    HW115460   1.295   4.184   1.326
 1143SOL    HW215461   1.185   4.127   1.219
 1144SOL     OW15462   0.064   5.288   1.331
 1144SOL    HW115463   0.018   5.370   1.297
 1144SOL    HW215464   0.162   5.307   1.340
 1145SOL     OW15465   0.367   4.824   0.501
 1145SOL    HW115466   0.360   4.907   0.445
 1145SOL    HW215467   0.371   4.744   0.441
 1146SOL     OW15468   0.566   4.261   0.865
 1146SOL    HW115469   0.578   4.327   0.791
 1146SOL    HW215470   0.612   4.295   0.948
 1147SOL     OW15471   1.252   5.072   0.388
 1147SOL    HW115472   1.302   5.149   0.428
 1147SOL    HW215473   1.157   5.074   0.420
 1148SOL     OW15474   1.272   5.169   1.142
 1148SOL    HW115475   1.319   5.182   1.229
 1148SOL    HW215476   1.206   5.095   1.151
 1149SOL     OW15477   1.582   4.363   0.472
 1149SOL    HW115478   1.551   4.424   0.545
 1149SOL    HW215479   1.632   4.415   0.403
 1150SOL     OW15480   0.354   5.234   1.329
 1150SOL    HW115481   0.333   5.190   1.242
 1150SOL    HW215482   0.451   5.260   1.332
 1151SOL     OW15483   0.402   4.475   1.598
 1151SOL    HW115484   0.470   4.530   1.551
 1151SOL    HW215485   0.442   4.387   1.625
 1152SOL     OW15486   0.573   4.594   1.029
 1152SOL    HW115487   0.617   4.683   1.020
 1152SOL    HW215488   0.510   4.594   1.106
 1153SOL     OW15489   1.360   4.586   1.045
 1153SOL    HW115490   1.285   4.586   0.979
 1153SOL    HW215491   1.397   4.494   1.054
 1154SOL     OW15492   1.209   4.249   0.275
 1154SOL    HW115493   1.222   4.165   0.329
 1154SOL    HW215494   1.180   4.323   0.335
 1155SOL     OW15495   0.037   5.034   1.282
 1155SOL    HW115496   0.090   4.985   1.350
 1155SOL    HW215497   0.059   5.132   1.287
 1156SOL     OW15498   0.732   4.358   1.064
 1156SOL    HW115499   0.791   4.332   0.988
 1156SOL    HW215500   0.704   4.454   1.053
 1157SOL     OW15501   1.728   4.659   1.854
 1157SOL    HW115502   1.682   4.652   1.765
 1157SOL    HW215503   1.666   4.703   1.920
 1158SOL     OW15504   0.307   3.787   0.618
 1158SOL    HW115505   0.296   3.881   0.651
 1158SOL    HW215506   0.302   3.724   0.695
 1159SOL     OW15507   1.622   4.091   0.374
 1159SOL    HW115508   1.624   4.015   0.438
 1159SOL    HW215509   1.574   4.168   0.414
 1160SOL     OW15510   1.023   4.490   0.966
 1160SOL    HW115511   1.038   4.511   1.062
 1160SOL    HW215512   0.993   4.395   0.957
 1161SOL     OW15513   1.859   5.242   1.605
 1161SOL    HW115514   1.873   5.269   1.510
 1161SOL    HW215515   1.942   5.264   1.658
 1162SOL     OW15516   1.540   3.998   0.125
 1162SOL    HW115517   1.479   3.923   0.148
 1162SOL    HW215518   1.562   4.050   0.208
 1163SOL     OW15519   1.303   4.562   0.042
 1163SOL    HW115520   1.337   4.469   0.057
 1163SOL    HW215521   1.321   4.589  -0.053
 1164SOL     OW15522   1.068   5.057   0.849
 1164SOL    HW115523   1.075   4.973   0.794
 1164SOL    HW215524   1.130   5.126   0.813
 1165SOL     OW15525   0.008   5.050   0.200
 1165SOL    HW115526  -0.085   5.071   0.169
 1165SOL    HW215527   0.018   4.951   0.213
 1166SOL     OW15528   0.088   5.525   0.927
 1166SOL    HW115529   0.046   5.439   0.900
 1166SOL    HW215530   0.182   5.528   0.893
 1167SOL     OW15531   0.504   5.292   0.910
 1167SOL    HW115532   0.570   5.366   0.919
 1167SOL    HW215533   0.548   5.213   0.868
 1168SOL     OW15534   1.002   4.520   1.238
 1168SOL    HW115535   1.043   4.488   1.324
 1168SOL    HW215536   0.906   4.493   1.235
 1169SOL     OW15537   0.040   4.268   1.114
 1169SOL    HW115538   0.125   4.235   1.073
 1169SOL    HW215539   0.053   4.283   1.212
 1170SOL     OW15540   0.189   4.244   1.722
 1170SOL    HW115541   0.248   4.204   1.652
 1170SOL    HW215542   0.131   4.315   1.681
 1171SOL     OW15543   0.815   4.296   0.325
 1171SOL    HW115544   0.822   4.207   0.279
 1171SOL    HW215545   0.721   4.330   0.317
 1172SOL     OW15546   1.657   4.328   1.206
 1172SOL    HW115547   1.619   4.259   1.268
 1172SOL    HW215548   1.739   4.292   1.162
 1173SOL     OW15549   0.671   4.188   1.269
 1173SOL    HW115550   0.637   4.099   1.239
 1173SOL    HW215551   0.697   4.242   1.189
 1174SOL     OW15552   0.930   5.402   1.465
 1174SOL    HW115553   0.906   5.384   1.370
 1174SOL    HW215554   0.960   5.496   1.475
 1175SOL     OW15555   0.473   4.224   0.191
 1175SOL    HW115556   0.534   4.304   0.195
 1175SOL    HW215557   0.378   4.255   0.198
 1176SOL     OW15558   1.302   4.579   0.309
 1176SOL    HW115559   1.216   4.548   0.351
 1176SOL    HW215560   1.298   4.565   0.210
 1177SOL     OW15561   1.759   5.471   1.154
 1177SOL    HW115562   1.820   5.501   1.081
 1177SOL    HW215563   1.721   5.382   1.132
 1178SOL     OW15564   1.252   5.455   1.128
 1178SOL    HW115565   1.336   5.460   1.074
 1178SOL    HW215566   1.229   5.359   1.146
 1179SOL     OW15567   0.083   4.982   1.022
 1179SOL    HW115568   0.078   4.981   1.122
 1179SOL    HW215569   0.000   4.941   0.984
 1180SOL     OW15570   0.903   3.810   0.133
 1180SOL    HW115571   0.954   3.811   0.047
 1180SOL    HW215572   0.959   3.768   0.204
 1181SOL     OW15573   1.726   3.859   0.523
 1181SOL    HW115574   1.799   3.842   0.456
 1181SOL    HW215575   1.695   3.772   0.561
 1182SOL     OW15576   1.388   5.297   0.477
 1182SOL    HW115577   1.455   5.309   0.403
 1182SOL    HW215578   1.348   5.386   0.500
 1183SOL     OW15579   1.280   4.651   0.672
 1183SOL    HW115580   1.340   4.570   0.674
 1183SOL    HW215581   1.320   4.720   0.612
 1184SOL     OW15582   0.672   5.340   0.154
 1184SOL    HW115583   0.681   5.350   0.055
 1184SOL    HW215584   0.632   5.251   0.175
 1185SOL     OW15585   1.650   5.444   1.394
 1185SOL    HW115586   1.703   5.454   1.310
 1185SOL    HW215587   1.623   5.534   1.428
 1186SOL     OW15588   1.841   3.899   0.963
 1186SOL    HW115589   1.880   3.814   0.927
 1186SOL    HW215590   1.743   3.901   0.944
 1187SOL     OW15591   0.263   4.050   0.720
 1187SOL    HW115592   0.184   4.101   0.686
 1187SOL    HW215593   0.254   4.035   0.818
 1188SOL     OW15594   1.194   5.336   0.031
 1188SOL    HW115595   1.200   5.243   0.068
 1188SOL    HW215596   1.135   5.336  -0.049
 1189SOL     OW15597   0.916   4.634   0.291
 1189SOL    HW115598   0.979   4.672   0.223
 1189SOL    HW215599   0.956   4.551   0.330
 1190SOL     OW15600   1.504   5.331   0.044
 1190SOL    HW115601   1.412   5.368   0.051
 1190SOL    HW215602   1.542   5.351  -0.046
 1191SOL     OW15603   1.039   4.822   0.696
 1191SOL    HW115604   0.969   4.775   0.750
 1191SOL    HW215605   1.098   4.754   0.653
 1192SOL     OW15606   0.590   5.211   0.491
 1192SOL    HW115607   0.632   5.153   0.421
 1192SOL    HW215608   0.546   5.290   0.447
 1193SOL     OW15609   0.255   5.072   0.290
 1193SOL    HW115610   0.159   5.073   0.263
 1193SOL    HW215611   0.267   5.125   0.374
 1194SOL     OW15612   0.075   4.069   0.033
 1194SOL    HW115613  -0.017   4.041   0.004
 1194SOL    HW215614   0.106   4.146  -0.023
 1195SOL     OW15615   0.072   3.890   0.318
 1195SOL    HW115616   0.055   3.973   0.264
 1195SOL    HW215617   0.162   3.853   0.296
 1196SOL     OW15618   1.183   5.059   0.119
 1196SOL    HW115619   1.084   5.048   0.121
 1196SOL    HW215620   1.217   5.074   0.212
 1197SOL     OW15621   0.613   4.566   1.431
 1197SOL    HW115622   0.669   4.647   1.414
 1197SOL    HW215623   0.672   4.486   1.434
 1198SOL     OW15624   1.493   5.491   0.959
 1198SOL    HW115625   1.526   5.555   0.890
 1198SOL    HW215626   1.559   5.485   1.034
 1199SOL     OW15627   0.390   5.465   1.560
 1199SOL    HW115628   0.299   5.506   1.558
 1199SOL    HW215629   0.383   5.371   1.592
 1200SOL     OW15630   1.674   4.607   1.254
 1200SOL    HW115631   1.647   4.518   1.217
 1200SOL    HW215632   1.675   4.675   1.181
 1201SOL     OW15633   1.225   4.049   0.449
 1201SOL    HW115634   1.290   3.975   0.438
 1201SOL    HW215635   1.245   4.099   0.533
 1202SOL     OW15636   0.594   4.469   0.652
 1202SOL    HW115637   0.644   4.554   0.633
 1202SOL    HW215638   0.506   4.471   0.604
 1203SOL     OW15639   0.859   5.098   0.016
 1203SOL    HW115640   0.813   5.113   0.104
 1203SOL    HW215641   0.903   5.183  -0.014
 1204SOL     OW15642   0.859   4.680   0.861
 1204SOL    HW115643   0.913   4.611   0.909
 1204SOL    HW215644   0.827   4.749   0.927
 1205SOL     OW15645   1.083   4.708   0.087
 1205SOL    HW115646   1.060   4.761   0.005
 1205SOL    HW215647   1.164   4.652   0.068
 1206SOL     OW15648   1.861   5.293   0.851
 1206SOL    HW115649   1.790   5.281   0.781
 1206SOL    HW215650   1.862   5.214   0.911
 1207SOL     OW15651   0.079   4.964   0.653
 1207SOL    HW115652   0.078   4.917   0.741
 1207SOL    HW215653   0.161   4.936   0.602
 1208SOL     OW15654   0.428   4.148   0.520
 1208SOL    HW115655   0.458   4.076   0.458
 1208SOL    HW215656   0.389   4.108   0.603
 1209SOL     OW15657   1.705   5.211   1.104
 1209SOL    HW115658   1.612   5.186   1.077
 1209SOL    HW215659   1.731   5.161   1.186
 1210SOL     OW15660   0.812   5.310   0.687
 1210SOL    HW115661   0.844   5.320   0.593
 1210SOL    HW215662   0.733   5.248   0.689
 1211SOL     OW15663   1.424   3.938   1.112
 1211SOL    HW115664   1.476   3.873   1.167
 1211SOL    HW215665   1.375   4.001   1.173
 1212SOL     OW15666   0.770   5.054   0.301
 1212SOL    HW115667   0.724   4.967   0.318
 1212SOL    HW215668   0.861   5.051   0.342
 1213SOL     OW15669   1.352   3.776   0.168
 1213SOL    HW115670   1.387   3.735   0.084
 1213SOL    HW215671   1.262   3.738   0.188
 1214SOL     OW15672   1.300   4.177   0.691
 1214SOL    HW115673   1.241   4.257   0.695
 1214SOL    HW215674   1.315   4.142   0.784
 1215SOL     OW15675   1.593   3.945   0.882
 1215SOL    HW115676   1.509   3.944   0.936
 1215SOL    HW215677   1.595   4.028   0.826
 1216SOL     OW15678   0.039   4.801   0.300
 1216SOL    HW115679   0.138   4.790   0.291
 1216SOL    HW215680  -0.001   4.715   0.332
 1217SOL     OW15681   0.875   5.370   0.337
 1217SOL    HW115682   0.798   5.335   0.283
 1217SOL    HW215683   0.843   5.441   0.399
 1218SOL     OW15684   1.135   4.427   2.579
 1218SOL    HW115685   1.192   4.505   2.554
 1218SOL    HW215686   1.075   4.453   2.655
 1219SOL     OW15687   0.685   4.736   2.527
 1219SOL    HW115688   0.754   4.720   2.597
 1219SOL    HW215689   0.612   4.793   2.565
 1220SOL     OW15690   0.335   5.159   2.923
 1220SOL    HW115691   0.257   5.128   2.870
 1220SOL    HW215692   0.393   5.217   2.866
 1221SOL     OW15693   1.460   5.229   3.201
 1221SOL    HW115694   1.484   5.323   3.227
 1221SOL    HW215695   1.444   5.175   3.283
 1222SOL     OW15696   0.438   4.116   3.361
 1222SOL    HW115697   0.520   4.060   3.370
 1222SOL    HW215698   0.357   4.058   3.365
 1223SOL     OW15699   0.231   5.437   2.345
 1223SOL    HW115700   0.265   5.514   2.399
 1223SOL    HW215701   0.275   5.437   2.255
 1224SOL     OW15702   0.240   4.815   2.748
 1224SOL    HW115703   0.254   4.731   2.800
 1224SOL    HW215704   0.185   4.879   2.803
 1225SOL     OW15705   0.620   5.510   3.301
 1225SOL    HW115706   0.528   5.493   3.336
 1225SOL    HW215707   0.648   5.602   3.327
 1226SOL     OW15708   1.842   5.491   2.221
 1226SOL    HW115709   1.896   5.462   2.301
 1226SOL    HW215710   1.872   5.581   2.192
 1227SOL     OW15711   0.027   5.320   1.979
 1227SOL    HW115712   0.008   5.224   2.000
 1227SOL    HW215713  -0.006   5.378   2.054
 1228SOL     OW15714   1.641   4.832   2.294
 1228SOL    HW115715   1.727   4.834   2.242
 1228SOL    HW215716   1.655   4.879   2.382
 1229SOL     OW15717   0.809   3.728   2.364
 1229SOL    HW115718   0.849   3.819   2.355
 1229SOL    HW215719   0.709   3.736   2.370
 1230SOL     OW15720   1.576   5.386   2.169
 1230SOL    HW115721   1.665   5.432   2.172
 1230SOL    HW215722   1.555   5.362   2.074
 1231SOL     OW15723   0.807   4.329   3.327
 1231SOL    HW115724   0.760   4.326   3.416
 1231SOL    HW215725   0.756   4.274   3.261
 1232SOL     OW15726   0.973   4.614   3.434
 1232SOL    HW115727   1.019   4.530   3.405
 1232SOL    HW215728   0.917   4.648   3.359
 1233SOL     OW15729   0.991   4.134   3.104
 1233SOL    HW115730   0.914   4.168   3.158
 1233SOL    HW215731   0.957   4.083   3.025
 1234SOL     OW15732   0.865   4.072   2.057
 1234SOL    HW115733   0.924   4.135   2.008
 1234SOL    HW215734   0.884   3.978   2.028
 1235SOL     OW15735   1.719   4.309   3.693
 1235SOL    HW115736   1.693   4.398   3.657
 1235SOL    HW215737   1.717   4.241   3.620
 1236SOL     OW15738   0.550   3.920   2.747
 1236SOL    HW115739   0.545   3.915   2.847
 1236SOL    HW215740   0.552   4.016   2.718
 1237SOL     OW15741   1.227   5.274   3.368
 1237SOL    HW115742   1.233   5.197   3.432
 1237SOL    HW215743   1.175   5.248   3.288
 1238SOL     OW15744   0.321   4.667   2.104
 1238SOL    HW115745   0.403   4.706   2.062
 1238SOL    HW215746   0.294   4.585   2.055
 1239SOL     OW15747   0.202   4.009   3.360
 1239SOL    HW115748   0.122   4.069   3.347
 1239SOL    HW215749   0.192   3.960   3.446
 1240SOL     OW15750   0.249   5.509   3.103
 1240SOL    HW115751   0.306   5.444   3.153
 1240SOL    HW215752   0.233   5.476   3.010
 1241SOL     OW15753   0.940   5.422   2.766
 1241SOL    HW115754   1.020   5.365   2.787
 1241SOL    HW215755   0.891   5.382   2.689
 1242SOL     OW15756   0.382   4.424   2.342
 1242SOL    HW115757   0.427   4.334   2.339
 1242SOL    HW215758   0.288   4.413   2.375
 1243SOL     OW15759   0.781   3.988   3.611
 1243SOL    HW115760   0.848   3.927   3.654
 1243SOL    HW215761   0.708   4.007   3.676
 1244SOL     OW15762   0.888   5.238   3.057
 1244SOL    HW115763   0.865   5.213   2.963
 1244SOL    HW215764   0.949   5.169   3.096
 1245SOL     OW15765   0.935   3.960   2.342
 1245SOL    HW115766   0.887   4.001   2.264
 1245SOL    HW215767   1.034   3.958   2.323
 1246SOL     OW15768   1.076   4.407   3.326
 1246SOL    HW115769   0.996   4.346   3.329
 1246SOL    HW215770   1.157   4.354   3.302
 1247SOL     OW15771   0.459   4.876   2.603
 1247SOL    HW115772   0.388   4.849   2.668
 1247SOL    HW215773   0.433   4.848   2.510
 1248SOL     OW15774   1.271   5.521   2.453
 1248SOL    HW115775   1.315   5.585   2.389
 1248SOL    HW215776   1.221   5.573   2.523
 1249SOL     OW15777   1.032   4.273   1.878
 1249SOL    HW115778   0.991   4.355   1.839
 1249SOL    HW215779   1.096   4.299   1.951
 1250SOL     OW15780   0.078   4.280   3.248
 1250SOL    HW115781   0.170   4.279   3.207
 1250SOL    HW215782   0.072   4.354   3.315
 1251SOL     OW15783   0.561   3.946   3.009
 1251SOL    HW115784   0.599   3.862   3.046
 1251SOL    HW215785   0.473   3.965   3.053
 1252SOL     OW15786   1.754   4.947   3.450
 1252SOL    HW115787   1.845   4.908   3.437
 1252SOL    HW215788   1.762   5.043   3.474
 1253SOL     OW15789   0.705   4.774   2.230
 1253SOL    HW115790   0.691   4.781   2.329
 1253SOL    HW215791   0.789   4.723   2.212
 1254SOL     OW15792   0.410   4.537   3.113
 1254SOL    HW115793   0.496   4.549   3.163
 1254SOL    HW215794   0.368   4.450   3.140
 1255SOL     OW15795   1.252   5.072   2.250
 1255SOL    HW115796   1.302   5.149   2.290
 1255SOL    HW215797   1.157   5.074   2.282
 1256SOL     OW15798   0.402   4.475   3.460
 1256SOL    HW115799   0.470   4.530   3.413
 1256SOL    HW215800   0.442   4.387   3.487
 1257SOL     OW15801   1.013   3.829   3.632
 1257SOL    HW115802   1.019   3.914   3.580
 1257SOL    HW215803   1.045   3.753   3.575
 1258SOL     OW15804   0.307   3.787   2.480
 1258SOL    HW115805   0.296   3.881   2.513
 1258SOL    HW215806   0.302   3.724   2.557
 1259SOL     OW15807   1.622   4.091   2.236
 1259SOL    HW115808   1.624   4.015   2.300
 1259SOL    HW215809   1.574   4.168   2.276
 1260SOL     OW15810   1.068   5.057   2.711
 1260SOL    HW115811   1.075   4.973   2.656
 1260SOL    HW215812   1.130   5.126   2.675
 1261SOL     OW15813   1.160   3.931   3.339
 1261SOL    HW115814   1.160   3.995   3.416
 1261SOL    HW215815   1.188   3.979   3.256
 1262SOL     OW15816   0.040   4.268   2.976
 1262SOL    HW115817   0.125   4.235   2.935
 1262SOL    HW215818   0.053   4.283   3.074
 1263SOL     OW15819   0.189   4.244   3.584
 1263SOL    HW115820   0.248   4.204   3.514
 1263SOL    HW215821   0.131   4.315   3.543
 1264SOL     OW15822   0.671   4.188   3.131
 1264SOL    HW115823   0.637   4.099   3.101
 1264SOL    HW215824   0.697   4.242   3.051
 1265SOL     OW15825   1.302   4.579   2.171
 1265SOL    HW115826   1.216   4.548   2.213
 1265SOL    HW215827   1.298   4.565   2.072
 1266SOL     OW15828   1.252   5.455   2.990
 1266SOL    HW115829   1.336   5.460   2.936
 1266SOL    HW215830   1.229   5.359   3.008
 1267SOL     OW15831   0.083   4.982   2.884
 1267SOL    HW115832   0.078   4.981   2.984
 1267SOL    HW215833   0.000   4.941   2.846
 1268SOL     OW15834   1.388   5.297   2.339
 1268SOL    HW115835   1.455   5.309   2.265
 1268SOL    HW215836   1.348   5.386   2.362
 1269SOL     OW15837   0.672   5.340   2.016
 1269SOL    HW115838   0.681   5.350   1.917
 1269SOL    HW215839   0.632   5.251   2.037
 1270SOL     OW15840   1.650   5.444   3.256
 1270SOL    HW115841   1.703   5.454   3.172
 1270SOL    HW215842   1.623   5.534   3.290
 1271SOL     OW15843   0.263   4.050   2.582
 1271SOL    HW115844   0.184   4.101   2.548
 1271SOL    HW215845   0.254   4.035   2.680
 1272SOL     OW15846   0.822   4.726   3.234
 1272SOL    HW115847   0.862   4.725   3.142
 1272SOL    HW215848   0.832   4.818   3.274
 1273SOL     OW15849   0.916   4.634   2.153
 1273SOL    HW115850   0.979   4.672   2.085
 1273SOL    HW215851   0.956   4.551   2.192
 1274SOL     OW15852   0.372   5.012   3.352
 1274SOL    HW115853   0.359   5.105   3.318
 1274SOL    HW215854   0.288   4.960   3.339
 1275SOL     OW15855   1.014   3.960   2.833
 1275SOL    HW115856   1.006   3.924   2.740
 1275SOL    HW215857   1.012   3.884   2.898
 1276SOL     OW15858   1.709   4.109   3.243
 1276SOL    HW115859   1.782   4.178   3.247
 1276SOL    HW215860   1.737   4.034   3.184
 1277SOL     OW15861   0.672   3.927   3.351
 1277SOL    HW115862   0.762   3.911   3.311
 1277SOL    HW215863   0.680   3.932   3.450
 1278SOL     OW15864   1.183   5.059   1.981
 1278SOL    HW115865   1.084   5.048   1.983
 1278SOL    HW215866   1.217   5.074   2.074
 1279SOL     OW15867   1.493   5.491   2.821
 1279SOL    HW115868   1.526   5.555   2.752
 1279SOL    HW215869   1.559   5.485   2.896
 1280SOL     OW15870   0.716   4.289   3.570
 1280SOL    HW115871   0.735   4.354   3.644
 1280SOL    HW215872   0.776   4.209   3.579
 1281SOL     OW15873   1.674   4.607   3.116
 1281SOL    HW115874   1.647   4.518   3.079
 1281SOL    HW215875   1.675   4.675   3.043
 1282SOL     OW15876   1.225   4.049   2.311
 1282SOL    HW115877   1.290   3.975   2.300
 1282SOL    HW215878   1.245   4.099   2.395
 1283SOL     OW15879   1.777   4.066   3.504
 1283SOL    HW115880   1.760   4.097   3.410
 1283SOL    HW215881   1.693   4.029   3.542
 1284SOL     OW15882   0.859   4.680   2.723
 1284SOL    HW115883   0.913   4.611   2.771
 1284SOL    HW215884   0.827   4.749   2.789
 1285SOL     OW15885   1.083   4.708   1.949
 1285SOL    HW115886   1.060   4.761   1.867
 1285SOL    HW215887   1.164   4.652   1.930
 1286SOL     OW15888   0.079   4.964   2.515
 1286SOL    HW115889   0.078   4.917   2.603
 1286SOL    HW215890   0.161   4.936   2.464
 1287SOL     OW15891   0.812   5.310   2.549
 1287SOL    HW115892   0.844   5.320   2.455
 1287SOL    HW215893   0.733   5.248   2.551
 1288SOL     OW15894   1.352   3.776   2.030
 1288SOL    HW115895   1.387   3.735   1.946
 1288SOL    HW215896   1.262   3.738   2.050
 1289SOL     OW15897   1.300   4.177   2.553
 1289SOL    HW115898   1.241   4.257   2.557
 1289SOL    HW215899   1.315   4.142   2.646
 1290SOL     OW15900   0.875   5.370   2.199
 1290SOL    HW115901   0.798   5.335   2.145
 1290SOL    HW215902   0.843   5.441   2.261
 1291SOL     OW15903   0.768   4.868   4.747
 1291SOL    HW115904   0.690   4.885   4.807
 1291SOL    HW215905   0.802   4.955   4.711
 1292SOL     OW15906   0.686   4.885   5.527
 1292SOL    HW115907   0.746   4.964   5.541
 1292SOL    HW215908   0.600   4.916   5.486
 1293SOL     OW15909   1.127   5.065   5.414
 1293SOL    HW115910   1.174   5.065   5.502
 1293SOL    HW215911   1.079   4.978   5.403
 1294SOL     OW15912   0.613   5.089   4.450
 1294SOL    HW115913   0.564   5.002   4.459
 1294SOL    HW215914   0.590   5.132   4.363
 1295SOL     OW15915   1.293   4.952   5.147
 1295SOL    HW115916   1.330   4.879   5.089
 1295SOL    HW215917   1.345   4.957   5.232
 1296SOL     OW15918   0.130   5.545   5.295
 1296SOL    HW115919   0.120   5.530   5.394
 1296SOL    HW215920   0.044   5.581   5.259
 1297SOL     OW15921   1.719   4.309   5.555
 1297SOL    HW115922   1.693   4.398   5.519
 1297SOL    HW215923   1.717   4.241   5.482
 1298SOL     OW15924   1.008   5.180   4.201
 1298SOL    HW115925   0.962   5.252   4.149
 1298SOL    HW215926   1.004   5.200   4.299
 1299SOL     OW15927   0.461   4.990   5.451
 1299SOL    HW115928   0.411   4.991   5.365
 1299SOL    HW215929   0.398   4.972   5.527
 1300SOL     OW15930   0.464   5.467   4.047
 1300SOL    HW115931   0.497   5.506   4.133
 1300SOL    HW215932   0.540   5.460   3.982
 1301SOL     OW15933   1.400   3.831   4.150
 1301SOL    HW115934   1.376   3.794   4.060
 1301SOL    HW215935   1.499   3.847   4.154
 1302SOL     OW15936   0.781   3.988   5.473
 1302SOL    HW115937   0.848   3.927   5.516
 1302SOL    HW215938   0.708   4.007   5.538
 1303SOL     OW15939   0.888   5.238   4.919
 1303SOL    HW115940   0.865   5.213   4.825
 1303SOL    HW215941   0.949   5.169   4.958
 1304SOL     OW15942   0.922   4.227   4.623
 1304SOL    HW115943   0.897   4.218   4.527
 1304SOL    HW215944   0.970   4.145   4.654
 1305SOL     OW15945   1.434   4.912   3.765
 1305SOL    HW115946   1.466   4.836   3.822
 1305SOL    HW215947   1.342   4.939   3.795
 1306SOL     OW15948   0.459   4.876   4.465
 1306SOL    HW115949   0.388   4.849   4.530
 1306SOL    HW215950   0.433   4.848   4.372
 1307SOL     OW15951   0.078   4.280   5.110
 1307SOL    HW115952   0.170   4.279   5.069
 1307SOL    HW215953   0.072   4.354   5.177
 1308SOL     OW15954   0.866   4.178   4.366
 1308SOL    HW115955   0.834   4.250   4.304
 1308SOL    HW215956   0.890   4.097   4.313
 1309SOL     OW15957   1.390   4.299   3.802
 1309SOL    HW115958   1.336   4.278   3.883
 1309SOL    HW215959   1.481   4.258   3.811
 1310SOL     OW15960   1.592   5.353   5.349
 1310SOL    HW115961   1.619   5.387   5.259
 1310SOL    HW215962   1.671   5.315   5.395
 1311SOL     OW15963   0.915   3.813   5.126
 1311SOL    HW115964   0.940   3.793   5.031
 1311SOL    HW215965   0.987   3.869   5.168
 1312SOL     OW15966   0.980   4.840   5.443
 1312SOL    HW115967   0.881   4.846   5.453
 1312SOL    HW215968   1.003   4.760   5.387
 1313SOL     OW15969   0.705   4.774   4.092
 1313SOL    HW115970   0.691   4.781   4.191
 1313SOL    HW215971   0.789   4.723   4.074
 1314SOL     OW15972   0.410   4.537   4.975
 1314SOL    HW115973   0.496   4.549   5.025
 1314SOL    HW215974   0.368   4.450   5.002
 1315SOL     OW15975   0.367   4.824   4.225
 1315SOL    HW115976   0.360   4.907   4.169
 1315SOL    HW215977   0.371   4.744   4.165
 1316SOL     OW15978   1.252   5.072   4.112
 1316SOL    HW115979   1.302   5.149   4.152
 1316SOL    HW215980   1.157   5.074   4.144
 1317SOL     OW15981   1.272   5.169   4.866
 1317SOL    HW115982   1.319   5.182   4.953
 1317SOL    HW215983   1.206   5.095   4.875
 1318SOL     OW15984   0.402   4.475   5.322
 1318SOL    HW115985   0.470   4.530   5.275
 1318SOL    HW215986   0.442   4.387   5.349
 1319SOL     OW15987   1.209   4.249   3.999
 1319SOL    HW115988   1.222   4.165   4.053
 1319SOL    HW215989   1.180   4.323   4.059
 1320SOL     OW15990   1.728   4.659   5.578
 1320SOL    HW115991   1.682   4.652   5.489
 1320SOL    HW215992   1.666   4.703   5.644
 1321SOL     OW15993   0.980   5.297   5.424
 1321SOL    HW115994   0.960   5.341   5.336
 1321SOL    HW215995   1.019   5.206   5.408
 1322SOL     OW15996   1.859   5.242   5.329
 1322SOL    HW115997   1.873   5.269   5.234
 1322SOL    HW215998   1.942   5.264   5.382
 1323SOL     OW15999   0.350   4.622   5.528
 1323SOL    HW116000   0.426   4.666   5.576
 1323SOL    HW216001   0.385   4.575   5.446
 1324SOL     OW16002   0.040   4.268   4.838
 1324SOL    HW116003   0.125   4.235   4.797
 1324SOL    HW216004   0.053   4.283   4.936
 1325SOL     OW16005   0.815   4.296   4.049
 1325SOL    HW116006   0.822   4.207   4.003
 1325SOL    HW216007   0.721   4.330   4.041
 1326SOL     OW16008   0.252   5.288   5.468
 1326SOL    HW116009   0.222   5.345   5.544
 1326SOL    HW216010   0.245   5.191   5.494
 1327SOL     OW16011   0.688   5.386   5.440
 1327SOL    HW116012   0.632   5.467   5.449
 1327SOL    HW216013   0.740   5.390   5.354
 1328SOL     OW16014   1.726   3.859   4.247
 1328SOL    HW116015   1.799   3.842   4.180
 1328SOL    HW216016   1.695   3.772   4.285
 1329SOL     OW16017   0.130   5.518   5.575
 1329SOL    HW116018   0.089   5.444   5.628
 1329SOL    HW216019   0.194   5.569   5.633
 1330SOL     OW16020   0.830   4.997   5.146
 1330SOL    HW116021   0.825   5.030   5.241
 1330SOL    HW216022   0.744   5.016   5.100
 1331SOL     OW16023   1.650   5.444   5.118
 1331SOL    HW116024   1.703   5.454   5.034
 1331SOL    HW216025   1.623   5.534   5.152
 1332SOL     OW16026   0.372   5.012   5.214
 1332SOL    HW116027   0.359   5.105   5.180
 1332SOL    HW216028   0.288   4.960   5.201
 1333SOL     OW16029   1.014   3.960   4.695
 1333SOL    HW116030   1.006   3.924   4.602
 1333SOL    HW216031   1.012   3.884   4.760
 1334SOL     OW16032   0.590   5.211   4.215
 1334SOL    HW116033   0.632   5.153   4.145
 1334SOL    HW216034   0.546   5.290   4.171
 1335SOL     OW16035   1.709   4.109   5.105
 1335SOL    HW116036   1.782   4.178   5.109
 1335SOL    HW216037   1.737   4.034   5.046
 1336SOL     OW16038   0.105   4.737   5.450
 1336SOL    HW116039   0.028   4.704   5.504
 1336SOL    HW216040   0.190   4.707   5.492
 1337SOL     OW16041   0.075   4.069   3.757
 1337SOL    HW116042  -0.017   4.041   3.728
 1337SOL    HW216043   0.106   4.146   3.701
 1338SOL     OW16044   0.390   5.465   5.284
 1338SOL    HW116045   0.299   5.506   5.282
 1338SOL    HW216046   0.383   5.371   5.316
 1339SOL     OW16047   1.225   4.049   4.173
 1339SOL    HW116048   1.290   3.975   4.162
 1339SOL    HW216049   1.245   4.099   4.257
 1340SOL     OW16050   1.777   4.066   5.366
 1340SOL    HW116051   1.760   4.097   5.272
 1340SOL    HW216052   1.693   4.029   5.404
 1341SOL     OW16053   1.730   4.658   5.241
 1341SOL    HW116054   1.768   4.749   5.256
 1341SOL    HW216055   1.722   4.641   5.142
 1342SOL     OW16056   0.859   5.098   3.740
 1342SOL    HW116057   0.813   5.113   3.828
 1342SOL    HW216058   0.903   5.183   3.710
 1343SOL     OW16059   0.859   4.680   4.585
 1343SOL    HW116060   0.913   4.611   4.633
 1343SOL    HW216061   0.827   4.749   4.651
 1344SOL     OW16062   0.221   5.038   5.568
 1344SOL    HW116063   0.156   4.965   5.547
 1344SOL    HW216064   0.225   5.052   5.666
 1345SOL     OW16065   0.079   4.964   4.377
 1345SOL    HW116066   0.078   4.917   4.465
 1345SOL    HW216067   0.161   4.936   4.326
 1346SOL     OW16068   0.672   5.115   5.348
 1346SOL    HW116069   0.594   5.065   5.386
 1346SOL    HW216070   0.669   5.210   5.379
 1347SOL     OW16071   0.770   5.054   4.025
 1347SOL    HW116072   0.724   4.967   4.042
 1347SOL    HW216073   0.861   5.051   4.066
 1348SOL     OW16074   1.593   3.945   4.606
 1348SOL    HW116075   1.509   3.944   4.660
 1348SOL    HW216076   1.595   4.028   4.550
 1349SOL     OW16077   0.225   3.999   6.582
 1349SOL    HW116078   0.260   3.982   6.674
 1349SOL    HW216079   0.137   3.954   6.570
 1350SOL     OW16080   0.019   4.092   6.233
 1350SOL    HW116081  -0.063   4.135   6.272
 1350SOL    HW216082  -0.009   4.019   6.170
 1351SOL     OW16083   0.569   4.999   6.751
 1351SOL    HW116084   0.476   4.992   6.714
 1351SOL    HW216085   0.580   5.088   6.795
 1352SOL     OW16086   1.555   5.235   6.289
 1352SOL    HW116087   1.498   5.219   6.370
 1352SOL    HW216088   1.496   5.245   6.209
 1353SOL     OW16089   1.135   4.427   6.303
 1353SOL    HW116090   1.192   4.505   6.278
 1353SOL    HW216091   1.075   4.453   6.379
 1354SOL     OW16092   1.755   4.331   5.817
 1354SOL    HW116093   1.743   4.318   5.718
 1354SOL    HW216094   1.725   4.250   5.866
 1355SOL     OW16095   0.768   4.868   6.609
 1355SOL    HW116096   0.690   4.885   6.669
 1355SOL    HW216097   0.802   4.955   6.573
 1356SOL     OW16098   0.685   4.736   6.251
 1356SOL    HW116099   0.754   4.720   6.321
 1356SOL    HW216100   0.612   4.793   6.289
 1357SOL     OW16101   0.335   5.159   6.647
 1357SOL    HW116102   0.257   5.128   6.594
 1357SOL    HW216103   0.393   5.217   6.590
 1358SOL     OW16104   1.603   4.171   6.323
 1358SOL    HW116105   1.529   4.217   6.273
 1358SOL    HW216106   1.654   4.239   6.376
 1359SOL     OW16107   0.231   5.437   6.069
 1359SOL    HW116108   0.265   5.514   6.123
 1359SOL    HW216109   0.275   5.437   5.979
 1360SOL     OW16110   0.230   5.158   6.124
 1360SOL    HW116111   0.204   5.254   6.124
 1360SOL    HW216112   0.159   5.104   6.169
 1361SOL     OW16113   0.240   4.815   6.472
 1361SOL    HW116114   0.254   4.731   6.524
 1361SOL    HW216115   0.185   4.879   6.527
 1362SOL     OW16116   0.620   5.510   7.025
 1362SOL    HW116117   0.528   5.493   7.060
 1362SOL    HW216118   0.648   5.602   7.051
 1363SOL     OW16119   0.606   4.688   5.709
 1363SOL    HW116120   0.613   4.772   5.655
 1363SOL    HW216121   0.652   4.701   5.797
 1364SOL     OW16122   0.122   4.367   6.149
 1364SOL    HW116123   0.077   4.279   6.166
 1364SOL    HW216124   0.121   4.421   6.233
 1365SOL     OW16125   1.842   5.491   5.945
 1365SOL    HW116126   1.896   5.462   6.025
 1365SOL    HW216127   1.872   5.581   5.916
 1366SOL     OW16128   0.027   5.320   5.703
 1366SOL    HW116129   0.008   5.224   5.724
 1366SOL    HW216130  -0.006   5.378   5.778
 1367SOL     OW16131   1.641   4.832   6.018
 1367SOL    HW116132   1.727   4.834   5.966
 1367SOL    HW216133   1.655   4.879   6.106
 1368SOL     OW16134   0.613   5.089   6.312
 1368SOL    HW116135   0.564   5.002   6.321
 1368SOL    HW216136   0.590   5.132   6.225
 1369SOL     OW16137   0.809   3.728   6.088
 1369SOL    HW116138   0.849   3.819   6.079
 1369SOL    HW216139   0.709   3.736   6.094
 1370SOL     OW16140   0.197   4.700   6.850
 1370SOL    HW116141   0.286   4.655   6.836
 1370SOL    HW216142   0.124   4.635   6.831
 1371SOL     OW16143   1.525   4.723   5.776
 1371SOL    HW116144   1.462   4.647   5.789
 1371SOL    HW216145   1.573   4.741   5.862
 1372SOL     OW16146   1.466   5.141   6.539
 1372SOL    HW116147   1.407   5.147   6.619
 1372SOL    HW216148   1.451   5.053   6.493
 1373SOL     OW16149   1.667   5.438   6.158
 1373SOL    HW116150   1.626   5.415   6.070
 1373SOL    HW216151   1.649   5.364   6.223
 1374SOL     OW16152   1.281   4.069   6.530
 1374SOL    HW116153   1.195   4.019   6.517
 1374SOL    HW216154   1.343   4.015   6.586
 1375SOL     OW16155   1.576   5.386   5.893
 1375SOL    HW116156   1.665   5.432   5.896
 1375SOL    HW216157   1.555   5.362   5.798
 1376SOL     OW16158   0.991   4.134   6.828
 1376SOL    HW116159   0.914   4.168   6.882
 1376SOL    HW216160   0.957   4.083   6.749
 1377SOL     OW16161   1.041   4.425   6.015
 1377SOL    HW116162   1.067   4.421   6.111
 1377SOL    HW216163   0.956   4.374   6.001
 1378SOL     OW16164   0.076   4.535   6.375
 1378SOL    HW116165   0.175   4.523   6.384
 1378SOL    HW216166   0.052   4.630   6.396
 1379SOL     OW16167   0.130   5.545   7.157
 1379SOL    HW116168   0.120   5.530   7.256
 1379SOL    HW216169   0.044   5.581   7.121
 1380SOL     OW16170   0.865   4.072   5.781
 1380SOL    HW116171   0.924   4.135   5.732
 1380SOL    HW216172   0.884   3.978   5.752
 1381SOL     OW16173   1.362   4.868   6.131
 1381SOL    HW116174   1.445   4.839   6.083
 1381SOL    HW216175   1.313   4.935   6.075
 1382SOL     OW16176   0.550   3.920   6.471
 1382SOL    HW116177   0.545   3.915   6.571
 1382SOL    HW216178   0.552   4.016   6.442
 1383SOL     OW16179   1.008   5.180   6.063
 1383SOL    HW116180   0.962   5.252   6.011
 1383SOL    HW216181   1.004   5.200   6.161
 1384SOL     OW16182   0.351   5.525   6.439
 1384SOL    HW116183   0.401   5.439   6.445
 1384SOL    HW216184   0.416   5.602   6.436
 1385SOL     OW16185   1.795   4.790   6.459
 1385SOL    HW116186   1.733   4.775   6.383
 1385SOL    HW216187   1.743   4.801   6.544
 1386SOL     OW16188   0.321   4.667   5.828
 1386SOL    HW116189   0.403   4.706   5.786
 1386SOL    HW216190   0.294   4.585   5.779
 1387SOL     OW16191   1.458   4.459   6.314
 1387SOL    HW116192   1.453   4.394   6.389
 1387SOL    HW216193   1.538   4.518   6.327
 1388SOL     OW16194   1.111   5.500   5.823
 1388SOL    HW116195   1.051   5.438   5.873
 1388SOL    HW216196   1.142   5.456   5.738
 1389SOL     OW16197   1.632   5.101   5.667
 1389SOL    HW116198   1.600   5.195   5.657
 1389SOL    HW216199   1.556   5.038   5.655
 1390SOL     OW16200   0.464   5.467   5.909
 1390SOL    HW116201   0.497   5.506   5.995
 1390SOL    HW216202   0.540   5.460   5.844
 1391SOL     OW16203   1.400   3.831   6.012
 1391SOL    HW116204   1.376   3.794   5.922
 1391SOL    HW216205   1.499   3.847   6.016
 1392SOL     OW16206   0.249   5.509   6.827
 1392SOL    HW116207   0.306   5.444   6.877
 1392SOL    HW216208   0.233   5.476   6.734
 1393SOL     OW16209   0.940   5.422   6.490
 1393SOL    HW116210   1.020   5.365   6.511
 1393SOL    HW216211   0.891   5.382   6.413
 1394SOL     OW16212   0.382   4.424   6.066
 1394SOL    HW116213   0.427   4.334   6.063
 1394SOL    HW216214   0.288   4.413   6.099
 1395SOL     OW16215   0.803   5.126   6.510
 1395SOL    HW116216   0.893   5.140   6.468
 1395SOL    HW216217   0.732   5.128   6.439
 1396SOL     OW16218   0.922   4.227   6.485
 1396SOL    HW116219   0.897   4.218   6.389
 1396SOL    HW216220   0.970   4.145   6.516
 1397SOL     OW16221   0.539   3.788   6.098
 1397SOL    HW116222   0.458   3.789   6.156
 1397SOL    HW216223   0.542   3.871   6.043
 1398SOL     OW16224   1.434   4.912   5.627
 1398SOL    HW116225   1.466   4.836   5.684
 1398SOL    HW216226   1.342   4.939   5.657
 1399SOL     OW16227   0.935   3.960   6.066
 1399SOL    HW116228   0.887   4.001   5.988
 1399SOL    HW216229   1.034   3.958   6.047
 1400SOL     OW16230   1.227   5.294   6.379
 1400SOL    HW116231   1.248   5.368   6.314
 1400SOL    HW216232   1.295   5.294   6.452
 1401SOL     OW16233   0.459   4.876   6.327
 1401SOL    HW116234   0.388   4.849   6.392
 1401SOL    HW216235   0.433   4.848   6.234
 1402SOL     OW16236   1.271   5.521   6.177
 1402SOL    HW116237   1.315   5.585   6.113
 1402SOL    HW216238   1.221   5.573   6.247
 1403SOL     OW16239   0.561   3.946   6.733
 1403SOL    HW116240   0.599   3.862   6.770
 1403SOL    HW216241   0.473   3.965   6.777
 1404SOL     OW16242   0.866   4.178   6.228
 1404SOL    HW116243   0.834   4.250   6.166
 1404SOL    HW216244   0.890   4.097   6.175
 1405SOL     OW16245   1.017   3.763   6.339
 1405SOL    HW116246   0.945   3.768   6.270
 1405SOL    HW216247   0.993   3.694   6.408
 1406SOL     OW16248   1.429   4.897   6.453
 1406SOL    HW116249   1.374   4.813   6.446
 1406SOL    HW216250   1.455   4.926   6.361
 1407SOL     OW16251   1.466   4.314   6.578
 1407SOL    HW116252   1.436   4.219   6.585
 1407SOL    HW216253   1.539   4.330   6.644
 1408SOL     OW16254   1.857   4.557   5.963
 1408SOL    HW116255   1.899   4.493   6.027
 1408SOL    HW216256   1.819   4.506   5.885
 1409SOL     OW16257   0.488   5.109   5.760
 1409SOL    HW116258   0.401   5.094   5.807
 1409SOL    HW216259   0.471   5.135   5.665
 1410SOL     OW16260   1.664   5.004   6.243
 1410SOL    HW116261   1.763   5.012   6.257
 1410SOL    HW216262   1.619   5.088   6.274
 1411SOL     OW16263   1.390   4.299   5.664
 1411SOL    HW116264   1.336   4.278   5.745
 1411SOL    HW216265   1.481   4.258   5.673
 1412SOL     OW16266   1.111   4.919   6.686
 1412SOL    HW116267   1.071   4.963   6.767
 1412SOL    HW216268   1.070   4.956   6.603
 1413SOL     OW16269   1.638   4.823   6.665
 1413SOL    HW116270   1.643   4.904   6.724
 1413SOL    HW216271   1.552   4.825   6.614
 1414SOL     OW16272   0.705   4.774   5.954
 1414SOL    HW116273   0.691   4.781   6.053
 1414SOL    HW216274   0.789   4.723   5.936
 1415SOL     OW16275   0.410   4.537   6.837
 1415SOL    HW116276   0.496   4.549   6.887
 1415SOL    HW216277   0.368   4.450   6.864
 1416SOL     OW16278   1.274   4.110   6.848
 1416SOL    HW116279   1.295   4.184   6.912
 1416SOL    HW216280   1.185   4.127   6.805
 1417SOL     OW16281   0.367   4.824   6.087
 1417SOL    HW116282   0.360   4.907   6.031
 1417SOL    HW216283   0.371   4.744   6.027
 1418SOL     OW16284   0.566   4.261   6.451
 1418SOL    HW116285   0.578   4.327   6.377
 1418SOL    HW216286   0.612   4.295   6.534
 1419SOL     OW16287   1.252   5.072   5.974
 1419SOL    HW116288   1.302   5.149   6.014
 1419SOL    HW216289   1.157   5.074   6.006
 1420SOL     OW16290   1.272   5.169   6.728
 1420SOL    HW116291   1.319   5.182   6.815
 1420SOL    HW216292   1.206   5.095   6.737
 1421SOL     OW16293   1.582   4.363   6.058
 1421SOL    HW116294   1.551   4.424   6.131
 1421SOL    HW216295   1.632   4.415   5.989
 1422SOL     OW16296   0.354   5.234   6.915
 1422SOL    HW116297   0.333   5.190   6.828
 1422SOL    HW216298   0.451   5.260   6.918
 1423SOL     OW16299   0.573   4.594   6.615
 1423SOL    HW116300   0.617   4.683   6.606
 1423SOL    HW216301   0.510   4.594   6.692
 1424SOL     OW16302   1.360   4.586   6.631
 1424SOL    HW116303   1.285   4.586   6.565
 1424SOL    HW216304   1.397   4.494   6.640
 1425SOL     OW16305   1.209   4.249   5.861
 1425SOL    HW116306   1.222   4.165   5.915
 1425SOL    HW216307   1.180   4.323   5.921
 1426SOL     OW16308   0.307   3.937   6.817
 1426SOL    HW116309   0.284   3.974   6.907
 1426SOL    HW216310   0.277   3.842   6.811
 1427SOL     OW16311   0.037   5.034   6.868
 1427SOL    HW116312   0.090   4.985   6.936
 1427SOL    HW216313   0.059   5.132   6.873
 1428SOL     OW16314   0.732   4.358   6.650
 1428SOL    HW116315   0.791   4.332   6.574
 1428SOL    HW216316   0.704   4.454   6.639
 1429SOL     OW16317   0.307   3.787   6.204
 1429SOL    HW116318   0.296   3.881   6.237
 1429SOL    HW216319   0.302   3.724   6.281
 1430SOL     OW16320   1.622   4.091   5.960
 1430SOL    HW116321   1.624   4.015   6.024
 1430SOL    HW216322   1.574   4.168   6.000
 1431SOL     OW16323   1.023   4.490   6.552
 1431SOL    HW116324   1.038   4.511   6.648
 1431SOL    HW216325   0.993   4.395   6.543
 1432SOL     OW16326   1.540   3.998   5.711
 1432SOL    HW116327   1.479   3.923   5.734
 1432SOL    HW216328   1.562   4.050   5.794
 1433SOL     OW16329   1.303   4.562   5.628
 1433SOL    HW116330   1.337   4.469   5.643
 1433SOL    HW216331   1.321   4.589   5.533
 1434SOL     OW16332   1.068   5.057   6.435
 1434SOL    HW116333   1.075   4.973   6.380
 1434SOL    HW216334   1.130   5.126   6.399
 1435SOL     OW16335   0.319   4.534   6.535
 1435SOL    HW116336   0.412   4.570   6.540
 1435SOL    HW216337   0.313   4.449   6.587
 1436SOL     OW16338   0.339   4.233   6.592
 1436SOL    HW116339   0.287   4.150   6.575
 1436SOL    HW216340   0.416   4.238   6.528
 1437SOL     OW16341   1.160   3.931   7.063
 1437SOL    HW116342   1.160   3.995   7.140
 1437SOL    HW216343   1.188   3.979   6.980
 1438SOL     OW16344   0.008   5.050   5.786
 1438SOL    HW116345  -0.085   5.071   5.755
 1438SOL    HW216346   0.018   4.951   5.799
 1439SOL     OW16347   0.088   5.525   6.513
 1439SOL    HW116348   0.046   5.439   6.486
 1439SOL    HW216349   0.182   5.528   6.479
 1440SOL     OW16350   0.504   5.292   6.496
 1440SOL    HW116351   0.570   5.366   6.505
 1440SOL    HW216352   0.548   5.213   6.454
 1441SOL     OW16353   1.002   4.520   6.824
 1441SOL    HW116354   1.043   4.488   6.910
 1441SOL    HW216355   0.906   4.493   6.821
 1442SOL     OW16356   0.040   4.268   6.700
 1442SOL    HW116357   0.125   4.235   6.659
 1442SOL    HW216358   0.053   4.283   6.798
 1443SOL     OW16359   0.815   4.296   5.911
 1443SOL    HW116360   0.822   4.207   5.865
 1443SOL    HW216361   0.721   4.330   5.903
 1444SOL     OW16362   0.671   4.188   6.855
 1444SOL    HW116363   0.637   4.099   6.825
 1444SOL    HW216364   0.697   4.242   6.775
 1445SOL     OW16365   0.930   5.402   7.051
 1445SOL    HW116366   0.906   5.384   6.956
 1445SOL    HW216367   0.960   5.496   7.061
 1446SOL     OW16368   1.347   4.783   6.820
 1446SOL    HW116369   1.371   4.720   6.746
 1446SOL    HW216370   1.257   4.823   6.802
 1447SOL     OW16371   1.302   4.579   5.895
 1447SOL    HW116372   1.216   4.548   5.937
 1447SOL    HW216373   1.298   4.565   5.796
 1448SOL     OW16374   1.759   5.471   6.740
 1448SOL    HW116375   1.820   5.501   6.667
 1448SOL    HW216376   1.721   5.382   6.718
 1449SOL     OW16377   0.083   4.982   6.608
 1449SOL    HW116378   0.078   4.981   6.708
 1449SOL    HW216379   0.000   4.941   6.570
 1450SOL     OW16380   1.726   3.859   6.109
 1450SOL    HW116381   1.799   3.842   6.042
 1450SOL    HW216382   1.695   3.772   6.147
 1451SOL     OW16383   1.388   5.297   6.063
 1451SOL    HW116384   1.455   5.309   5.989
 1451SOL    HW216385   1.348   5.386   6.086
 1452SOL     OW16386   1.280   4.651   6.258
 1452SOL    HW116387   1.340   4.570   6.260
 1452SOL    HW216388   1.320   4.720   6.198
 1453SOL     OW16389   0.672   5.340   5.740
 1453SOL    HW116390   0.681   5.350   5.641
 1453SOL    HW216391   0.632   5.251   5.761
 1454SOL     OW16392   1.650   5.444   6.980
 1454SOL    HW116393   1.703   5.454   6.896
 1454SOL    HW216394   1.623   5.534   7.014
 1455SOL     OW16395   1.841   3.899   6.549
 1455SOL    HW116396   1.880   3.814   6.513
 1455SOL    HW216397   1.743   3.901   6.530
 1456SOL     OW16398   0.263   4.050   6.306
 1456SOL    HW116399   0.184   4.101   6.272
 1456SOL    HW216400   0.254   4.035   6.404
 1457SOL     OW16401   1.194   5.336   5.617
 1457SOL    HW116402   1.200   5.243   5.654
 1457SOL    HW216403   1.135   5.336   5.537
 1458SOL     OW16404   0.822   4.726   6.958
 1458SOL    HW116405   0.862   4.725   6.866
 1458SOL    HW216406   0.832   4.818   6.998
 1459SOL     OW16407   0.916   4.634   5.877
 1459SOL    HW116408   0.979   4.672   5.809
 1459SOL    HW216409   0.956   4.551   5.916
 1460SOL     OW16410   1.504   5.331   5.630
 1460SOL    HW116411   1.412   5.368   5.637
 1460SOL    HW216412   1.542   5.351   5.540
 1461SOL     OW16413   1.039   4.822   6.282
 1461SOL    HW116414   0.969   4.775   6.336
 1461SOL    HW216415   1.098   4.754   6.239
 1462SOL     OW16416   1.014   3.960   6.557
 1462SOL    HW116417   1.006   3.924   6.464
 1462SOL    HW216418   1.012   3.884   6.622
 1463SOL     OW16419   0.590   5.211   6.077
 1463SOL    HW116420   0.632   5.153   6.007
 1463SOL    HW216421   0.546   5.290   6.033
 1464SOL     OW16422   1.709   4.109   6.967
 1464SOL    HW116423   1.782   4.178   6.971
 1464SOL    HW216424   1.737   4.034   6.908
 1465SOL     OW16425   0.255   5.072   5.876
 1465SOL    HW116426   0.159   5.073   5.849
 1465SOL    HW216427   0.267   5.125   5.960
 1466SOL     OW16428   1.183   5.059   5.705
 1466SOL    HW116429   1.084   5.048   5.707
 1466SOL    HW216430   1.217   5.074   5.798
 1467SOL     OW16431   1.493   5.491   6.545
 1467SOL    HW116432   1.526   5.555   6.476
 1467SOL    HW216433   1.559   5.485   6.620
 1468SOL     OW16434   1.450   4.944   7.219
 1468SOL    HW116435   1.441   4.934   7.318
 1468SOL    HW216436   1.546   4.937   7.193
 1469SOL     OW16437   1.225   4.049   6.035
 1469SOL    HW116438   1.290   3.975   6.024
 1469SOL    HW216439   1.245   4.099   6.119
 1470SOL     OW16440   0.594   4.469   6.238
 1470SOL    HW116441   0.644   4.554   6.219
 1470SOL    HW216442   0.506   4.471   6.190
 1471SOL     OW16443   0.859   5.098   5.602
 1471SOL    HW116444   0.813   5.113   5.690
 1471SOL    HW216445   0.903   5.183   5.572
 1472SOL     OW16446   0.661   5.514   6.539
 1472SOL    HW116447   0.615   5.602   6.526
 1472SOL    HW216448   0.760   5.526   6.532
 1473SOL     OW16449   0.859   4.680   6.447
 1473SOL    HW116450   0.913   4.611   6.495
 1473SOL    HW216451   0.827   4.749   6.513
 1474SOL     OW16452   1.083   4.708   5.673
 1474SOL    HW116453   1.060   4.761   5.591
 1474SOL    HW216454   1.164   4.652   5.654
 1475SOL     OW16455   1.861   5.293   6.437
 1475SOL    HW116456   1.790   5.281   6.367
 1475SOL    HW216457   1.862   5.214   6.497
 1476SOL     OW16458   0.079   4.964   6.239
 1476SOL    HW116459   0.078   4.917   6.327
 1476SOL    HW216460   0.161   4.936   6.188
 1477SOL     OW16461   1.824   3.916   6.813
 1477SOL    HW116462   1.820   3.826   6.857
 1477SOL    HW216463   1.827   3.905   6.714
 1478SOL     OW16464   0.428   4.148   6.106
 1478SOL    HW116465   0.458   4.076   6.044
 1478SOL    HW216466   0.389   4.108   6.189
 1479SOL     OW16467   1.705   5.211   6.690
 1479SOL    HW116468   1.612   5.186   6.663
 1479SOL    HW216469   1.731   5.161   6.772
 1480SOL     OW16470   0.812   5.310   6.273
 1480SOL    HW116471   0.844   5.320   6.179
 1480SOL    HW216472   0.733   5.248   6.275
 1481SOL     OW16473   1.424   3.938   6.698
 1481SOL    HW116474   1.476   3.873   6.753
 1481SOL    HW216475   1.375   4.001   6.759
 1482SOL     OW16476   1.001   3.758   6.740
 1482SOL    HW116477   0.938   3.686   6.709
 1482SOL    HW216478   1.094   3.722   6.740
 1483SOL     OW16479   0.770   5.054   5.887
 1483SOL    HW116480   0.724   4.967   5.904
 1483SOL    HW216481   0.861   5.051   5.928
 1484SOL     OW16482   1.352   3.776   5.754
 1484SOL    HW116483   1.387   3.735   5.670
 1484SOL    HW216484   1.262   3.738   5.774
 1485SOL     OW16485   1.300   4.177   6.277
 1485SOL    HW116486   1.241   4.257   6.281
 1485SOL    HW216487   1.315   4.142   6.370
 1486SOL     OW16488   1.593   3.945   6.468
 1486SOL    HW116489   1.509   3.944   6.522
 1486SOL    HW216490   1.595   4.028   6.412
 1487SOL     OW16491   0.039   4.801   5.886
 1487SOL    HW116492   0.138   4.790   5.877
 1487SOL    HW216493  -0.001   4.715   5.918
 1488SOL     OW16494   0.875   5.370   5.923
 1488SOL    HW116495   0.798   5.335   5.869
 1488SOL    HW216496   0.843   5.441   5.985
 1489SOL     OW16497   0.230   6.214   0.113
 1489SOL    HW116498   0.137   6.212   0.150
 1489SOL    HW216499   0.231   6.175   0.021
 1490SOL     OW16500   0.225   5.861   0.996
 1490SOL    HW116501   0.260   5.844   1.088
 1490SOL    HW216502   0.137   5.816   0.984
 1491SOL     OW16503   0.569   6.861   1.165
 1491SOL    HW116504   0.476   6.854   1.128
 1491SOL    HW216505   0.580   6.950   1.209
 1492SOL     OW16506   1.555   7.097   0.703
 1492SOL    HW116507   1.498   7.081   0.784
 1492SOL    HW216508   1.496   7.107   0.623
 1493SOL     OW16509   1.755   6.193   0.231
 1493SOL    HW116510   1.743   6.180   0.132
 1493SOL    HW216511   1.725   6.112   0.280
 1494SOL     OW16512   0.768   6.730   1.023
 1494SOL    HW116513   0.690   6.747   1.083
 1494SOL    HW216514   0.802   6.817   0.987
 1495SOL     OW16515   0.850   6.384   1.823
 1495SOL    HW116516   0.846   6.460   1.888
 1495SOL    HW216517   0.872   6.420   1.732
 1496SOL     OW16518   0.686   6.747   1.803
 1496SOL    HW116519   0.746   6.826   1.817
 1496SOL    HW216520   0.600   6.778   1.762
 1497SOL     OW16521   0.335   7.021   1.061
 1497SOL    HW116522   0.257   6.990   1.008
 1497SOL    HW216523   0.393   7.079   1.004
 1498SOL     OW16524   1.603   6.033   0.737
 1498SOL    HW116525   1.529   6.079   0.687
 1498SOL    HW216526   1.654   6.101   0.790
 1499SOL     OW16527   0.231   7.299   0.483
 1499SOL    HW116528   0.265   7.376   0.537
 1499SOL    HW216529   0.275   7.299   0.393
 1500SOL     OW16530   0.230   7.020   0.538
 1500SOL    HW116531   0.204   7.116   0.538
 1500SOL    HW216532   0.159   6.966   0.583
 1501SOL     OW16533   0.240   6.677   0.886
 1501SOL    HW116534   0.254   6.593   0.938
 1501SOL    HW216535   0.185   6.741   0.941
 1502SOL     OW16536   0.606   6.550   0.123
 1502SOL    HW116537   0.613   6.634   0.069
 1502SOL    HW216538   0.652   6.563   0.211
 1503SOL     OW16539   1.842   7.353   0.359
 1503SOL    HW116540   1.896   7.324   0.439
 1503SOL    HW216541   1.872   7.443   0.330
 1504SOL     OW16542   0.027   7.182   0.117
 1504SOL    HW116543   0.008   7.086   0.138
 1504SOL    HW216544  -0.006   7.240   0.192
 1505SOL     OW16545   1.689   6.508   0.612
 1505SOL    HW116546   1.784   6.479   0.620
 1505SOL    HW216547   1.681   6.573   0.537
 1506SOL     OW16548   1.641   6.694   0.432
 1506SOL    HW116549   1.727   6.696   0.380
 1506SOL    HW216550   1.655   6.741   0.520
 1507SOL     OW16551   0.113   6.323   1.597
 1507SOL    HW116552   0.201   6.310   1.642
 1507SOL    HW216553   0.100   6.420   1.575
 1508SOL     OW16554   0.613   6.951   0.726
 1508SOL    HW116555   0.564   6.864   0.735
 1508SOL    HW216556   0.590   6.994   0.639
 1509SOL     OW16557   0.809   5.590   0.502
 1509SOL    HW116558   0.849   5.681   0.493
 1509SOL    HW216559   0.709   5.598   0.508
 1510SOL     OW16560   1.525   6.585   0.190
 1510SOL    HW116561   1.462   6.509   0.203
 1510SOL    HW216562   1.573   6.603   0.276
 1511SOL     OW16563   1.187   7.378   1.616
 1511SOL    HW116564   1.211   7.438   1.540
 1511SOL    HW216565   1.194   7.283   1.586
 1512SOL     OW16566   1.466   7.003   0.953
 1512SOL    HW116567   1.407   7.009   1.033
 1512SOL    HW216568   1.451   6.915   0.907
 1513SOL     OW16569   1.667   7.300   0.572
 1513SOL    HW116570   1.626   7.277   0.484
 1513SOL    HW216571   1.649   7.226   0.637
 1514SOL     OW16572   0.598   6.315   0.270
 1514SOL    HW116573   0.622   6.384   0.202
 1514SOL    HW216574   0.520   6.348   0.324
 1515SOL     OW16575   1.576   7.248   0.307
 1515SOL    HW116576   1.665   7.294   0.310
 1515SOL    HW216577   1.555   7.224   0.212
 1516SOL     OW16578   1.394   6.055   1.674
 1516SOL    HW116579   1.374   6.098   1.762
 1516SOL    HW216580   1.472   5.993   1.683
 1517SOL     OW16581   1.362   6.730   0.545
 1517SOL    HW116582   1.445   6.701   0.497
 1517SOL    HW216583   1.313   6.797   0.489
 1518SOL     OW16584   0.550   5.782   0.885
 1518SOL    HW116585   0.545   5.777   0.985
 1518SOL    HW216586   0.552   5.878   0.856
 1519SOL     OW16587   1.008   7.042   0.477
 1519SOL    HW116588   0.962   7.114   0.425
 1519SOL    HW216589   1.004   7.062   0.575
 1520SOL     OW16590   1.795   6.652   0.873
 1520SOL    HW116591   1.733   6.637   0.797
 1520SOL    HW216592   1.743   6.663   0.958
 1521SOL     OW16593   0.321   6.529   0.242
 1521SOL    HW116594   0.403   6.568   0.200
 1521SOL    HW216595   0.294   6.447   0.193
 1522SOL     OW16596   1.458   6.321   0.728
 1522SOL    HW116597   1.453   6.256   0.803
 1522SOL    HW216598   1.538   6.380   0.741
 1523SOL     OW16599   1.111   7.362   0.237
 1523SOL    HW116600   1.051   7.300   0.287
 1523SOL    HW216601   1.142   7.318   0.152
 1524SOL     OW16602   1.632   6.963   0.081
 1524SOL    HW116603   1.600   7.057   0.071
 1524SOL    HW216604   1.556   6.900   0.069
 1525SOL     OW16605   0.464   7.329   0.323
 1525SOL    HW116606   0.497   7.368   0.409
 1525SOL    HW216607   0.540   7.322   0.258
 1526SOL     OW16608   1.400   5.693   0.426
 1526SOL    HW116609   1.376   5.656   0.336
 1526SOL    HW216610   1.499   5.709   0.430
 1527SOL     OW16611   0.249   7.371   1.241
 1527SOL    HW116612   0.306   7.306   1.291
 1527SOL    HW216613   0.233   7.338   1.148
 1528SOL     OW16614   0.940   7.284   0.904
 1528SOL    HW116615   1.020   7.227   0.925
 1528SOL    HW216616   0.891   7.244   0.827
 1529SOL     OW16617   0.888   7.100   1.195
 1529SOL    HW116618   0.865   7.075   1.101
 1529SOL    HW216619   0.949   7.031   1.234
 1530SOL     OW16620   1.351   6.176   1.433
 1530SOL    HW116621   1.379   6.133   1.518
 1530SOL    HW216622   1.376   6.272   1.434
 1531SOL     OW16623   0.803   6.988   0.924
 1531SOL    HW116624   0.893   7.002   0.882
 1531SOL    HW216625   0.732   6.990   0.853
 1532SOL     OW16626   0.539   5.650   0.512
 1532SOL    HW116627   0.458   5.651   0.570
 1532SOL    HW216628   0.542   5.733   0.457
 1533SOL     OW16629   1.434   6.774   0.041
 1533SOL    HW116630   1.466   6.698   0.098
 1533SOL    HW216631   1.342   6.801   0.071
 1534SOL     OW16632   0.297   5.621   0.171
 1534SOL    HW116633   0.346   5.705   0.150
 1534SOL    HW216634   0.359   5.556   0.216
 1535SOL     OW16635   1.227   7.156   0.793
 1535SOL    HW116636   1.248   7.230   0.728
 1535SOL    HW216637   1.295   7.156   0.866
 1536SOL     OW16638   1.271   7.383   0.591
 1536SOL    HW116639   1.315   7.447   0.527
 1536SOL    HW216640   1.221   7.435   0.661
 1537SOL     OW16641   1.032   6.135   0.016
 1537SOL    HW116642   0.991   6.217  -0.023
 1537SOL    HW216643   1.096   6.161   0.089
 1538SOL     OW16644   0.561   5.808   1.147
 1538SOL    HW116645   0.599   5.724   1.184
 1538SOL    HW216646   0.473   5.827   1.191
 1539SOL     OW16647   1.017   5.625   0.753
 1539SOL    HW116648   0.945   5.630   0.684
 1539SOL    HW216649   0.993   5.556   0.822
 1540SOL     OW16650   1.429   6.759   0.867
 1540SOL    HW116651   1.374   6.675   0.860
 1540SOL    HW216652   1.455   6.788   0.775
 1541SOL     OW16653   1.857   6.419   0.377
 1541SOL    HW116654   1.899   6.355   0.441
 1541SOL    HW216655   1.819   6.368   0.299
 1542SOL     OW16656   0.488   6.971   0.174
 1542SOL    HW116657   0.401   6.956   0.221
 1542SOL    HW216658   0.471   6.997   0.079
 1543SOL     OW16659   1.664   6.866   0.657
 1543SOL    HW116660   1.763   6.874   0.671
 1543SOL    HW216661   1.619   6.950   0.688
 1544SOL     OW16662   0.527   5.842   0.328
 1544SOL    HW116663   0.554   5.783   0.253
 1544SOL    HW216664   0.527   5.937   0.297
 1545SOL     OW16665   1.064   6.933   1.340
 1545SOL    HW116666   0.984   6.910   1.395
 1545SOL    HW216667   1.147   6.907   1.389
 1546SOL     OW16668   1.111   6.781   1.100
 1546SOL    HW116669   1.071   6.825   1.181
 1546SOL    HW216670   1.070   6.818   1.017
 1547SOL     OW16671   1.638   6.685   1.079
 1547SOL    HW116672   1.643   6.766   1.138
 1547SOL    HW216673   1.552   6.687   1.028
 1548SOL     OW16674   0.915   5.675   1.402
 1548SOL    HW116675   0.940   5.655   1.307
 1548SOL    HW216676   0.987   5.731   1.444
 1549SOL     OW16677   0.410   6.399   1.251
 1549SOL    HW116678   0.496   6.411   1.301
 1549SOL    HW216679   0.368   6.312   1.278
 1550SOL     OW16680   1.274   5.972   1.262
 1550SOL    HW116681   1.295   6.046   1.326
 1550SOL    HW216682   1.185   5.989   1.219
 1551SOL     OW16683   0.064   7.150   1.331
 1551SOL    HW116684   0.018   7.232   1.297
 1551SOL    HW216685   0.162   7.169   1.340
 1552SOL     OW16686   0.367   6.686   0.501
 1552SOL    HW116687   0.360   6.769   0.445
 1552SOL    HW216688   0.371   6.606   0.441
 1553SOL     OW16689   1.252   6.934   0.388
 1553SOL    HW116690   1.302   7.011   0.428
 1553SOL    HW216691   1.157   6.936   0.420
 1554SOL     OW16692   1.582   6.225   0.472
 1554SOL    HW116693   1.551   6.286   0.545
 1554SOL    HW216694   1.632   6.277   0.403
 1555SOL     OW16695   0.354   7.096   1.329
 1555SOL    HW116696   0.333   7.052   1.242
 1555SOL    HW216697   0.451   7.122   1.332
 1556SOL     OW16698   1.013   5.691   1.770
 1556SOL    HW116699   1.019   5.776   1.718
 1556SOL    HW216700   1.045   5.615   1.713
 1557SOL     OW16701   0.573   6.456   1.029
 1557SOL    HW116702   0.617   6.545   1.020
 1557SOL    HW216703   0.510   6.456   1.106
 1558SOL     OW16704   1.360   6.448   1.045
 1558SOL    HW116705   1.285   6.448   0.979
 1558SOL    HW216706   1.397   6.356   1.054
 1559SOL     OW16707   0.307   5.799   1.231
 1559SOL    HW116708   0.284   5.836   1.321
 1559SOL    HW216709   0.277   5.704   1.225
 1560SOL     OW16710   0.037   6.896   1.282
 1560SOL    HW116711   0.090   6.847   1.350
 1560SOL    HW216712   0.059   6.994   1.287
 1561SOL     OW16713   0.732   6.220   1.064
 1561SOL    HW116714   0.791   6.194   0.988
 1561SOL    HW216715   0.704   6.316   1.053
 1562SOL     OW16716   1.728   6.521   1.854
 1562SOL    HW116717   1.682   6.514   1.765
 1562SOL    HW216718   1.666   6.565   1.920
 1563SOL     OW16719   0.307   5.649   0.618
 1563SOL    HW116720   0.296   5.743   0.651
 1563SOL    HW216721   0.302   5.586   0.695
 1564SOL     OW16722   1.622   5.953   0.374
 1564SOL    HW116723   1.624   5.877   0.438
 1564SOL    HW216724   1.574   6.030   0.414
 1565SOL     OW16725   0.350   6.484   1.804
 1565SOL    HW116726   0.426   6.528   1.852
 1565SOL    HW216727   0.385   6.437   1.722
 1566SOL     OW16728   1.068   6.919   0.849
 1566SOL    HW116729   1.075   6.835   0.794
 1566SOL    HW216730   1.130   6.988   0.813
 1567SOL     OW16731   0.319   6.396   0.949
 1567SOL    HW116732   0.412   6.432   0.954
 1567SOL    HW216733   0.313   6.311   1.001
 1568SOL     OW16734   0.339   6.095   1.006
 1568SOL    HW116735   0.287   6.012   0.989
 1568SOL    HW216736   0.416   6.100   0.942
 1569SOL     OW16737   1.160   5.793   1.477
 1569SOL    HW116738   1.160   5.857   1.554
 1569SOL    HW216739   1.188   5.841   1.394
 1570SOL     OW16740   0.008   6.912   0.200
 1570SOL    HW116741  -0.085   6.933   0.169
 1570SOL    HW216742   0.018   6.813   0.213
 1571SOL     OW16743   0.504   7.154   0.910
 1571SOL    HW116744   0.570   7.228   0.919
 1571SOL    HW216745   0.548   7.075   0.868
 1572SOL     OW16746   1.002   6.382   1.238
 1572SOL    HW116747   1.043   6.350   1.324
 1572SOL    HW216748   0.906   6.355   1.235
 1573SOL     OW16749   0.930   7.264   1.465
 1573SOL    HW116750   0.906   7.246   1.370
 1573SOL    HW216751   0.960   7.358   1.475
 1574SOL     OW16752   0.473   6.086   0.191
 1574SOL    HW116753   0.534   6.166   0.195
 1574SOL    HW216754   0.378   6.117   0.198
 1575SOL     OW16755   1.347   6.645   1.234
 1575SOL    HW116756   1.371   6.582   1.160
 1575SOL    HW216757   1.257   6.685   1.216
 1576SOL     OW16758   1.759   7.333   1.154
 1576SOL    HW116759   1.820   7.363   1.081
 1576SOL    HW216760   1.721   7.244   1.132
 1577SOL     OW16761   1.252   7.317   1.128
 1577SOL    HW116762   1.336   7.322   1.074
 1577SOL    HW216763   1.229   7.221   1.146
 1578SOL     OW16764   0.083   6.844   1.022
 1578SOL    HW116765   0.078   6.843   1.122
 1578SOL    HW216766   0.000   6.803   0.984
 1579SOL     OW16767   0.688   7.248   1.716
 1579SOL    HW116768   0.632   7.329   1.725
 1579SOL    HW216769   0.740   7.252   1.630
 1580SOL     OW16770   0.903   5.672   0.133
 1580SOL    HW116771   0.954   5.673   0.047
 1580SOL    HW216772   0.959   5.630   0.204
 1581SOL     OW16773   1.726   5.721   0.523
 1581SOL    HW116774   1.799   5.704   0.456
 1581SOL    HW216775   1.695   5.634   0.561
 1582SOL     OW16776   1.388   7.159   0.477
 1582SOL    HW116777   1.455   7.171   0.403
 1582SOL    HW216778   1.348   7.248   0.500
 1583SOL     OW16779   0.130   7.380   1.851
 1583SOL    HW116780   0.089   7.306   1.904
 1583SOL    HW216781   0.194   7.431   1.909
 1584SOL     OW16782   0.830   6.859   1.422
 1584SOL    HW116783   0.825   6.892   1.517
 1584SOL    HW216784   0.744   6.878   1.376
 1585SOL     OW16785   0.672   7.202   0.154
 1585SOL    HW116786   0.681   7.212   0.055
 1585SOL    HW216787   0.632   7.113   0.175
 1586SOL     OW16788   1.650   7.306   1.394
 1586SOL    HW116789   1.703   7.316   1.310
 1586SOL    HW216790   1.623   7.396   1.428
 1587SOL     OW16791   0.263   5.912   0.720
 1587SOL    HW116792   0.184   5.963   0.686
 1587SOL    HW216793   0.254   5.897   0.818
 1588SOL     OW16794   1.194   7.198   0.031
 1588SOL    HW116795   1.200   7.105   0.068
 1588SOL    HW216796   1.135   7.198  -0.049
 1589SOL     OW16797   0.822   6.588   1.372
 1589SOL    HW116798   0.862   6.587   1.280
 1589SOL    HW216799   0.832   6.680   1.412
 1590SOL     OW16800   1.504   7.193   0.044
 1590SOL    HW116801   1.412   7.230   0.051
 1590SOL    HW216802   1.542   7.213  -0.046
 1591SOL     OW16803   0.372   6.874   1.490
 1591SOL    HW116804   0.359   6.967   1.456
 1591SOL    HW216805   0.288   6.822   1.477
 1592SOL     OW16806   1.014   5.822   0.971
 1592SOL    HW116807   1.006   5.786   0.878
 1592SOL    HW216808   1.012   5.746   1.036
 1593SOL     OW16809   0.590   7.073   0.491
 1593SOL    HW116810   0.632   7.015   0.421
 1593SOL    HW216811   0.546   7.152   0.447
 1594SOL     OW16812   0.255   6.934   0.290
 1594SOL    HW116813   0.159   6.935   0.263
 1594SOL    HW216814   0.267   6.987   0.374
 1595SOL     OW16815   0.075   5.931   0.033
 1595SOL    HW116816  -0.017   5.903   0.004
 1595SOL    HW216817   0.106   6.008  -0.023
 1596SOL     OW16818   1.440   6.442   1.398
 1596SOL    HW116819   1.383   6.494   1.335
 1596SOL    HW216820   1.536   6.454   1.374
 1597SOL     OW16821   0.072   5.752   0.318
 1597SOL    HW116822   0.055   5.835   0.264
 1597SOL    HW216823   0.162   5.715   0.296
 1598SOL     OW16824   1.183   6.921   0.119
 1598SOL    HW116825   1.084   6.910   0.121
 1598SOL    HW216826   1.217   6.936   0.212
 1599SOL     OW16827   0.613   6.428   1.431
 1599SOL    HW116828   0.669   6.509   1.414
 1599SOL    HW216829   0.672   6.348   1.434
 1600SOL     OW16830   1.493   7.353   0.959
 1600SOL    HW116831   1.526   7.417   0.890
 1600SOL    HW216832   1.559   7.347   1.034
 1601SOL     OW16833   0.716   6.151   1.708
 1601SOL    HW116834   0.735   6.216   1.782
 1601SOL    HW216835   0.776   6.071   1.717
 1602SOL     OW16836   1.674   6.469   1.254
 1602SOL    HW116837   1.647   6.380   1.217
 1602SOL    HW216838   1.675   6.537   1.181
 1603SOL     OW16839   1.225   5.911   0.449
 1603SOL    HW116840   1.290   5.837   0.438
 1603SOL    HW216841   1.245   5.961   0.533
 1604SOL     OW16842   0.859   6.960   0.016
 1604SOL    HW116843   0.813   6.975   0.104
 1604SOL    HW216844   0.903   7.045  -0.014
 1605SOL     OW16845   0.661   7.376   0.953
 1605SOL    HW116846   0.615   7.464   0.940
 1605SOL    HW216847   0.760   7.388   0.946
 1606SOL     OW16848   0.859   6.542   0.861
 1606SOL    HW116849   0.913   6.473   0.909
 1606SOL    HW216850   0.827   6.611   0.927
 1607SOL     OW16851   1.083   6.570   0.087
 1607SOL    HW116852   1.060   6.623   0.005
 1607SOL    HW216853   1.164   6.514   0.068
 1608SOL     OW16854   1.861   7.155   0.851
 1608SOL    HW116855   1.790   7.143   0.781
 1608SOL    HW216856   1.862   7.076   0.911
 1609SOL     OW16857   0.079   6.826   0.653
 1609SOL    HW116858   0.078   6.779   0.741
 1609SOL    HW216859   0.161   6.798   0.602
 1610SOL     OW16860   0.672   6.977   1.624
 1610SOL    HW116861   0.594   6.927   1.662
 1610SOL    HW216862   0.669   7.072   1.655
 1611SOL     OW16863   0.428   6.010   0.520
 1611SOL    HW116864   0.458   5.938   0.458
 1611SOL    HW216865   0.389   5.970   0.603
 1612SOL     OW16866   1.705   7.073   1.104
 1612SOL    HW116867   1.612   7.048   1.077
 1612SOL    HW216868   1.731   7.023   1.186
 1613SOL     OW16869   0.317   6.133   1.280
 1613SOL    HW116870   0.355   6.074   1.352
 1613SOL    HW216871   0.357   6.107   1.192
 1614SOL     OW16872   0.812   7.172   0.687
 1614SOL    HW116873   0.844   7.182   0.593
 1614SOL    HW216874   0.733   7.110   0.689
 1615SOL     OW16875   1.424   5.800   1.112
 1615SOL    HW116876   1.476   5.735   1.167
 1615SOL    HW216877   1.375   5.863   1.173
 1616SOL     OW16878   1.001   5.620   1.154
 1616SOL    HW116879   0.938   5.548   1.123
 1616SOL    HW216880   1.094   5.584   1.154
 1617SOL     OW16881   0.618   7.153   1.284
 1617SOL    HW116882   0.613   7.235   1.341
 1617SOL    HW216883   0.707   7.150   1.239
 1618SOL     OW16884   1.352   5.638   0.168
 1618SOL    HW116885   1.387   5.597   0.084
 1618SOL    HW216886   1.262   5.600   0.188
 1619SOL     OW16887   1.300   6.039   0.691
 1619SOL    HW116888   1.241   6.119   0.695
 1619SOL    HW216889   1.315   6.004   0.784
 1620SOL     OW16890   1.593   5.807   0.882
 1620SOL    HW116891   1.509   5.806   0.936
 1620SOL    HW216892   1.595   5.890   0.826
 1621SOL     OW16893   0.039   6.663   0.300
 1621SOL    HW116894   0.138   6.652   0.291
 1621SOL    HW216895  -0.001   6.577   0.332
 1622SOL     OW16896   0.875   7.232   0.337
 1622SOL    HW116897   0.798   7.197   0.283
 1622SOL    HW216898   0.843   7.303   0.399
 1623SOL     OW16899   0.019   5.954   2.509
 1623SOL    HW116900  -0.063   5.997   2.548
 1623SOL    HW216901  -0.009   5.881   2.446
 1624SOL     OW16902   1.135   6.289   2.579
 1624SOL    HW116903   1.192   6.367   2.554
 1624SOL    HW216904   1.075   6.315   2.655
 1625SOL     OW16905   0.768   6.730   2.885
 1625SOL    HW116906   0.690   6.747   2.945
 1625SOL    HW216907   0.802   6.817   2.849
 1626SOL     OW16908   0.335   7.021   2.923
 1626SOL    HW116909   0.257   6.990   2.870
 1626SOL    HW216910   0.393   7.079   2.866
 1627SOL     OW16911   1.603   6.033   2.599
 1627SOL    HW116912   1.529   6.079   2.549
 1627SOL    HW216913   1.654   6.101   2.652
 1628SOL     OW16914   1.127   6.927   3.552
 1628SOL    HW116915   1.174   6.927   3.640
 1628SOL    HW216916   1.079   6.840   3.541
 1629SOL     OW16917   0.620   7.372   3.301
 1629SOL    HW116918   0.528   7.355   3.336
 1629SOL    HW216919   0.648   7.464   3.327
 1630SOL     OW16920   1.594   5.700   3.342
 1630SOL    HW116921   1.576   5.767   3.270
 1630SOL    HW216922   1.591   5.746   3.431
 1631SOL     OW16923   0.807   6.191   3.327
 1631SOL    HW116924   0.760   6.188   3.416
 1631SOL    HW216925   0.756   6.136   3.261
 1632SOL     OW16926   0.076   6.397   2.651
 1632SOL    HW116927   0.175   6.385   2.660
 1632SOL    HW216928   0.052   6.492   2.672
 1633SOL     OW16929   0.550   5.782   2.747
 1633SOL    HW116930   0.545   5.777   2.847
 1633SOL    HW216931   0.552   5.878   2.718
 1634SOL     OW16932   1.111   7.362   2.099
 1634SOL    HW116933   1.051   7.300   2.149
 1634SOL    HW216934   1.142   7.318   2.014
 1635SOL     OW16935   0.464   7.329   2.185
 1635SOL    HW116936   0.497   7.368   2.271
 1635SOL    HW216937   0.540   7.322   2.120
 1636SOL     OW16938   0.940   7.284   2.766
 1636SOL    HW116939   1.020   7.227   2.787
 1636SOL    HW216940   0.891   7.244   2.689
 1637SOL     OW16941   0.935   5.822   2.342
 1637SOL    HW116942   0.887   5.863   2.264
 1637SOL    HW216943   1.034   5.820   2.323
 1638SOL     OW16944   1.227   7.156   2.655
 1638SOL    HW116945   1.248   7.230   2.590
 1638SOL    HW216946   1.295   7.156   2.728
 1639SOL     OW16947   1.271   7.383   2.453
 1639SOL    HW116948   1.315   7.447   2.389
 1639SOL    HW216949   1.221   7.435   2.523
 1640SOL     OW16950   1.429   6.759   2.729
 1640SOL    HW116951   1.374   6.675   2.722
 1640SOL    HW216952   1.455   6.788   2.637
 1641SOL     OW16953   1.857   6.419   2.239
 1641SOL    HW116954   1.899   6.355   2.303
 1641SOL    HW216955   1.819   6.368   2.161
 1642SOL     OW16956   1.664   6.866   2.519
 1642SOL    HW116957   1.763   6.874   2.533
 1642SOL    HW216958   1.619   6.950   2.550
 1643SOL     OW16959   0.527   5.842   2.190
 1643SOL    HW116960   0.554   5.783   2.115
 1643SOL    HW216961   0.527   5.937   2.159
 1644SOL     OW16962   0.915   5.675   3.264
 1644SOL    HW116963   0.940   5.655   3.169
 1644SOL    HW216964   0.987   5.731   3.306
 1645SOL     OW16965   1.274   5.972   3.124
 1645SOL    HW116966   1.295   6.046   3.188
 1645SOL    HW216967   1.185   5.989   3.081
 1646SOL     OW16968   0.367   6.686   2.363
 1646SOL    HW116969   0.360   6.769   2.307
 1646SOL    HW216970   0.371   6.606   2.303
 1647SOL     OW16971   0.566   6.123   2.727
 1647SOL    HW116972   0.578   6.189   2.653
 1647SOL    HW216973   0.612   6.157   2.810
 1648SOL     OW16974   0.402   6.337   3.460
 1648SOL    HW116975   0.470   6.392   3.413
 1648SOL    HW216976   0.442   6.249   3.487
 1649SOL     OW16977   1.587   6.365   3.532
 1649SOL    HW116978   1.495   6.403   3.527
 1649SOL    HW216979   1.647   6.412   3.467
 1650SOL     OW16980   0.573   6.456   2.891
 1650SOL    HW116981   0.617   6.545   2.882
 1650SOL    HW216982   0.510   6.456   2.968
 1651SOL     OW16983   0.307   5.799   3.093
 1651SOL    HW116984   0.284   5.836   3.183
 1651SOL    HW216985   0.277   5.704   3.087
 1652SOL     OW16986   0.037   6.896   3.144
 1652SOL    HW116987   0.090   6.847   3.212
 1652SOL    HW216988   0.059   6.994   3.149
 1653SOL     OW16989   0.732   6.220   2.926
 1653SOL    HW116990   0.791   6.194   2.850
 1653SOL    HW216991   0.704   6.316   2.915
 1654SOL     OW16992   1.728   6.521   3.716
 1654SOL    HW116993   1.682   6.514   3.627
 1654SOL    HW216994   1.666   6.565   3.782
 1655SOL     OW16995   1.622   5.953   2.236
 1655SOL    HW116996   1.624   5.877   2.300
 1655SOL    HW216997   1.574   6.030   2.276
 1656SOL     OW16998   1.859   7.104   3.467
 1656SOL    HW116999   1.873   7.131   3.372
 1656SOL    HW217000   1.942   7.126   3.520
 1657SOL     OW17001   0.350   6.484   3.666
 1657SOL    HW117002   0.426   6.528   3.714
 1657SOL    HW217003   0.385   6.437   3.584
 1658SOL     OW17004   0.319   6.396   2.811
 1658SOL    HW117005   0.412   6.432   2.816
 1658SOL    HW217006   0.313   6.311   2.863
 1659SOL     OW17007   1.138   5.966   3.540
 1659SOL    HW117008   1.093   6.029   3.604
 1659SOL    HW217009   1.231   5.997   3.523
 1660SOL     OW17010   0.008   6.912   2.062
 1660SOL    HW117011  -0.085   6.933   2.031
 1660SOL    HW217012   0.018   6.813   2.075
 1661SOL     OW17013   0.040   6.130   2.976
 1661SOL    HW117014   0.125   6.097   2.935
 1661SOL    HW217015   0.053   6.145   3.074
 1662SOL     OW17016   0.815   6.158   2.187
 1662SOL    HW117017   0.822   6.069   2.141
 1662SOL    HW217018   0.721   6.192   2.179
 1663SOL     OW17019   1.657   6.190   3.068
 1663SOL    HW117020   1.619   6.121   3.130
 1663SOL    HW217021   1.739   6.154   3.024
 1664SOL     OW17022   0.671   6.050   3.131
 1664SOL    HW117023   0.637   5.961   3.101
 1664SOL    HW217024   0.697   6.104   3.051
 1665SOL     OW17025   0.473   6.086   2.053
 1665SOL    HW117026   0.534   6.166   2.057
 1665SOL    HW217027   0.378   6.117   2.060
 1666SOL     OW17028   1.347   6.645   3.096
 1666SOL    HW117029   1.371   6.582   3.022
 1666SOL    HW217030   1.257   6.685   3.078
 1667SOL     OW17031   1.280   6.513   2.534
 1667SOL    HW117032   1.340   6.432   2.536
 1667SOL    HW217033   1.320   6.582   2.474
 1668SOL     OW17034   0.672   7.202   2.016
 1668SOL    HW117035   0.681   7.212   1.917
 1668SOL    HW217036   0.632   7.113   2.037
 1669SOL     OW17037   1.841   5.761   2.825
 1669SOL    HW117038   1.880   5.676   2.789
 1669SOL    HW217039   1.743   5.763   2.806
 1670SOL     OW17040   0.590   7.073   2.353
 1670SOL    HW117041   0.632   7.015   2.283
 1670SOL    HW217042   0.546   7.152   2.309
 1671SOL     OW17043   0.075   5.931   1.895
 1671SOL    HW117044  -0.017   5.903   1.866
 1671SOL    HW217045   0.106   6.008   1.839
 1672SOL     OW17046   1.440   6.442   3.260
 1672SOL    HW117047   1.383   6.494   3.197
 1672SOL    HW217048   1.536   6.454   3.236
 1673SOL     OW17049   1.493   7.353   2.821
 1673SOL    HW117050   1.526   7.417   2.752
 1673SOL    HW217051   1.559   7.347   2.896
 1674SOL     OW17052   1.777   5.928   3.504
 1674SOL    HW117053   1.760   5.959   3.410
 1674SOL    HW217054   1.693   5.891   3.542
 1675SOL     OW17055   0.672   6.977   3.486
 1675SOL    HW117056   0.594   6.927   3.524
 1675SOL    HW217057   0.669   7.072   3.517
 1676SOL     OW17058   1.824   5.778   3.089
 1676SOL    HW117059   1.820   5.688   3.133
 1676SOL    HW217060   1.827   5.767   2.990
 1677SOL     OW17061   1.705   7.073   2.966
 1677SOL    HW117062   1.612   7.048   2.939
 1677SOL    HW217063   1.731   7.023   3.048
 1678SOL     OW17064   0.317   6.133   3.142
 1678SOL    HW117065   0.355   6.074   3.214
 1678SOL    HW217066   0.357   6.107   3.054
 1679SOL     OW17067   1.424   5.800   2.974
 1679SOL    HW117068   1.476   5.735   3.029
 1679SOL    HW217069   1.375   5.863   3.035
 1680SOL     OW17070   1.001   5.620   3.016
 1680SOL    HW117071   0.938   5.548   2.985
 1680SOL    HW217072   1.094   5.584   3.016
 1681SOL     OW17073   0.770   6.916   2.163
 1681SOL    HW117074   0.724   6.829   2.180
 1681SOL    HW217075   0.861   6.913   2.204
 1682SOL     OW17076   0.618   7.153   3.146
 1682SOL    HW117077   0.613   7.235   3.203
 1682SOL    HW217078   0.707   7.150   3.101
 1683SOL     OW17079   0.875   7.232   2.199
 1683SOL    HW117080   0.798   7.197   2.145
 1683SOL    HW217081   0.843   7.303   2.261
 1684SOL     OW17082   0.230   6.214   3.837
 1684SOL    HW117083   0.137   6.212   3.874
 1684SOL    HW217084   0.231   6.175   3.745
 1685SOL     OW17085   0.225   5.861   4.720
 1685SOL    HW117086   0.260   5.844   4.812
 1685SOL    HW217087   0.137   5.816   4.708
 1686SOL     OW17088   0.019   5.954   4.371
 1686SOL    HW117089  -0.063   5.997   4.410
 1686SOL    HW217090  -0.009   5.881   4.308
 1687SOL     OW17091   0.569   6.861   4.889
 1687SOL    HW117092   0.476   6.854   4.852
 1687SOL    HW217093   0.580   6.950   4.933
 1688SOL     OW17094   0.768   6.730   4.747
 1688SOL    HW117095   0.690   6.747   4.807
 1688SOL    HW217096   0.802   6.817   4.711
 1689SOL     OW17097   0.685   6.598   4.389
 1689SOL    HW117098   0.754   6.582   4.459
 1689SOL    HW217099   0.612   6.655   4.427
 1690SOL     OW17100   0.686   6.747   5.527
 1690SOL    HW117101   0.746   6.826   5.541
 1690SOL    HW217102   0.600   6.778   5.486
 1691SOL     OW17103   0.438   5.978   5.223
 1691SOL    HW117104   0.520   5.922   5.232
 1691SOL    HW217105   0.357   5.920   5.227
 1692SOL     OW17106   1.127   6.927   5.414
 1692SOL    HW117107   1.174   6.927   5.502
 1692SOL    HW217108   1.079   6.840   5.403
 1693SOL     OW17109   0.240   6.677   4.610
 1693SOL    HW117110   0.254   6.593   4.662
 1693SOL    HW217111   0.185   6.741   4.665
 1694SOL     OW17112   0.620   7.372   5.163
 1694SOL    HW117113   0.528   7.355   5.198
 1694SOL    HW217114   0.648   7.464   5.189
 1695SOL     OW17115   1.594   5.700   5.204
 1695SOL    HW117116   1.576   5.767   5.132
 1695SOL    HW217117   1.591   5.746   5.293
 1696SOL     OW17118   0.122   6.229   4.287
 1696SOL    HW117119   0.077   6.141   4.304
 1696SOL    HW217120   0.121   6.283   4.371
 1697SOL     OW17121   0.027   7.182   3.841
 1697SOL    HW117122   0.008   7.086   3.862
 1697SOL    HW217123  -0.006   7.240   3.916
 1698SOL     OW17124   1.641   6.694   4.156
 1698SOL    HW117125   1.727   6.696   4.104
 1698SOL    HW217126   1.655   6.741   4.244
 1699SOL     OW17127   0.113   6.323   5.321
 1699SOL    HW117128   0.201   6.310   5.366
 1699SOL    HW217129   0.100   6.420   5.299
 1700SOL     OW17130   1.293   6.814   5.147
 1700SOL    HW117131   1.330   6.741   5.089
 1700SOL    HW217132   1.345   6.819   5.232
 1701SOL     OW17133   0.197   6.562   4.988
 1701SOL    HW117134   0.286   6.517   4.974
 1701SOL    HW217135   0.124   6.497   4.969
 1702SOL     OW17136   1.187   7.378   5.340
 1702SOL    HW117137   1.211   7.438   5.264
 1702SOL    HW217138   1.194   7.283   5.310
 1703SOL     OW17139   0.317   5.837   5.525
 1703SOL    HW117140   0.388   5.908   5.531
 1703SOL    HW217141   0.229   5.876   5.553
 1704SOL     OW17142   1.466   7.003   4.677
 1704SOL    HW117143   1.407   7.009   4.757
 1704SOL    HW217144   1.451   6.915   4.631
 1705SOL     OW17145   1.281   5.931   4.668
 1705SOL    HW117146   1.195   5.881   4.655
 1705SOL    HW217147   1.343   5.877   4.724
 1706SOL     OW17148   1.394   6.055   5.398
 1706SOL    HW117149   1.374   6.098   5.486
 1706SOL    HW217150   1.472   5.993   5.407
 1707SOL     OW17151   0.991   5.996   4.966
 1707SOL    HW117152   0.914   6.030   5.020
 1707SOL    HW217153   0.957   5.945   4.887
 1708SOL     OW17154   1.041   6.287   4.153
 1708SOL    HW117155   1.067   6.283   4.249
 1708SOL    HW217156   0.956   6.236   4.139
 1709SOL     OW17157   0.076   6.397   4.513
 1709SOL    HW117158   0.175   6.385   4.522
 1709SOL    HW217159   0.052   6.492   4.534
 1710SOL     OW17160   0.130   7.407   5.295
 1710SOL    HW117161   0.120   7.392   5.394
 1710SOL    HW217162   0.044   7.443   5.259
 1711SOL     OW17163   0.865   5.934   3.919
 1711SOL    HW117164   0.924   5.997   3.870
 1711SOL    HW217165   0.884   5.840   3.890
 1712SOL     OW17166   1.362   6.730   4.269
 1712SOL    HW117167   1.445   6.701   4.221
 1712SOL    HW217168   1.313   6.797   4.213
 1713SOL     OW17169   0.550   5.782   4.609
 1713SOL    HW117170   0.545   5.777   4.709
 1713SOL    HW217171   0.552   5.878   4.580
 1714SOL     OW17172   0.351   7.387   4.577
 1714SOL    HW117173   0.401   7.301   4.583
 1714SOL    HW217174   0.416   7.464   4.574
 1715SOL     OW17175   1.795   6.652   4.597
 1715SOL    HW117176   1.733   6.637   4.521
 1715SOL    HW217177   1.743   6.663   4.682
 1716SOL     OW17178   1.227   7.136   5.230
 1716SOL    HW117179   1.233   7.059   5.294
 1716SOL    HW217180   1.175   7.110   5.150
 1717SOL     OW17181   0.321   6.529   3.966
 1717SOL    HW117182   0.403   6.568   3.924
 1717SOL    HW217183   0.294   6.447   3.917
 1718SOL     OW17184   1.458   6.321   4.452
 1718SOL    HW117185   1.453   6.256   4.527
 1718SOL    HW217186   1.538   6.380   4.465
 1719SOL     OW17187   0.461   6.852   5.451
 1719SOL    HW117188   0.411   6.853   5.365
 1719SOL    HW217189   0.398   6.834   5.527
 1720SOL     OW17190   0.202   5.871   5.222
 1720SOL    HW117191   0.122   5.931   5.209
 1720SOL    HW217192   0.192   5.822   5.308
 1721SOL     OW17193   0.464   7.329   4.047
 1721SOL    HW117194   0.497   7.368   4.133
 1721SOL    HW217195   0.540   7.322   3.982
 1722SOL     OW17196   1.400   5.693   4.150
 1722SOL    HW117197   1.376   5.656   4.060
 1722SOL    HW217198   1.499   5.709   4.154
 1723SOL     OW17199   0.249   7.371   4.965
 1723SOL    HW117200   0.306   7.306   5.015
 1723SOL    HW217201   0.233   7.338   4.872
 1724SOL     OW17202   1.547   5.808   5.453
 1724SOL    HW117203   1.542   5.845   5.545
 1724SOL    HW217204   1.475   5.739   5.441
 1725SOL     OW17205   0.614   5.708   3.841
 1725SOL    HW117206   0.712   5.686   3.848
 1725SOL    HW217207   0.583   5.691   3.748
 1726SOL     OW17208   0.888   7.100   4.919
 1726SOL    HW117209   0.865   7.075   4.825
 1726SOL    HW217210   0.949   7.031   4.958
 1727SOL     OW17211   1.351   6.176   5.157
 1727SOL    HW117212   1.379   6.133   5.242
 1727SOL    HW217213   1.376   6.272   5.158
 1728SOL     OW17214   0.803   6.988   4.648
 1728SOL    HW117215   0.893   7.002   4.606
 1728SOL    HW217216   0.732   6.990   4.577
 1729SOL     OW17217   0.539   5.650   4.236
 1729SOL    HW117218   0.458   5.651   4.294
 1729SOL    HW217219   0.542   5.733   4.181
 1730SOL     OW17220   0.459   6.738   4.465
 1730SOL    HW117221   0.388   6.711   4.530
 1730SOL    HW217222   0.433   6.710   4.372
 1731SOL     OW17223   1.032   6.135   3.740
 1731SOL    HW117224   0.991   6.217   3.701
 1731SOL    HW217225   1.096   6.161   3.813
 1732SOL     OW17226   0.078   6.142   5.110
 1732SOL    HW117227   0.170   6.141   5.069
 1732SOL    HW217228   0.072   6.216   5.177
 1733SOL     OW17229   0.561   5.808   4.871
 1733SOL    HW117230   0.599   5.724   4.908
 1733SOL    HW217231   0.473   5.827   4.915
 1734SOL     OW17232   1.017   5.625   4.477
 1734SOL    HW117233   0.945   5.630   4.408
 1734SOL    HW217234   0.993   5.556   4.546
 1735SOL     OW17235   1.664   6.866   4.381
 1735SOL    HW117236   1.763   6.874   4.395
 1735SOL    HW217237   1.619   6.950   4.412
 1736SOL     OW17238   1.064   6.933   5.064
 1736SOL    HW117239   0.984   6.910   5.119
 1736SOL    HW217240   1.147   6.907   5.113
 1737SOL     OW17241   1.592   7.215   5.349
 1737SOL    HW117242   1.619   7.249   5.259
 1737SOL    HW217243   1.671   7.177   5.395
 1738SOL     OW17244   1.111   6.781   4.824
 1738SOL    HW117245   1.071   6.825   4.905
 1738SOL    HW217246   1.070   6.818   4.741
 1739SOL     OW17247   1.638   6.685   4.803
 1739SOL    HW117248   1.643   6.766   4.862
 1739SOL    HW217249   1.552   6.687   4.752
 1740SOL     OW17250   0.915   5.675   5.126
 1740SOL    HW117251   0.940   5.655   5.031
 1740SOL    HW217252   0.987   5.731   5.168
 1741SOL     OW17253   0.705   6.636   4.092
 1741SOL    HW117254   0.691   6.643   4.191
 1741SOL    HW217255   0.789   6.585   4.074
 1742SOL     OW17256   0.410   6.399   4.975
 1742SOL    HW117257   0.496   6.411   5.025
 1742SOL    HW217258   0.368   6.312   5.002
 1743SOL     OW17259   0.064   7.150   5.055
 1743SOL    HW117260   0.018   7.232   5.021
 1743SOL    HW217261   0.162   7.169   5.064
 1744SOL     OW17262   0.367   6.686   4.225
 1744SOL    HW117263   0.360   6.769   4.169
 1744SOL    HW217264   0.371   6.606   4.165
 1745SOL     OW17265   0.354   7.096   5.053
 1745SOL    HW117266   0.333   7.052   4.966
 1745SOL    HW217267   0.451   7.122   5.056
 1746SOL     OW17268   0.402   6.337   5.322
 1746SOL    HW117269   0.470   6.392   5.275
 1746SOL    HW217270   0.442   6.249   5.349
 1747SOL     OW17271   1.587   6.365   5.394
 1747SOL    HW117272   1.495   6.403   5.389
 1747SOL    HW217273   1.647   6.412   5.329
 1748SOL     OW17274   1.013   5.691   5.494
 1748SOL    HW117275   1.019   5.776   5.442
 1748SOL    HW217276   1.045   5.615   5.437
 1749SOL     OW17277   0.504   5.636   5.464
 1749SOL    HW117278   0.462   5.579   5.394
 1749SOL    HW217279   0.438   5.705   5.496
 1750SOL     OW17280   0.573   6.456   4.753
 1750SOL    HW117281   0.617   6.545   4.744
 1750SOL    HW217282   0.510   6.456   4.830
 1751SOL     OW17283   0.307   5.799   4.955
 1751SOL    HW117284   0.284   5.836   5.045
 1751SOL    HW217285   0.277   5.704   4.949
 1752SOL     OW17286   0.037   6.896   5.006
 1752SOL    HW117287   0.090   6.847   5.074
 1752SOL    HW217288   0.059   6.994   5.011
 1753SOL     OW17289   1.728   6.521   5.578
 1753SOL    HW117290   1.682   6.514   5.489
 1753SOL    HW217291   1.666   6.565   5.644
 1754SOL     OW17292   0.307   5.649   4.342
 1754SOL    HW117293   0.296   5.743   4.375
 1754SOL    HW217294   0.302   5.586   4.419
 1755SOL     OW17295   1.622   5.953   4.098
 1755SOL    HW117296   1.624   5.877   4.162
 1755SOL    HW217297   1.574   6.030   4.138
 1756SOL     OW17298   0.980   7.159   5.424
 1756SOL    HW117299   0.960   7.203   5.336
 1756SOL    HW217300   1.019   7.068   5.408
 1757SOL     OW17301   0.350   6.484   5.528
 1757SOL    HW117302   0.426   6.528   5.576
 1757SOL    HW217303   0.385   6.437   5.446
 1758SOL     OW17304   1.068   6.919   4.573
 1758SOL    HW117305   1.075   6.835   4.518
 1758SOL    HW217306   1.130   6.988   4.537
 1759SOL     OW17307   0.319   6.396   4.673
 1759SOL    HW117308   0.412   6.432   4.678
 1759SOL    HW217309   0.313   6.311   4.725
 1760SOL     OW17310   0.339   6.095   4.730
 1760SOL    HW117311   0.287   6.012   4.713
 1760SOL    HW217312   0.416   6.100   4.666
 1761SOL     OW17313   1.138   5.966   5.402
 1761SOL    HW117314   1.093   6.029   5.466
 1761SOL    HW217315   1.231   5.997   5.385
 1762SOL     OW17316   1.160   5.793   5.201
 1762SOL    HW117317   1.160   5.857   5.278
 1762SOL    HW217318   1.188   5.841   5.118
 1763SOL     OW17319   0.088   7.387   4.651
 1763SOL    HW117320   0.046   7.301   4.624
 1763SOL    HW217321   0.182   7.390   4.617
 1764SOL     OW17322   0.040   6.130   4.838
 1764SOL    HW117323   0.125   6.097   4.797
 1764SOL    HW217324   0.053   6.145   4.936
 1765SOL     OW17325   0.189   6.106   5.446
 1765SOL    HW117326   0.248   6.066   5.376
 1765SOL    HW217327   0.131   6.177   5.405
 1766SOL     OW17328   1.369   6.536   5.384
 1766SOL    HW117329   1.408   6.625   5.404
 1766SOL    HW217330   1.379   6.516   5.287
 1767SOL     OW17331   0.815   6.158   4.049
 1767SOL    HW117332   0.822   6.069   4.003
 1767SOL    HW217333   0.721   6.192   4.041
 1768SOL     OW17334   0.252   7.150   5.468
 1768SOL    HW117335   0.222   7.207   5.544
 1768SOL    HW217336   0.245   7.053   5.494
 1769SOL     OW17337   0.671   6.050   4.993
 1769SOL    HW117338   0.637   5.961   4.963
 1769SOL    HW217339   0.697   6.104   4.913
 1770SOL     OW17340   0.930   7.264   5.189
 1770SOL    HW117341   0.906   7.246   5.094
 1770SOL    HW217342   0.960   7.358   5.199
 1771SOL     OW17343   0.159   6.723   5.190
 1771SOL    HW117344   0.181   6.662   5.266
 1771SOL    HW217345   0.169   6.674   5.104
 1772SOL     OW17346   1.347   6.645   4.958
 1772SOL    HW117347   1.371   6.582   4.884
 1772SOL    HW217348   1.257   6.685   4.940
 1773SOL     OW17349   0.083   6.844   4.746
 1773SOL    HW117350   0.078   6.843   4.846
 1773SOL    HW217351   0.000   6.803   4.708
 1774SOL     OW17352   0.688   7.248   5.440
 1774SOL    HW117353   0.632   7.329   5.449
 1774SOL    HW217354   0.740   7.252   5.354
 1775SOL     OW17355   0.130   7.380   5.575
 1775SOL    HW117356   0.089   7.306   5.628
 1775SOL    HW217357   0.194   7.431   5.633
 1776SOL     OW17358   0.830   6.859   5.146
 1776SOL    HW117359   0.825   6.892   5.241
 1776SOL    HW217360   0.744   6.878   5.100
 1777SOL     OW17361   1.650   7.306   5.118
 1777SOL    HW117362   1.703   7.316   5.034
 1777SOL    HW217363   1.623   7.396   5.152
 1778SOL     OW17364   0.822   6.588   5.096
 1778SOL    HW117365   0.862   6.587   5.004
 1778SOL    HW217366   0.832   6.680   5.136
 1779SOL     OW17367   0.372   6.874   5.214
 1779SOL    HW117368   0.359   6.967   5.180
 1779SOL    HW217369   0.288   6.822   5.201
 1780SOL     OW17370   1.614   6.878   5.013
 1780SOL    HW117371   1.674   6.881   5.093
 1780SOL    HW217372   1.539   6.942   5.026
 1781SOL     OW17373   1.014   5.822   4.695
 1781SOL    HW117374   1.006   5.786   4.602
 1781SOL    HW217375   1.012   5.746   4.760
 1782SOL     OW17376   0.590   7.073   4.215
 1782SOL    HW117377   0.632   7.015   4.145
 1782SOL    HW217378   0.546   7.152   4.171
 1783SOL     OW17379   1.709   5.971   5.105
 1783SOL    HW117380   1.782   6.040   5.109
 1783SOL    HW217381   1.737   5.896   5.046
 1784SOL     OW17382   0.255   6.934   4.014
 1784SOL    HW117383   0.159   6.935   3.987
 1784SOL    HW217384   0.267   6.987   4.098
 1785SOL     OW17385   0.105   6.599   5.450
 1785SOL    HW117386   0.028   6.566   5.504
 1785SOL    HW217387   0.190   6.569   5.492
 1786SOL     OW17388   0.672   5.789   5.213
 1786SOL    HW117389   0.762   5.773   5.173
 1786SOL    HW217390   0.680   5.794   5.312
 1787SOL     OW17391   0.075   5.931   3.757
 1787SOL    HW117392  -0.017   5.903   3.728
 1787SOL    HW217393   0.106   6.008   3.701
 1788SOL     OW17394   1.440   6.442   5.122
 1788SOL    HW117395   1.383   6.494   5.059
 1788SOL    HW217396   1.536   6.454   5.098
 1789SOL     OW17397   1.183   6.921   3.843
 1789SOL    HW117398   1.084   6.910   3.845
 1789SOL    HW217399   1.217   6.936   3.936
 1790SOL     OW17400   1.450   6.806   5.357
 1790SOL    HW117401   1.441   6.796   5.456
 1790SOL    HW217402   1.546   6.799   5.331
 1791SOL     OW17403   0.390   7.327   5.284
 1791SOL    HW117404   0.299   7.368   5.282
 1791SOL    HW217405   0.383   7.233   5.316
 1792SOL     OW17406   1.225   5.911   4.173
 1792SOL    HW117407   1.290   5.837   4.162
 1792SOL    HW217408   1.245   5.961   4.257
 1793SOL     OW17409   1.730   6.520   5.241
 1793SOL    HW117410   1.768   6.611   5.256
 1793SOL    HW217411   1.722   6.503   5.142
 1794SOL     OW17412   0.661   7.376   4.677
 1794SOL    HW117413   0.615   7.464   4.664
 1794SOL    HW217414   0.760   7.388   4.670
 1795SOL     OW17415   0.859   6.542   4.585
 1795SOL    HW117416   0.913   6.473   4.633
 1795SOL    HW217417   0.827   6.611   4.651
 1796SOL     OW17418   0.221   6.900   5.568
 1796SOL    HW117419   0.156   6.827   5.547
 1796SOL    HW217420   0.225   6.914   5.666
 1797SOL     OW17421   0.672   6.977   5.348
 1797SOL    HW117422   0.594   6.927   5.386
 1797SOL    HW217423   0.669   7.072   5.379
 1798SOL     OW17424   1.824   5.778   4.951
 1798SOL    HW117425   1.820   5.688   4.995
 1798SOL    HW217426   1.827   5.767   4.852
 1799SOL     OW17427   1.705   7.073   4.828
 1799SOL    HW117428   1.612   7.048   4.801
 1799SOL    HW217429   1.731   7.023   4.910
 1800SOL     OW17430   0.317   6.133   5.004
 1800SOL    HW117431   0.355   6.074   5.076
 1800SOL    HW217432   0.357   6.107   4.916
 1801SOL     OW17433   1.424   5.800   4.836
 1801SOL    HW117434   1.476   5.735   4.891
 1801SOL    HW217435   1.375   5.863   4.897
 1802SOL     OW17436   1.001   5.620   4.878
 1802SOL    HW117437   0.938   5.548   4.847
 1802SOL    HW217438   1.094   5.584   4.878
 1803SOL     OW17439   0.618   7.153   5.008
 1803SOL    HW117440   0.613   7.235   5.065
 1803SOL    HW217441   0.707   7.150   4.963
 1804SOL     OW17442   1.352   5.638   3.892
 1804SOL    HW117443   1.387   5.597   3.808
 1804SOL    HW217444   1.262   5.600   3.912
 1805SOL     OW17445   1.593   5.807   4.606
 1805SOL    HW117446   1.509   5.806   4.660
 1805SOL    HW217447   1.595   5.890   4.550
 1806SOL     OW17448   0.039   6.663   4.024
 1806SOL    HW117449   0.138   6.652   4.015
 1806SOL    HW217450  -0.001   6.577   4.056
 1807SOL     OW17451   0.875   7.232   4.061
 1807SOL    HW117452   0.798   7.197   4.007
 1807SOL    HW217453   0.843   7.303   4.123
 1808SOL     OW17454   0.230   6.214   5.699
 1808SOL    HW117455   0.137   6.212   5.736
 1808SOL    HW217456   0.231   6.175   5.607
 1809SOL     OW17457   0.225   5.861   6.582
 1809SOL    HW117458   0.260   5.844   6.674
 1809SOL    HW217459   0.137   5.816   6.570
 1810SOL     OW17460   0.019   5.954   6.233
 1810SOL    HW117461  -0.063   5.997   6.272
 1810SOL    HW217462  -0.009   5.881   6.170
 1811SOL     OW17463   0.569   6.861   6.751
 1811SOL    HW117464   0.476   6.854   6.714
 1811SOL    HW217465   0.580   6.950   6.795
 1812SOL     OW17466   1.555   7.097   6.289
 1812SOL    HW117467   1.498   7.081   6.370
 1812SOL    HW217468   1.496   7.107   6.209
 1813SOL     OW17469   1.135   6.289   6.303
 1813SOL    HW117470   1.192   6.367   6.278
 1813SOL    HW217471   1.075   6.315   6.379
 1814SOL     OW17472   0.768   6.730   6.609
 1814SOL    HW117473   0.690   6.747   6.669
 1814SOL    HW217474   0.802   6.817   6.573
 1815SOL     OW17475   0.685   6.598   6.251
 1815SOL    HW117476   0.754   6.582   6.321
 1815SOL    HW217477   0.612   6.655   6.289
 1816SOL     OW17478   0.335   7.021   6.647
 1816SOL    HW117479   0.257   6.990   6.594
 1816SOL    HW217480   0.393   7.079   6.590
 1817SOL     OW17481   1.603   6.033   6.323
 1817SOL    HW117482   1.529   6.079   6.273
 1817SOL    HW217483   1.654   6.101   6.376
 1818SOL     OW17484   0.231   7.299   6.069
 1818SOL    HW117485   0.265   7.376   6.123
 1818SOL    HW217486   0.275   7.299   5.979
 1819SOL     OW17487   0.230   7.020   6.124
 1819SOL    HW117488   0.204   7.116   6.124
 1819SOL    HW217489   0.159   6.966   6.169
 1820SOL     OW17490   0.240   6.677   6.472
 1820SOL    HW117491   0.254   6.593   6.524
 1820SOL    HW217492   0.185   6.741   6.527
 1821SOL     OW17493   0.122   6.229   6.149
 1821SOL    HW117494   0.077   6.141   6.166
 1821SOL    HW217495   0.121   6.283   6.233
 1822SOL     OW17496   1.842   7.353   5.945
 1822SOL    HW117497   1.896   7.324   6.025
 1822SOL    HW217498   1.872   7.443   5.916
 1823SOL     OW17499   0.027   7.182   5.703
 1823SOL    HW117500   0.008   7.086   5.724
 1823SOL    HW217501  -0.006   7.240   5.778
 1824SOL     OW17502   1.689   6.508   6.198
 1824SOL    HW117503   1.784   6.479   6.206
 1824SOL    HW217504   1.681   6.573   6.123
 1825SOL     OW17505   1.641   6.694   6.018
 1825SOL    HW117506   1.727   6.696   5.966
 1825SOL    HW217507   1.655   6.741   6.106
 1826SOL     OW17508   0.613   6.951   6.312
 1826SOL    HW117509   0.564   6.864   6.321
 1826SOL    HW217510   0.590   6.994   6.225
 1827SOL     OW17511   0.809   5.590   6.088
 1827SOL    HW117512   0.849   5.681   6.079
 1827SOL    HW217513   0.709   5.598   6.094
 1828SOL     OW17514   0.197   6.562   6.850
 1828SOL    HW117515   0.286   6.517   6.836
 1828SOL    HW217516   0.124   6.497   6.831
 1829SOL     OW17517   1.525   6.585   5.776
 1829SOL    HW117518   1.462   6.509   5.789
 1829SOL    HW217519   1.573   6.603   5.862
 1830SOL     OW17520   1.466   7.003   6.539
 1830SOL    HW117521   1.407   7.009   6.619
 1830SOL    HW217522   1.451   6.915   6.493
 1831SOL     OW17523   1.667   7.300   6.158
 1831SOL    HW117524   1.626   7.277   6.070
 1831SOL    HW217525   1.649   7.226   6.223
 1832SOL     OW17526   0.598   6.315   5.856
 1832SOL    HW117527   0.622   6.384   5.788
 1832SOL    HW217528   0.520   6.348   5.910
 1833SOL     OW17529   1.576   7.248   5.893
 1833SOL    HW117530   1.665   7.294   5.896
 1833SOL    HW217531   1.555   7.224   5.798
 1834SOL     OW17532   0.991   5.996   6.828
 1834SOL    HW117533   0.914   6.030   6.882
 1834SOL    HW217534   0.957   5.945   6.749
 1835SOL     OW17535   1.041   6.287   6.015
 1835SOL    HW117536   1.067   6.283   6.111
 1835SOL    HW217537   0.956   6.236   6.001
 1836SOL     OW17538   0.076   6.397   6.375
 1836SOL    HW117539   0.175   6.385   6.384
 1836SOL    HW217540   0.052   6.492   6.396
 1837SOL     OW17541   0.130   7.407   7.157
 1837SOL    HW117542   0.120   7.392   7.256
 1837SOL    HW217543   0.044   7.443   7.121
 1838SOL     OW17544   0.865   5.934   5.781
 1838SOL    HW117545   0.924   5.997   5.732
 1838SOL    HW217546   0.884   5.840   5.752
 1839SOL     OW17547   1.362   6.730   6.131
 1839SOL    HW117548   1.445   6.701   6.083
 1839SOL    HW217549   1.313   6.797   6.075
 1840SOL     OW17550   0.550   5.782   6.471
 1840SOL    HW117551   0.545   5.777   6.571
 1840SOL    HW217552   0.552   5.878   6.442
 1841SOL     OW17553   1.008   7.042   6.063
 1841SOL    HW117554   0.962   7.114   6.011
 1841SOL    HW217555   1.004   7.062   6.161
 1842SOL     OW17556   0.351   7.387   6.439
 1842SOL    HW117557   0.401   7.301   6.445
 1842SOL    HW217558   0.416   7.464   6.436
 1843SOL     OW17559   1.795   6.652   6.459
 1843SOL    HW117560   1.733   6.637   6.383
 1843SOL    HW217561   1.743   6.663   6.544
 1844SOL     OW17562   0.321   6.529   5.828
 1844SOL    HW117563   0.403   6.568   5.786
 1844SOL    HW217564   0.294   6.447   5.779
 1845SOL     OW17565   1.458   6.321   6.314
 1845SOL    HW117566   1.453   6.256   6.389
 1845SOL    HW217567   1.538   6.380   6.327
 1846SOL     OW17568   1.111   7.362   5.823
 1846SOL    HW117569   1.051   7.300   5.873
 1846SOL    HW217570   1.142   7.318   5.738
 1847SOL     OW17571   1.632   6.963   5.667
 1847SOL    HW117572   1.600   7.057   5.657
 1847SOL    HW217573   1.556   6.900   5.655
 1848SOL     OW17574   0.464   7.329   5.909
 1848SOL    HW117575   0.497   7.368   5.995
 1848SOL    HW217576   0.540   7.322   5.844
 1849SOL     OW17577   1.400   5.693   6.012
 1849SOL    HW117578   1.376   5.656   5.922
 1849SOL    HW217579   1.499   5.709   6.016
 1850SOL     OW17580   0.249   7.371   6.827
 1850SOL    HW117581   0.306   7.306   6.877
 1850SOL    HW217582   0.233   7.338   6.734
 1851SOL     OW17583   0.940   7.284   6.490
 1851SOL    HW117584   1.020   7.227   6.511
 1851SOL    HW217585   0.891   7.244   6.413
 1852SOL     OW17586   0.382   6.286   6.066
 1852SOL    HW117587   0.427   6.196   6.063
 1852SOL    HW217588   0.288   6.275   6.099
 1853SOL     OW17589   0.614   5.708   5.703
 1853SOL    HW117590   0.712   5.686   5.710
 1853SOL    HW217591   0.583   5.691   5.610
 1854SOL     OW17592   0.803   6.988   6.510
 1854SOL    HW117593   0.893   7.002   6.468
 1854SOL    HW217594   0.732   6.990   6.439
 1855SOL     OW17595   0.922   6.089   6.485
 1855SOL    HW117596   0.897   6.080   6.389
 1855SOL    HW217597   0.970   6.007   6.516
 1856SOL     OW17598   0.539   5.650   6.098
 1856SOL    HW117599   0.458   5.651   6.156
 1856SOL    HW217600   0.542   5.733   6.043
 1857SOL     OW17601   1.434   6.774   5.627
 1857SOL    HW117602   1.466   6.698   5.684
 1857SOL    HW217603   1.342   6.801   5.657
 1858SOL     OW17604   0.297   5.621   5.757
 1858SOL    HW117605   0.346   5.705   5.736
 1858SOL    HW217606   0.359   5.556   5.802
 1859SOL     OW17607   0.935   5.822   6.066
 1859SOL    HW117608   0.887   5.863   5.988
 1859SOL    HW217609   1.034   5.820   6.047
 1860SOL     OW17610   1.227   7.156   6.379
 1860SOL    HW117611   1.248   7.230   6.314
 1860SOL    HW217612   1.295   7.156   6.452
 1861SOL     OW17613   0.459   6.738   6.327
 1861SOL    HW117614   0.388   6.711   6.392
 1861SOL    HW217615   0.433   6.710   6.234
 1862SOL     OW17616   1.271   7.383   6.177
 1862SOL    HW117617   1.315   7.447   6.113
 1862SOL    HW217618   1.221   7.435   6.247
 1863SOL     OW17619   1.032   6.135   5.602
 1863SOL    HW117620   0.991   6.217   5.563
 1863SOL    HW217621   1.096   6.161   5.675
 1864SOL     OW17622   0.561   5.808   6.733
 1864SOL    HW117623   0.599   5.724   6.770
 1864SOL    HW217624   0.473   5.827   6.777
 1865SOL     OW17625   0.866   6.040   6.228
 1865SOL    HW117626   0.834   6.112   6.166
 1865SOL    HW217627   0.890   5.959   6.175
 1866SOL     OW17628   1.017   5.625   6.339
 1866SOL    HW117629   0.945   5.630   6.270
 1866SOL    HW217630   0.993   5.556   6.408
 1867SOL     OW17631   1.429   6.759   6.453
 1867SOL    HW117632   1.374   6.675   6.446
 1867SOL    HW217633   1.455   6.788   6.361
 1868SOL     OW17634   1.466   6.176   6.578
 1868SOL    HW117635   1.436   6.081   6.585
 1868SOL    HW217636   1.539   6.192   6.644
 1869SOL     OW17637   1.857   6.419   5.963
 1869SOL    HW117638   1.899   6.355   6.027
 1869SOL    HW217639   1.819   6.368   5.885
 1870SOL     OW17640   0.488   6.971   5.760
 1870SOL    HW117641   0.401   6.956   5.807
 1870SOL    HW217642   0.471   6.997   5.665
 1871SOL     OW17643   1.664   6.866   6.243
 1871SOL    HW117644   1.763   6.874   6.257
 1871SOL    HW217645   1.619   6.950   6.274
 1872SOL     OW17646   1.390   6.161   5.664
 1872SOL    HW117647   1.336   6.140   5.745
 1872SOL    HW217648   1.481   6.120   5.673
 1873SOL     OW17649   0.527   5.842   5.914
 1873SOL    HW117650   0.554   5.783   5.839
 1873SOL    HW217651   0.527   5.937   5.883
 1874SOL     OW17652   1.111   6.781   6.686
 1874SOL    HW117653   1.071   6.825   6.767
 1874SOL    HW217654   1.070   6.818   6.603
 1875SOL     OW17655   1.638   6.685   6.665
 1875SOL    HW117656   1.643   6.766   6.724
 1875SOL    HW217657   1.552   6.687   6.614
 1876SOL     OW17658   0.705   6.636   5.954
 1876SOL    HW117659   0.691   6.643   6.053
 1876SOL    HW217660   0.789   6.585   5.936
 1877SOL     OW17661   0.410   6.399   6.837
 1877SOL    HW117662   0.496   6.411   6.887
 1877SOL    HW217663   0.368   6.312   6.864
 1878SOL     OW17664   0.367   6.686   6.087
 1878SOL    HW117665   0.360   6.769   6.031
 1878SOL    HW217666   0.371   6.606   6.027
 1879SOL     OW17667   0.566   6.123   6.451
 1879SOL    HW117668   0.578   6.189   6.377
 1879SOL    HW217669   0.612   6.157   6.534
 1880SOL     OW17670   1.252   6.934   5.974
 1880SOL    HW117671   1.302   7.011   6.014
 1880SOL    HW217672   1.157   6.936   6.006
 1881SOL     OW17673   1.272   7.031   6.728
 1881SOL    HW117674   1.319   7.044   6.815
 1881SOL    HW217675   1.206   6.957   6.737
 1882SOL     OW17676   1.582   6.225   6.058
 1882SOL    HW117677   1.551   6.286   6.131
 1882SOL    HW217678   1.632   6.277   5.989
 1883SOL     OW17679   0.354   7.096   6.915
 1883SOL    HW117680   0.333   7.052   6.828
 1883SOL    HW217681   0.451   7.122   6.918
 1884SOL     OW17682   0.573   6.456   6.615
 1884SOL    HW117683   0.617   6.545   6.606
 1884SOL    HW217684   0.510   6.456   6.692
 1885SOL     OW17685   1.360   6.448   6.631
 1885SOL    HW117686   1.285   6.448   6.565
 1885SOL    HW217687   1.397   6.356   6.640
 1886SOL     OW17688   1.209   6.111   5.861
 1886SOL    HW117689   1.222   6.027   5.915
 1886SOL    HW217690   1.180   6.185   5.921
 1887SOL     OW17691   0.307   5.799   6.817
 1887SOL    HW117692   0.284   5.836   6.907
 1887SOL    HW217693   0.277   5.704   6.811
 1888SOL     OW17694   0.037   6.896   6.868
 1888SOL    HW117695   0.090   6.847   6.936
 1888SOL    HW217696   0.059   6.994   6.873
 1889SOL     OW17697   0.732   6.220   6.650
 1889SOL    HW117698   0.791   6.194   6.574
 1889SOL    HW217699   0.704   6.316   6.639
 1890SOL     OW17700   0.307   5.649   6.204
 1890SOL    HW117701   0.296   5.743   6.237
 1890SOL    HW217702   0.302   5.586   6.281
 1891SOL     OW17703   1.622   5.953   5.960
 1891SOL    HW117704   1.624   5.877   6.024
 1891SOL    HW217705   1.574   6.030   6.000
 1892SOL     OW17706   1.023   6.352   6.552
 1892SOL    HW117707   1.038   6.373   6.648
 1892SOL    HW217708   0.993   6.257   6.543
 1893SOL     OW17709   1.540   5.860   5.711
 1893SOL    HW117710   1.479   5.785   5.734
 1893SOL    HW217711   1.562   5.912   5.794
 1894SOL     OW17712   1.303   6.424   5.628
 1894SOL    HW117713   1.337   6.331   5.643
 1894SOL    HW217714   1.321   6.451   5.533
 1895SOL     OW17715   1.068   6.919   6.435
 1895SOL    HW117716   1.075   6.835   6.380
 1895SOL    HW217717   1.130   6.988   6.399
 1896SOL     OW17718   0.319   6.396   6.535
 1896SOL    HW117719   0.412   6.432   6.540
 1896SOL    HW217720   0.313   6.311   6.587
 1897SOL     OW17721   0.339   6.095   6.592
 1897SOL    HW117722   0.287   6.012   6.575
 1897SOL    HW217723   0.416   6.100   6.528
 1898SOL     OW17724   0.008   6.912   5.786
 1898SOL    HW117725  -0.085   6.933   5.755
 1898SOL    HW217726   0.018   6.813   5.799
 1899SOL     OW17727   0.088   7.387   6.513
 1899SOL    HW117728   0.046   7.301   6.486
 1899SOL    HW217729   0.182   7.390   6.479
 1900SOL     OW17730   0.504   7.154   6.496
 1900SOL    HW117731   0.570   7.228   6.505
 1900SOL    HW217732   0.548   7.075   6.454
 1901SOL     OW17733   1.002   6.382   6.824
 1901SOL    HW117734   1.043   6.350   6.910
 1901SOL    HW217735   0.906   6.355   6.821
 1902SOL     OW17736   0.040   6.130   6.700
 1902SOL    HW117737   0.125   6.097   6.659
 1902SOL    HW217738   0.053   6.145   6.798
 1903SOL     OW17739   0.815   6.158   5.911
 1903SOL    HW117740   0.822   6.069   5.865
 1903SOL    HW217741   0.721   6.192   5.903
 1904SOL     OW17742   0.671   6.050   6.855
 1904SOL    HW117743   0.637   5.961   6.825
 1904SOL    HW217744   0.697   6.104   6.775
 1905SOL     OW17745   0.930   7.264   7.051
 1905SOL    HW117746   0.906   7.246   6.956
 1905SOL    HW217747   0.960   7.358   7.061
 1906SOL     OW17748   0.473   6.086   5.777
 1906SOL    HW117749   0.534   6.166   5.781
 1906SOL    HW217750   0.378   6.117   5.784
 1907SOL     OW17751   1.347   6.645   6.820
 1907SOL    HW117752   1.371   6.582   6.746
 1907SOL    HW217753   1.257   6.685   6.802
 1908SOL     OW17754   1.302   6.441   5.895
 1908SOL    HW117755   1.216   6.410   5.937
 1908SOL    HW217756   1.298   6.427   5.796
 1909SOL     OW17757   1.759   7.333   6.740
 1909SOL    HW117758   1.820   7.363   6.667
 1909SOL    HW217759   1.721   7.244   6.718
 1910SOL     OW17760   1.252   7.317   6.714
 1910SOL    HW117761   1.336   7.322   6.660
 1910SOL    HW217762   1.229   7.221   6.732
 1911SOL     OW17763   0.083   6.844   6.608
 1911SOL    HW117764   0.078   6.843   6.708
 1911SOL    HW217765   0.000   6.803   6.570
 1912SOL     OW17766   1.726   5.721   6.109
 1912SOL    HW117767   1.799   5.704   6.042
 1912SOL    HW217768   1.695   5.634   6.147
 1913SOL     OW17769   1.388   7.159   6.063
 1913SOL    HW117770   1.455   7.171   5.989
 1913SOL    HW217771   1.348   7.248   6.086
 1914SOL     OW17772   1.280   6.513   6.258
 1914SOL    HW117773   1.340   6.432   6.260
 1914SOL    HW217774   1.320   6.582   6.198
 1915SOL     OW17775   0.672   7.202   5.740
 1915SOL    HW117776   0.681   7.212   5.641
 1915SOL    HW217777   0.632   7.113   5.761
 1916SOL     OW17778   1.650   7.306   6.980
 1916SOL    HW117779   1.703   7.316   6.896
 1916SOL    HW217780   1.623   7.396   7.014
 1917SOL     OW17781   1.841   5.761   6.549
 1917SOL    HW117782   1.880   5.676   6.513
 1917SOL    HW217783   1.743   5.763   6.530
 1918SOL     OW17784   0.263   5.912   6.306
 1918SOL    HW117785   0.184   5.963   6.272
 1918SOL    HW217786   0.254   5.897   6.404
 1919SOL     OW17787   1.194   7.198   5.617
 1919SOL    HW117788   1.200   7.105   5.654
 1919SOL    HW217789   1.135   7.198   5.537
 1920SOL     OW17790   0.822   6.588   6.958
 1920SOL    HW117791   0.862   6.587   6.866
 1920SOL    HW217792   0.832   6.680   6.998
 1921SOL     OW17793   0.916   6.496   5.877
 1921SOL    HW117794   0.979   6.534   5.809
 1921SOL    HW217795   0.956   6.413   5.916
 1922SOL     OW17796   1.504   7.193   5.630
 1922SOL    HW117797   1.412   7.230   5.637
 1922SOL    HW217798   1.542   7.213   5.540
 1923SOL     OW17799   1.039   6.684   6.282
 1923SOL    HW117800   0.969   6.637   6.336
 1923SOL    HW217801   1.098   6.616   6.239
 1924SOL     OW17802   1.014   5.822   6.557
 1924SOL    HW117803   1.006   5.786   6.464
 1924SOL    HW217804   1.012   5.746   6.622
 1925SOL     OW17805   0.590   7.073   6.077
 1925SOL    HW117806   0.632   7.015   6.007
 1925SOL    HW217807   0.546   7.152   6.033
 1926SOL     OW17808   1.709   5.971   6.967
 1926SOL    HW117809   1.782   6.040   6.971
 1926SOL    HW217810   1.737   5.896   6.908
 1927SOL     OW17811   0.255   6.934   5.876
 1927SOL    HW117812   0.159   6.935   5.849
 1927SOL    HW217813   0.267   6.987   5.960
 1928SOL     OW17814   0.075   5.931   5.619
 1928SOL    HW117815  -0.017   5.903   5.590
 1928SOL    HW217816   0.106   6.008   5.563
 1929SOL     OW17817   0.072   5.752   5.904
 1929SOL    HW117818   0.055   5.835   5.850
 1929SOL    HW217819   0.162   5.715   5.882
 1930SOL     OW17820   1.183   6.921   5.705
 1930SOL    HW117821   1.084   6.910   5.707
 1930SOL    HW217822   1.217   6.936   5.798
 1931SOL     OW17823   1.493   7.353   6.545
 1931SOL    HW117824   1.526   7.417   6.476
 1931SOL    HW217825   1.559   7.347   6.620
 1932SOL     OW17826   1.450   6.806   7.219
 1932SOL    HW117827   1.441   6.796   7.318
 1932SOL    HW217828   1.546   6.799   7.193
 1933SOL     OW17829   1.674   6.469   6.840
 1933SOL    HW117830   1.647   6.380   6.803
 1933SOL    HW217831   1.675   6.537   6.767
 1934SOL     OW17832   1.225   5.911   6.035
 1934SOL    HW117833   1.290   5.837   6.024
 1934SOL    HW217834   1.245   5.961   6.119
 1935SOL     OW17835   0.594   6.331   6.238
 1935SOL    HW117836   0.644   6.416   6.219
 1935SOL    HW217837   0.506   6.333   6.190
 1936SOL     OW17838   1.730   6.520   7.103
 1936SOL    HW117839   1.768   6.611   7.118
 1936SOL    HW217840   1.722   6.503   7.004
 1937SOL     OW17841   0.859   6.960   5.602
 1937SOL    HW117842   0.813   6.975   5.690
 1937SOL    HW217843   0.903   7.045   5.572
 1938SOL     OW17844   0.661   7.376   6.539
 1938SOL    HW117845   0.615   7.464   6.526
 1938SOL    HW217846   0.760   7.388   6.532
 1939SOL     OW17847   0.859   6.542   6.447
 1939SOL    HW117848   0.913   6.473   6.495
 1939SOL    HW217849   0.827   6.611   6.513
 1940SOL     OW17850   1.083   6.570   5.673
 1940SOL    HW117851   1.060   6.623   5.591
 1940SOL    HW217852   1.164   6.514   5.654
 1941SOL     OW17853   1.861   7.155   6.437
 1941SOL    HW117854   1.790   7.143   6.367
 1941SOL    HW217855   1.862   7.076   6.497
 1942SOL     OW17856   0.079   6.826   6.239
 1942SOL    HW117857   0.078   6.779   6.327
 1942SOL    HW217858   0.161   6.798   6.188
 1943SOL     OW17859   1.824   5.778   6.813
 1943SOL    HW117860   1.820   5.688   6.857
 1943SOL    HW217861   1.827   5.767   6.714
 1944SOL     OW17862   0.428   6.010   6.106
 1944SOL    HW117863   0.458   5.938   6.044
 1944SOL    HW217864   0.389   5.970   6.189
 1945SOL     OW17865   1.705   7.073   6.690
 1945SOL    HW117866   1.612   7.048   6.663
 1945SOL    HW217867   1.731   7.023   6.772
 1946SOL     OW17868   0.812   7.172   6.273
 1946SOL    HW117869   0.844   7.182   6.179
 1946SOL    HW217870   0.733   7.110   6.275
 1947SOL     OW17871   0.770   6.916   5.887
 1947SOL    HW117872   0.724   6.829   5.904
 1947SOL    HW217873   0.861   6.913   5.928
 1948SOL     OW17874   1.352   5.638   5.754
 1948SOL    HW117875   1.387   5.597   5.670
 1948SOL    HW217876   1.262   5.600   5.774
 1949SOL     OW17877   1.300   6.039   6.277
 1949SOL    HW117878   1.241   6.119   6.281
 1949SOL    HW217879   1.315   6.004   6.370
 1950SOL     OW17880   1.593   5.807   6.468
 1950SOL    HW117881   1.509   5.806   6.522
 1950SOL    HW217882   1.595   5.890   6.412
 1951SOL     OW17883   0.039   6.663   5.886
 1951SOL    HW117884   0.138   6.652   5.877
 1951SOL    HW217885  -0.001   6.577   5.918
 1952SOL     OW17886   0.875   7.232   5.923
 1952SOL    HW117887   0.798   7.197   5.869
 1952SOL    HW217888   0.843   7.303   5.985
 1953SOL     OW17889   0.230   8.076   0.113
 1953SOL    HW117890   0.137   8.074   0.150
 1953SOL    HW217891   0.231   8.037   0.021
 1954SOL     OW17892   0.225   7.723   0.996
 1954SOL    HW117893   0.260   7.706   1.088
 1954SOL    HW217894   0.137   7.678   0.984
 1955SOL     OW17895   0.019   7.816   0.647
 1955SOL    HW117896  -0.063   7.859   0.686
 1955SOL    HW217897  -0.009   7.743   0.584
 1956SOL     OW17898   1.135   8.151   0.717
 1956SOL    HW117899   1.192   8.229   0.692
 1956SOL    HW217900   1.075   8.177   0.793
 1957SOL     OW17901   1.755   8.055   0.231
 1957SOL    HW117902   1.743   8.042   0.132
 1957SOL    HW217903   1.725   7.974   0.280
 1958SOL     OW17904   0.768   8.592   1.023
 1958SOL    HW117905   0.690   8.609   1.083
 1958SOL    HW217906   0.802   8.679   0.987
 1959SOL     OW17907   0.850   8.246   1.823
 1959SOL    HW117908   0.846   8.322   1.888
 1959SOL    HW217909   0.872   8.282   1.732
 1960SOL     OW17910   0.685   8.460   0.665
 1960SOL    HW117911   0.754   8.444   0.735
 1960SOL    HW217912   0.612   8.517   0.703
 1961SOL     OW17913   0.438   7.840   1.499
 1961SOL    HW117914   0.520   7.784   1.508
 1961SOL    HW217915   0.357   7.782   1.503
 1962SOL     OW17916   1.603   7.895   0.737
 1962SOL    HW117917   1.529   7.941   0.687
 1962SOL    HW217918   1.654   7.963   0.790
 1963SOL     OW17919   0.240   8.539   0.886
 1963SOL    HW117920   0.254   8.455   0.938
 1963SOL    HW217921   0.185   8.603   0.941
 1964SOL     OW17922   0.122   8.091   0.563
 1964SOL    HW117923   0.077   8.003   0.580
 1964SOL    HW217924   0.121   8.145   0.647
 1965SOL     OW17925   0.113   8.185   1.597
 1965SOL    HW117926   0.201   8.172   1.642
 1965SOL    HW217927   0.100   8.282   1.575
 1966SOL     OW17928   0.809   7.452   0.502
 1966SOL    HW117929   0.849   7.543   0.493
 1966SOL    HW217930   0.709   7.460   0.508
 1967SOL     OW17931   0.197   8.424   1.264
 1967SOL    HW117932   0.286   8.379   1.250
 1967SOL    HW217933   0.124   8.359   1.245
 1968SOL     OW17934   1.525   8.447   0.190
 1968SOL    HW117935   1.462   8.371   0.203
 1968SOL    HW217936   1.573   8.465   0.276
 1969SOL     OW17937   0.598   8.177   0.270
 1969SOL    HW117938   0.622   8.246   0.202
 1969SOL    HW217939   0.520   8.210   0.324
 1970SOL     OW17940   1.281   7.793   0.944
 1970SOL    HW117941   1.195   7.743   0.931
 1970SOL    HW217942   1.343   7.739   1.000
 1971SOL     OW17943   0.807   8.053   1.465
 1971SOL    HW117944   0.760   8.050   1.554
 1971SOL    HW217945   0.756   7.998   1.399
 1972SOL     OW17946   0.973   8.338   1.572
 1972SOL    HW117947   1.019   8.254   1.543
 1972SOL    HW217948   0.917   8.372   1.497
 1973SOL     OW17949   1.041   8.149   0.429
 1973SOL    HW117950   1.067   8.145   0.525
 1973SOL    HW217951   0.956   8.098   0.415
 1974SOL     OW17952   0.076   8.259   0.789
 1974SOL    HW117953   0.175   8.247   0.798
 1974SOL    HW217954   0.052   8.354   0.810
 1975SOL     OW17955   0.865   7.796   0.195
 1975SOL    HW117956   0.924   7.859   0.146
 1975SOL    HW217957   0.884   7.702   0.166
 1976SOL     OW17958   0.550   7.644   0.885
 1976SOL    HW117959   0.545   7.639   0.985
 1976SOL    HW217960   0.552   7.740   0.856
 1977SOL     OW17961   1.458   8.183   0.728
 1977SOL    HW117962   1.453   8.118   0.803
 1977SOL    HW217963   1.538   8.242   0.741
 1978SOL     OW17964   1.400   7.555   0.426
 1978SOL    HW117965   1.376   7.518   0.336
 1978SOL    HW217966   1.499   7.571   0.430
 1979SOL     OW17967   0.382   8.148   0.480
 1979SOL    HW117968   0.427   8.058   0.477
 1979SOL    HW217969   0.288   8.137   0.513
 1980SOL     OW17970   0.614   7.570   0.117
 1980SOL    HW117971   0.712   7.548   0.124
 1980SOL    HW217972   0.583   7.553   0.024
 1981SOL     OW17973   0.922   7.951   0.899
 1981SOL    HW117974   0.897   7.942   0.803
 1981SOL    HW217975   0.970   7.869   0.930
 1982SOL     OW17976   0.539   7.512   0.512
 1982SOL    HW117977   0.458   7.513   0.570
 1982SOL    HW217978   0.542   7.595   0.457
 1983SOL     OW17979   0.297   7.483   0.171
 1983SOL    HW117980   0.346   7.567   0.150
 1983SOL    HW217981   0.359   7.418   0.216
 1984SOL     OW17982   0.935   7.684   0.480
 1984SOL    HW117983   0.887   7.725   0.402
 1984SOL    HW217984   1.034   7.682   0.461
 1985SOL     OW17985   1.076   8.131   1.464
 1985SOL    HW117986   0.996   8.070   1.467
 1985SOL    HW217987   1.157   8.078   1.440
 1986SOL     OW17988   1.032   7.997   0.016
 1986SOL    HW117989   0.991   8.079  -0.023
 1986SOL    HW217990   1.096   8.023   0.089
 1987SOL     OW17991   0.866   7.902   0.642
 1987SOL    HW117992   0.834   7.974   0.580
 1987SOL    HW217993   0.890   7.821   0.589
 1988SOL     OW17994   1.017   7.487   0.753
 1988SOL    HW117995   0.945   7.492   0.684
 1988SOL    HW217996   0.993   7.418   0.822
 1989SOL     OW17997   1.466   8.038   0.992
 1989SOL    HW117998   1.436   7.943   0.999
 1989SOL    HW217999   1.539   8.054   1.058
 1990SOL     OW18000   1.857   8.281   0.377
 1990SOL    HW118001   1.899   8.217   0.441
 1990SOL    HW218002   1.819   8.230   0.299
 1991SOL     OW18003   1.390   8.023   0.078
 1991SOL    HW118004   1.336   8.002   0.159
 1991SOL    HW218005   1.481   7.982   0.087
 1992SOL     OW18006   0.527   7.704   0.328
 1992SOL    HW118007   0.554   7.645   0.253
 1992SOL    HW218008   0.527   7.799   0.297
 1993SOL     OW18009   1.638   8.547   1.079
 1993SOL    HW118010   1.643   8.628   1.138
 1993SOL    HW218011   1.552   8.549   1.028
 1994SOL     OW18012   0.915   7.537   1.402
 1994SOL    HW118013   0.940   7.517   1.307
 1994SOL    HW218014   0.987   7.593   1.444
 1995SOL     OW18015   0.410   8.261   1.251
 1995SOL    HW118016   0.496   8.273   1.301
 1995SOL    HW218017   0.368   8.174   1.278
 1996SOL     OW18018   1.274   7.834   1.262
 1996SOL    HW118019   1.295   7.908   1.326
 1996SOL    HW218020   1.185   7.851   1.219
 1997SOL     OW18021   0.566   7.985   0.865
 1997SOL    HW118022   0.578   8.051   0.791
 1997SOL    HW218023   0.612   8.019   0.948
 1998SOL     OW18024   1.582   8.087   0.472
 1998SOL    HW118025   1.551   8.148   0.545
 1998SOL    HW218026   1.632   8.139   0.403
 1999SOL     OW18027   0.402   8.199   1.598
 1999SOL    HW118028   0.470   8.254   1.551
 1999SOL    HW218029   0.442   8.111   1.625
 2000SOL     OW18030   1.013   7.553   1.770
 2000SOL    HW118031   1.019   7.638   1.718
 2000SOL    HW218032   1.045   7.477   1.713
 2001SOL     OW18033   0.573   8.318   1.029
 2001SOL    HW118034   0.617   8.407   1.020
 2001SOL    HW218035   0.510   8.318   1.106
 2002SOL     OW18036   1.360   8.310   1.045
 2002SOL    HW118037   1.285   8.310   0.979
 2002SOL    HW218038   1.397   8.218   1.054
 2003SOL     OW18039   1.209   7.973   0.275
 2003SOL    HW118040   1.222   7.889   0.329
 2003SOL    HW218041   1.180   8.047   0.335
 2004SOL     OW18042   0.307   7.661   1.231
 2004SOL    HW118043   0.284   7.698   1.321
 2004SOL    HW218044   0.277   7.566   1.225
 2005SOL     OW18045   0.037   8.758   1.282
 2005SOL    HW118046   0.090   8.709   1.350
 2005SOL    HW218047   0.059   8.856   1.287
 2006SOL     OW18048   0.732   8.082   1.064
 2006SOL    HW118049   0.791   8.056   0.988
 2006SOL    HW218050   0.704   8.178   1.053
 2007SOL     OW18051   1.728   8.383   1.854
 2007SOL    HW118052   1.682   8.376   1.765
 2007SOL    HW218053   1.666   8.427   1.920
 2008SOL     OW18054   0.307   7.511   0.618
 2008SOL    HW118055   0.296   7.605   0.651
 2008SOL    HW218056   0.302   7.448   0.695
 2009SOL     OW18057   1.622   7.815   0.374
 2009SOL    HW118058   1.624   7.739   0.438
 2009SOL    HW218059   1.574   7.892   0.414
 2010SOL     OW18060   1.023   8.214   0.966
 2010SOL    HW118061   1.038   8.235   1.062
 2010SOL    HW218062   0.993   8.119   0.957
 2011SOL     OW18063   0.350   8.346   1.804
 2011SOL    HW118064   0.426   8.390   1.852
 2011SOL    HW218065   0.385   8.299   1.722
 2012SOL     OW18066   1.540   7.722   0.125
 2012SOL    HW118067   1.479   7.647   0.148
 2012SOL    HW218068   1.562   7.774   0.208
 2013SOL     OW18069   1.303   8.286   0.042
 2013SOL    HW118070   1.337   8.193   0.057
 2013SOL    HW218071   1.321   8.313  -0.053
 2014SOL     OW18072   0.319   8.258   0.949
 2014SOL    HW118073   0.412   8.294   0.954
 2014SOL    HW218074   0.313   8.173   1.001
 2015SOL     OW18075   0.339   7.957   1.006
 2015SOL    HW118076   0.287   7.874   0.989
 2015SOL    HW218077   0.416   7.962   0.942
 2016SOL     OW18078   1.160   7.655   1.477
 2016SOL    HW118079   1.160   7.719   1.554
 2016SOL    HW218080   1.188   7.703   1.394
 2017SOL     OW18081   1.002   8.244   1.238
 2017SOL    HW118082   1.043   8.212   1.324
 2017SOL    HW218083   0.906   8.217   1.235
 2018SOL     OW18084   0.040   7.992   1.114
 2018SOL    HW118085   0.125   7.959   1.073
 2018SOL    HW218086   0.053   8.007   1.212
 2019SOL     OW18087   0.815   8.020   0.325
 2019SOL    HW118088   0.822   7.931   0.279
 2019SOL    HW218089   0.721   8.054   0.317
 2020SOL     OW18090   1.657   8.052   1.206
 2020SOL    HW118091   1.619   7.983   1.268
 2020SOL    HW218092   1.739   8.016   1.162
 2021SOL     OW18093   0.473   7.948   0.191
 2021SOL    HW118094   0.534   8.028   0.195
 2021SOL    HW218095   0.378   7.979   0.198
 2022SOL     OW18096   0.159   8.585   1.466
 2022SOL    HW118097   0.181   8.524   1.542
 2022SOL    HW218098   0.169   8.536   1.380
 2023SOL     OW18099   1.347   8.507   1.234
 2023SOL    HW118100   1.371   8.444   1.160
 2023SOL    HW218101   1.257   8.547   1.216
 2024SOL     OW18102   1.302   8.303   0.309
 2024SOL    HW118103   1.216   8.272   0.351
 2024SOL    HW218104   1.298   8.289   0.210
 2025SOL     OW18105   0.903   7.534   0.133
 2025SOL    HW118106   0.954   7.535   0.047
 2025SOL    HW218107   0.959   7.492   0.204
 2026SOL     OW18108   1.726   7.583   0.523
 2026SOL    HW118109   1.799   7.566   0.456
 2026SOL    HW218110   1.695   7.496   0.561
 2027SOL     OW18111   1.280   8.375   0.672
 2027SOL    HW118112   1.340   8.294   0.674
 2027SOL    HW218113   1.320   8.444   0.612
 2028SOL     OW18114   1.841   7.623   0.963
 2028SOL    HW118115   1.880   7.538   0.927
 2028SOL    HW218116   1.743   7.625   0.944
 2029SOL     OW18117   0.263   7.774   0.720
 2029SOL    HW118118   0.184   7.825   0.686
 2029SOL    HW218119   0.254   7.759   0.818
 2030SOL     OW18120   0.916   8.358   0.291
 2030SOL    HW118121   0.979   8.396   0.223
 2030SOL    HW218122   0.956   8.275   0.330
 2031SOL     OW18123   1.014   7.684   0.971
 2031SOL    HW118124   1.006   7.648   0.878
 2031SOL    HW218125   1.012   7.608   1.036
 2032SOL     OW18126   0.075   7.793   0.033
 2032SOL    HW118127  -0.017   7.765   0.004
 2032SOL    HW218128   0.106   7.870  -0.023
 2033SOL     OW18129   0.072   7.614   0.318
 2033SOL    HW118130   0.055   7.697   0.264
 2033SOL    HW218131   0.162   7.577   0.296
 2034SOL     OW18132   0.613   8.290   1.431
 2034SOL    HW118133   0.669   8.371   1.414
 2034SOL    HW218134   0.672   8.210   1.434
 2035SOL     OW18135   0.716   8.013   1.708
 2035SOL    HW118136   0.735   8.078   1.782
 2035SOL    HW218137   0.776   7.933   1.717
 2036SOL     OW18138   1.674   8.331   1.254
 2036SOL    HW118139   1.647   8.242   1.217
 2036SOL    HW218140   1.675   8.399   1.181
 2037SOL     OW18141   1.225   7.773   0.449
 2037SOL    HW118142   1.290   7.699   0.438
 2037SOL    HW218143   1.245   7.823   0.533
 2038SOL     OW18144   0.594   8.193   0.652
 2038SOL    HW118145   0.644   8.278   0.633
 2038SOL    HW218146   0.506   8.195   0.604
 2039SOL     OW18147   1.777   7.790   1.642
 2039SOL    HW118148   1.760   7.821   1.548
 2039SOL    HW218149   1.693   7.753   1.680
 2040SOL     OW18150   1.730   8.382   1.517
 2040SOL    HW118151   1.768   8.473   1.532
 2040SOL    HW218152   1.722   8.365   1.418
 2041SOL     OW18153   1.083   8.432   0.087
 2041SOL    HW118154   1.060   8.485   0.005
 2041SOL    HW218155   1.164   8.376   0.068
 2042SOL     OW18156   1.824   7.640   1.227
 2042SOL    HW118157   1.820   7.550   1.271
 2042SOL    HW218158   1.827   7.629   1.128
 2043SOL     OW18159   0.428   7.872   0.520
 2043SOL    HW118160   0.458   7.800   0.458
 2043SOL    HW218161   0.389   7.832   0.603
 2044SOL     OW18162   0.317   7.995   1.280
 2044SOL    HW118163   0.355   7.936   1.352
 2044SOL    HW218164   0.357   7.969   1.192
 2045SOL     OW18165   1.424   7.662   1.112
 2045SOL    HW118166   1.476   7.597   1.167
 2045SOL    HW218167   1.375   7.725   1.173
 2046SOL     OW18168   1.001   7.482   1.154
 2046SOL    HW118169   0.938   7.410   1.123
 2046SOL    HW218170   1.094   7.446   1.154
 2047SOL     OW18171   1.352   7.500   0.168
 2047SOL    HW118172   1.387   7.459   0.084
 2047SOL    HW218173   1.262   7.462   0.188
 2048SOL     OW18174   1.300   7.901   0.691
 2048SOL    HW118175   1.241   7.981   0.695
 2048SOL    HW218176   1.315   7.866   0.784
 2049SOL     OW18177   1.593   7.669   0.882
 2049SOL    HW118178   1.509   7.668   0.936
 2049SOL    HW218179   1.595   7.752   0.826
 2050SOL     OW18180   0.225   7.723   2.858
 2050SOL    HW118181   0.260   7.706   2.950
 2050SOL    HW218182   0.137   7.678   2.846
 2051SOL     OW18183   0.850   8.246   3.685
 2051SOL    HW118184   0.846   8.322   3.750
 2051SOL    HW218185   0.872   8.282   3.594
 2052SOL     OW18186   1.603   7.895   2.599
 2052SOL    HW118187   1.529   7.941   2.549
 2052SOL    HW218188   1.654   7.963   2.652
 2053SOL     OW18189   0.317   7.699   3.663
 2053SOL    HW118190   0.388   7.770   3.669
 2053SOL    HW218191   0.229   7.738   3.691
 2054SOL     OW18192   0.598   8.177   2.132
 2054SOL    HW118193   0.622   8.246   2.064
 2054SOL    HW218194   0.520   8.210   2.186
 2055SOL     OW18195   1.281   7.793   2.806
 2055SOL    HW118196   1.195   7.743   2.793
 2055SOL    HW218197   1.343   7.739   2.862
 2056SOL     OW18198   1.394   7.917   3.536
 2056SOL    HW118199   1.374   7.960   3.624
 2056SOL    HW218200   1.472   7.855   3.545
 2057SOL     OW18201   0.865   7.796   2.057
 2057SOL    HW118202   0.924   7.859   2.008
 2057SOL    HW218203   0.884   7.702   2.028
 2058SOL     OW18204   0.614   7.570   1.979
 2058SOL    HW118205   0.712   7.548   1.986
 2058SOL    HW218206   0.583   7.553   1.886
 2059SOL     OW18207   1.351   8.038   3.295
 2059SOL    HW118208   1.379   7.995   3.380
 2059SOL    HW218209   1.376   8.134   3.296
 2060SOL     OW18210   0.922   7.951   2.761
 2060SOL    HW118211   0.897   7.942   2.665
 2060SOL    HW218212   0.970   7.869   2.792
 2061SOL     OW18213   0.539   7.512   2.374
 2061SOL    HW118214   0.458   7.513   2.432
 2061SOL    HW218215   0.542   7.595   2.319
 2062SOL     OW18216   1.076   8.131   3.326
 2062SOL    HW118217   0.996   8.070   3.329
 2062SOL    HW218218   1.157   8.078   3.302
 2063SOL     OW18219   0.527   7.704   2.190
 2063SOL    HW118220   0.554   7.645   2.115
 2063SOL    HW218221   0.527   7.799   2.159
 2064SOL     OW18222   0.915   7.537   3.264
 2064SOL    HW118223   0.940   7.517   3.169
 2064SOL    HW218224   0.987   7.593   3.306
 2065SOL     OW18225   1.274   7.834   3.124
 2065SOL    HW118226   1.295   7.908   3.188
 2065SOL    HW218227   1.185   7.851   3.081
 2066SOL     OW18228   1.582   8.087   2.334
 2066SOL    HW118229   1.551   8.148   2.407
 2066SOL    HW218230   1.632   8.139   2.265
 2067SOL     OW18231   0.339   7.957   2.868
 2067SOL    HW118232   0.287   7.874   2.851
 2067SOL    HW218233   0.416   7.962   2.804
 2068SOL     OW18234   0.040   7.992   2.976
 2068SOL    HW118235   0.125   7.959   2.935
 2068SOL    HW218236   0.053   8.007   3.074
 2069SOL     OW18237   0.189   7.968   3.584
 2069SOL    HW118238   0.248   7.928   3.514
 2069SOL    HW218239   0.131   8.039   3.543
 2070SOL     OW18240   0.473   7.948   2.053
 2070SOL    HW118241   0.534   8.028   2.057
 2070SOL    HW218242   0.378   7.979   2.060
 2071SOL     OW18243   1.302   8.303   2.171
 2071SOL    HW118244   1.216   8.272   2.213
 2071SOL    HW218245   1.298   8.289   2.072
 2072SOL     OW18246   1.726   7.583   2.385
 2072SOL    HW118247   1.799   7.566   2.318
 2072SOL    HW218248   1.695   7.496   2.423
 2073SOL     OW18249   0.263   7.774   2.582
 2073SOL    HW118250   0.184   7.825   2.548
 2073SOL    HW218251   0.254   7.759   2.680
 2074SOL     OW18252   1.014   7.684   2.833
 2074SOL    HW118253   1.006   7.648   2.740
 2074SOL    HW218254   1.012   7.608   2.898
 2075SOL     OW18255   0.105   8.461   3.588
 2075SOL    HW118256   0.028   8.428   3.642
 2075SOL    HW218257   0.190   8.431   3.630
 2076SOL     OW18258   1.440   8.304   3.260
 2076SOL    HW118259   1.383   8.356   3.197
 2076SOL    HW218260   1.536   8.316   3.236
 2077SOL     OW18261   0.613   8.290   3.293
 2077SOL    HW118262   0.669   8.371   3.276
 2077SOL    HW218263   0.672   8.210   3.296
 2078SOL     OW18264   0.716   8.013   3.570
 2078SOL    HW118265   0.735   8.078   3.644
 2078SOL    HW218266   0.776   7.933   3.579
 2079SOL     OW18267   1.674   8.331   3.116
 2079SOL    HW118268   1.647   8.242   3.079
 2079SOL    HW218269   1.675   8.399   3.043
 2080SOL     OW18270   0.594   8.193   2.514
 2080SOL    HW118271   0.644   8.278   2.495
 2080SOL    HW218272   0.506   8.195   2.466
 2081SOL     OW18273   1.777   7.790   3.504
 2081SOL    HW118274   1.760   7.821   3.410
 2081SOL    HW218275   1.693   7.753   3.542
 2082SOL     OW18276   1.824   7.640   3.089
 2082SOL    HW118277   1.820   7.550   3.133
 2082SOL    HW218278   1.827   7.629   2.990
 2083SOL     OW18279   1.001   7.482   3.016
 2083SOL    HW118280   0.938   7.410   2.985
 2083SOL    HW218281   1.094   7.446   3.016
 2084SOL     OW18282   1.352   7.500   2.030
 2084SOL    HW118283   1.387   7.459   1.946
 2084SOL    HW218284   1.262   7.462   2.050
 2085SOL     OW18285   0.019   7.816   4.371
 2085SOL    HW118286  -0.063   7.859   4.410
 2085SOL    HW218287  -0.009   7.743   4.308
 2086SOL     OW18288   0.850   8.246   5.547
 2086SOL    HW118289   0.846   8.322   5.612
 2086SOL    HW218290   0.872   8.282   5.456
 2087SOL     OW18291   0.240   8.539   4.610
 2087SOL    HW118292   0.254   8.455   4.662
 2087SOL    HW218293   0.185   8.603   4.665
 2088SOL     OW18294   1.594   7.562   5.204
 2088SOL    HW118295   1.576   7.629   5.132
 2088SOL    HW218296   1.591   7.608   5.293
 2089SOL     OW18297   0.122   8.091   4.287
 2089SOL    HW118298   0.077   8.003   4.304
 2089SOL    HW218299   0.121   8.145   4.371
 2090SOL     OW18300   0.809   7.452   4.226
 2090SOL    HW118301   0.849   7.543   4.217
 2090SOL    HW218302   0.709   7.460   4.232
 2091SOL     OW18303   0.197   8.424   4.988
 2091SOL    HW118304   0.286   8.379   4.974
 2091SOL    HW218305   0.124   8.359   4.969
 2092SOL     OW18306   1.525   8.447   3.914
 2092SOL    HW118307   1.462   8.371   3.927
 2092SOL    HW218308   1.573   8.465   4.000
 2093SOL     OW18309   0.317   7.699   5.525
 2093SOL    HW118310   0.388   7.770   5.531
 2093SOL    HW218311   0.229   7.738   5.553
 2094SOL     OW18312   0.807   8.053   5.189
 2094SOL    HW118313   0.760   8.050   5.278
 2094SOL    HW218314   0.756   7.998   5.123
 2095SOL     OW18315   0.973   8.338   5.296
 2095SOL    HW118316   1.019   8.254   5.267
 2095SOL    HW218317   0.917   8.372   5.221
 2096SOL     OW18318   0.991   7.858   4.966
 2096SOL    HW118319   0.914   7.892   5.020
 2096SOL    HW218320   0.957   7.807   4.887
 2097SOL     OW18321   1.719   8.033   5.555
 2097SOL    HW118322   1.693   8.122   5.519
 2097SOL    HW218323   1.717   7.965   5.482
 2098SOL     OW18324   1.547   7.670   5.453
 2098SOL    HW118325   1.542   7.707   5.545
 2098SOL    HW218326   1.475   7.601   5.441
 2099SOL     OW18327   0.781   7.712   5.473
 2099SOL    HW118328   0.848   7.651   5.516
 2099SOL    HW218329   0.708   7.731   5.538
 2100SOL     OW18330   0.935   7.684   4.204
 2100SOL    HW118331   0.887   7.725   4.126
 2100SOL    HW218332   1.034   7.682   4.185
 2101SOL     OW18333   1.076   8.131   5.188
 2101SOL    HW118334   0.996   8.070   5.191
 2101SOL    HW218335   1.157   8.078   5.164
 2102SOL     OW18336   0.078   8.004   5.110
 2102SOL    HW118337   0.170   8.003   5.069
 2102SOL    HW218338   0.072   8.078   5.177
 2103SOL     OW18339   0.561   7.670   4.871
 2103SOL    HW118340   0.599   7.586   4.908
 2103SOL    HW218341   0.473   7.689   4.915
 2104SOL     OW18342   1.017   7.487   4.477
 2104SOL    HW118343   0.945   7.492   4.408
 2104SOL    HW218344   0.993   7.418   4.546
 2105SOL     OW18345   1.857   8.281   4.101
 2105SOL    HW118346   1.899   8.217   4.165
 2105SOL    HW218347   1.819   8.230   4.023
 2106SOL     OW18348   1.390   8.023   3.802
 2106SOL    HW118349   1.336   8.002   3.883
 2106SOL    HW218350   1.481   7.982   3.811
 2107SOL     OW18351   1.638   8.547   4.803
 2107SOL    HW118352   1.643   8.628   4.862
 2107SOL    HW218353   1.552   8.549   4.752
 2108SOL     OW18354   0.915   7.537   5.126
 2108SOL    HW118355   0.940   7.517   5.031
 2108SOL    HW218356   0.987   7.593   5.168
 2109SOL     OW18357   1.274   7.834   4.986
 2109SOL    HW118358   1.295   7.908   5.050
 2109SOL    HW218359   1.185   7.851   4.943
 2110SOL     OW18360   1.582   8.087   4.196
 2110SOL    HW118361   1.551   8.148   4.269
 2110SOL    HW218362   1.632   8.139   4.127
 2111SOL     OW18363   1.587   8.227   5.394
 2111SOL    HW118364   1.495   8.265   5.389
 2111SOL    HW218365   1.647   8.274   5.329
 2112SOL     OW18366   1.013   7.553   5.494
 2112SOL    HW118367   1.019   7.638   5.442
 2112SOL    HW218368   1.045   7.477   5.437
 2113SOL     OW18369   0.504   7.498   5.464
 2113SOL    HW118370   0.462   7.441   5.394
 2113SOL    HW218371   0.438   7.567   5.496
 2114SOL     OW18372   0.307   7.661   4.955
 2114SOL    HW118373   0.284   7.698   5.045
 2114SOL    HW218374   0.277   7.566   4.949
 2115SOL     OW18375   0.732   8.082   4.788
 2115SOL    HW118376   0.791   8.056   4.712
 2115SOL    HW218377   0.704   8.178   4.777
 2116SOL     OW18378   1.728   8.383   5.578
 2116SOL    HW118379   1.682   8.376   5.489
 2116SOL    HW218380   1.666   8.427   5.644
 2117SOL     OW18381   0.307   7.511   4.342
 2117SOL    HW118382   0.296   7.605   4.375
 2117SOL    HW218383   0.302   7.448   4.419
 2118SOL     OW18384   1.622   7.815   4.098
 2118SOL    HW118385   1.624   7.739   4.162
 2118SOL    HW218386   1.574   7.892   4.138
 2119SOL     OW18387   0.350   8.346   5.528
 2119SOL    HW118388   0.426   8.390   5.576
 2119SOL    HW218389   0.385   8.299   5.446
 2120SOL     OW18390   1.303   8.286   3.766
 2120SOL    HW118391   1.337   8.193   3.781
 2120SOL    HW218392   1.321   8.313   3.671
 2121SOL     OW18393   1.138   7.828   5.402
 2121SOL    HW118394   1.093   7.891   5.466
 2121SOL    HW218395   1.231   7.859   5.385
 2122SOL     OW18396   1.160   7.655   5.201
 2122SOL    HW118397   1.160   7.719   5.278
 2122SOL    HW218398   1.188   7.703   5.118
 2123SOL     OW18399   0.040   7.992   4.838
 2123SOL    HW118400   0.125   7.959   4.797
 2123SOL    HW218401   0.053   8.007   4.936
 2124SOL     OW18402   1.369   8.398   5.384
 2124SOL    HW118403   1.408   8.487   5.404
 2124SOL    HW218404   1.379   8.378   5.287
 2125SOL     OW18405   0.671   7.912   4.993
 2125SOL    HW118406   0.637   7.823   4.963
 2125SOL    HW218407   0.697   7.966   4.913
 2126SOL     OW18408   1.347   8.507   4.958
 2126SOL    HW118409   1.371   8.444   4.884
 2126SOL    HW218410   1.257   8.547   4.940
 2127SOL     OW18411   0.916   8.358   4.015
 2127SOL    HW118412   0.979   8.396   3.947
 2127SOL    HW218413   0.956   8.275   4.054
 2128SOL     OW18414   0.105   8.461   5.450
 2128SOL    HW118415   0.028   8.428   5.504
 2128SOL    HW218416   0.190   8.431   5.492
 2129SOL     OW18417   0.672   7.651   5.213
 2129SOL    HW118418   0.762   7.635   5.173
 2129SOL    HW218419   0.680   7.656   5.312
 2130SOL     OW18420   0.072   7.614   4.042
 2130SOL    HW118421   0.055   7.697   3.988
 2130SOL    HW218422   0.162   7.577   4.020
 2131SOL     OW18423   0.613   8.290   5.155
 2131SOL    HW118424   0.669   8.371   5.138
 2131SOL    HW218425   0.672   8.210   5.158
 2132SOL     OW18426   0.716   8.013   5.432
 2132SOL    HW118427   0.735   8.078   5.506
 2132SOL    HW218428   0.776   7.933   5.441
 2133SOL     OW18429   1.674   8.331   4.978
 2133SOL    HW118430   1.647   8.242   4.941
 2133SOL    HW218431   1.675   8.399   4.905
 2134SOL     OW18432   1.777   7.790   5.366
 2134SOL    HW118433   1.760   7.821   5.272
 2134SOL    HW218434   1.693   7.753   5.404
 2135SOL     OW18435   1.083   8.432   3.811
 2135SOL    HW118436   1.060   8.485   3.729
 2135SOL    HW218437   1.164   8.376   3.792
 2136SOL     OW18438   1.824   7.640   4.951
 2136SOL    HW118439   1.820   7.550   4.995
 2136SOL    HW218440   1.827   7.629   4.852
 2137SOL     OW18441   1.001   7.482   4.878
 2137SOL    HW118442   0.938   7.410   4.847
 2137SOL    HW218443   1.094   7.446   4.878
 2138SOL     OW18444   1.593   7.669   4.606
 2138SOL    HW118445   1.509   7.668   4.660
 2138SOL    HW218446   1.595   7.752   4.550
 2139SOL     OW18447   0.230   8.076   5.699
 2139SOL    HW118448   0.137   8.074   5.736
 2139SOL    HW218449   0.231   8.037   5.607
 2140SOL     OW18450   0.225   7.723   6.582
 2140SOL    HW118451   0.260   7.706   6.674
 2140SOL    HW218452   0.137   7.678   6.570
 2141SOL     OW18453   0.019   7.816   6.233
 2141SOL    HW118454  -0.063   7.859   6.272
 2141SOL    HW218455  -0.009   7.743   6.170
 2142SOL     OW18456   1.135   8.151   6.303
 2142SOL    HW118457   1.192   8.229   6.278
 2142SOL    HW218458   1.075   8.177   6.379
 2143SOL     OW18459   1.755   8.055   5.817
 2143SOL    HW118460   1.743   8.042   5.718
 2143SOL    HW218461   1.725   7.974   5.866
 2144SOL     OW18462   0.768   8.592   6.609
 2144SOL    HW118463   0.690   8.609   6.669
 2144SOL    HW218464   0.802   8.679   6.573
 2145SOL     OW18465   0.685   8.460   6.251
 2145SOL    HW118466   0.754   8.444   6.321
 2145SOL    HW218467   0.612   8.517   6.289
 2146SOL     OW18468   1.603   7.895   6.323
 2146SOL    HW118469   1.529   7.941   6.273
 2146SOL    HW218470   1.654   7.963   6.376
 2147SOL     OW18471   0.240   8.539   6.472
 2147SOL    HW118472   0.254   8.455   6.524
 2147SOL    HW218473   0.185   8.603   6.527
 2148SOL     OW18474   0.122   8.091   6.149
 2148SOL    HW118475   0.077   8.003   6.166
 2148SOL    HW218476   0.121   8.145   6.233
 2149SOL     OW18477   0.809   7.452   6.088
 2149SOL    HW118478   0.849   7.543   6.079
 2149SOL    HW218479   0.709   7.460   6.094
 2150SOL     OW18480   0.197   8.424   6.850
 2150SOL    HW118481   0.286   8.379   6.836
 2150SOL    HW218482   0.124   8.359   6.831
 2151SOL     OW18483   1.525   8.447   5.776
 2151SOL    HW118484   1.462   8.371   5.789
 2151SOL    HW218485   1.573   8.465   5.862
 2152SOL     OW18486   0.598   8.177   5.856
 2152SOL    HW118487   0.622   8.246   5.788
 2152SOL    HW218488   0.520   8.210   5.910
 2153SOL     OW18489   1.281   7.793   6.530
 2153SOL    HW118490   1.195   7.743   6.517
 2153SOL    HW218491   1.343   7.739   6.586
 2154SOL     OW18492   0.991   7.858   6.828
 2154SOL    HW118493   0.914   7.892   6.882
 2154SOL    HW218494   0.957   7.807   6.749
 2155SOL     OW18495   1.041   8.149   6.015
 2155SOL    HW118496   1.067   8.145   6.111
 2155SOL    HW218497   0.956   8.098   6.001
 2156SOL     OW18498   0.076   8.259   6.375
 2156SOL    HW118499   0.175   8.247   6.384
 2156SOL    HW218500   0.052   8.354   6.396
 2157SOL     OW18501   0.865   7.796   5.781
 2157SOL    HW118502   0.924   7.859   5.732
 2157SOL    HW218503   0.884   7.702   5.752
 2158SOL     OW18504   0.550   7.644   6.471
 2158SOL    HW118505   0.545   7.639   6.571
 2158SOL    HW218506   0.552   7.740   6.442
 2159SOL     OW18507   1.458   8.183   6.314
 2159SOL    HW118508   1.453   8.118   6.389
 2159SOL    HW218509   1.538   8.242   6.327
 2160SOL     OW18510   1.400   7.555   6.012
 2160SOL    HW118511   1.376   7.518   5.922
 2160SOL    HW218512   1.499   7.571   6.016
 2161SOL     OW18513   0.382   8.148   6.066
 2161SOL    HW118514   0.427   8.058   6.063
 2161SOL    HW218515   0.288   8.137   6.099
 2162SOL     OW18516   0.614   7.570   5.703
 2162SOL    HW118517   0.712   7.548   5.710
 2162SOL    HW218518   0.583   7.553   5.610
 2163SOL     OW18519   0.922   7.951   6.485
 2163SOL    HW118520   0.897   7.942   6.389
 2163SOL    HW218521   0.970   7.869   6.516
 2164SOL     OW18522   0.539   7.512   6.098
 2164SOL    HW118523   0.458   7.513   6.156
 2164SOL    HW218524   0.542   7.595   6.043
 2165SOL     OW18525   0.297   7.483   5.757
 2165SOL    HW118526   0.346   7.567   5.736
 2165SOL    HW218527   0.359   7.418   5.802
 2166SOL     OW18528   0.935   7.684   6.066
 2166SOL    HW118529   0.887   7.725   5.988
 2166SOL    HW218530   1.034   7.682   6.047
 2167SOL     OW18531   1.032   7.997   5.602
 2167SOL    HW118532   0.991   8.079   5.563
 2167SOL    HW218533   1.096   8.023   5.675
 2168SOL     OW18534   0.561   7.670   6.733
 2168SOL    HW118535   0.599   7.586   6.770
 2168SOL    HW218536   0.473   7.689   6.777
 2169SOL     OW18537   0.866   7.902   6.228
 2169SOL    HW118538   0.834   7.974   6.166
 2169SOL    HW218539   0.890   7.821   6.175
 2170SOL     OW18540   1.017   7.487   6.339
 2170SOL    HW118541   0.945   7.492   6.270
 2170SOL    HW218542   0.993   7.418   6.408
 2171SOL     OW18543   1.466   8.038   6.578
 2171SOL    HW118544   1.436   7.943   6.585
 2171SOL    HW218545   1.539   8.054   6.644
 2172SOL     OW18546   1.857   8.281   5.963
 2172SOL    HW118547   1.899   8.217   6.027
 2172SOL    HW218548   1.819   8.230   5.885
 2173SOL     OW18549   1.390   8.023   5.664
 2173SOL    HW118550   1.336   8.002   5.745
 2173SOL    HW218551   1.481   7.982   5.673
 2174SOL     OW18552   0.527   7.704   5.914
 2174SOL    HW118553   0.554   7.645   5.839
 2174SOL    HW218554   0.527   7.799   5.883
 2175SOL     OW18555   1.638   8.547   6.665
 2175SOL    HW118556   1.643   8.628   6.724
 2175SOL    HW218557   1.552   8.549   6.614
 2176SOL     OW18558   0.410   8.261   6.837
 2176SOL    HW118559   0.496   8.273   6.887
 2176SOL    HW218560   0.368   8.174   6.864
 2177SOL     OW18561   1.274   7.834   6.848
 2177SOL    HW118562   1.295   7.908   6.912
 2177SOL    HW218563   1.185   7.851   6.805
 2178SOL     OW18564   0.566   7.985   6.451
 2178SOL    HW118565   0.578   8.051   6.377
 2178SOL    HW218566   0.612   8.019   6.534
 2179SOL     OW18567   1.582   8.087   6.058
 2179SOL    HW118568   1.551   8.148   6.131
 2179SOL    HW218569   1.632   8.139   5.989
 2180SOL     OW18570   0.573   8.318   6.615
 2180SOL    HW118571   0.617   8.407   6.606
 2180SOL    HW218572   0.510   8.318   6.692
 2181SOL     OW18573   1.360   8.310   6.631
 2181SOL    HW118574   1.285   8.310   6.565
 2181SOL    HW218575   1.397   8.218   6.640
 2182SOL     OW18576   1.209   7.973   5.861
 2182SOL    HW118577   1.222   7.889   5.915
 2182SOL    HW218578   1.180   8.047   5.921
 2183SOL     OW18579   0.307   7.661   6.817
 2183SOL    HW118580   0.284   7.698   6.907
 2183SOL    HW218581   0.277   7.566   6.811
 2184SOL     OW18582   0.732   8.082   6.650
 2184SOL    HW118583   0.791   8.056   6.574
 2184SOL    HW218584   0.704   8.178   6.639
 2185SOL     OW18585   0.307   7.511   6.204
 2185SOL    HW118586   0.296   7.605   6.237
 2185SOL    HW218587   0.302   7.448   6.281
 2186SOL     OW18588   1.622   7.815   5.960
 2186SOL    HW118589   1.624   7.739   6.024
 2186SOL    HW218590   1.574   7.892   6.000
 2187SOL     OW18591   1.023   8.214   6.552
 2187SOL    HW118592   1.038   8.235   6.648
 2187SOL    HW218593   0.993   8.119   6.543
 2188SOL     OW18594   1.540   7.722   5.711
 2188SOL    HW118595   1.479   7.647   5.734
 2188SOL    HW218596   1.562   7.774   5.794
 2189SOL     OW18597   1.303   8.286   5.628
 2189SOL    HW118598   1.337   8.193   5.643
 2189SOL    HW218599   1.321   8.313   5.533
 2190SOL     OW18600   0.319   8.258   6.535
 2190SOL    HW118601   0.412   8.294   6.540
 2190SOL    HW218602   0.313   8.173   6.587
 2191SOL     OW18603   0.339   7.957   6.592
 2191SOL    HW118604   0.287   7.874   6.575
 2191SOL    HW218605   0.416   7.962   6.528
 2192SOL     OW18606   1.160   7.655   7.063
 2192SOL    HW118607   1.160   7.719   7.140
 2192SOL    HW218608   1.188   7.703   6.980
 2193SOL     OW18609   1.002   8.244   6.824
 2193SOL    HW118610   1.043   8.212   6.910
 2193SOL    HW218611   0.906   8.217   6.821
 2194SOL     OW18612   0.040   7.992   6.700
 2194SOL    HW118613   0.125   7.959   6.659
 2194SOL    HW218614   0.053   8.007   6.798
 2195SOL     OW18615   0.815   8.020   5.911
 2195SOL    HW118616   0.822   7.931   5.865
 2195SOL    HW218617   0.721   8.054   5.903
 2196SOL     OW18618   1.657   8.052   6.792
 2196SOL    HW118619   1.619   7.983   6.854
 2196SOL    HW218620   1.739   8.016   6.748
 2197SOL     OW18621   0.671   7.912   6.855
 2197SOL    HW118622   0.637   7.823   6.825
 2197SOL    HW218623   0.697   7.966   6.775
 2198SOL     OW18624   0.473   7.948   5.777
 2198SOL    HW118625   0.534   8.028   5.781
 2198SOL    HW218626   0.378   7.979   5.784
 2199SOL     OW18627   1.347   8.507   6.820
 2199SOL    HW118628   1.371   8.444   6.746
 2199SOL    HW218629   1.257   8.547   6.802
 2200SOL     OW18630   1.302   8.303   5.895
 2200SOL    HW118631   1.216   8.272   5.937
 2200SOL    HW218632   1.298   8.289   5.796
 2201SOL     OW18633   1.726   7.583   6.109
 2201SOL    HW118634   1.799   7.566   6.042
 2201SOL    HW218635   1.695   7.496   6.147
 2202SOL     OW18636   1.280   8.375   6.258
 2202SOL    HW118637   1.340   8.294   6.260
 2202SOL    HW218638   1.320   8.444   6.198
 2203SOL     OW18639   1.841   7.623   6.549
 2203SOL    HW118640   1.880   7.538   6.513
 2203SOL    HW218641   1.743   7.625   6.530
 2204SOL     OW18642   0.263   7.774   6.306
 2204SOL    HW118643   0.184   7.825   6.272
 2204SOL    HW218644   0.254   7.759   6.404
 2205SOL     OW18645   0.916   8.358   5.877
 2205SOL    HW118646   0.979   8.396   5.809
 2205SOL    HW218647   0.956   8.275   5.916
 2206SOL     OW18648   1.014   7.684   6.557
 2206SOL    HW118649   1.006   7.648   6.464
 2206SOL    HW218650   1.012   7.608   6.622
 2207SOL     OW18651   1.709   7.833   6.967
 2207SOL    HW118652   1.782   7.902   6.971
 2207SOL    HW218653   1.737   7.758   6.908
 2208SOL     OW18654   0.072   7.614   5.904
 2208SOL    HW118655   0.055   7.697   5.850
 2208SOL    HW218656   0.162   7.577   5.882
 2209SOL     OW18657   1.674   8.331   6.840
 2209SOL    HW118658   1.647   8.242   6.803
 2209SOL    HW218659   1.675   8.399   6.767
 2210SOL     OW18660   1.225   7.773   6.035
 2210SOL    HW118661   1.290   7.699   6.024
 2210SOL    HW218662   1.245   7.823   6.119
 2211SOL     OW18663   0.594   8.193   6.238
 2211SOL    HW118664   0.644   8.278   6.219
 2211SOL    HW218665   0.506   8.195   6.190
 2212SOL     OW18666   1.730   8.382   7.103
 2212SOL    HW118667   1.768   8.473   7.118
 2212SOL    HW218668   1.722   8.365   7.004
 2213SOL     OW18669   1.083   8.432   5.673
 2213SOL    HW118670   1.060   8.485   5.591
 2213SOL    HW218671   1.164   8.376   5.654
 2214SOL     OW18672   1.824   7.640   6.813
 2214SOL    HW118673   1.820   7.550   6.857
 2214SOL    HW218674   1.827   7.629   6.714
 2215SOL     OW18675   0.428   7.872   6.106
 2215SOL    HW118676   0.458   7.800   6.044
 2215SOL    HW218677   0.389   7.832   6.189
 2216SOL     OW18678   1.424   7.662   6.698
 2216SOL    HW118679   1.476   7.597   6.753
 2216SOL    HW218680   1.375   7.725   6.759
 2217SOL     OW18681   1.001   7.482   6.740
 2217SOL    HW118682   0.938   7.410   6.709
 2217SOL    HW218683   1.094   7.446   6.740
 2218SOL     OW18684   1.352   7.500   5.754
 2218SOL    HW118685   1.387   7.459   5.670
 2218SOL    HW218686   1.262   7.462   5.774
 2219SOL     OW18687   1.300   7.901   6.277
 2219SOL    HW118688   1.241   7.981   6.281
 2219SOL    HW218689   1.315   7.866   6.370
 2220SOL     OW18690   1.593   7.669   6.468
 2220SOL    HW118691   1.509   7.668   6.522
 2220SOL    HW218692   1.595   7.752   6.412
 2221SOL     OW18693   2.092   0.628   0.113
 2221SOL    HW118694   1.999   0.626   0.150
 2221SOL    HW218695   2.093   0.589   0.021
 2222SOL     OW18696   2.087   0.275   0.996
 2222SOL    HW118697   2.122   0.258   1.088
 2222SOL    HW218698   1.999   0.230   0.984
 2223SOL     OW18699   1.881   0.368   0.647
 2223SOL    HW118700   1.799   0.411   0.686
 2223SOL    HW218701   1.853   0.295   0.584
 2224SOL     OW18702   2.431   1.275   1.165
 2224SOL    HW118703   2.338   1.268   1.128
 2224SOL    HW218704   2.442   1.364   1.209
 2225SOL     OW18705   3.417   1.511   0.703
 2225SOL    HW118706   3.360   1.495   0.784
 2225SOL    HW218707   3.358   1.521   0.623
 2226SOL     OW18708   2.997   0.703   0.717
 2226SOL    HW118709   3.054   0.781   0.692
 2226SOL    HW218710   2.937   0.729   0.793
 2227SOL     OW18711   3.617   0.607   0.231
 2227SOL    HW118712   3.605   0.594   0.132
 2227SOL    HW218713   3.587   0.526   0.280
 2228SOL     OW18714   2.630   1.144   1.023
 2228SOL    HW118715   2.552   1.161   1.083
 2228SOL    HW218716   2.664   1.231   0.987
 2229SOL     OW18717   2.712   0.798   1.823
 2229SOL    HW118718   2.708   0.874   1.888
 2229SOL    HW218719   2.734   0.834   1.732
 2230SOL     OW18720   2.547   1.012   0.665
 2230SOL    HW118721   2.616   0.996   0.735
 2230SOL    HW218722   2.474   1.069   0.703
 2231SOL     OW18723   2.197   1.435   1.061
 2231SOL    HW118724   2.119   1.404   1.008
 2231SOL    HW218725   2.255   1.493   1.004
 2232SOL     OW18726   3.465   0.447   0.737
 2232SOL    HW118727   3.391   0.493   0.687
 2232SOL    HW218728   3.516   0.515   0.790
 2233SOL     OW18729   2.093   1.713   0.483
 2233SOL    HW118730   2.127   1.790   0.537
 2233SOL    HW218731   2.137   1.713   0.393
 2234SOL     OW18732   2.989   1.341   1.690
 2234SOL    HW118733   3.036   1.341   1.778
 2234SOL    HW218734   2.941   1.254   1.679
 2235SOL     OW18735   2.092   1.434   0.538
 2235SOL    HW118736   2.066   1.530   0.538
 2235SOL    HW218737   2.021   1.380   0.583
 2236SOL     OW18738   2.102   1.091   0.886
 2236SOL    HW118739   2.116   1.007   0.938
 2236SOL    HW218740   2.047   1.155   0.941
 2237SOL     OW18741   2.482   1.786   1.439
 2237SOL    HW118742   2.390   1.769   1.474
 2237SOL    HW218743   2.510   1.878   1.465
 2238SOL     OW18744   2.468   0.964   0.123
 2238SOL    HW118745   2.475   1.048   0.069
 2238SOL    HW218746   2.514   0.977   0.211
 2239SOL     OW18747   1.984   0.643   0.563
 2239SOL    HW118748   1.939   0.555   0.580
 2239SOL    HW218749   1.983   0.697   0.647
 2240SOL     OW18750   3.704   1.767   0.359
 2240SOL    HW118751   3.758   1.738   0.439
 2240SOL    HW218752   3.734   1.857   0.330
 2241SOL     OW18753   3.551   0.922   0.612
 2241SOL    HW118754   3.646   0.893   0.620
 2241SOL    HW218755   3.543   0.987   0.537
 2242SOL     OW18756   3.503   1.108   0.432
 2242SOL    HW118757   3.589   1.110   0.380
 2242SOL    HW218758   3.517   1.155   0.520
 2243SOL     OW18759   2.475   1.365   0.726
 2243SOL    HW118760   2.426   1.278   0.735
 2243SOL    HW218761   2.452   1.408   0.639
 2244SOL     OW18762   3.155   1.228   1.423
 2244SOL    HW118763   3.192   1.155   1.365
 2244SOL    HW218764   3.207   1.233   1.508
 2245SOL     OW18765   2.059   0.976   1.264
 2245SOL    HW118766   2.148   0.931   1.250
 2245SOL    HW218767   1.986   0.911   1.245
 2246SOL     OW18768   2.179   0.251   1.801
 2246SOL    HW118769   2.250   0.322   1.807
 2246SOL    HW218770   2.091   0.290   1.829
 2247SOL     OW18771   3.328   1.417   0.953
 2247SOL    HW118772   3.269   1.423   1.033
 2247SOL    HW218773   3.313   1.329   0.907
 2248SOL     OW18774   3.529   1.714   0.572
 2248SOL    HW118775   3.488   1.691   0.484
 2248SOL    HW218776   3.511   1.640   0.637
 2249SOL     OW18777   2.460   0.729   0.270
 2249SOL    HW118778   2.484   0.798   0.202
 2249SOL    HW218779   2.382   0.762   0.324
 2250SOL     OW18780   3.143   0.345   0.944
 2250SOL    HW118781   3.057   0.295   0.931
 2250SOL    HW218782   3.205   0.291   1.000
 2251SOL     OW18783   3.438   1.662   0.307
 2251SOL    HW118784   3.527   1.708   0.310
 2251SOL    HW218785   3.417   1.638   0.212
 2252SOL     OW18786   2.669   0.605   1.465
 2252SOL    HW118787   2.622   0.602   1.554
 2252SOL    HW218788   2.618   0.550   1.399
 2253SOL     OW18789   2.835   0.890   1.572
 2253SOL    HW118790   2.881   0.806   1.543
 2253SOL    HW218791   2.779   0.924   1.497
 2254SOL     OW18792   2.853   0.410   1.242
 2254SOL    HW118793   2.776   0.444   1.296
 2254SOL    HW218794   2.819   0.359   1.163
 2255SOL     OW18795   2.903   0.701   0.429
 2255SOL    HW118796   2.929   0.697   0.525
 2255SOL    HW218797   2.818   0.650   0.415
 2256SOL     OW18798   1.938   0.811   0.789
 2256SOL    HW118799   2.037   0.799   0.798
 2256SOL    HW218800   1.914   0.906   0.810
 2257SOL     OW18801   2.727   0.348   0.195
 2257SOL    HW118802   2.786   0.411   0.146
 2257SOL    HW218803   2.746   0.254   0.166
 2258SOL     OW18804   3.224   1.144   0.545
 2258SOL    HW118805   3.307   1.115   0.497
 2258SOL    HW218806   3.175   1.211   0.489
 2259SOL     OW18807   2.412   0.196   0.885
 2259SOL    HW118808   2.407   0.191   0.985
 2259SOL    HW218809   2.414   0.292   0.856
 2260SOL     OW18810   2.870   1.456   0.477
 2260SOL    HW118811   2.824   1.528   0.425
 2260SOL    HW218812   2.866   1.476   0.575
 2261SOL     OW18813   2.213   1.801   0.853
 2261SOL    HW118814   2.263   1.715   0.859
 2261SOL    HW218815   2.278   1.878   0.850
 2262SOL     OW18816   3.657   1.066   0.873
 2262SOL    HW118817   3.595   1.051   0.797
 2262SOL    HW218818   3.605   1.077   0.958
 2263SOL     OW18819   2.183   0.943   0.242
 2263SOL    HW118820   2.265   0.982   0.200
 2263SOL    HW218821   2.156   0.861   0.193
 2264SOL     OW18822   3.320   0.735   0.728
 2264SOL    HW118823   3.315   0.670   0.803
 2264SOL    HW218824   3.400   0.794   0.741
 2265SOL     OW18825   2.973   1.776   0.237
 2265SOL    HW118826   2.913   1.714   0.287
 2265SOL    HW218827   3.004   1.732   0.152
 2266SOL     OW18828   2.064   0.285   1.498
 2266SOL    HW118829   1.984   0.345   1.485
 2266SOL    HW218830   2.054   0.236   1.584
 2267SOL     OW18831   3.494   1.377   0.081
 2267SOL    HW118832   3.462   1.471   0.071
 2267SOL    HW218833   3.418   1.314   0.069
 2268SOL     OW18834   2.326   1.743   0.323
 2268SOL    HW118835   2.359   1.782   0.409
 2268SOL    HW218836   2.402   1.736   0.258
 2269SOL     OW18837   3.262   0.107   0.426
 2269SOL    HW118838   3.238   0.070   0.336
 2269SOL    HW218839   3.361   0.123   0.430
 2270SOL     OW18840   2.111   1.785   1.241
 2270SOL    HW118841   2.168   1.720   1.291
 2270SOL    HW218842   2.095   1.752   1.148
 2271SOL     OW18843   2.802   1.698   0.904
 2271SOL    HW118844   2.882   1.641   0.925
 2271SOL    HW218845   2.753   1.658   0.827
 2272SOL     OW18846   2.244   0.700   0.480
 2272SOL    HW118847   2.289   0.610   0.477
 2272SOL    HW218848   2.150   0.689   0.513
 2273SOL     OW18849   2.643   0.264   1.749
 2273SOL    HW118850   2.710   0.203   1.792
 2273SOL    HW218851   2.570   0.283   1.814
 2274SOL     OW18852   2.750   1.514   1.195
 2274SOL    HW118853   2.727   1.489   1.101
 2274SOL    HW218854   2.811   1.445   1.234
 2275SOL     OW18855   3.213   0.590   1.433
 2275SOL    HW118856   3.241   0.547   1.518
 2275SOL    HW218857   3.238   0.686   1.434
 2276SOL     OW18858   2.665   1.402   0.924
 2276SOL    HW118859   2.755   1.416   0.882
 2276SOL    HW218860   2.594   1.404   0.853
 2277SOL     OW18861   2.784   0.503   0.899
 2277SOL    HW118862   2.759   0.494   0.803
 2277SOL    HW218863   2.832   0.421   0.930
 2278SOL     OW18864   2.159   0.035   0.171
 2278SOL    HW118865   2.208   0.119   0.150
 2278SOL    HW218866   2.221  -0.030   0.216
 2279SOL     OW18867   2.797   0.236   0.480
 2279SOL    HW118868   2.749   0.277   0.402
 2279SOL    HW218869   2.896   0.234   0.461
 2280SOL     OW18870   2.938   0.683   1.464
 2280SOL    HW118871   2.858   0.622   1.467
 2280SOL    HW218872   3.019   0.630   1.440
 2281SOL     OW18873   3.089   1.570   0.793
 2281SOL    HW118874   3.110   1.644   0.728
 2281SOL    HW218875   3.157   1.570   0.866
 2282SOL     OW18876   2.321   1.152   0.741
 2282SOL    HW118877   2.250   1.125   0.806
 2282SOL    HW218878   2.295   1.124   0.648
 2283SOL     OW18879   3.133   1.797   0.591
 2283SOL    HW118880   3.177   1.861   0.527
 2283SOL    HW218881   3.083   1.849   0.661
 2284SOL     OW18882   2.894   0.549   0.016
 2284SOL    HW118883   2.853   0.631  -0.023
 2284SOL    HW218884   2.958   0.575   0.089
 2285SOL     OW18885   1.940   0.556   1.386
 2285SOL    HW118886   2.032   0.555   1.345
 2285SOL    HW218887   1.934   0.630   1.453
 2286SOL     OW18888   2.423   0.222   1.147
 2286SOL    HW118889   2.461   0.138   1.184
 2286SOL    HW218890   2.335   0.241   1.191
 2287SOL     OW18891   2.728   0.454   0.642
 2287SOL    HW118892   2.696   0.526   0.580
 2287SOL    HW218893   2.752   0.373   0.589
 2288SOL     OW18894   2.879   0.039   0.753
 2288SOL    HW118895   2.807   0.044   0.684
 2288SOL    HW218896   2.855  -0.030   0.822
 2289SOL     OW18897   3.291   1.173   0.867
 2289SOL    HW118898   3.236   1.089   0.860
 2289SOL    HW218899   3.317   1.202   0.775
 2290SOL     OW18900   3.328   0.590   0.992
 2290SOL    HW118901   3.298   0.495   0.999
 2290SOL    HW218902   3.401   0.606   1.058
 2291SOL     OW18903   3.719   0.833   0.377
 2291SOL    HW118904   3.761   0.769   0.441
 2291SOL    HW218905   3.681   0.782   0.299
 2292SOL     OW18906   2.350   1.385   0.174
 2292SOL    HW118907   2.263   1.370   0.221
 2292SOL    HW218908   2.333   1.411   0.079
 2293SOL     OW18909   3.526   1.280   0.657
 2293SOL    HW118910   3.625   1.288   0.671
 2293SOL    HW218911   3.481   1.364   0.688
 2294SOL     OW18912   3.252   0.575   0.078
 2294SOL    HW118913   3.198   0.554   0.159
 2294SOL    HW218914   3.343   0.534   0.087
 2295SOL     OW18915   2.389   0.256   0.328
 2295SOL    HW118916   2.416   0.197   0.253
 2295SOL    HW218917   2.389   0.351   0.297
 2296SOL     OW18918   3.616   1.223   1.588
 2296SOL    HW118919   3.707   1.184   1.575
 2296SOL    HW218920   3.624   1.319   1.612
 2297SOL     OW18921   3.454   1.629   1.625
 2297SOL    HW118922   3.481   1.663   1.535
 2297SOL    HW218923   3.533   1.591   1.671
 2298SOL     OW18924   2.973   1.195   1.100
 2298SOL    HW118925   2.933   1.239   1.181
 2298SOL    HW218926   2.932   1.232   1.017
 2299SOL     OW18927   3.500   1.099   1.079
 2299SOL    HW118928   3.505   1.180   1.138
 2299SOL    HW218929   3.414   1.101   1.028
 2300SOL     OW18930   2.777   0.089   1.402
 2300SOL    HW118931   2.802   0.069   1.307
 2300SOL    HW218932   2.849   0.145   1.444
 2301SOL     OW18933   2.842   1.116   1.719
 2301SOL    HW118934   2.743   1.122   1.729
 2301SOL    HW218935   2.865   1.036   1.663
 2302SOL     OW18936   2.567   1.050   0.368
 2302SOL    HW118937   2.553   1.057   0.467
 2302SOL    HW218938   2.651   0.999   0.350
 2303SOL     OW18939   2.272   0.813   1.251
 2303SOL    HW118940   2.358   0.825   1.301
 2303SOL    HW218941   2.230   0.726   1.278
 2304SOL     OW18942   3.136   0.386   1.262
 2304SOL    HW118943   3.157   0.460   1.326
 2304SOL    HW218944   3.047   0.403   1.219
 2305SOL     OW18945   1.926   1.564   1.331
 2305SOL    HW118946   1.880   1.646   1.297
 2305SOL    HW218947   2.024   1.583   1.340
 2306SOL     OW18948   2.229   1.100   0.501
 2306SOL    HW118949   2.222   1.183   0.445
 2306SOL    HW218950   2.233   1.020   0.441
 2307SOL     OW18951   2.428   0.537   0.865
 2307SOL    HW118952   2.440   0.603   0.791
 2307SOL    HW218953   2.474   0.571   0.948
 2308SOL     OW18954   3.114   1.348   0.388
 2308SOL    HW118955   3.164   1.425   0.428
 2308SOL    HW218956   3.019   1.350   0.420
 2309SOL     OW18957   3.444   0.639   0.472
 2309SOL    HW118958   3.413   0.700   0.545
 2309SOL    HW218959   3.494   0.691   0.403
 2310SOL     OW18960   2.216   1.510   1.329
 2310SOL    HW118961   2.195   1.466   1.242
 2310SOL    HW218962   2.313   1.536   1.332
 2311SOL     OW18963   2.875   0.105   1.770
 2311SOL    HW118964   2.881   0.190   1.718
 2311SOL    HW218965   2.907   0.029   1.713
 2312SOL     OW18966   2.435   0.870   1.029
 2312SOL    HW118967   2.479   0.959   1.020
 2312SOL    HW218968   2.372   0.870   1.106
 2313SOL     OW18969   3.222   0.862   1.045
 2313SOL    HW118970   3.147   0.862   0.979
 2313SOL    HW218971   3.259   0.770   1.054
 2314SOL     OW18972   3.071   0.525   0.275
 2314SOL    HW118973   3.084   0.441   0.329
 2314SOL    HW218974   3.042   0.599   0.335
 2315SOL     OW18975   1.899   1.310   1.282
 2315SOL    HW118976   1.952   1.261   1.350
 2315SOL    HW218977   1.921   1.408   1.287
 2316SOL     OW18978   2.594   0.634   1.064
 2316SOL    HW118979   2.653   0.608   0.988
 2316SOL    HW218980   2.566   0.730   1.053
 2317SOL     OW18981   2.169   0.063   0.618
 2317SOL    HW118982   2.158   0.157   0.651
 2317SOL    HW218983   2.164   0.000   0.695
 2318SOL     OW18984   3.484   0.367   0.374
 2318SOL    HW118985   3.486   0.291   0.438
 2318SOL    HW218986   3.436   0.444   0.414
 2319SOL     OW18987   2.885   0.766   0.966
 2319SOL    HW118988   2.900   0.787   1.062
 2319SOL    HW218989   2.855   0.671   0.957
 2320SOL     OW18990   3.721   1.518   1.605
 2320SOL    HW118991   3.735   1.545   1.510
 2320SOL    HW218992   3.804   1.540   1.658
 2321SOL     OW18993   3.402   0.274   0.125
 2321SOL    HW118994   3.341   0.199   0.148
 2321SOL    HW218995   3.424   0.326   0.208
 2322SOL     OW18996   3.165   0.838   0.042
 2322SOL    HW118997   3.199   0.745   0.057
 2322SOL    HW218998   3.183   0.865  -0.053
 2323SOL     OW18999   2.930   1.333   0.849
 2323SOL    HW119000   2.937   1.249   0.794
 2323SOL    HW219001   2.992   1.402   0.813
 2324SOL     OW19002   2.181   0.810   0.949
 2324SOL    HW119003   2.274   0.846   0.954
 2324SOL    HW219004   2.175   0.725   1.001
 2325SOL     OW19005   2.201   0.509   1.006
 2325SOL    HW119006   2.149   0.426   0.989
 2325SOL    HW219007   2.278   0.514   0.942
 2326SOL     OW19008   3.000   0.380   1.678
 2326SOL    HW119009   2.955   0.443   1.742
 2326SOL    HW219010   3.093   0.411   1.661
 2327SOL     OW19011   3.022   0.207   1.477
 2327SOL    HW119012   3.022   0.271   1.554
 2327SOL    HW219013   3.050   0.255   1.394
 2328SOL     OW19014   1.950   1.801   0.927
 2328SOL    HW119015   1.908   1.715   0.900
 2328SOL    HW219016   2.044   1.804   0.893
 2329SOL     OW19017   2.366   1.568   0.910
 2329SOL    HW119018   2.432   1.642   0.919
 2329SOL    HW219019   2.410   1.489   0.868
 2330SOL     OW19020   2.864   0.796   1.238
 2330SOL    HW119021   2.905   0.764   1.324
 2330SOL    HW219022   2.768   0.769   1.235
 2331SOL     OW19023   1.902   0.544   1.114
 2331SOL    HW119024   1.987   0.511   1.073
 2331SOL    HW219025   1.915   0.559   1.212
 2332SOL     OW19026   2.051   0.520   1.722
 2332SOL    HW119027   2.110   0.480   1.652
 2332SOL    HW219028   1.993   0.591   1.681
 2333SOL     OW19029   2.677   0.572   0.325
 2333SOL    HW119030   2.684   0.483   0.279
 2333SOL    HW219031   2.583   0.606   0.317
 2334SOL     OW19032   3.519   0.604   1.206
 2334SOL    HW119033   3.481   0.535   1.268
 2334SOL    HW219034   3.601   0.568   1.162
 2335SOL     OW19035   2.114   1.564   1.744
 2335SOL    HW119036   2.084   1.621   1.820
 2335SOL    HW219037   2.107   1.467   1.770
 2336SOL     OW19038   2.533   0.464   1.269
 2336SOL    HW119039   2.499   0.375   1.239
 2336SOL    HW219040   2.559   0.518   1.189
 2337SOL     OW19041   2.335   0.500   0.191
 2337SOL    HW119042   2.396   0.580   0.195
 2337SOL    HW219043   2.240   0.531   0.198
 2338SOL     OW19044   3.209   1.059   1.234
 2338SOL    HW119045   3.233   0.996   1.160
 2338SOL    HW219046   3.119   1.099   1.216
 2339SOL     OW19047   3.164   0.855   0.309
 2339SOL    HW119048   3.078   0.824   0.351
 2339SOL    HW219049   3.160   0.841   0.210
 2340SOL     OW19050   1.945   1.258   1.022
 2340SOL    HW119051   1.940   1.257   1.122
 2340SOL    HW219052   1.862   1.217   0.984
 2341SOL     OW19053   2.765   0.086   0.133
 2341SOL    HW119054   2.816   0.087   0.047
 2341SOL    HW219055   2.821   0.044   0.204
 2342SOL     OW19056   3.588   0.135   0.523
 2342SOL    HW119057   3.661   0.118   0.456
 2342SOL    HW219058   3.557   0.048   0.561
 2343SOL     OW19059   3.250   1.573   0.477
 2343SOL    HW119060   3.317   1.585   0.403
 2343SOL    HW219061   3.210   1.662   0.500
 2344SOL     OW19062   3.142   0.927   0.672
 2344SOL    HW119063   3.202   0.846   0.674
 2344SOL    HW219064   3.182   0.996   0.612
 2345SOL     OW19065   2.534   1.616   0.154
 2345SOL    HW119066   2.543   1.626   0.055
 2345SOL    HW219067   2.494   1.527   0.175
 2346SOL     OW19068   3.512   1.720   1.394
 2346SOL    HW119069   3.565   1.730   1.310
 2346SOL    HW219070   3.485   1.810   1.428
 2347SOL     OW19071   3.703   0.175   0.963
 2347SOL    HW119072   3.742   0.090   0.927
 2347SOL    HW219073   3.605   0.177   0.944
 2348SOL     OW19074   2.125   0.326   0.720
 2348SOL    HW119075   2.046   0.377   0.686
 2348SOL    HW219076   2.116   0.311   0.818
 2349SOL     OW19077   2.684   1.002   1.372
 2349SOL    HW119078   2.724   1.001   1.280
 2349SOL    HW219079   2.694   1.094   1.412
 2350SOL     OW19080   2.778   0.910   0.291
 2350SOL    HW119081   2.841   0.948   0.223
 2350SOL    HW219082   2.818   0.827   0.330
 2351SOL     OW19083   2.234   1.288   1.490
 2351SOL    HW119084   2.221   1.381   1.456
 2351SOL    HW219085   2.150   1.236   1.477
 2352SOL     OW19086   2.901   1.098   0.696
 2352SOL    HW119087   2.831   1.051   0.750
 2352SOL    HW219088   2.960   1.030   0.653
 2353SOL     OW19089   2.876   0.236   0.971
 2353SOL    HW119090   2.868   0.200   0.878
 2353SOL    HW219091   2.874   0.160   1.036
 2354SOL     OW19092   2.452   1.487   0.491
 2354SOL    HW119093   2.494   1.429   0.421
 2354SOL    HW219094   2.408   1.566   0.447
 2355SOL     OW19095   3.571   0.385   1.381
 2355SOL    HW119096   3.644   0.454   1.385
 2355SOL    HW219097   3.599   0.310   1.322
 2356SOL     OW19098   2.117   1.348   0.290
 2356SOL    HW119099   2.021   1.349   0.263
 2356SOL    HW219100   2.129   1.401   0.374
 2357SOL     OW19101   2.534   0.203   1.489
 2357SOL    HW119102   2.624   0.187   1.449
 2357SOL    HW219103   2.542   0.208   1.588
 2358SOL     OW19104   3.302   0.856   1.398
 2358SOL    HW119105   3.245   0.908   1.335
 2358SOL    HW219106   3.398   0.868   1.374
 2359SOL     OW19107   3.355   1.767   0.959
 2359SOL    HW119108   3.388   1.831   0.890
 2359SOL    HW219109   3.421   1.761   1.034
 2360SOL     OW19110   2.578   0.565   1.708
 2360SOL    HW119111   2.597   0.630   1.782
 2360SOL    HW219112   2.638   0.485   1.717
 2361SOL     OW19113   3.536   0.883   1.254
 2361SOL    HW119114   3.509   0.794   1.217
 2361SOL    HW219115   3.537   0.951   1.181
 2362SOL     OW19116   3.087   0.325   0.449
 2362SOL    HW119117   3.152   0.251   0.438
 2362SOL    HW219118   3.107   0.375   0.533
 2363SOL     OW19119   2.456   0.745   0.652
 2363SOL    HW119120   2.506   0.830   0.633
 2363SOL    HW219121   2.368   0.747   0.604
 2364SOL     OW19122   2.523   1.790   0.953
 2364SOL    HW119123   2.477   1.878   0.940
 2364SOL    HW219124   2.622   1.802   0.946
 2365SOL     OW19125   2.721   0.956   0.861
 2365SOL    HW119126   2.775   0.887   0.909
 2365SOL    HW219127   2.689   1.025   0.927
 2366SOL     OW19128   3.723   1.569   0.851
 2366SOL    HW119129   3.652   1.557   0.781
 2366SOL    HW219130   3.724   1.490   0.911
 2367SOL     OW19131   2.083   1.314   1.844
 2367SOL    HW119132   2.018   1.241   1.823
 2367SOL    HW219133   2.087   1.328   1.942
 2368SOL     OW19134   1.941   1.240   0.653
 2368SOL    HW119135   1.940   1.193   0.741
 2368SOL    HW219136   2.023   1.212   0.602
 2369SOL     OW19137   3.686   0.192   1.227
 2369SOL    HW119138   3.682   0.102   1.271
 2369SOL    HW219139   3.689   0.181   1.128
 2370SOL     OW19140   2.290   0.424   0.520
 2370SOL    HW119141   2.320   0.352   0.458
 2370SOL    HW219142   2.251   0.384   0.603
 2371SOL     OW19143   2.179   0.547   1.280
 2371SOL    HW119144   2.217   0.488   1.352
 2371SOL    HW219145   2.219   0.521   1.192
 2372SOL     OW19146   2.674   1.586   0.687
 2372SOL    HW119147   2.706   1.596   0.593
 2372SOL    HW219148   2.595   1.524   0.689
 2373SOL     OW19149   3.286   0.214   1.112
 2373SOL    HW119150   3.338   0.149   1.167
 2373SOL    HW219151   3.237   0.277   1.173
 2374SOL     OW19152   2.863   0.034   1.154
 2374SOL    HW119153   2.800  -0.038   1.123
 2374SOL    HW219154   2.956  -0.002   1.154
 2375SOL     OW19155   2.632   1.330   0.301
 2375SOL    HW119156   2.586   1.243   0.318
 2375SOL    HW219157   2.723   1.327   0.342
 2376SOL     OW19158   2.480   1.567   1.284
 2376SOL    HW119159   2.475   1.649   1.341
 2376SOL    HW219160   2.569   1.564   1.239
 2377SOL     OW19161   3.214   0.052   0.168
 2377SOL    HW119162   3.249   0.011   0.084
 2377SOL    HW219163   3.124   0.014   0.188
 2378SOL     OW19164   3.162   0.453   0.691
 2378SOL    HW119165   3.103   0.533   0.695
 2378SOL    HW219166   3.177   0.418   0.784
 2379SOL     OW19167   3.455   0.221   0.882
 2379SOL    HW119168   3.371   0.220   0.936
 2379SOL    HW219169   3.457   0.304   0.826
 2380SOL     OW19170   1.901   1.077   0.300
 2380SOL    HW119171   2.000   1.066   0.291
 2380SOL    HW219172   1.861   0.991   0.332
 2381SOL     OW19173   2.737   1.646   0.337
 2381SOL    HW119174   2.660   1.611   0.283
 2381SOL    HW219175   2.705   1.717   0.399
 2382SOL     OW19176   2.087   0.275   2.858
 2382SOL    HW119177   2.122   0.258   2.950
 2382SOL    HW219178   1.999   0.230   2.846
 2383SOL     OW19179   2.630   1.144   2.885
 2383SOL    HW119180   2.552   1.161   2.945
 2383SOL    HW219181   2.664   1.231   2.849
 2384SOL     OW19182   2.300   0.392   3.361
 2384SOL    HW119183   2.382   0.336   3.370
 2384SOL    HW219184   2.219   0.334   3.365
 2385SOL     OW19185   2.989   1.341   3.552
 2385SOL    HW119186   3.036   1.341   3.640
 2385SOL    HW219187   2.941   1.254   3.541
 2386SOL     OW19188   2.092   1.434   2.400
 2386SOL    HW119189   2.066   1.530   2.400
 2386SOL    HW219190   2.021   1.380   2.445
 2387SOL     OW19191   3.551   0.922   2.474
 2387SOL    HW119192   3.646   0.893   2.482
 2387SOL    HW219193   3.543   0.987   2.399
 2388SOL     OW19194   3.503   1.108   2.294
 2388SOL    HW119195   3.589   1.110   2.242
 2388SOL    HW219196   3.517   1.155   2.382
 2389SOL     OW19197   3.387   0.999   2.052
 2389SOL    HW119198   3.324   0.923   2.065
 2389SOL    HW219199   3.435   1.017   2.138
 2390SOL     OW19200   3.049   1.792   3.478
 2390SOL    HW119201   3.073   1.852   3.402
 2390SOL    HW219202   3.056   1.697   3.448
 2391SOL     OW19203   2.669   0.605   3.327
 2391SOL    HW119204   2.622   0.602   3.416
 2391SOL    HW219205   2.618   0.550   3.261
 2392SOL     OW19206   2.853   0.410   3.104
 2392SOL    HW119207   2.776   0.444   3.158
 2392SOL    HW219208   2.819   0.359   3.025
 2393SOL     OW19209   3.224   1.144   2.407
 2393SOL    HW119210   3.307   1.115   2.359
 2393SOL    HW219211   3.175   1.211   2.351
 2394SOL     OW19212   3.089   1.550   3.368
 2394SOL    HW119213   3.095   1.473   3.432
 2394SOL    HW219214   3.037   1.524   3.288
 2395SOL     OW19215   3.320   0.735   2.590
 2395SOL    HW119216   3.315   0.670   2.665
 2395SOL    HW219217   3.400   0.794   2.603
 2396SOL     OW19218   2.323   1.266   3.589
 2396SOL    HW119219   2.273   1.267   3.503
 2396SOL    HW219220   2.260   1.248   3.665
 2397SOL     OW19221   2.973   1.776   2.099
 2397SOL    HW119222   2.913   1.714   2.149
 2397SOL    HW219223   3.004   1.732   2.014
 2398SOL     OW19224   3.494   1.377   1.943
 2398SOL    HW119225   3.462   1.471   1.933
 2398SOL    HW219226   3.418   1.314   1.931
 2399SOL     OW19227   2.111   1.785   3.103
 2399SOL    HW119228   2.168   1.720   3.153
 2399SOL    HW219229   2.095   1.752   3.010
 2400SOL     OW19230   2.643   0.264   3.611
 2400SOL    HW119231   2.710   0.203   3.654
 2400SOL    HW219232   2.570   0.283   3.676
 2401SOL     OW19233   2.750   1.514   3.057
 2401SOL    HW119234   2.727   1.489   2.963
 2401SOL    HW219235   2.811   1.445   3.096
 2402SOL     OW19236   2.784   0.503   2.761
 2402SOL    HW119237   2.759   0.494   2.665
 2402SOL    HW219238   2.832   0.421   2.792
 2403SOL     OW19239   3.296   1.188   1.903
 2403SOL    HW119240   3.328   1.112   1.960
 2403SOL    HW219241   3.204   1.215   1.933
 2404SOL     OW19242   2.938   0.683   3.326
 2404SOL    HW119243   2.858   0.622   3.329
 2404SOL    HW219244   3.019   0.630   3.302
 2405SOL     OW19245   2.894   0.549   1.878
 2405SOL    HW119246   2.853   0.631   1.839
 2405SOL    HW219247   2.958   0.575   1.951
 2406SOL     OW19248   1.940   0.556   3.248
 2406SOL    HW119249   2.032   0.555   3.207
 2406SOL    HW219250   1.934   0.630   3.315
 2407SOL     OW19251   2.350   1.385   2.036
 2407SOL    HW119252   2.263   1.370   2.083
 2407SOL    HW219253   2.333   1.411   1.941
 2408SOL     OW19254   2.389   0.256   2.190
 2408SOL    HW119255   2.416   0.197   2.115
 2408SOL    HW219256   2.389   0.351   2.159
 2409SOL     OW19257   3.454   1.629   3.487
 2409SOL    HW119258   3.481   1.663   3.397
 2409SOL    HW219259   3.533   1.591   3.533
 2410SOL     OW19260   2.777   0.089   3.264
 2410SOL    HW119261   2.802   0.069   3.169
 2410SOL    HW219262   2.849   0.145   3.306
 2411SOL     OW19263   2.567   1.050   2.230
 2411SOL    HW119264   2.553   1.057   2.329
 2411SOL    HW219265   2.651   0.999   2.212
 2412SOL     OW19266   2.216   1.510   3.191
 2412SOL    HW119267   2.195   1.466   3.104
 2412SOL    HW219268   2.313   1.536   3.194
 2413SOL     OW19269   2.875   0.105   3.632
 2413SOL    HW119270   2.881   0.190   3.580
 2413SOL    HW219271   2.907   0.029   3.575
 2414SOL     OW19272   3.071   0.525   2.137
 2414SOL    HW119273   3.084   0.441   2.191
 2414SOL    HW219274   3.042   0.599   2.197
 2415SOL     OW19275   2.169   0.063   2.480
 2415SOL    HW119276   2.158   0.157   2.513
 2415SOL    HW219277   2.164   0.000   2.557
 2416SOL     OW19278   3.165   0.838   1.904
 2416SOL    HW119279   3.199   0.745   1.919
 2416SOL    HW219280   3.183   0.865   1.809
 2417SOL     OW19281   2.930   1.333   2.711
 2417SOL    HW119282   2.937   1.249   2.656
 2417SOL    HW219283   2.992   1.402   2.675
 2418SOL     OW19284   3.231   0.950   3.522
 2418SOL    HW119285   3.270   1.039   3.542
 2418SOL    HW219286   3.241   0.930   3.425
 2419SOL     OW19287   3.519   0.604   3.068
 2419SOL    HW119288   3.481   0.535   3.130
 2419SOL    HW219289   3.601   0.568   3.024
 2420SOL     OW19290   2.533   0.464   3.131
 2420SOL    HW119291   2.499   0.375   3.101
 2420SOL    HW219292   2.559   0.518   3.051
 2421SOL     OW19293   3.209   1.059   3.096
 2421SOL    HW119294   3.233   0.996   3.022
 2421SOL    HW219295   3.119   1.099   3.078
 2422SOL     OW19296   3.164   0.855   2.171
 2422SOL    HW119297   3.078   0.824   2.213
 2422SOL    HW219298   3.160   0.841   2.072
 2423SOL     OW19299   3.114   1.731   2.990
 2423SOL    HW119300   3.198   1.736   2.936
 2423SOL    HW219301   3.091   1.635   3.008
 2424SOL     OW19302   3.142   0.927   2.534
 2424SOL    HW119303   3.202   0.846   2.536
 2424SOL    HW219304   3.182   0.996   2.474
 2425SOL     OW19305   2.125   0.326   2.582
 2425SOL    HW119306   2.046   0.377   2.548
 2425SOL    HW219307   2.116   0.311   2.680
 2426SOL     OW19308   3.056   1.612   1.893
 2426SOL    HW119309   3.062   1.519   1.930
 2426SOL    HW219310   2.997   1.612   1.813
 2427SOL     OW19311   2.778   0.910   2.153
 2427SOL    HW119312   2.841   0.948   2.085
 2427SOL    HW219313   2.818   0.827   2.192
 2428SOL     OW19314   3.366   1.607   1.906
 2428SOL    HW119315   3.274   1.644   1.913
 2428SOL    HW219316   3.404   1.627   1.816
 2429SOL     OW19317   2.901   1.098   2.558
 2429SOL    HW119318   2.831   1.051   2.612
 2429SOL    HW219319   2.960   1.030   2.515
 2430SOL     OW19320   2.876   0.236   2.833
 2430SOL    HW119321   2.868   0.200   2.740
 2430SOL    HW219322   2.874   0.160   2.898
 2431SOL     OW19323   2.117   1.348   2.152
 2431SOL    HW119324   2.021   1.349   2.125
 2431SOL    HW219325   2.129   1.401   2.236
 2432SOL     OW19326   1.967   1.013   3.588
 2432SOL    HW119327   1.890   0.980   3.642
 2432SOL    HW219328   2.052   0.983   3.630
 2433SOL     OW19329   1.937   0.345   1.895
 2433SOL    HW119330   1.845   0.317   1.866
 2433SOL    HW219331   1.968   0.422   1.839
 2434SOL     OW19332   3.045   1.335   1.981
 2434SOL    HW119333   2.946   1.324   1.983
 2434SOL    HW219334   3.079   1.350   2.074
 2435SOL     OW19335   2.475   0.842   3.293
 2435SOL    HW119336   2.531   0.923   3.276
 2435SOL    HW219337   2.534   0.762   3.296
 2436SOL     OW19338   2.578   0.565   3.570
 2436SOL    HW119339   2.597   0.630   3.644
 2436SOL    HW219340   2.638   0.485   3.579
 2437SOL     OW19341   2.456   0.745   2.514
 2437SOL    HW119342   2.506   0.830   2.495
 2437SOL    HW219343   2.368   0.747   2.466
 2438SOL     OW19344   2.721   1.374   1.878
 2438SOL    HW119345   2.675   1.389   1.966
 2438SOL    HW219346   2.765   1.459   1.848
 2439SOL     OW19347   2.721   0.956   2.723
 2439SOL    HW119348   2.775   0.887   2.771
 2439SOL    HW219349   2.689   1.025   2.789
 2440SOL     OW19350   2.945   0.984   1.949
 2440SOL    HW119351   2.922   1.037   1.867
 2440SOL    HW219352   3.026   0.928   1.930
 2441SOL     OW19353   2.534   1.391   3.486
 2441SOL    HW119354   2.456   1.341   3.524
 2441SOL    HW219355   2.531   1.486   3.517
 2442SOL     OW19356   2.290   0.424   2.382
 2442SOL    HW119357   2.320   0.352   2.320
 2442SOL    HW219358   2.251   0.384   2.465
 2443SOL     OW19359   2.674   1.586   2.549
 2443SOL    HW119360   2.706   1.596   2.455
 2443SOL    HW219361   2.595   1.524   2.551
 2444SOL     OW19362   2.632   1.330   2.163
 2444SOL    HW119363   2.586   1.243   2.180
 2444SOL    HW219364   2.723   1.327   2.204
 2445SOL     OW19365   3.214   0.052   2.030
 2445SOL    HW119366   3.249   0.011   1.946
 2445SOL    HW219367   3.124   0.014   2.050
 2446SOL     OW19368   2.087   0.275   4.720
 2446SOL    HW119369   2.122   0.258   4.812
 2446SOL    HW219370   1.999   0.230   4.708
 2447SOL     OW19371   3.417   1.511   4.427
 2447SOL    HW119372   3.360   1.495   4.508
 2447SOL    HW219373   3.358   1.521   4.347
 2448SOL     OW19374   3.617   0.607   3.955
 2448SOL    HW119375   3.605   0.594   3.856
 2448SOL    HW219376   3.587   0.526   4.004
 2449SOL     OW19377   2.197   1.435   4.785
 2449SOL    HW119378   2.119   1.404   4.732
 2449SOL    HW219379   2.255   1.493   4.728
 2450SOL     OW19380   2.300   0.392   5.223
 2450SOL    HW119381   2.382   0.336   5.232
 2450SOL    HW219382   2.219   0.334   5.227
 2451SOL     OW19383   1.889   1.596   3.841
 2451SOL    HW119384   1.870   1.500   3.862
 2451SOL    HW219385   1.856   1.654   3.916
 2452SOL     OW19386   3.503   1.108   4.156
 2452SOL    HW119387   3.589   1.110   4.104
 2452SOL    HW219388   3.517   1.155   4.244
 2453SOL     OW19389   1.975   0.737   5.321
 2453SOL    HW119390   2.063   0.724   5.366
 2453SOL    HW219391   1.962   0.834   5.299
 2454SOL     OW19392   2.671   0.004   4.226
 2454SOL    HW119393   2.711   0.095   4.217
 2454SOL    HW219394   2.571   0.012   4.232
 2455SOL     OW19395   3.049   1.792   5.340
 2455SOL    HW119396   3.073   1.852   5.264
 2455SOL    HW219397   3.056   1.697   5.310
 2456SOL     OW19398   2.179   0.251   5.525
 2456SOL    HW119399   2.250   0.322   5.531
 2456SOL    HW219400   2.091   0.290   5.553
 2457SOL     OW19401   3.529   1.714   4.296
 2457SOL    HW119402   3.488   1.691   4.208
 2457SOL    HW219403   3.511   1.640   4.361
 2458SOL     OW19404   3.256   0.469   5.398
 2458SOL    HW119405   3.236   0.512   5.486
 2458SOL    HW219406   3.334   0.407   5.407
 2459SOL     OW19407   2.853   0.410   4.966
 2459SOL    HW119408   2.776   0.444   5.020
 2459SOL    HW219409   2.819   0.359   4.887
 2460SOL     OW19410   3.581   0.585   5.555
 2460SOL    HW119411   3.555   0.674   5.519
 2460SOL    HW219412   3.579   0.517   5.482
 2461SOL     OW19413   2.213   1.801   4.577
 2461SOL    HW119414   2.263   1.715   4.583
 2461SOL    HW219415   2.278   1.878   4.574
 2462SOL     OW19416   3.657   1.066   4.597
 2462SOL    HW119417   3.595   1.051   4.521
 2462SOL    HW219418   3.605   1.077   4.682
 2463SOL     OW19419   3.089   1.550   5.230
 2463SOL    HW119420   3.095   1.473   5.294
 2463SOL    HW219421   3.037   1.524   5.150
 2464SOL     OW19422   2.183   0.943   3.966
 2464SOL    HW119423   2.265   0.982   3.924
 2464SOL    HW219424   2.156   0.861   3.917
 2465SOL     OW19425   2.326   1.743   4.047
 2465SOL    HW119426   2.359   1.782   4.133
 2465SOL    HW219427   2.402   1.736   3.982
 2466SOL     OW19428   3.409   0.222   5.453
 2466SOL    HW119429   3.404   0.259   5.545
 2466SOL    HW219430   3.337   0.153   5.441
 2467SOL     OW19431   2.643   0.264   5.473
 2467SOL    HW119432   2.710   0.203   5.516
 2467SOL    HW219433   2.570   0.283   5.538
 2468SOL     OW19434   3.213   0.590   5.157
 2468SOL    HW119435   3.241   0.547   5.242
 2468SOL    HW219436   3.238   0.686   5.158
 2469SOL     OW19437   1.940   0.556   5.110
 2469SOL    HW119438   2.032   0.555   5.069
 2469SOL    HW219439   1.934   0.630   5.177
 2470SOL     OW19440   2.423   0.222   4.871
 2470SOL    HW119441   2.461   0.138   4.908
 2470SOL    HW219442   2.335   0.241   4.915
 2471SOL     OW19443   3.526   1.280   4.381
 2471SOL    HW119444   3.625   1.288   4.395
 2471SOL    HW219445   3.481   1.364   4.412
 2472SOL     OW19446   3.252   0.575   3.802
 2472SOL    HW119447   3.198   0.554   3.883
 2472SOL    HW219448   3.343   0.534   3.811
 2473SOL     OW19449   3.616   1.223   5.312
 2473SOL    HW119450   3.707   1.184   5.299
 2473SOL    HW219451   3.624   1.319   5.336
 2474SOL     OW19452   3.500   1.099   4.803
 2474SOL    HW119453   3.505   1.180   4.862
 2474SOL    HW219454   3.414   1.101   4.752
 2475SOL     OW19455   3.136   0.386   4.986
 2475SOL    HW119456   3.157   0.460   5.050
 2475SOL    HW219457   3.047   0.403   4.943
 2476SOL     OW19458   2.428   0.537   4.589
 2476SOL    HW119459   2.440   0.603   4.515
 2476SOL    HW219460   2.474   0.571   4.672
 2477SOL     OW19461   3.114   1.348   4.112
 2477SOL    HW119462   3.164   1.425   4.152
 2477SOL    HW219463   3.019   1.350   4.144
 2478SOL     OW19464   3.449   0.779   5.394
 2478SOL    HW119465   3.357   0.817   5.389
 2478SOL    HW219466   3.509   0.826   5.329
 2479SOL     OW19467   2.875   0.105   5.494
 2479SOL    HW119468   2.881   0.190   5.442
 2479SOL    HW219469   2.907   0.029   5.437
 2480SOL     OW19470   2.366   0.050   5.464
 2480SOL    HW119471   2.324  -0.007   5.394
 2480SOL    HW219472   2.300   0.119   5.496
 2481SOL     OW19473   2.435   0.870   4.753
 2481SOL    HW119474   2.479   0.959   4.744
 2481SOL    HW219475   2.372   0.870   4.830
 2482SOL     OW19476   1.899   1.310   5.006
 2482SOL    HW119477   1.952   1.261   5.074
 2482SOL    HW219478   1.921   1.408   5.011
 2483SOL     OW19479   3.590   0.935   5.578
 2483SOL    HW119480   3.544   0.928   5.489
 2483SOL    HW219481   3.528   0.979   5.644
 2484SOL     OW19482   2.930   1.333   4.573
 2484SOL    HW119483   2.937   1.249   4.518
 2484SOL    HW219484   2.992   1.402   4.537
 2485SOL     OW19485   3.000   0.380   5.402
 2485SOL    HW119486   2.955   0.443   5.466
 2485SOL    HW219487   3.093   0.411   5.385
 2486SOL     OW19488   2.366   1.568   4.634
 2486SOL    HW119489   2.432   1.642   4.643
 2486SOL    HW219490   2.410   1.489   4.592
 2487SOL     OW19491   2.051   0.520   5.446
 2487SOL    HW119492   2.110   0.480   5.376
 2487SOL    HW219493   1.993   0.591   5.405
 2488SOL     OW19494   2.533   0.464   4.993
 2488SOL    HW119495   2.499   0.375   4.963
 2488SOL    HW219496   2.559   0.518   4.913
 2489SOL     OW19497   3.621   1.747   4.878
 2489SOL    HW119498   3.682   1.777   4.805
 2489SOL    HW219499   3.583   1.658   4.856
 2490SOL     OW19500   1.945   1.258   4.746
 2490SOL    HW119501   1.940   1.257   4.846
 2490SOL    HW219502   1.862   1.217   4.708
 2491SOL     OW19503   2.550   1.662   5.440
 2491SOL    HW119504   2.494   1.743   5.449
 2491SOL    HW219505   2.602   1.666   5.354
 2492SOL     OW19506   1.992   1.794   5.575
 2492SOL    HW119507   1.951   1.720   5.628
 2492SOL    HW219508   2.056   1.845   5.633
 2493SOL     OW19509   3.142   0.927   4.396
 2493SOL    HW119510   3.202   0.846   4.398
 2493SOL    HW219511   3.182   0.996   4.336
 2494SOL     OW19512   2.534   1.616   3.878
 2494SOL    HW119513   2.543   1.626   3.779
 2494SOL    HW219514   2.494   1.527   3.899
 2495SOL     OW19515   2.901   1.098   4.420
 2495SOL    HW119516   2.831   1.051   4.474
 2495SOL    HW219517   2.960   1.030   4.377
 2496SOL     OW19518   2.876   0.236   4.695
 2496SOL    HW119519   2.868   0.200   4.602
 2496SOL    HW219520   2.874   0.160   4.760
 2497SOL     OW19521   2.578   0.565   5.432
 2497SOL    HW119522   2.597   0.630   5.506
 2497SOL    HW219523   2.638   0.485   5.441
 2498SOL     OW19524   3.087   0.325   4.173
 2498SOL    HW119525   3.152   0.251   4.162
 2498SOL    HW219526   3.107   0.375   4.257
 2499SOL     OW19527   3.592   0.934   5.241
 2499SOL    HW119528   3.630   1.025   5.256
 2499SOL    HW219529   3.584   0.917   5.142
 2500SOL     OW19530   2.721   0.956   4.585
 2500SOL    HW119531   2.775   0.887   4.633
 2500SOL    HW219532   2.689   1.025   4.651
 2501SOL     OW19533   2.945   0.984   3.811
 2501SOL    HW119534   2.922   1.037   3.729
 2501SOL    HW219535   3.026   0.928   3.792
 2502SOL     OW19536   3.723   1.569   4.575
 2502SOL    HW119537   3.652   1.557   4.505
 2502SOL    HW219538   3.724   1.490   4.635
 2503SOL     OW19539   1.941   1.240   4.377
 2503SOL    HW119540   1.940   1.193   4.465
 2503SOL    HW219541   2.023   1.212   4.326
 2504SOL     OW19542   2.534   1.391   5.348
 2504SOL    HW119543   2.456   1.341   5.386
 2504SOL    HW219544   2.531   1.486   5.379
 2505SOL     OW19545   3.567   1.487   4.828
 2505SOL    HW119546   3.474   1.462   4.801
 2505SOL    HW219547   3.593   1.437   4.910
 2506SOL     OW19548   2.092   0.628   5.699
 2506SOL    HW119549   1.999   0.626   5.736
 2506SOL    HW219550   2.093   0.589   5.607
 2507SOL     OW19551   2.087   0.275   6.582
 2507SOL    HW119552   2.122   0.258   6.674
 2507SOL    HW219553   1.999   0.230   6.570
 2508SOL     OW19554   1.881   0.368   6.233
 2508SOL    HW119555   1.799   0.411   6.272
 2508SOL    HW219556   1.853   0.295   6.170
 2509SOL     OW19557   2.431   1.275   6.751
 2509SOL    HW119558   2.338   1.268   6.714
 2509SOL    HW219559   2.442   1.364   6.795
 2510SOL     OW19560   3.417   1.511   6.289
 2510SOL    HW119561   3.360   1.495   6.370
 2510SOL    HW219562   3.358   1.521   6.209
 2511SOL     OW19563   2.997   0.703   6.303
 2511SOL    HW119564   3.054   0.781   6.278
 2511SOL    HW219565   2.937   0.729   6.379
 2512SOL     OW19566   3.617   0.607   5.817
 2512SOL    HW119567   3.605   0.594   5.718
 2512SOL    HW219568   3.587   0.526   5.866
 2513SOL     OW19569   2.630   1.144   6.609
 2513SOL    HW119570   2.552   1.161   6.669
 2513SOL    HW219571   2.664   1.231   6.573
 2514SOL     OW19572   2.547   1.012   6.251
 2514SOL    HW119573   2.616   0.996   6.321
 2514SOL    HW219574   2.474   1.069   6.289
 2515SOL     OW19575   3.465   0.447   6.323
 2515SOL    HW119576   3.391   0.493   6.273
 2515SOL    HW219577   3.516   0.515   6.376
 2516SOL     OW19578   2.093   1.713   6.069
 2516SOL    HW119579   2.127   1.790   6.123
 2516SOL    HW219580   2.137   1.713   5.979
 2517SOL     OW19581   2.092   1.434   6.124
 2517SOL    HW119582   2.066   1.530   6.124
 2517SOL    HW219583   2.021   1.380   6.169
 2518SOL     OW19584   2.102   1.091   6.472
 2518SOL    HW119585   2.116   1.007   6.524
 2518SOL    HW219586   2.047   1.155   6.527
 2519SOL     OW19587   2.482   1.786   7.025
 2519SOL    HW119588   2.390   1.769   7.060
 2519SOL    HW219589   2.510   1.878   7.051
 2520SOL     OW19590   2.468   0.964   5.709
 2520SOL    HW119591   2.475   1.048   5.655
 2520SOL    HW219592   2.514   0.977   5.797
 2521SOL     OW19593   1.984   0.643   6.149
 2521SOL    HW119594   1.939   0.555   6.166
 2521SOL    HW219595   1.983   0.697   6.233
 2522SOL     OW19596   3.704   1.767   5.945
 2522SOL    HW119597   3.758   1.738   6.025
 2522SOL    HW219598   3.734   1.857   5.916
 2523SOL     OW19599   1.889   1.596   5.703
 2523SOL    HW119600   1.870   1.500   5.724
 2523SOL    HW219601   1.856   1.654   5.778
 2524SOL     OW19602   3.551   0.922   6.198
 2524SOL    HW119603   3.646   0.893   6.206
 2524SOL    HW219604   3.543   0.987   6.123
 2525SOL     OW19605   3.503   1.108   6.018
 2525SOL    HW119606   3.589   1.110   5.966
 2525SOL    HW219607   3.517   1.155   6.106
 2526SOL     OW19608   2.475   1.365   6.312
 2526SOL    HW119609   2.426   1.278   6.321
 2526SOL    HW219610   2.452   1.408   6.225
 2527SOL     OW19611   2.671   0.004   6.088
 2527SOL    HW119612   2.711   0.095   6.079
 2527SOL    HW219613   2.571   0.012   6.094
 2528SOL     OW19614   2.059   0.976   6.850
 2528SOL    HW119615   2.148   0.931   6.836
 2528SOL    HW219616   1.986   0.911   6.831
 2529SOL     OW19617   3.387   0.999   5.776
 2529SOL    HW119618   3.324   0.923   5.789
 2529SOL    HW219619   3.435   1.017   5.862
 2530SOL     OW19620   3.529   1.714   6.158
 2530SOL    HW119621   3.488   1.691   6.070
 2530SOL    HW219622   3.511   1.640   6.223
 2531SOL     OW19623   2.460   0.729   5.856
 2531SOL    HW119624   2.484   0.798   5.788
 2531SOL    HW219625   2.382   0.762   5.910
 2532SOL     OW19626   3.143   0.345   6.530
 2532SOL    HW119627   3.057   0.295   6.517
 2532SOL    HW219628   3.205   0.291   6.586
 2533SOL     OW19629   3.438   1.662   5.893
 2533SOL    HW119630   3.527   1.708   5.896
 2533SOL    HW219631   3.417   1.638   5.798
 2534SOL     OW19632   2.853   0.410   6.828
 2534SOL    HW119633   2.776   0.444   6.882
 2534SOL    HW219634   2.819   0.359   6.749
 2535SOL     OW19635   2.903   0.701   6.015
 2535SOL    HW119636   2.929   0.697   6.111
 2535SOL    HW219637   2.818   0.650   6.001
 2536SOL     OW19638   1.938   0.811   6.375
 2536SOL    HW119639   2.037   0.799   6.384
 2536SOL    HW219640   1.914   0.906   6.396
 2537SOL     OW19641   2.727   0.348   5.781
 2537SOL    HW119642   2.786   0.411   5.732
 2537SOL    HW219643   2.746   0.254   5.752
 2538SOL     OW19644   3.224   1.144   6.131
 2538SOL    HW119645   3.307   1.115   6.083
 2538SOL    HW219646   3.175   1.211   6.075
 2539SOL     OW19647   2.412   0.196   6.471
 2539SOL    HW119648   2.407   0.191   6.571
 2539SOL    HW219649   2.414   0.292   6.442
 2540SOL     OW19650   2.870   1.456   6.063
 2540SOL    HW119651   2.824   1.528   6.011
 2540SOL    HW219652   2.866   1.476   6.161
 2541SOL     OW19653   2.213   1.801   6.439
 2541SOL    HW119654   2.263   1.715   6.445
 2541SOL    HW219655   2.278   1.878   6.436
 2542SOL     OW19656   3.657   1.066   6.459
 2542SOL    HW119657   3.595   1.051   6.383
 2542SOL    HW219658   3.605   1.077   6.544
 2543SOL     OW19659   2.183   0.943   5.828
 2543SOL    HW119660   2.265   0.982   5.786
 2543SOL    HW219661   2.156   0.861   5.779
 2544SOL     OW19662   3.320   0.735   6.314
 2544SOL    HW119663   3.315   0.670   6.389
 2544SOL    HW219664   3.400   0.794   6.327
 2545SOL     OW19665   2.064   0.285   7.084
 2545SOL    HW119666   1.984   0.345   7.071
 2545SOL    HW219667   2.054   0.236   7.170
 2546SOL     OW19668   2.326   1.743   5.909
 2546SOL    HW119669   2.359   1.782   5.995
 2546SOL    HW219670   2.402   1.736   5.844
 2547SOL     OW19671   3.262   0.107   6.012
 2547SOL    HW119672   3.238   0.070   5.922
 2547SOL    HW219673   3.361   0.123   6.016
 2548SOL     OW19674   2.111   1.785   6.827
 2548SOL    HW119675   2.168   1.720   6.877
 2548SOL    HW219676   2.095   1.752   6.734
 2549SOL     OW19677   2.802   1.698   6.490
 2549SOL    HW119678   2.882   1.641   6.511
 2549SOL    HW219679   2.753   1.658   6.413
 2550SOL     OW19680   2.244   0.700   6.066
 2550SOL    HW119681   2.289   0.610   6.063
 2550SOL    HW219682   2.150   0.689   6.099
 2551SOL     OW19683   2.476   0.122   5.703
 2551SOL    HW119684   2.574   0.100   5.710
 2551SOL    HW219685   2.445   0.105   5.610
 2552SOL     OW19686   2.665   1.402   6.510
 2552SOL    HW119687   2.755   1.416   6.468
 2552SOL    HW219688   2.594   1.404   6.439
 2553SOL     OW19689   2.784   0.503   6.485
 2553SOL    HW119690   2.759   0.494   6.389
 2553SOL    HW219691   2.832   0.421   6.516
 2554SOL     OW19692   2.401   0.064   6.098
 2554SOL    HW119693   2.320   0.065   6.156
 2554SOL    HW219694   2.404   0.147   6.043
 2555SOL     OW19695   2.159   0.035   5.757
 2555SOL    HW119696   2.208   0.119   5.736
 2555SOL    HW219697   2.221  -0.030   5.802
 2556SOL     OW19698   2.797   0.236   6.066
 2556SOL    HW119699   2.749   0.277   5.988
 2556SOL    HW219700   2.896   0.234   6.047
 2557SOL     OW19701   3.089   1.570   6.379
 2557SOL    HW119702   3.110   1.644   6.314
 2557SOL    HW219703   3.157   1.570   6.452
 2558SOL     OW19704   2.321   1.152   6.327
 2558SOL    HW119705   2.250   1.125   6.392
 2558SOL    HW219706   2.295   1.124   6.234
 2559SOL     OW19707   2.423   0.222   6.733
 2559SOL    HW119708   2.461   0.138   6.770
 2559SOL    HW219709   2.335   0.241   6.777
 2560SOL     OW19710   2.728   0.454   6.228
 2560SOL    HW119711   2.696   0.526   6.166
 2560SOL    HW219712   2.752   0.373   6.175
 2561SOL     OW19713   2.879   0.039   6.339
 2561SOL    HW119714   2.807   0.044   6.270
 2561SOL    HW219715   2.855  -0.030   6.408
 2562SOL     OW19716   3.328   0.590   6.578
 2562SOL    HW119717   3.298   0.495   6.585
 2562SOL    HW219718   3.401   0.606   6.644
 2563SOL     OW19719   3.719   0.833   5.963
 2563SOL    HW119720   3.761   0.769   6.027
 2563SOL    HW219721   3.681   0.782   5.885
 2564SOL     OW19722   2.350   1.385   5.760
 2564SOL    HW119723   2.263   1.370   5.807
 2564SOL    HW219724   2.333   1.411   5.665
 2565SOL     OW19725   3.526   1.280   6.243
 2565SOL    HW119726   3.625   1.288   6.257
 2565SOL    HW219727   3.481   1.364   6.274
 2566SOL     OW19728   3.252   0.575   5.664
 2566SOL    HW119729   3.198   0.554   5.745
 2566SOL    HW219730   3.343   0.534   5.673
 2567SOL     OW19731   2.389   0.256   5.914
 2567SOL    HW119732   2.416   0.197   5.839
 2567SOL    HW219733   2.389   0.351   5.883
 2568SOL     OW19734   3.500   1.099   6.665
 2568SOL    HW119735   3.505   1.180   6.724
 2568SOL    HW219736   3.414   1.101   6.614
 2569SOL     OW19737   2.567   1.050   5.954
 2569SOL    HW119738   2.553   1.057   6.053
 2569SOL    HW219739   2.651   0.999   5.936
 2570SOL     OW19740   2.272   0.813   6.837
 2570SOL    HW119741   2.358   0.825   6.887
 2570SOL    HW219742   2.230   0.726   6.864
 2571SOL     OW19743   3.136   0.386   6.848
 2571SOL    HW119744   3.157   0.460   6.912
 2571SOL    HW219745   3.047   0.403   6.805
 2572SOL     OW19746   2.229   1.100   6.087
 2572SOL    HW119747   2.222   1.183   6.031
 2572SOL    HW219748   2.233   1.020   6.027
 2573SOL     OW19749   2.428   0.537   6.451
 2573SOL    HW119750   2.440   0.603   6.377
 2573SOL    HW219751   2.474   0.571   6.534
 2574SOL     OW19752   3.114   1.348   5.974
 2574SOL    HW119753   3.164   1.425   6.014
 2574SOL    HW219754   3.019   1.350   6.006
 2575SOL     OW19755   3.444   0.639   6.058
 2575SOL    HW119756   3.413   0.700   6.131
 2575SOL    HW219757   3.494   0.691   5.989
 2576SOL     OW19758   2.216   1.510   6.915
 2576SOL    HW119759   2.195   1.466   6.828
 2576SOL    HW219760   2.313   1.536   6.918
 2577SOL     OW19761   2.435   0.870   6.615
 2577SOL    HW119762   2.479   0.959   6.606
 2577SOL    HW219763   2.372   0.870   6.692
 2578SOL     OW19764   3.071   0.525   5.861
 2578SOL    HW119765   3.084   0.441   5.915
 2578SOL    HW219766   3.042   0.599   5.921
 2579SOL     OW19767   2.169   0.213   6.817
 2579SOL    HW119768   2.146   0.250   6.907
 2579SOL    HW219769   2.139   0.118   6.811
 2580SOL     OW19770   2.594   0.634   6.650
 2580SOL    HW119771   2.653   0.608   6.574
 2580SOL    HW219772   2.566   0.730   6.639
 2581SOL     OW19773   2.169   0.063   6.204
 2581SOL    HW119774   2.158   0.157   6.237
 2581SOL    HW219775   2.164   0.000   6.281
 2582SOL     OW19776   3.484   0.367   5.960
 2582SOL    HW119777   3.486   0.291   6.024
 2582SOL    HW219778   3.436   0.444   6.000
 2583SOL     OW19779   3.402   0.274   5.711
 2583SOL    HW119780   3.341   0.199   5.734
 2583SOL    HW219781   3.424   0.326   5.794
 2584SOL     OW19782   2.930   1.333   6.435
 2584SOL    HW119783   2.937   1.249   6.380
 2584SOL    HW219784   2.992   1.402   6.399
 2585SOL     OW19785   2.181   0.810   6.535
 2585SOL    HW119786   2.274   0.846   6.540
 2585SOL    HW219787   2.175   0.725   6.587
 2586SOL     OW19788   2.201   0.509   6.592
 2586SOL    HW119789   2.149   0.426   6.575
 2586SOL    HW219790   2.278   0.514   6.528
 2587SOL     OW19791   3.022   0.207   7.063
 2587SOL    HW119792   3.022   0.271   7.140
 2587SOL    HW219793   3.050   0.255   6.980
 2588SOL     OW19794   1.870   1.326   5.786
 2588SOL    HW119795   1.777   1.347   5.755
 2588SOL    HW219796   1.880   1.227   5.799
 2589SOL     OW19797   2.366   1.568   6.496
 2589SOL    HW119798   2.432   1.642   6.505
 2589SOL    HW219799   2.410   1.489   6.454
 2590SOL     OW19800   2.864   0.796   6.824
 2590SOL    HW119801   2.905   0.764   6.910
 2590SOL    HW219802   2.768   0.769   6.821
 2591SOL     OW19803   1.902   0.544   6.700
 2591SOL    HW119804   1.987   0.511   6.659
 2591SOL    HW219805   1.915   0.559   6.798
 2592SOL     OW19806   2.677   0.572   5.911
 2592SOL    HW119807   2.684   0.483   5.865
 2592SOL    HW219808   2.583   0.606   5.903
 2593SOL     OW19809   3.519   0.604   6.792
 2593SOL    HW119810   3.481   0.535   6.854
 2593SOL    HW219811   3.601   0.568   6.748
 2594SOL     OW19812   2.533   0.464   6.855
 2594SOL    HW119813   2.499   0.375   6.825
 2594SOL    HW219814   2.559   0.518   6.775
 2595SOL     OW19815   2.792   1.678   7.051
 2595SOL    HW119816   2.768   1.660   6.956
 2595SOL    HW219817   2.822   1.772   7.061
 2596SOL     OW19818   2.335   0.500   5.777
 2596SOL    HW119819   2.396   0.580   5.781
 2596SOL    HW219820   2.240   0.531   5.784
 2597SOL     OW19821   3.164   0.855   5.895
 2597SOL    HW119822   3.078   0.824   5.937
 2597SOL    HW219823   3.160   0.841   5.796
 2598SOL     OW19824   3.621   1.747   6.740
 2598SOL    HW119825   3.682   1.777   6.667
 2598SOL    HW219826   3.583   1.658   6.718
 2599SOL     OW19827   3.114   1.731   6.714
 2599SOL    HW119828   3.198   1.736   6.660
 2599SOL    HW219829   3.091   1.635   6.732
 2600SOL     OW19830   3.588   0.135   6.109
 2600SOL    HW119831   3.661   0.118   6.042
 2600SOL    HW219832   3.557   0.048   6.147
 2601SOL     OW19833   3.250   1.573   6.063
 2601SOL    HW119834   3.317   1.585   5.989
 2601SOL    HW219835   3.210   1.662   6.086
 2602SOL     OW19836   2.534   1.616   5.740
 2602SOL    HW119837   2.543   1.626   5.641
 2602SOL    HW219838   2.494   1.527   5.761
 2603SOL     OW19839   3.512   1.720   6.980
 2603SOL    HW119840   3.565   1.730   6.896
 2603SOL    HW219841   3.485   1.810   7.014
 2604SOL     OW19842   3.703   0.175   6.549
 2604SOL    HW119843   3.742   0.090   6.513
 2604SOL    HW219844   3.605   0.177   6.530
 2605SOL     OW19845   2.125   0.326   6.306
 2605SOL    HW119846   2.046   0.377   6.272
 2605SOL    HW219847   2.116   0.311   6.404
 2606SOL     OW19848   2.778   0.910   5.877
 2606SOL    HW119849   2.841   0.948   5.809
 2606SOL    HW219850   2.818   0.827   5.916
 2607SOL     OW19851   2.901   1.098   6.282
 2607SOL    HW119852   2.831   1.051   6.336
 2607SOL    HW219853   2.960   1.030   6.239
 2608SOL     OW19854   2.876   0.236   6.557
 2608SOL    HW119855   2.868   0.200   6.464
 2608SOL    HW219856   2.874   0.160   6.622
 2609SOL     OW19857   2.452   1.487   6.077
 2609SOL    HW119858   2.494   1.429   6.007
 2609SOL    HW219859   2.408   1.566   6.033
 2610SOL     OW19860   3.571   0.385   6.967
 2610SOL    HW119861   3.644   0.454   6.971
 2610SOL    HW219862   3.599   0.310   6.908
 2611SOL     OW19863   2.117   1.348   5.876
 2611SOL    HW119864   2.021   1.349   5.849
 2611SOL    HW219865   2.129   1.401   5.960
 2612SOL     OW19866   1.937   0.345   5.619
 2612SOL    HW119867   1.845   0.317   5.590
 2612SOL    HW219868   1.968   0.422   5.563
 2613SOL     OW19869   1.934   0.166   5.904
 2613SOL    HW119870   1.917   0.249   5.850
 2613SOL    HW219871   2.024   0.129   5.882
 2614SOL     OW19872   3.045   1.335   5.705
 2614SOL    HW119873   2.946   1.324   5.707
 2614SOL    HW219874   3.079   1.350   5.798
 2615SOL     OW19875   3.355   1.767   6.545
 2615SOL    HW119876   3.388   1.831   6.476
 2615SOL    HW219877   3.421   1.761   6.620
 2616SOL     OW19878   3.312   1.220   7.219
 2616SOL    HW119879   3.303   1.210   7.318
 2616SOL    HW219880   3.408   1.213   7.193
 2617SOL     OW19881   3.536   0.883   6.840
 2617SOL    HW119882   3.509   0.794   6.803
 2617SOL    HW219883   3.537   0.951   6.767
 2618SOL     OW19884   3.087   0.325   6.035
 2618SOL    HW119885   3.152   0.251   6.024
 2618SOL    HW219886   3.107   0.375   6.119
 2619SOL     OW19887   2.456   0.745   6.238
 2619SOL    HW119888   2.506   0.830   6.219
 2619SOL    HW219889   2.368   0.747   6.190
 2620SOL     OW19890   3.592   0.934   7.103
 2620SOL    HW119891   3.630   1.025   7.118
 2620SOL    HW219892   3.584   0.917   7.004
 2621SOL     OW19893   2.523   1.790   6.539
 2621SOL    HW119894   2.477   1.878   6.526
 2621SOL    HW219895   2.622   1.802   6.532
 2622SOL     OW19896   2.721   0.956   6.447
 2622SOL    HW119897   2.775   0.887   6.495
 2622SOL    HW219898   2.689   1.025   6.513
 2623SOL     OW19899   2.945   0.984   5.673
 2623SOL    HW119900   2.922   1.037   5.591
 2623SOL    HW219901   3.026   0.928   5.654
 2624SOL     OW19902   3.723   1.569   6.437
 2624SOL    HW119903   3.652   1.557   6.367
 2624SOL    HW219904   3.724   1.490   6.497
 2625SOL     OW19905   1.941   1.240   6.239
 2625SOL    HW119906   1.940   1.193   6.327
 2625SOL    HW219907   2.023   1.212   6.188
 2626SOL     OW19908   3.686   0.192   6.813
 2626SOL    HW119909   3.682   0.102   6.857
 2626SOL    HW219910   3.689   0.181   6.714
 2627SOL     OW19911   2.290   0.424   6.106
 2627SOL    HW119912   2.320   0.352   6.044
 2627SOL    HW219913   2.251   0.384   6.189
 2628SOL     OW19914   3.567   1.487   6.690
 2628SOL    HW119915   3.474   1.462   6.663
 2628SOL    HW219916   3.593   1.437   6.772
 2629SOL     OW19917   2.674   1.586   6.273
 2629SOL    HW119918   2.706   1.596   6.179
 2629SOL    HW219919   2.595   1.524   6.275
 2630SOL     OW19920   3.286   0.214   6.698
 2630SOL    HW119921   3.338   0.149   6.753
 2630SOL    HW219922   3.237   0.277   6.759
 2631SOL     OW19923   2.632   1.330   5.887
 2631SOL    HW119924   2.586   1.243   5.904
 2631SOL    HW219925   2.723   1.327   5.928
 2632SOL     OW19926   3.214   0.052   5.754
 2632SOL    HW119927   3.249   0.011   5.670
 2632SOL    HW219928   3.124   0.014   5.774
 2633SOL     OW19929   3.162   0.453   6.277
 2633SOL    HW119930   3.103   0.533   6.281
 2633SOL    HW219931   3.177   0.418   6.370
 2634SOL     OW19932   3.455   0.221   6.468
 2634SOL    HW119933   3.371   0.220   6.522
 2634SOL    HW219934   3.457   0.304   6.412
 2635SOL     OW19935   1.901   1.077   5.886
 2635SOL    HW119936   2.000   1.066   5.877
 2635SOL    HW219937   1.861   0.991   5.918
 2636SOL     OW19938   2.737   1.646   5.923
 2636SOL    HW119939   2.660   1.611   5.869
 2636SOL    HW219940   2.705   1.717   5.985
 2637SOL     OW19941   2.092   2.490   0.113
 2637SOL    HW119942   1.999   2.488   0.150
 2637SOL    HW219943   2.093   2.451   0.021
 2638SOL     OW19944   2.087   2.137   0.996
 2638SOL    HW119945   2.122   2.120   1.088
 2638SOL    HW219946   1.999   2.092   0.984
 2639SOL     OW19947   1.881   2.230   0.647
 2639SOL    HW119948   1.799   2.273   0.686
 2639SOL    HW219949   1.853   2.157   0.584
 2640SOL     OW19950   2.997   2.565   0.717
 2640SOL    HW119951   3.054   2.643   0.692
 2640SOL    HW219952   2.937   2.591   0.793
 2641SOL     OW19953   3.617   2.469   0.231
 2641SOL    HW119954   3.605   2.456   0.132
 2641SOL    HW219955   3.587   2.388   0.280
 2642SOL     OW19956   2.630   3.006   1.023
 2642SOL    HW119957   2.552   3.023   1.083
 2642SOL    HW219958   2.664   3.093   0.987
 2643SOL     OW19959   2.547   2.874   0.665
 2643SOL    HW119960   2.616   2.858   0.735
 2643SOL    HW219961   2.474   2.931   0.703
 2644SOL     OW19962   2.197   3.297   1.061
 2644SOL    HW119963   2.119   3.266   1.008
 2644SOL    HW219964   2.255   3.355   1.004
 2645SOL     OW19965   3.322   3.367   1.339
 2645SOL    HW119966   3.346   3.461   1.365
 2645SOL    HW219967   3.306   3.313   1.421
 2646SOL     OW19968   3.465   2.309   0.737
 2646SOL    HW119969   3.391   2.355   0.687
 2646SOL    HW219970   3.516   2.377   0.790
 2647SOL     OW19971   2.093   3.575   0.483
 2647SOL    HW119972   2.127   3.652   0.537
 2647SOL    HW219973   2.137   3.575   0.393
 2648SOL     OW19974   2.092   3.296   0.538
 2648SOL    HW119975   2.066   3.392   0.538
 2648SOL    HW219976   2.021   3.242   0.583
 2649SOL     OW19977   2.102   2.953   0.886
 2649SOL    HW119978   2.116   2.869   0.938
 2649SOL    HW219979   2.047   3.017   0.941
 2650SOL     OW19980   2.468   2.826   0.123
 2650SOL    HW119981   2.475   2.910   0.069
 2650SOL    HW219982   2.514   2.839   0.211
 2651SOL     OW19983   3.456   1.976   1.480
 2651SOL    HW119984   3.438   2.043   1.408
 2651SOL    HW219985   3.453   2.022   1.569
 2652SOL     OW19986   1.984   2.505   0.563
 2652SOL    HW119987   1.939   2.417   0.580
 2652SOL    HW219988   1.983   2.559   0.647
 2653SOL     OW19989   3.704   3.629   0.359
 2653SOL    HW119990   3.758   3.600   0.439
 2653SOL    HW219991   3.734   3.719   0.330
 2654SOL     OW19992   1.889   3.458   0.117
 2654SOL    HW119993   1.870   3.362   0.138
 2654SOL    HW219994   1.856   3.516   0.192
 2655SOL     OW19995   3.551   2.784   0.612
 2655SOL    HW119996   3.646   2.755   0.620
 2655SOL    HW219997   3.543   2.849   0.537
 2656SOL     OW19998   3.503   2.970   0.432
 2656SOL    HW119999   3.589   2.972   0.380
 2656SOL    HW220000   3.517   3.017   0.520
 2657SOL     OW20001   2.475   3.227   0.726
 2657SOL    HW120002   2.426   3.140   0.735
 2657SOL    HW220003   2.452   3.270   0.639
 2658SOL     OW20004   3.155   3.090   1.423
 2658SOL    HW120005   3.192   3.017   1.365
 2658SOL    HW220006   3.207   3.095   1.508
 2659SOL     OW20007   2.671   1.866   0.502
 2659SOL    HW120008   2.711   1.957   0.493
 2659SOL    HW220009   2.571   1.874   0.508
 2660SOL     OW20010   3.387   2.861   0.190
 2660SOL    HW120011   3.324   2.785   0.203
 2660SOL    HW220012   3.435   2.879   0.276
 2661SOL     OW20013   2.179   2.113   1.801
 2661SOL    HW120014   2.250   2.184   1.807
 2661SOL    HW220015   2.091   2.152   1.829
 2662SOL     OW20016   3.529   3.576   0.572
 2662SOL    HW120017   3.488   3.553   0.484
 2662SOL    HW220018   3.511   3.502   0.637
 2663SOL     OW20019   2.460   2.591   0.270
 2663SOL    HW120020   2.484   2.660   0.202
 2663SOL    HW220021   2.382   2.624   0.324
 2664SOL     OW20022   3.143   2.207   0.944
 2664SOL    HW120023   3.057   2.157   0.931
 2664SOL    HW220024   3.205   2.153   1.000
 2665SOL     OW20025   3.438   3.524   0.307
 2665SOL    HW120026   3.527   3.570   0.310
 2665SOL    HW220027   3.417   3.500   0.212
 2666SOL     OW20028   2.669   2.467   1.465
 2666SOL    HW120029   2.622   2.464   1.554
 2666SOL    HW220030   2.618   2.412   1.399
 2667SOL     OW20031   3.256   2.331   1.674
 2667SOL    HW120032   3.236   2.374   1.762
 2667SOL    HW220033   3.334   2.269   1.683
 2668SOL     OW20034   2.853   2.272   1.242
 2668SOL    HW120035   2.776   2.306   1.296
 2668SOL    HW220036   2.819   2.221   1.163
 2669SOL     OW20037   2.903   2.563   0.429
 2669SOL    HW120038   2.929   2.559   0.525
 2669SOL    HW220039   2.818   2.512   0.415
 2670SOL     OW20040   1.938   2.673   0.789
 2670SOL    HW120041   2.037   2.661   0.798
 2670SOL    HW220042   1.914   2.768   0.810
 2671SOL     OW20043   2.727   2.210   0.195
 2671SOL    HW120044   2.786   2.273   0.146
 2671SOL    HW220045   2.746   2.116   0.166
 2672SOL     OW20046   3.581   2.447   1.831
 2672SOL    HW120047   3.555   2.536   1.795
 2672SOL    HW220048   3.579   2.379   1.758
 2673SOL     OW20049   3.224   3.006   0.545
 2673SOL    HW120050   3.307   2.977   0.497
 2673SOL    HW220051   3.175   3.073   0.489
 2674SOL     OW20052   2.412   2.058   0.885
 2674SOL    HW120053   2.407   2.053   0.985
 2674SOL    HW220054   2.414   2.154   0.856
 2675SOL     OW20055   2.870   3.318   0.477
 2675SOL    HW120056   2.824   3.390   0.425
 2675SOL    HW220057   2.866   3.338   0.575
 2676SOL     OW20058   2.213   3.663   0.853
 2676SOL    HW120059   2.263   3.577   0.859
 2676SOL    HW220060   2.278   3.740   0.850
 2677SOL     OW20061   2.183   2.805   0.242
 2677SOL    HW120062   2.265   2.844   0.200
 2677SOL    HW220063   2.156   2.723   0.193
 2678SOL     OW20064   3.320   2.597   0.728
 2678SOL    HW120065   3.315   2.532   0.803
 2678SOL    HW220066   3.400   2.656   0.741
 2679SOL     OW20067   2.323   3.128   1.727
 2679SOL    HW120068   2.273   3.129   1.641
 2679SOL    HW220069   2.260   3.110   1.803
 2680SOL     OW20070   2.973   3.638   0.237
 2680SOL    HW120071   2.913   3.576   0.287
 2680SOL    HW220072   3.004   3.594   0.152
 2681SOL     OW20073   3.494   3.239   0.081
 2681SOL    HW120074   3.462   3.333   0.071
 2681SOL    HW220075   3.418   3.176   0.069
 2682SOL     OW20076   2.326   3.605   0.323
 2682SOL    HW120077   2.359   3.644   0.409
 2682SOL    HW220078   2.402   3.598   0.258
 2683SOL     OW20079   3.262   1.969   0.426
 2683SOL    HW120080   3.238   1.932   0.336
 2683SOL    HW220081   3.361   1.985   0.430
 2684SOL     OW20082   2.111   3.647   1.241
 2684SOL    HW120083   2.168   3.582   1.291
 2684SOL    HW220084   2.095   3.614   1.148
 2685SOL     OW20085   2.802   3.560   0.904
 2685SOL    HW120086   2.882   3.503   0.925
 2685SOL    HW220087   2.753   3.520   0.827
 2686SOL     OW20088   2.244   2.562   0.480
 2686SOL    HW120089   2.289   2.472   0.477
 2686SOL    HW220090   2.150   2.551   0.513
 2687SOL     OW20091   3.409   2.084   1.729
 2687SOL    HW120092   3.404   2.121   1.821
 2687SOL    HW220093   3.337   2.015   1.717
 2688SOL     OW20094   2.643   2.126   1.749
 2688SOL    HW120095   2.710   2.065   1.792
 2688SOL    HW220096   2.570   2.145   1.814
 2689SOL     OW20097   2.750   3.376   1.195
 2689SOL    HW120098   2.727   3.351   1.101
 2689SOL    HW220099   2.811   3.307   1.234
 2690SOL     OW20100   3.213   2.452   1.433
 2690SOL    HW120101   3.241   2.409   1.518
 2690SOL    HW220102   3.238   2.548   1.434
 2691SOL     OW20103   2.665   3.264   0.924
 2691SOL    HW120104   2.755   3.278   0.882
 2691SOL    HW220105   2.594   3.266   0.853
 2692SOL     OW20106   2.784   2.365   0.899
 2692SOL    HW120107   2.759   2.356   0.803
 2692SOL    HW220108   2.832   2.283   0.930
 2693SOL     OW20109   2.401   1.926   0.512
 2693SOL    HW120110   2.320   1.927   0.570
 2693SOL    HW220111   2.404   2.009   0.457
 2694SOL     OW20112   3.296   3.050   0.041
 2694SOL    HW120113   3.328   2.974   0.098
 2694SOL    HW220114   3.204   3.077   0.071
 2695SOL     OW20115   2.159   1.897   0.171
 2695SOL    HW120116   2.208   1.981   0.150
 2695SOL    HW220117   2.221   1.832   0.216
 2696SOL     OW20118   2.797   2.098   0.480
 2696SOL    HW120119   2.749   2.139   0.402
 2696SOL    HW220120   2.896   2.096   0.461
 2697SOL     OW20121   2.938   2.545   1.464
 2697SOL    HW120122   2.858   2.484   1.467
 2697SOL    HW220123   3.019   2.492   1.440
 2698SOL     OW20124   3.089   3.432   0.793
 2698SOL    HW120125   3.110   3.506   0.728
 2698SOL    HW220126   3.157   3.432   0.866
 2699SOL     OW20127   2.321   3.014   0.741
 2699SOL    HW120128   2.250   2.987   0.806
 2699SOL    HW220129   2.295   2.986   0.648
 2700SOL     OW20130   3.133   3.659   0.591
 2700SOL    HW120131   3.177   3.723   0.527
 2700SOL    HW220132   3.083   3.711   0.661
 2701SOL     OW20133   2.894   2.411   0.016
 2701SOL    HW120134   2.853   2.493  -0.023
 2701SOL    HW220135   2.958   2.437   0.089
 2702SOL     OW20136   1.940   2.418   1.386
 2702SOL    HW120137   2.032   2.417   1.345
 2702SOL    HW220138   1.934   2.492   1.453
 2703SOL     OW20139   2.423   2.084   1.147
 2703SOL    HW120140   2.461   2.000   1.184
 2703SOL    HW220141   2.335   2.103   1.191
 2704SOL     OW20142   2.728   2.316   0.642
 2704SOL    HW120143   2.696   2.388   0.580
 2704SOL    HW220144   2.752   2.235   0.589
 2705SOL     OW20145   2.879   1.901   0.753
 2705SOL    HW120146   2.807   1.906   0.684
 2705SOL    HW220147   2.855   1.832   0.822
 2706SOL     OW20148   3.291   3.035   0.867
 2706SOL    HW120149   3.236   2.951   0.860
 2706SOL    HW220150   3.317   3.064   0.775
 2707SOL     OW20151   3.328   2.452   0.992
 2707SOL    HW120152   3.298   2.357   0.999
 2707SOL    HW220153   3.401   2.468   1.058
 2708SOL     OW20154   3.719   2.695   0.377
 2708SOL    HW120155   3.761   2.631   0.441
 2708SOL    HW220156   3.681   2.644   0.299
 2709SOL     OW20157   2.350   3.247   0.174
 2709SOL    HW120158   2.263   3.232   0.221
 2709SOL    HW220159   2.333   3.273   0.079
 2710SOL     OW20160   3.252   2.437   0.078
 2710SOL    HW120161   3.198   2.416   0.159
 2710SOL    HW220162   3.343   2.396   0.087
 2711SOL     OW20163   2.389   2.118   0.328
 2711SOL    HW120164   2.416   2.059   0.253
 2711SOL    HW220165   2.389   2.213   0.297
 2712SOL     OW20166   3.616   3.085   1.588
 2712SOL    HW120167   3.707   3.046   1.575
 2712SOL    HW220168   3.624   3.181   1.612
 2713SOL     OW20169   2.926   3.209   1.340
 2713SOL    HW120170   2.846   3.186   1.395
 2713SOL    HW220171   3.009   3.183   1.389
 2714SOL     OW20172   3.454   3.491   1.625
 2714SOL    HW120173   3.481   3.525   1.535
 2714SOL    HW220174   3.533   3.453   1.671
 2715SOL     OW20175   2.973   3.057   1.100
 2715SOL    HW120176   2.933   3.101   1.181
 2715SOL    HW220177   2.932   3.094   1.017
 2716SOL     OW20178   2.567   2.912   0.368
 2716SOL    HW120179   2.553   2.919   0.467
 2716SOL    HW220180   2.651   2.861   0.350
 2717SOL     OW20181   2.272   2.675   1.251
 2717SOL    HW120182   2.358   2.687   1.301
 2717SOL    HW220183   2.230   2.588   1.278
 2718SOL     OW20184   3.136   2.248   1.262
 2718SOL    HW120185   3.157   2.322   1.326
 2718SOL    HW220186   3.047   2.265   1.219
 2719SOL     OW20187   2.229   2.962   0.501
 2719SOL    HW120188   2.222   3.045   0.445
 2719SOL    HW220189   2.233   2.882   0.441
 2720SOL     OW20190   2.428   2.399   0.865
 2720SOL    HW120191   2.440   2.465   0.791
 2720SOL    HW220192   2.474   2.433   0.948
 2721SOL     OW20193   3.114   3.210   0.388
 2721SOL    HW120194   3.164   3.287   0.428
 2721SOL    HW220195   3.019   3.212   0.420
 2722SOL     OW20196   3.134   3.307   1.142
 2722SOL    HW120197   3.181   3.320   1.229
 2722SOL    HW220198   3.068   3.233   1.151
 2723SOL     OW20199   3.444   2.501   0.472
 2723SOL    HW120200   3.413   2.562   0.545
 2723SOL    HW220201   3.494   2.553   0.403
 2724SOL     OW20202   2.264   2.613   1.598
 2724SOL    HW120203   2.332   2.668   1.551
 2724SOL    HW220204   2.304   2.525   1.625
 2725SOL     OW20205   2.875   1.967   1.770
 2725SOL    HW120206   2.881   2.052   1.718
 2725SOL    HW220207   2.907   1.891   1.713
 2726SOL     OW20208   2.366   1.912   1.740
 2726SOL    HW120209   2.324   1.855   1.670
 2726SOL    HW220210   2.300   1.981   1.772
 2727SOL     OW20211   2.435   2.732   1.029
 2727SOL    HW120212   2.479   2.821   1.020
 2727SOL    HW220213   2.372   2.732   1.106
 2728SOL     OW20214   3.222   2.724   1.045
 2728SOL    HW120215   3.147   2.724   0.979
 2728SOL    HW220216   3.259   2.632   1.054
 2729SOL     OW20217   3.071   2.387   0.275
 2729SOL    HW120218   3.084   2.303   0.329
 2729SOL    HW220219   3.042   2.461   0.335
 2730SOL     OW20220   2.169   2.075   1.231
 2730SOL    HW120221   2.146   2.112   1.321
 2730SOL    HW220222   2.139   1.980   1.225
 2731SOL     OW20223   2.594   2.496   1.064
 2731SOL    HW120224   2.653   2.470   0.988
 2731SOL    HW220225   2.566   2.592   1.053
 2732SOL     OW20226   2.169   1.925   0.618
 2732SOL    HW120227   2.158   2.019   0.651
 2732SOL    HW220228   2.164   1.862   0.695
 2733SOL     OW20229   3.484   2.229   0.374
 2733SOL    HW120230   3.486   2.153   0.438
 2733SOL    HW220231   3.436   2.306   0.414
 2734SOL     OW20232   2.885   2.628   0.966
 2734SOL    HW120233   2.900   2.649   1.062
 2734SOL    HW220234   2.855   2.533   0.957
 2735SOL     OW20235   3.721   3.380   1.605
 2735SOL    HW120236   3.735   3.407   1.510
 2735SOL    HW220237   3.804   3.402   1.658
 2736SOL     OW20238   3.402   2.136   0.125
 2736SOL    HW120239   3.341   2.061   0.148
 2736SOL    HW220240   3.424   2.188   0.208
 2737SOL     OW20241   3.165   2.700   0.042
 2737SOL    HW120242   3.199   2.607   0.057
 2737SOL    HW220243   3.183   2.727  -0.053
 2738SOL     OW20244   2.930   3.195   0.849
 2738SOL    HW120245   2.937   3.111   0.794
 2738SOL    HW220246   2.992   3.264   0.813
 2739SOL     OW20247   2.181   2.672   0.949
 2739SOL    HW120248   2.274   2.708   0.954
 2739SOL    HW220249   2.175   2.587   1.001
 2740SOL     OW20250   2.201   2.371   1.006
 2740SOL    HW120251   2.149   2.288   0.989
 2740SOL    HW220252   2.278   2.376   0.942
 2741SOL     OW20253   3.000   2.242   1.678
 2741SOL    HW120254   2.955   2.305   1.742
 2741SOL    HW220255   3.093   2.273   1.661
 2742SOL     OW20256   3.022   2.069   1.477
 2742SOL    HW120257   3.022   2.133   1.554
 2742SOL    HW220258   3.050   2.117   1.394
 2743SOL     OW20259   1.950   3.663   0.927
 2743SOL    HW120260   1.908   3.577   0.900
 2743SOL    HW220261   2.044   3.666   0.893
 2744SOL     OW20262   2.366   3.430   0.910
 2744SOL    HW120263   2.432   3.504   0.919
 2744SOL    HW220264   2.410   3.351   0.868
 2745SOL     OW20265   2.864   2.658   1.238
 2745SOL    HW120266   2.905   2.626   1.324
 2745SOL    HW220267   2.768   2.631   1.235
 2746SOL     OW20268   1.902   2.406   1.114
 2746SOL    HW120269   1.987   2.373   1.073
 2746SOL    HW220270   1.915   2.421   1.212
 2747SOL     OW20271   3.231   2.812   1.660
 2747SOL    HW120272   3.270   2.901   1.680
 2747SOL    HW220273   3.241   2.792   1.563
 2748SOL     OW20274   2.677   2.434   0.325
 2748SOL    HW120275   2.684   2.345   0.279
 2748SOL    HW220276   2.583   2.468   0.317
 2749SOL     OW20277   3.519   2.466   1.206
 2749SOL    HW120278   3.481   2.397   1.268
 2749SOL    HW220279   3.601   2.430   1.162
 2750SOL     OW20280   2.533   2.326   1.269
 2750SOL    HW120281   2.499   2.237   1.239
 2750SOL    HW220282   2.559   2.380   1.189
 2751SOL     OW20283   2.792   3.540   1.465
 2751SOL    HW120284   2.768   3.522   1.370
 2751SOL    HW220285   2.822   3.634   1.475
 2752SOL     OW20286   2.335   2.362   0.191
 2752SOL    HW120287   2.396   2.442   0.195
 2752SOL    HW220288   2.240   2.393   0.198
 2753SOL     OW20289   3.209   2.921   1.234
 2753SOL    HW120290   3.233   2.858   1.160
 2753SOL    HW220291   3.119   2.961   1.216
 2754SOL     OW20292   3.164   2.717   0.309
 2754SOL    HW120293   3.078   2.686   0.351
 2754SOL    HW220294   3.160   2.703   0.210
 2755SOL     OW20295   3.621   3.609   1.154
 2755SOL    HW120296   3.682   3.639   1.081
 2755SOL    HW220297   3.583   3.520   1.132
 2756SOL     OW20298   3.114   3.593   1.128
 2756SOL    HW120299   3.198   3.598   1.074
 2756SOL    HW220300   3.091   3.497   1.146
 2757SOL     OW20301   1.945   3.120   1.022
 2757SOL    HW120302   1.940   3.119   1.122
 2757SOL    HW220303   1.862   3.079   0.984
 2758SOL     OW20304   2.765   1.948   0.133
 2758SOL    HW120305   2.816   1.949   0.047
 2758SOL    HW220306   2.821   1.906   0.204
 2759SOL     OW20307   3.588   1.997   0.523
 2759SOL    HW120308   3.661   1.980   0.456
 2759SOL    HW220309   3.557   1.910   0.561
 2760SOL     OW20310   3.250   3.435   0.477
 2760SOL    HW120311   3.317   3.447   0.403
 2760SOL    HW220312   3.210   3.524   0.500
 2761SOL     OW20313   3.142   2.789   0.672
 2761SOL    HW120314   3.202   2.708   0.674
 2761SOL    HW220315   3.182   2.858   0.612
 2762SOL     OW20316   2.692   3.135   1.422
 2762SOL    HW120317   2.687   3.168   1.517
 2762SOL    HW220318   2.606   3.154   1.376
 2763SOL     OW20319   2.534   3.478   0.154
 2763SOL    HW120320   2.543   3.488   0.055
 2763SOL    HW220321   2.494   3.389   0.175
 2764SOL     OW20322   3.512   3.582   1.394
 2764SOL    HW120323   3.565   3.592   1.310
 2764SOL    HW220324   3.485   3.672   1.428
 2765SOL     OW20325   3.703   2.037   0.963
 2765SOL    HW120326   3.742   1.952   0.927
 2765SOL    HW220327   3.605   2.039   0.944
 2766SOL     OW20328   2.125   2.188   0.720
 2766SOL    HW120329   2.046   2.239   0.686
 2766SOL    HW220330   2.116   2.173   0.818
 2767SOL     OW20331   3.056   3.474   0.031
 2767SOL    HW120332   3.062   3.381   0.068
 2767SOL    HW220333   2.997   3.474  -0.049
 2768SOL     OW20334   2.684   2.864   1.372
 2768SOL    HW120335   2.724   2.863   1.280
 2768SOL    HW220336   2.694   2.956   1.412
 2769SOL     OW20337   2.778   2.772   0.291
 2769SOL    HW120338   2.841   2.810   0.223
 2769SOL    HW220339   2.818   2.689   0.330
 2770SOL     OW20340   3.366   3.469   0.044
 2770SOL    HW120341   3.274   3.506   0.051
 2770SOL    HW220342   3.404   3.489  -0.046
 2771SOL     OW20343   2.901   2.960   0.696
 2771SOL    HW120344   2.831   2.913   0.750
 2771SOL    HW220345   2.960   2.892   0.653
 2772SOL     OW20346   2.876   2.098   0.971
 2772SOL    HW120347   2.868   2.062   0.878
 2772SOL    HW220348   2.874   2.022   1.036
 2773SOL     OW20349   2.452   3.349   0.491
 2773SOL    HW120350   2.494   3.291   0.421
 2773SOL    HW220351   2.408   3.428   0.447
 2774SOL     OW20352   3.571   2.247   1.381
 2774SOL    HW120353   3.644   2.316   1.385
 2774SOL    HW220354   3.599   2.172   1.322
 2775SOL     OW20355   2.117   3.210   0.290
 2775SOL    HW120356   2.021   3.211   0.263
 2775SOL    HW220357   2.129   3.263   0.374
 2776SOL     OW20358   3.302   2.718   1.398
 2776SOL    HW120359   3.245   2.770   1.335
 2776SOL    HW220360   3.398   2.730   1.374
 2777SOL     OW20361   1.934   2.028   0.318
 2777SOL    HW120362   1.917   2.111   0.264
 2777SOL    HW220363   2.024   1.991   0.296
 2778SOL     OW20364   3.045   3.197   0.119
 2778SOL    HW120365   2.946   3.186   0.121
 2778SOL    HW220366   3.079   3.212   0.212
 2779SOL     OW20367   2.475   2.704   1.431
 2779SOL    HW120368   2.531   2.785   1.414
 2779SOL    HW220369   2.534   2.624   1.434
 2780SOL     OW20370   3.355   3.629   0.959
 2780SOL    HW120371   3.388   3.693   0.890
 2780SOL    HW220372   3.421   3.623   1.034
 2781SOL     OW20373   2.578   2.427   1.708
 2781SOL    HW120374   2.597   2.492   1.782
 2781SOL    HW220375   2.638   2.347   1.717
 2782SOL     OW20376   3.312   3.082   1.633
 2782SOL    HW120377   3.303   3.072   1.732
 2782SOL    HW220378   3.408   3.075   1.607
 2783SOL     OW20379   2.252   3.603   1.560
 2783SOL    HW120380   2.161   3.644   1.558
 2783SOL    HW220381   2.245   3.509   1.592
 2784SOL     OW20382   3.536   2.745   1.254
 2784SOL    HW120383   3.509   2.656   1.217
 2784SOL    HW220384   3.537   2.813   1.181
 2785SOL     OW20385   3.087   2.187   0.449
 2785SOL    HW120386   3.152   2.113   0.438
 2785SOL    HW220387   3.107   2.237   0.533
 2786SOL     OW20388   2.456   2.607   0.652
 2786SOL    HW120389   2.506   2.692   0.633
 2786SOL    HW220390   2.368   2.609   0.604
 2787SOL     OW20391   3.639   2.204   1.642
 2787SOL    HW120392   3.622   2.235   1.548
 2787SOL    HW220393   3.555   2.167   1.680
 2788SOL     OW20394   3.592   2.796   1.517
 2788SOL    HW120395   3.630   2.887   1.532
 2788SOL    HW220396   3.584   2.779   1.418
 2789SOL     OW20397   2.721   3.236   0.016
 2789SOL    HW120398   2.675   3.251   0.104
 2789SOL    HW220399   2.765   3.321  -0.014
 2790SOL     OW20400   2.523   3.652   0.953
 2790SOL    HW120401   2.477   3.740   0.940
 2790SOL    HW220402   2.622   3.664   0.946
 2791SOL     OW20403   2.721   2.818   0.861
 2791SOL    HW120404   2.775   2.749   0.909
 2791SOL    HW220405   2.689   2.887   0.927
 2792SOL     OW20406   2.945   2.846   0.087
 2792SOL    HW120407   2.922   2.899   0.005
 2792SOL    HW220408   3.026   2.790   0.068
 2793SOL     OW20409   3.723   3.431   0.851
 2793SOL    HW120410   3.652   3.419   0.781
 2793SOL    HW220411   3.724   3.352   0.911
 2794SOL     OW20412   1.941   3.102   0.653
 2794SOL    HW120413   1.940   3.055   0.741
 2794SOL    HW220414   2.023   3.074   0.602
 2795SOL     OW20415   2.534   3.253   1.624
 2795SOL    HW120416   2.456   3.203   1.662
 2795SOL    HW220417   2.531   3.348   1.655
 2796SOL     OW20418   3.686   2.054   1.227
 2796SOL    HW120419   3.682   1.964   1.271
 2796SOL    HW220420   3.689   2.043   1.128
 2797SOL     OW20421   2.290   2.286   0.520
 2797SOL    HW120422   2.320   2.214   0.458
 2797SOL    HW220423   2.251   2.246   0.603
 2798SOL     OW20424   2.674   3.448   0.687
 2798SOL    HW120425   2.706   3.458   0.593
 2798SOL    HW220426   2.595   3.386   0.689
 2799SOL     OW20427   3.286   2.076   1.112
 2799SOL    HW120428   3.338   2.011   1.167
 2799SOL    HW220429   3.237   2.139   1.173
 2800SOL     OW20430   2.632   3.192   0.301
 2800SOL    HW120431   2.586   3.105   0.318
 2800SOL    HW220432   2.723   3.189   0.342
 2801SOL     OW20433   3.214   1.914   0.168
 2801SOL    HW120434   3.249   1.873   0.084
 2801SOL    HW220435   3.124   1.876   0.188
 2802SOL     OW20436   3.162   2.315   0.691
 2802SOL    HW120437   3.103   2.395   0.695
 2802SOL    HW220438   3.177   2.280   0.784
 2803SOL     OW20439   3.455   2.083   0.882
 2803SOL    HW120440   3.371   2.082   0.936
 2803SOL    HW220441   3.457   2.166   0.826
 2804SOL     OW20442   1.901   2.939   0.300
 2804SOL    HW120443   2.000   2.928   0.291
 2804SOL    HW220444   1.861   2.853   0.332
 2805SOL     OW20445   2.737   3.508   0.337
 2805SOL    HW120446   2.660   3.473   0.283
 2805SOL    HW220447   2.705   3.579   0.399
 2806SOL     OW20448   2.092   2.490   1.975
 2806SOL    HW120449   1.999   2.488   2.012
 2806SOL    HW220450   2.093   2.451   1.883
 2807SOL     OW20451   2.087   2.137   2.858
 2807SOL    HW120452   2.122   2.120   2.950
 2807SOL    HW220453   1.999   2.092   2.846
 2808SOL     OW20454   3.617   2.469   2.093
 2808SOL    HW120455   3.605   2.456   1.994
 2808SOL    HW220456   3.587   2.388   2.142
 2809SOL     OW20457   2.548   3.023   3.665
 2809SOL    HW120458   2.608   3.102   3.679
 2809SOL    HW220459   2.462   3.054   3.624
 2810SOL     OW20460   2.092   3.296   2.400
 2810SOL    HW120461   2.066   3.392   2.400
 2810SOL    HW220462   2.021   3.242   2.445
 2811SOL     OW20463   2.102   2.953   2.748
 2811SOL    HW120464   2.116   2.869   2.800
 2811SOL    HW220465   2.047   3.017   2.803
 2812SOL     OW20466   3.456   1.976   3.342
 2812SOL    HW120467   3.438   2.043   3.270
 2812SOL    HW220468   3.453   2.022   3.431
 2813SOL     OW20469   2.460   2.591   2.132
 2813SOL    HW120470   2.484   2.660   2.064
 2813SOL    HW220471   2.382   2.624   2.186
 2814SOL     OW20472   3.143   2.207   2.806
 2814SOL    HW120473   3.057   2.157   2.793
 2814SOL    HW220474   3.205   2.153   2.862
 2815SOL     OW20475   2.669   2.467   3.327
 2815SOL    HW120476   2.622   2.464   3.416
 2815SOL    HW220477   2.618   2.412   3.261
 2816SOL     OW20478   3.256   2.331   3.536
 2816SOL    HW120479   3.236   2.374   3.624
 2816SOL    HW220480   3.334   2.269   3.545
 2817SOL     OW20481   2.853   2.272   3.104
 2817SOL    HW120482   2.776   2.306   3.158
 2817SOL    HW220483   2.819   2.221   3.025
 2818SOL     OW20484   1.992   3.683   3.433
 2818SOL    HW120485   1.982   3.668   3.532
 2818SOL    HW220486   1.906   3.719   3.397
 2819SOL     OW20487   2.323   3.128   3.589
 2819SOL    HW120488   2.273   3.129   3.503
 2819SOL    HW220489   2.260   3.110   3.665
 2820SOL     OW20490   2.111   3.647   3.103
 2820SOL    HW120491   2.168   3.582   3.153
 2820SOL    HW220492   2.095   3.614   3.010
 2821SOL     OW20493   2.802   3.560   2.766
 2821SOL    HW120494   2.882   3.503   2.787
 2821SOL    HW220495   2.753   3.520   2.689
 2822SOL     OW20496   3.409   2.084   3.591
 2822SOL    HW120497   3.404   2.121   3.683
 2822SOL    HW220498   3.337   2.015   3.579
 2823SOL     OW20499   2.476   1.984   1.979
 2823SOL    HW120500   2.574   1.962   1.986
 2823SOL    HW220501   2.445   1.967   1.886
 2824SOL     OW20502   3.296   3.050   1.903
 2824SOL    HW120503   3.328   2.974   1.960
 2824SOL    HW220504   3.204   3.077   1.933
 2825SOL     OW20505   2.879   1.901   2.615
 2825SOL    HW120506   2.807   1.906   2.546
 2825SOL    HW220507   2.855   1.832   2.684
 2826SOL     OW20508   3.328   2.452   2.854
 2826SOL    HW120509   3.298   2.357   2.861
 2826SOL    HW220510   3.401   2.468   2.920
 2827SOL     OW20511   3.526   3.142   2.519
 2827SOL    HW120512   3.625   3.150   2.533
 2827SOL    HW220513   3.481   3.226   2.550
 2828SOL     OW20514   3.252   2.437   1.940
 2828SOL    HW120515   3.198   2.416   2.021
 2828SOL    HW220516   3.343   2.396   1.949
 2829SOL     OW20517   3.616   3.085   3.450
 2829SOL    HW120518   3.707   3.046   3.437
 2829SOL    HW220519   3.624   3.181   3.474
 2830SOL     OW20520   3.454   3.491   3.487
 2830SOL    HW120521   3.481   3.525   3.397
 2830SOL    HW220522   3.533   3.453   3.533
 2831SOL     OW20523   2.973   3.057   2.962
 2831SOL    HW120524   2.933   3.101   3.043
 2831SOL    HW220525   2.932   3.094   2.879
 2832SOL     OW20526   3.500   2.961   2.941
 2832SOL    HW120527   3.505   3.042   3.000
 2832SOL    HW220528   3.414   2.963   2.890
 2833SOL     OW20529   2.777   1.951   3.264
 2833SOL    HW120530   2.802   1.931   3.169
 2833SOL    HW220531   2.849   2.007   3.306
 2834SOL     OW20532   3.136   2.248   3.124
 2834SOL    HW120533   3.157   2.322   3.188
 2834SOL    HW220534   3.047   2.265   3.081
 2835SOL     OW20535   2.428   2.399   2.727
 2835SOL    HW120536   2.440   2.465   2.653
 2835SOL    HW220537   2.474   2.433   2.810
 2836SOL     OW20538   2.216   3.372   3.191
 2836SOL    HW120539   2.195   3.328   3.104
 2836SOL    HW220540   2.313   3.398   3.194
 2837SOL     OW20541   2.875   1.967   3.632
 2837SOL    HW120542   2.881   2.052   3.580
 2837SOL    HW220543   2.907   1.891   3.575
 2838SOL     OW20544   2.435   2.732   2.891
 2838SOL    HW120545   2.479   2.821   2.882
 2838SOL    HW220546   2.372   2.732   2.968
 2839SOL     OW20547   3.484   2.229   2.236
 2839SOL    HW120548   3.486   2.153   2.300
 2839SOL    HW220549   3.436   2.306   2.276
 2840SOL     OW20550   2.930   3.195   2.711
 2840SOL    HW120551   2.937   3.111   2.656
 2840SOL    HW220552   2.992   3.264   2.675
 2841SOL     OW20553   1.902   2.406   2.976
 2841SOL    HW120554   1.987   2.373   2.935
 2841SOL    HW220555   1.915   2.421   3.074
 2842SOL     OW20556   2.051   2.382   3.584
 2842SOL    HW120557   2.110   2.342   3.514
 2842SOL    HW220558   1.993   2.453   3.543
 2843SOL     OW20559   2.792   3.540   3.327
 2843SOL    HW120560   2.768   3.522   3.232
 2843SOL    HW220561   2.822   3.634   3.337
 2844SOL     OW20562   2.335   2.362   2.053
 2844SOL    HW120563   2.396   2.442   2.057
 2844SOL    HW220564   2.240   2.393   2.060
 2845SOL     OW20565   2.550   3.524   3.578
 2845SOL    HW120566   2.494   3.605   3.587
 2845SOL    HW220567   2.602   3.528   3.492
 2846SOL     OW20568   3.588   1.997   2.385
 2846SOL    HW120569   3.661   1.980   2.318
 2846SOL    HW220570   3.557   1.910   2.423
 2847SOL     OW20571   1.992   3.656   3.713
 2847SOL    HW120572   1.951   3.582   3.766
 2847SOL    HW220573   2.056   3.707   3.771
 2848SOL     OW20574   3.142   2.789   2.534
 2848SOL    HW120575   3.202   2.708   2.536
 2848SOL    HW220576   3.182   2.858   2.474
 2849SOL     OW20577   2.684   2.864   3.234
 2849SOL    HW120578   2.724   2.863   3.142
 2849SOL    HW220579   2.694   2.956   3.274
 2850SOL     OW20580   3.476   3.154   3.151
 2850SOL    HW120581   3.536   3.157   3.231
 2850SOL    HW220582   3.401   3.218   3.164
 2851SOL     OW20583   2.901   2.960   2.558
 2851SOL    HW120584   2.831   2.913   2.612
 2851SOL    HW220585   2.960   2.892   2.515
 2852SOL     OW20586   2.117   3.210   2.152
 2852SOL    HW120587   2.021   3.211   2.125
 2852SOL    HW220588   2.129   3.263   2.236
 2853SOL     OW20589   3.045   3.197   1.981
 2853SOL    HW120590   2.946   3.186   1.983
 2853SOL    HW220591   3.079   3.212   2.074
 2854SOL     OW20592   2.578   2.427   3.570
 2854SOL    HW120593   2.597   2.492   3.644
 2854SOL    HW220594   2.638   2.347   3.579
 2855SOL     OW20595   3.312   3.082   3.495
 2855SOL    HW120596   3.303   3.072   3.594
 2855SOL    HW220597   3.408   3.075   3.469
 2856SOL     OW20598   2.252   3.603   3.422
 2856SOL    HW120599   2.161   3.644   3.420
 2856SOL    HW220600   2.245   3.509   3.454
 2857SOL     OW20601   3.536   2.745   3.116
 2857SOL    HW120602   3.509   2.656   3.079
 2857SOL    HW220603   3.537   2.813   3.043
 2858SOL     OW20604   2.456   2.607   2.514
 2858SOL    HW120605   2.506   2.692   2.495
 2858SOL    HW220606   2.368   2.609   2.466
 2859SOL     OW20607   2.721   3.236   1.878
 2859SOL    HW120608   2.675   3.251   1.966
 2859SOL    HW220609   2.765   3.321   1.848
 2860SOL     OW20610   2.721   2.818   2.723
 2860SOL    HW120611   2.775   2.749   2.771
 2860SOL    HW220612   2.689   2.887   2.789
 2861SOL     OW20613   2.534   3.253   3.486
 2861SOL    HW120614   2.456   3.203   3.524
 2861SOL    HW220615   2.531   3.348   3.517
 2862SOL     OW20616   2.290   2.286   2.382
 2862SOL    HW120617   2.320   2.214   2.320
 2862SOL    HW220618   2.251   2.246   2.465
 2863SOL     OW20619   3.286   2.076   2.974
 2863SOL    HW120620   3.338   2.011   3.029
 2863SOL    HW220621   3.237   2.139   3.035
 2864SOL     OW20622   2.480   3.429   3.146
 2864SOL    HW120623   2.475   3.511   3.203
 2864SOL    HW220624   2.569   3.426   3.101
 2865SOL     OW20625   3.214   1.914   2.030
 2865SOL    HW120626   3.249   1.873   1.946
 2865SOL    HW220627   3.124   1.876   2.050
 2866SOL     OW20628   3.162   2.315   2.553
 2866SOL    HW120629   3.103   2.395   2.557
 2866SOL    HW220630   3.177   2.280   2.646
 2867SOL     OW20631   2.737   3.508   2.199
 2867SOL    HW120632   2.660   3.473   2.145
 2867SOL    HW220633   2.705   3.579   2.261
 2868SOL     OW20634   2.092   2.490   3.837
 2868SOL    HW120635   1.999   2.488   3.874
 2868SOL    HW220636   2.093   2.451   3.745
 2869SOL     OW20637   1.881   2.230   4.371
 2869SOL    HW120638   1.799   2.273   4.410
 2869SOL    HW220639   1.853   2.157   4.308
 2870SOL     OW20640   2.712   2.660   5.547
 2870SOL    HW120641   2.708   2.736   5.612
 2870SOL    HW220642   2.734   2.696   5.456
 2871SOL     OW20643   2.547   2.874   4.389
 2871SOL    HW120644   2.616   2.858   4.459
 2871SOL    HW220645   2.474   2.931   4.427
 2872SOL     OW20646   3.465   2.309   4.461
 2872SOL    HW120647   3.391   2.355   4.411
 2872SOL    HW220648   3.516   2.377   4.514
 2873SOL     OW20649   2.093   3.575   4.207
 2873SOL    HW120650   2.127   3.652   4.261
 2873SOL    HW220651   2.137   3.575   4.117
 2874SOL     OW20652   1.889   3.458   3.841
 2874SOL    HW120653   1.870   3.362   3.862
 2874SOL    HW220654   1.856   3.516   3.916
 2875SOL     OW20655   1.975   2.599   5.321
 2875SOL    HW120656   2.063   2.586   5.366
 2875SOL    HW220657   1.962   2.696   5.299
 2876SOL     OW20658   3.049   3.654   5.340
 2876SOL    HW120659   3.073   3.714   5.264
 2876SOL    HW220660   3.056   3.559   5.310
 2877SOL     OW20661   2.460   2.591   3.994
 2877SOL    HW120662   2.484   2.660   3.926
 2877SOL    HW220663   2.382   2.624   4.048
 2878SOL     OW20664   3.438   3.524   4.031
 2878SOL    HW120665   3.527   3.570   4.034
 2878SOL    HW220666   3.417   3.500   3.936
 2879SOL     OW20667   1.992   3.683   5.295
 2879SOL    HW120668   1.982   3.668   5.394
 2879SOL    HW220669   1.906   3.719   5.259
 2880SOL     OW20670   2.727   2.210   3.919
 2880SOL    HW120671   2.786   2.273   3.870
 2880SOL    HW220672   2.746   2.116   3.890
 2881SOL     OW20673   2.183   2.805   3.966
 2881SOL    HW120674   2.265   2.844   3.924
 2881SOL    HW220675   2.156   2.723   3.917
 2882SOL     OW20676   2.323   3.128   5.451
 2882SOL    HW120677   2.273   3.129   5.365
 2882SOL    HW220678   2.260   3.110   5.527
 2883SOL     OW20679   2.973   3.638   3.961
 2883SOL    HW120680   2.913   3.576   4.011
 2883SOL    HW220681   3.004   3.594   3.876
 2884SOL     OW20682   3.262   1.969   4.150
 2884SOL    HW120683   3.238   1.932   4.060
 2884SOL    HW220684   3.361   1.985   4.154
 2885SOL     OW20685   2.750   3.376   4.919
 2885SOL    HW120686   2.727   3.351   4.825
 2885SOL    HW220687   2.811   3.307   4.958
 2886SOL     OW20688   2.401   1.926   4.236
 2886SOL    HW120689   2.320   1.927   4.294
 2886SOL    HW220690   2.404   2.009   4.181
 2887SOL     OW20691   2.321   3.014   4.465
 2887SOL    HW120692   2.250   2.987   4.530
 2887SOL    HW220693   2.295   2.986   4.372
 2888SOL     OW20694   2.728   2.316   4.366
 2888SOL    HW120695   2.696   2.388   4.304
 2888SOL    HW220696   2.752   2.235   4.313
 2889SOL     OW20697   2.879   1.901   4.477
 2889SOL    HW120698   2.807   1.906   4.408
 2889SOL    HW220699   2.855   1.832   4.546
 2890SOL     OW20700   3.328   2.452   4.716
 2890SOL    HW120701   3.298   2.357   4.723
 2890SOL    HW220702   3.401   2.468   4.782
 2891SOL     OW20703   3.252   2.437   3.802
 2891SOL    HW120704   3.198   2.416   3.883
 2891SOL    HW220705   3.343   2.396   3.811
 2892SOL     OW20706   3.454   3.491   5.349
 2892SOL    HW120707   3.481   3.525   5.259
 2892SOL    HW220708   3.533   3.453   5.395
 2893SOL     OW20709   2.973   3.057   4.824
 2893SOL    HW120710   2.933   3.101   4.905
 2893SOL    HW220711   2.932   3.094   4.741
 2894SOL     OW20712   3.500   2.961   4.803
 2894SOL    HW120713   3.505   3.042   4.862
 2894SOL    HW220714   3.414   2.963   4.752
 2895SOL     OW20715   1.926   3.426   5.055
 2895SOL    HW120716   1.880   3.508   5.021
 2895SOL    HW220717   2.024   3.445   5.064
 2896SOL     OW20718   2.428   2.399   4.589
 2896SOL    HW120719   2.440   2.465   4.515
 2896SOL    HW220720   2.474   2.433   4.672
 2897SOL     OW20721   3.114   3.210   4.112
 2897SOL    HW120722   3.164   3.287   4.152
 2897SOL    HW220723   3.019   3.212   4.144
 2898SOL     OW20724   3.134   3.307   4.866
 2898SOL    HW120725   3.181   3.320   4.953
 2898SOL    HW220726   3.068   3.233   4.875
 2899SOL     OW20727   3.444   2.501   4.196
 2899SOL    HW120728   3.413   2.562   4.269
 2899SOL    HW220729   3.494   2.553   4.127
 2900SOL     OW20730   3.222   2.724   4.769
 2900SOL    HW120731   3.147   2.724   4.703
 2900SOL    HW220732   3.259   2.632   4.778
 2901SOL     OW20733   2.885   2.628   4.690
 2901SOL    HW120734   2.900   2.649   4.786
 2901SOL    HW220735   2.855   2.533   4.681
 2902SOL     OW20736   2.930   3.195   4.573
 2902SOL    HW120737   2.937   3.111   4.518
 2902SOL    HW220738   2.992   3.264   4.537
 2903SOL     OW20739   1.870   3.188   3.924
 2903SOL    HW120740   1.777   3.209   3.893
 2903SOL    HW220741   1.880   3.089   3.937
 2904SOL     OW20742   2.051   2.382   5.446
 2904SOL    HW120743   2.110   2.342   5.376
 2904SOL    HW220744   1.993   2.453   5.405
 2905SOL     OW20745   2.114   3.426   5.468
 2905SOL    HW120746   2.084   3.483   5.544
 2905SOL    HW220747   2.107   3.329   5.494
 2906SOL     OW20748   2.335   2.362   3.915
 2906SOL    HW120749   2.396   2.442   3.919
 2906SOL    HW220750   2.240   2.393   3.922
 2907SOL     OW20751   3.209   2.921   4.958
 2907SOL    HW120752   3.233   2.858   4.884
 2907SOL    HW220753   3.119   2.961   4.940
 2908SOL     OW20754   3.114   3.593   4.852
 2908SOL    HW120755   3.198   3.598   4.798
 2908SOL    HW220756   3.091   3.497   4.870
 2909SOL     OW20757   3.250   3.435   4.201
 2909SOL    HW120758   3.317   3.447   4.127
 2909SOL    HW220759   3.210   3.524   4.224
 2910SOL     OW20760   1.992   3.656   5.575
 2910SOL    HW120761   1.951   3.582   5.628
 2910SOL    HW220762   2.056   3.707   5.633
 2911SOL     OW20763   3.703   2.037   4.687
 2911SOL    HW120764   3.742   1.952   4.651
 2911SOL    HW220765   3.605   2.039   4.668
 2912SOL     OW20766   3.366   3.469   3.768
 2912SOL    HW120767   3.274   3.506   3.775
 2912SOL    HW220768   3.404   3.489   3.678
 2913SOL     OW20769   1.937   2.207   3.757
 2913SOL    HW120770   1.845   2.179   3.728
 2913SOL    HW220771   1.968   2.284   3.701
 2914SOL     OW20772   1.934   2.028   4.042
 2914SOL    HW120773   1.917   2.111   3.988
 2914SOL    HW220774   2.024   1.991   4.020
 2915SOL     OW20775   2.475   2.704   5.155
 2915SOL    HW120776   2.531   2.785   5.138
 2915SOL    HW220777   2.534   2.624   5.158
 2916SOL     OW20778   2.578   2.427   5.432
 2916SOL    HW120779   2.597   2.492   5.506
 2916SOL    HW220780   2.638   2.347   5.441
 2917SOL     OW20781   3.312   3.082   5.357
 2917SOL    HW120782   3.303   3.072   5.456
 2917SOL    HW220783   3.408   3.075   5.331
 2918SOL     OW20784   3.723   3.431   4.575
 2918SOL    HW120785   3.652   3.419   4.505
 2918SOL    HW220786   3.724   3.352   4.635
 2919SOL     OW20787   3.686   2.054   4.951
 2919SOL    HW120788   3.682   1.964   4.995
 2919SOL    HW220789   3.689   2.043   4.852
 2920SOL     OW20790   2.290   2.286   4.244
 2920SOL    HW120791   2.320   2.214   4.182
 2920SOL    HW220792   2.251   2.246   4.327
 2921SOL     OW20793   3.567   3.349   4.828
 2921SOL    HW120794   3.474   3.324   4.801
 2921SOL    HW220795   3.593   3.299   4.910
 2922SOL     OW20796   3.286   2.076   4.836
 2922SOL    HW120797   3.338   2.011   4.891
 2922SOL    HW220798   3.237   2.139   4.897
 2923SOL     OW20799   2.480   3.429   5.008
 2923SOL    HW120800   2.475   3.511   5.065
 2923SOL    HW220801   2.569   3.426   4.963
 2924SOL     OW20802   3.214   1.914   3.892
 2924SOL    HW120803   3.249   1.873   3.808
 2924SOL    HW220804   3.124   1.876   3.912
 2925SOL     OW20805   3.162   2.315   4.415
 2925SOL    HW120806   3.103   2.395   4.419
 2925SOL    HW220807   3.177   2.280   4.508
 2926SOL     OW20808   1.901   2.939   4.024
 2926SOL    HW120809   2.000   2.928   4.015
 2926SOL    HW220810   1.861   2.853   4.056
 2927SOL     OW20811   2.092   2.490   5.699
 2927SOL    HW120812   1.999   2.488   5.736
 2927SOL    HW220813   2.093   2.451   5.607
 2928SOL     OW20814   2.087   2.137   6.582
 2928SOL    HW120815   2.122   2.120   6.674
 2928SOL    HW220816   1.999   2.092   6.570
 2929SOL     OW20817   1.881   2.230   6.233
 2929SOL    HW120818   1.799   2.273   6.272
 2929SOL    HW220819   1.853   2.157   6.170
 2930SOL     OW20820   2.431   3.137   6.751
 2930SOL    HW120821   2.338   3.130   6.714
 2930SOL    HW220822   2.442   3.226   6.795
 2931SOL     OW20823   3.417   3.373   6.289
 2931SOL    HW120824   3.360   3.357   6.370
 2931SOL    HW220825   3.358   3.383   6.209
 2932SOL     OW20826   2.997   2.565   6.303
 2932SOL    HW120827   3.054   2.643   6.278
 2932SOL    HW220828   2.937   2.591   6.379
 2933SOL     OW20829   2.630   3.006   6.609
 2933SOL    HW120830   2.552   3.023   6.669
 2933SOL    HW220831   2.664   3.093   6.573
 2934SOL     OW20832   2.547   2.874   6.251
 2934SOL    HW120833   2.616   2.858   6.321
 2934SOL    HW220834   2.474   2.931   6.289
 2935SOL     OW20835   2.197   3.297   6.647
 2935SOL    HW120836   2.119   3.266   6.594
 2935SOL    HW220837   2.255   3.355   6.590
 2936SOL     OW20838   3.465   2.309   6.323
 2936SOL    HW120839   3.391   2.355   6.273
 2936SOL    HW220840   3.516   2.377   6.376
 2937SOL     OW20841   2.093   3.575   6.069
 2937SOL    HW120842   2.127   3.652   6.123
 2937SOL    HW220843   2.137   3.575   5.979
 2938SOL     OW20844   2.092   3.296   6.124
 2938SOL    HW120845   2.066   3.392   6.124
 2938SOL    HW220846   2.021   3.242   6.169
 2939SOL     OW20847   2.102   2.953   6.472
 2939SOL    HW120848   2.116   2.869   6.524
 2939SOL    HW220849   2.047   3.017   6.527
 2940SOL     OW20850   2.482   3.648   7.025
 2940SOL    HW120851   2.390   3.631   7.060
 2940SOL    HW220852   2.510   3.740   7.051
 2941SOL     OW20853   2.468   2.826   5.709
 2941SOL    HW120854   2.475   2.910   5.655
 2941SOL    HW220855   2.514   2.839   5.797
 2942SOL     OW20856   1.984   2.505   6.149
 2942SOL    HW120857   1.939   2.417   6.166
 2942SOL    HW220858   1.983   2.559   6.233
 2943SOL     OW20859   3.704   3.629   5.945
 2943SOL    HW120860   3.758   3.600   6.025
 2943SOL    HW220861   3.734   3.719   5.916
 2944SOL     OW20862   1.889   3.458   5.703
 2944SOL    HW120863   1.870   3.362   5.724
 2944SOL    HW220864   1.856   3.516   5.778
 2945SOL     OW20865   3.551   2.784   6.198
 2945SOL    HW120866   3.646   2.755   6.206
 2945SOL    HW220867   3.543   2.849   6.123
 2946SOL     OW20868   3.503   2.970   6.018
 2946SOL    HW120869   3.589   2.972   5.966
 2946SOL    HW220870   3.517   3.017   6.106
 2947SOL     OW20871   2.475   3.227   6.312
 2947SOL    HW120872   2.426   3.140   6.321
 2947SOL    HW220873   2.452   3.270   6.225
 2948SOL     OW20874   2.671   1.866   6.088
 2948SOL    HW120875   2.711   1.957   6.079
 2948SOL    HW220876   2.571   1.874   6.094
 2949SOL     OW20877   2.059   2.838   6.850
 2949SOL    HW120878   2.148   2.793   6.836
 2949SOL    HW220879   1.986   2.773   6.831
 2950SOL     OW20880   3.387   2.861   5.776
 2950SOL    HW120881   3.324   2.785   5.789
 2950SOL    HW220882   3.435   2.879   5.862
 2951SOL     OW20883   3.328   3.279   6.539
 2951SOL    HW120884   3.269   3.285   6.619
 2951SOL    HW220885   3.313   3.191   6.493
 2952SOL     OW20886   2.460   2.591   5.856
 2952SOL    HW120887   2.484   2.660   5.788
 2952SOL    HW220888   2.382   2.624   5.910
 2953SOL     OW20889   3.143   2.207   6.530
 2953SOL    HW120890   3.057   2.157   6.517
 2953SOL    HW220891   3.205   2.153   6.586
 2954SOL     OW20892   2.853   2.272   6.828
 2954SOL    HW120893   2.776   2.306   6.882
 2954SOL    HW220894   2.819   2.221   6.749
 2955SOL     OW20895   2.903   2.563   6.015
 2955SOL    HW120896   2.929   2.559   6.111
 2955SOL    HW220897   2.818   2.512   6.001
 2956SOL     OW20898   1.938   2.673   6.375
 2956SOL    HW120899   2.037   2.661   6.384
 2956SOL    HW220900   1.914   2.768   6.396
 2957SOL     OW20901   2.412   2.058   6.471
 2957SOL    HW120902   2.407   2.053   6.571
 2957SOL    HW220903   2.414   2.154   6.442
 2958SOL     OW20904   2.870   3.318   6.063
 2958SOL    HW120905   2.824   3.390   6.011
 2958SOL    HW220906   2.866   3.338   6.161
 2959SOL     OW20907   2.213   3.663   6.439
 2959SOL    HW120908   2.263   3.577   6.445
 2959SOL    HW220909   2.278   3.740   6.436
 2960SOL     OW20910   3.657   2.928   6.459
 2960SOL    HW120911   3.595   2.913   6.383
 2960SOL    HW220912   3.605   2.939   6.544
 2961SOL     OW20913   3.320   2.597   6.314
 2961SOL    HW120914   3.315   2.532   6.389
 2961SOL    HW220915   3.400   2.656   6.327
 2962SOL     OW20916   2.973   3.638   5.823
 2962SOL    HW120917   2.913   3.576   5.873
 2962SOL    HW220918   3.004   3.594   5.738
 2963SOL     OW20919   2.326   3.605   5.909
 2963SOL    HW120920   2.359   3.644   5.995
 2963SOL    HW220921   2.402   3.598   5.844
 2964SOL     OW20922   2.111   3.647   6.827
 2964SOL    HW120923   2.168   3.582   6.877
 2964SOL    HW220924   2.095   3.614   6.734
 2965SOL     OW20925   2.802   3.560   6.490
 2965SOL    HW120926   2.882   3.503   6.511
 2965SOL    HW220927   2.753   3.520   6.413
 2966SOL     OW20928   2.244   2.562   6.066
 2966SOL    HW120929   2.289   2.472   6.063
 2966SOL    HW220930   2.150   2.551   6.099
 2967SOL     OW20931   2.476   1.984   5.703
 2967SOL    HW120932   2.574   1.962   5.710
 2967SOL    HW220933   2.445   1.967   5.610
 2968SOL     OW20934   2.665   3.264   6.510
 2968SOL    HW120935   2.755   3.278   6.468
 2968SOL    HW220936   2.594   3.266   6.439
 2969SOL     OW20937   2.784   2.365   6.485
 2969SOL    HW120938   2.759   2.356   6.389
 2969SOL    HW220939   2.832   2.283   6.516
 2970SOL     OW20940   2.401   1.926   6.098
 2970SOL    HW120941   2.320   1.927   6.156
 2970SOL    HW220942   2.404   2.009   6.043
 2971SOL     OW20943   3.296   3.050   5.627
 2971SOL    HW120944   3.328   2.974   5.684
 2971SOL    HW220945   3.204   3.077   5.657
 2972SOL     OW20946   2.159   1.897   5.757
 2972SOL    HW120947   2.208   1.981   5.736
 2972SOL    HW220948   2.221   1.832   5.802
 2973SOL     OW20949   3.089   3.432   6.379
 2973SOL    HW120950   3.110   3.506   6.314
 2973SOL    HW220951   3.157   3.432   6.452
 2974SOL     OW20952   2.321   3.014   6.327
 2974SOL    HW120953   2.250   2.987   6.392
 2974SOL    HW220954   2.295   2.986   6.234
 2975SOL     OW20955   3.133   3.659   6.177
 2975SOL    HW120956   3.177   3.723   6.113
 2975SOL    HW220957   3.083   3.711   6.247
 2976SOL     OW20958   2.894   2.411   5.602
 2976SOL    HW120959   2.853   2.493   5.563
 2976SOL    HW220960   2.958   2.437   5.675
 2977SOL     OW20961   2.423   2.084   6.733
 2977SOL    HW120962   2.461   2.000   6.770
 2977SOL    HW220963   2.335   2.103   6.777
 2978SOL     OW20964   2.728   2.316   6.228
 2978SOL    HW120965   2.696   2.388   6.166
 2978SOL    HW220966   2.752   2.235   6.175
 2979SOL     OW20967   2.879   1.901   6.339
 2979SOL    HW120968   2.807   1.906   6.270
 2979SOL    HW220969   2.855   1.832   6.408
 2980SOL     OW20970   3.291   3.035   6.453
 2980SOL    HW120971   3.236   2.951   6.446
 2980SOL    HW220972   3.317   3.064   6.361
 2981SOL     OW20973   3.328   2.452   6.578
 2981SOL    HW120974   3.298   2.357   6.585
 2981SOL    HW220975   3.401   2.468   6.644
 2982SOL     OW20976   2.350   3.247   5.760
 2982SOL    HW120977   2.263   3.232   5.807
 2982SOL    HW220978   2.333   3.273   5.665
 2983SOL     OW20979   3.526   3.142   6.243
 2983SOL    HW120980   3.625   3.150   6.257
 2983SOL    HW220981   3.481   3.226   6.274
 2984SOL     OW20982   3.252   2.437   5.664
 2984SOL    HW120983   3.198   2.416   5.745
 2984SOL    HW220984   3.343   2.396   5.673
 2985SOL     OW20985   2.389   2.118   5.914
 2985SOL    HW120986   2.416   2.059   5.839
 2985SOL    HW220987   2.389   2.213   5.883
 2986SOL     OW20988   2.973   3.057   6.686
 2986SOL    HW120989   2.933   3.101   6.767
 2986SOL    HW220990   2.932   3.094   6.603
 2987SOL     OW20991   3.500   2.961   6.665
 2987SOL    HW120992   3.505   3.042   6.724
 2987SOL    HW220993   3.414   2.963   6.614
 2988SOL     OW20994   2.567   2.912   5.954
 2988SOL    HW120995   2.553   2.919   6.053
 2988SOL    HW220996   2.651   2.861   5.936
 2989SOL     OW20997   2.272   2.675   6.837
 2989SOL    HW120998   2.358   2.687   6.887
 2989SOL    HW220999   2.230   2.588   6.864
 2990SOL     OW21000   3.136   2.248   6.848
 2990SOL    HW121001   3.157   2.322   6.912
 2990SOL    HW221002   3.047   2.265   6.805
 2991SOL     OW21003   2.229   2.962   6.087
 2991SOL    HW121004   2.222   3.045   6.031
 2991SOL    HW221005   2.233   2.882   6.027
 2992SOL     OW21006   2.428   2.399   6.451
 2992SOL    HW121007   2.440   2.465   6.377
 2992SOL    HW221008   2.474   2.433   6.534
 2993SOL     OW21009   3.114   3.210   5.974
 2993SOL    HW121010   3.164   3.287   6.014
 2993SOL    HW221011   3.019   3.212   6.006
 2994SOL     OW21012   3.134   3.307   6.728
 2994SOL    HW121013   3.181   3.320   6.815
 2994SOL    HW221014   3.068   3.233   6.737
 2995SOL     OW21015   3.444   2.501   6.058
 2995SOL    HW121016   3.413   2.562   6.131
 2995SOL    HW221017   3.494   2.553   5.989
 2996SOL     OW21018   2.216   3.372   6.915
 2996SOL    HW121019   2.195   3.328   6.828
 2996SOL    HW221020   2.313   3.398   6.918
 2997SOL     OW21021   2.435   2.732   6.615
 2997SOL    HW121022   2.479   2.821   6.606
 2997SOL    HW221023   2.372   2.732   6.692
 2998SOL     OW21024   3.222   2.724   6.631
 2998SOL    HW121025   3.147   2.724   6.565
 2998SOL    HW221026   3.259   2.632   6.640
 2999SOL     OW21027   3.071   2.387   5.861
 2999SOL    HW121028   3.084   2.303   5.915
 2999SOL    HW221029   3.042   2.461   5.921
 3000SOL     OW21030   2.169   2.075   6.817
 3000SOL    HW121031   2.146   2.112   6.907
 3000SOL    HW221032   2.139   1.980   6.811
 3001SOL     OW21033   1.899   3.172   6.868
 3001SOL    HW121034   1.952   3.123   6.936
 3001SOL    HW221035   1.921   3.270   6.873
 3002SOL     OW21036   2.594   2.496   6.650
 3002SOL    HW121037   2.653   2.470   6.574
 3002SOL    HW221038   2.566   2.592   6.639
 3003SOL     OW21039   2.169   1.925   6.204
 3003SOL    HW121040   2.158   2.019   6.237
 3003SOL    HW221041   2.164   1.862   6.281
 3004SOL     OW21042   2.885   2.628   6.552
 3004SOL    HW121043   2.900   2.649   6.648
 3004SOL    HW221044   2.855   2.533   6.543
 3005SOL     OW21045   3.402   2.136   5.711
 3005SOL    HW121046   3.341   2.061   5.734
 3005SOL    HW221047   3.424   2.188   5.794
 3006SOL     OW21048   2.930   3.195   6.435
 3006SOL    HW121049   2.937   3.111   6.380
 3006SOL    HW221050   2.992   3.264   6.399
 3007SOL     OW21051   2.181   2.672   6.535
 3007SOL    HW121052   2.274   2.708   6.540
 3007SOL    HW221053   2.175   2.587   6.587
 3008SOL     OW21054   2.201   2.371   6.592
 3008SOL    HW121055   2.149   2.288   6.575
 3008SOL    HW221056   2.278   2.376   6.528
 3009SOL     OW21057   3.022   2.069   7.063
 3009SOL    HW121058   3.022   2.133   7.140
 3009SOL    HW221059   3.050   2.117   6.980
 3010SOL     OW21060   1.870   3.188   5.786
 3010SOL    HW121061   1.777   3.209   5.755
 3010SOL    HW221062   1.880   3.089   5.799
 3011SOL     OW21063   1.950   3.663   6.513
 3011SOL    HW121064   1.908   3.577   6.486
 3011SOL    HW221065   2.044   3.666   6.479
 3012SOL     OW21066   2.366   3.430   6.496
 3012SOL    HW121067   2.432   3.504   6.505
 3012SOL    HW221068   2.410   3.351   6.454
 3013SOL     OW21069   2.864   2.658   6.824
 3013SOL    HW121070   2.905   2.626   6.910
 3013SOL    HW221071   2.768   2.631   6.821
 3014SOL     OW21072   1.902   2.406   6.700
 3014SOL    HW121073   1.987   2.373   6.659
 3014SOL    HW221074   1.915   2.421   6.798
 3015SOL     OW21075   3.519   2.466   6.792
 3015SOL    HW121076   3.481   2.397   6.854
 3015SOL    HW221077   3.601   2.430   6.748
 3016SOL     OW21078   2.533   2.326   6.855
 3016SOL    HW121079   2.499   2.237   6.825
 3016SOL    HW221080   2.559   2.380   6.775
 3017SOL     OW21081   2.792   3.540   7.051
 3017SOL    HW121082   2.768   3.522   6.956
 3017SOL    HW221083   2.822   3.634   7.061
 3018SOL     OW21084   2.335   2.362   5.777
 3018SOL    HW121085   2.396   2.442   5.781
 3018SOL    HW221086   2.240   2.393   5.784
 3019SOL     OW21087   3.209   2.921   6.820
 3019SOL    HW121088   3.233   2.858   6.746
 3019SOL    HW221089   3.119   2.961   6.802
 3020SOL     OW21090   3.164   2.717   5.895
 3020SOL    HW121091   3.078   2.686   5.937
 3020SOL    HW221092   3.160   2.703   5.796
 3021SOL     OW21093   3.621   3.609   6.740
 3021SOL    HW121094   3.682   3.639   6.667
 3021SOL    HW221095   3.583   3.520   6.718
 3022SOL     OW21096   3.114   3.593   6.714
 3022SOL    HW121097   3.198   3.598   6.660
 3022SOL    HW221098   3.091   3.497   6.732
 3023SOL     OW21099   1.945   3.120   6.608
 3023SOL    HW121100   1.940   3.119   6.708
 3023SOL    HW221101   1.862   3.079   6.570
 3024SOL     OW21102   3.588   1.997   6.109
 3024SOL    HW121103   3.661   1.980   6.042
 3024SOL    HW221104   3.557   1.910   6.147
 3025SOL     OW21105   2.534   3.478   5.740
 3025SOL    HW121106   2.543   3.488   5.641
 3025SOL    HW221107   2.494   3.389   5.761
 3026SOL     OW21108   3.512   3.582   6.980
 3026SOL    HW121109   3.565   3.592   6.896
 3026SOL    HW221110   3.485   3.672   7.014
 3027SOL     OW21111   3.703   2.037   6.549
 3027SOL    HW121112   3.742   1.952   6.513
 3027SOL    HW221113   3.605   2.039   6.530
 3028SOL     OW21114   2.125   2.188   6.306
 3028SOL    HW121115   2.046   2.239   6.272
 3028SOL    HW221116   2.116   2.173   6.404
 3029SOL     OW21117   3.056   3.474   5.617
 3029SOL    HW121118   3.062   3.381   5.654
 3029SOL    HW221119   2.997   3.474   5.537
 3030SOL     OW21120   2.684   2.864   6.958
 3030SOL    HW121121   2.724   2.863   6.866
 3030SOL    HW221122   2.694   2.956   6.998
 3031SOL     OW21123   2.778   2.772   5.877
 3031SOL    HW121124   2.841   2.810   5.809
 3031SOL    HW221125   2.818   2.689   5.916
 3032SOL     OW21126   3.366   3.469   5.630
 3032SOL    HW121127   3.274   3.506   5.637
 3032SOL    HW221128   3.404   3.489   5.540
 3033SOL     OW21129   2.876   2.098   6.557
 3033SOL    HW121130   2.868   2.062   6.464
 3033SOL    HW221131   2.874   2.022   6.622
 3034SOL     OW21132   2.452   3.349   6.077
 3034SOL    HW121133   2.494   3.291   6.007
 3034SOL    HW221134   2.408   3.428   6.033
 3035SOL     OW21135   3.571   2.247   6.967
 3035SOL    HW121136   3.644   2.316   6.971
 3035SOL    HW221137   3.599   2.172   6.908
 3036SOL     OW21138   2.117   3.210   5.876
 3036SOL    HW121139   2.021   3.211   5.849
 3036SOL    HW221140   2.129   3.263   5.960
 3037SOL     OW21141   1.934   2.028   5.904
 3037SOL    HW121142   1.917   2.111   5.850
 3037SOL    HW221143   2.024   1.991   5.882
 3038SOL     OW21144   3.355   3.629   6.545
 3038SOL    HW121145   3.388   3.693   6.476
 3038SOL    HW221146   3.421   3.623   6.620
 3039SOL     OW21147   3.312   3.082   7.219
 3039SOL    HW121148   3.303   3.072   7.318
 3039SOL    HW221149   3.408   3.075   7.193
 3040SOL     OW21150   3.536   2.745   6.840
 3040SOL    HW121151   3.509   2.656   6.803
 3040SOL    HW221152   3.537   2.813   6.767
 3041SOL     OW21153   2.456   2.607   6.238
 3041SOL    HW121154   2.506   2.692   6.219
 3041SOL    HW221155   2.368   2.609   6.190
 3042SOL     OW21156   3.592   2.796   7.103
 3042SOL    HW121157   3.630   2.887   7.118
 3042SOL    HW221158   3.584   2.779   7.004
 3043SOL     OW21159   2.523   3.652   6.539
 3043SOL    HW121160   2.477   3.740   6.526
 3043SOL    HW221161   2.622   3.664   6.532
 3044SOL     OW21162   2.721   2.818   6.447
 3044SOL    HW121163   2.775   2.749   6.495
 3044SOL    HW221164   2.689   2.887   6.513
 3045SOL     OW21165   3.723   3.431   6.437
 3045SOL    HW121166   3.652   3.419   6.367
 3045SOL    HW221167   3.724   3.352   6.497
 3046SOL     OW21168   1.941   3.102   6.239
 3046SOL    HW121169   1.940   3.055   6.327
 3046SOL    HW221170   2.023   3.074   6.188
 3047SOL     OW21171   3.686   2.054   6.813
 3047SOL    HW121172   3.682   1.964   6.857
 3047SOL    HW221173   3.689   2.043   6.714
 3048SOL     OW21174   2.290   2.286   6.106
 3048SOL    HW121175   2.320   2.214   6.044
 3048SOL    HW221176   2.251   2.246   6.189
 3049SOL     OW21177   3.567   3.349   6.690
 3049SOL    HW121178   3.474   3.324   6.663
 3049SOL    HW221179   3.593   3.299   6.772
 3050SOL     OW21180   2.674   3.448   6.273
 3050SOL    HW121181   2.706   3.458   6.179
 3050SOL    HW221182   2.595   3.386   6.275
 3051SOL     OW21183   3.286   2.076   6.698
 3051SOL    HW121184   3.338   2.011   6.753
 3051SOL    HW221185   3.237   2.139   6.759
 3052SOL     OW21186   2.863   1.896   6.740
 3052SOL    HW121187   2.800   1.824   6.709
 3052SOL    HW221188   2.956   1.860   6.740
 3053SOL     OW21189   2.632   3.192   5.887
 3053SOL    HW121190   2.586   3.105   5.904
 3053SOL    HW221191   2.723   3.189   5.928
 3054SOL     OW21192   3.455   2.083   6.468
 3054SOL    HW121193   3.371   2.082   6.522
 3054SOL    HW221194   3.457   2.166   6.412
 3055SOL     OW21195   1.901   2.939   5.886
 3055SOL    HW121196   2.000   2.928   5.877
 3055SOL    HW221197   1.861   2.853   5.918
 3056SOL     OW21198   2.737   3.508   5.923
 3056SOL    HW121199   2.660   3.473   5.869
 3056SOL    HW221200   2.705   3.579   5.985
 3057SOL     OW21201   2.087   3.999   0.996
 3057SOL    HW121202   2.122   3.982   1.088
 3057SOL    HW221203   1.999   3.954   0.984
 3058SOL     OW21204   1.881   4.092   0.647
 3058SOL    HW121205   1.799   4.135   0.686
 3058SOL    HW221206   1.853   4.019   0.584
 3059SOL     OW21207   2.431   4.999   1.165
 3059SOL    HW121208   2.338   4.992   1.128
 3059SOL    HW221209   2.442   5.088   1.209
 3060SOL     OW21210   2.997   4.427   0.717
 3060SOL    HW121211   3.054   4.505   0.692
 3060SOL    HW221212   2.937   4.453   0.793
 3061SOL     OW21213   3.617   4.331   0.231
 3061SOL    HW121214   3.605   4.318   0.132
 3061SOL    HW221215   3.587   4.250   0.280
 3062SOL     OW21216   2.630   4.868   1.023
 3062SOL    HW121217   2.552   4.885   1.083
 3062SOL    HW221218   2.664   4.955   0.987
 3063SOL     OW21219   2.547   4.736   0.665
 3063SOL    HW121220   2.616   4.720   0.735
 3063SOL    HW221221   2.474   4.793   0.703
 3064SOL     OW21222   2.197   5.159   1.061
 3064SOL    HW121223   2.119   5.128   1.008
 3064SOL    HW221224   2.255   5.217   1.004
 3065SOL     OW21225   3.322   5.229   1.339
 3065SOL    HW121226   3.346   5.323   1.365
 3065SOL    HW221227   3.306   5.175   1.421
 3066SOL     OW21228   3.465   4.171   0.737
 3066SOL    HW121229   3.391   4.217   0.687
 3066SOL    HW221230   3.516   4.239   0.790
 3067SOL     OW21231   2.093   5.437   0.483
 3067SOL    HW121232   2.127   5.514   0.537
 3067SOL    HW221233   2.137   5.437   0.393
 3068SOL     OW21234   2.092   5.158   0.538
 3068SOL    HW121235   2.066   5.254   0.538
 3068SOL    HW221236   2.021   5.104   0.583
 3069SOL     OW21237   2.102   4.815   0.886
 3069SOL    HW121238   2.116   4.731   0.938
 3069SOL    HW221239   2.047   4.879   0.941
 3070SOL     OW21240   2.482   5.510   1.439
 3070SOL    HW121241   2.390   5.493   1.474
 3070SOL    HW221242   2.510   5.602   1.465
 3071SOL     OW21243   2.468   4.688   0.123
 3071SOL    HW121244   2.475   4.772   0.069
 3071SOL    HW221245   2.514   4.701   0.211
 3072SOL     OW21246   3.456   3.838   1.480
 3072SOL    HW121247   3.438   3.905   1.408
 3072SOL    HW221248   3.453   3.884   1.569
 3073SOL     OW21249   1.984   4.367   0.563
 3073SOL    HW121250   1.939   4.279   0.580
 3073SOL    HW221251   1.983   4.421   0.647
 3074SOL     OW21252   3.704   5.491   0.359
 3074SOL    HW121253   3.758   5.462   0.439
 3074SOL    HW221254   3.734   5.581   0.330
 3075SOL     OW21255   1.889   5.320   0.117
 3075SOL    HW121256   1.870   5.224   0.138
 3075SOL    HW221257   1.856   5.378   0.192
 3076SOL     OW21258   3.551   4.646   0.612
 3076SOL    HW121259   3.646   4.617   0.620
 3076SOL    HW221260   3.543   4.711   0.537
 3077SOL     OW21261   3.503   4.832   0.432
 3077SOL    HW121262   3.589   4.834   0.380
 3077SOL    HW221263   3.517   4.879   0.520
 3078SOL     OW21264   2.475   5.089   0.726
 3078SOL    HW121265   2.426   5.002   0.735
 3078SOL    HW221266   2.452   5.132   0.639
 3079SOL     OW21267   3.155   4.952   1.423
 3079SOL    HW121268   3.192   4.879   1.365
 3079SOL    HW221269   3.207   4.957   1.508
 3080SOL     OW21270   2.671   3.728   0.502
 3080SOL    HW121271   2.711   3.819   0.493
 3080SOL    HW221272   2.571   3.736   0.508
 3081SOL     OW21273   2.059   4.700   1.264
 3081SOL    HW121274   2.148   4.655   1.250
 3081SOL    HW221275   1.986   4.635   1.245
 3082SOL     OW21276   3.387   4.723   0.190
 3082SOL    HW121277   3.324   4.647   0.203
 3082SOL    HW221278   3.435   4.741   0.276
 3083SOL     OW21279   2.179   3.975   1.801
 3083SOL    HW121280   2.250   4.046   1.807
 3083SOL    HW221281   2.091   4.014   1.829
 3084SOL     OW21282   3.328   5.141   0.953
 3084SOL    HW121283   3.269   5.147   1.033
 3084SOL    HW221284   3.313   5.053   0.907
 3085SOL     OW21285   2.460   4.453   0.270
 3085SOL    HW121286   2.484   4.522   0.202
 3085SOL    HW221287   2.382   4.486   0.324
 3086SOL     OW21288   3.143   4.069   0.944
 3086SOL    HW121289   3.057   4.019   0.931
 3086SOL    HW221290   3.205   4.015   1.000
 3087SOL     OW21291   3.438   5.386   0.307
 3087SOL    HW121292   3.527   5.432   0.310
 3087SOL    HW221293   3.417   5.362   0.212
 3088SOL     OW21294   2.669   4.329   1.465
 3088SOL    HW121295   2.622   4.326   1.554
 3088SOL    HW221296   2.618   4.274   1.399
 3089SOL     OW21297   2.853   4.134   1.242
 3089SOL    HW121298   2.776   4.168   1.296
 3089SOL    HW221299   2.819   4.083   1.163
 3090SOL     OW21300   2.903   4.425   0.429
 3090SOL    HW121301   2.929   4.421   0.525
 3090SOL    HW221302   2.818   4.374   0.415
 3091SOL     OW21303   1.938   4.535   0.789
 3091SOL    HW121304   2.037   4.523   0.798
 3091SOL    HW221305   1.914   4.630   0.810
 3092SOL     OW21306   2.727   4.072   0.195
 3092SOL    HW121307   2.786   4.135   0.146
 3092SOL    HW221308   2.746   3.978   0.166
 3093SOL     OW21309   3.581   4.309   1.831
 3093SOL    HW121310   3.555   4.398   1.795
 3093SOL    HW221311   3.579   4.241   1.758
 3094SOL     OW21312   3.224   4.868   0.545
 3094SOL    HW121313   3.307   4.839   0.497
 3094SOL    HW221314   3.175   4.935   0.489
 3095SOL     OW21315   2.412   3.920   0.885
 3095SOL    HW121316   2.407   3.915   0.985
 3095SOL    HW221317   2.414   4.016   0.856
 3096SOL     OW21318   2.870   5.180   0.477
 3096SOL    HW121319   2.824   5.252   0.425
 3096SOL    HW221320   2.866   5.200   0.575
 3097SOL     OW21321   2.213   5.525   0.853
 3097SOL    HW121322   2.263   5.439   0.859
 3097SOL    HW221323   2.278   5.602   0.850
 3098SOL     OW21324   3.657   4.790   0.873
 3098SOL    HW121325   3.595   4.775   0.797
 3098SOL    HW221326   3.605   4.801   0.958
 3099SOL     OW21327   3.089   5.274   1.506
 3099SOL    HW121328   3.095   5.197   1.570
 3099SOL    HW221329   3.037   5.248   1.426
 3100SOL     OW21330   2.183   4.667   0.242
 3100SOL    HW121331   2.265   4.706   0.200
 3100SOL    HW221332   2.156   4.585   0.193
 3101SOL     OW21333   3.320   4.459   0.728
 3101SOL    HW121334   3.315   4.394   0.803
 3101SOL    HW221335   3.400   4.518   0.741
 3102SOL     OW21336   2.973   5.500   0.237
 3102SOL    HW121337   2.913   5.438   0.287
 3102SOL    HW221338   3.004   5.456   0.152
 3103SOL     OW21339   3.494   5.101   0.081
 3103SOL    HW121340   3.462   5.195   0.071
 3103SOL    HW221341   3.418   5.038   0.069
 3104SOL     OW21342   2.326   5.467   0.323
 3104SOL    HW121343   2.359   5.506   0.409
 3104SOL    HW221344   2.402   5.460   0.258
 3105SOL     OW21345   3.262   3.831   0.426
 3105SOL    HW121346   3.238   3.794   0.336
 3105SOL    HW221347   3.361   3.847   0.430
 3106SOL     OW21348   2.111   5.509   1.241
 3106SOL    HW121349   2.168   5.444   1.291
 3106SOL    HW221350   2.095   5.476   1.148
 3107SOL     OW21351   2.802   5.422   0.904
 3107SOL    HW121352   2.882   5.365   0.925
 3107SOL    HW221353   2.753   5.382   0.827
 3108SOL     OW21354   2.244   4.424   0.480
 3108SOL    HW121355   2.289   4.334   0.477
 3108SOL    HW221356   2.150   4.413   0.513
 3109SOL     OW21357   3.409   3.946   1.729
 3109SOL    HW121358   3.404   3.983   1.821
 3109SOL    HW221359   3.337   3.877   1.717
 3110SOL     OW21360   2.750   5.238   1.195
 3110SOL    HW121361   2.727   5.213   1.101
 3110SOL    HW221362   2.811   5.169   1.234
 3111SOL     OW21363   2.665   5.126   0.924
 3111SOL    HW121364   2.755   5.140   0.882
 3111SOL    HW221365   2.594   5.128   0.853
 3112SOL     OW21366   2.784   4.227   0.899
 3112SOL    HW121367   2.759   4.218   0.803
 3112SOL    HW221368   2.832   4.145   0.930
 3113SOL     OW21369   2.401   3.788   0.512
 3113SOL    HW121370   2.320   3.789   0.570
 3113SOL    HW221371   2.404   3.871   0.457
 3114SOL     OW21372   3.296   4.912   0.041
 3114SOL    HW121373   3.328   4.836   0.098
 3114SOL    HW221374   3.204   4.939   0.071
 3115SOL     OW21375   2.159   3.759   0.171
 3115SOL    HW121376   2.208   3.843   0.150
 3115SOL    HW221377   2.221   3.694   0.216
 3116SOL     OW21378   2.797   3.960   0.480
 3116SOL    HW121379   2.749   4.001   0.402
 3116SOL    HW221380   2.896   3.958   0.461
 3117SOL     OW21381   2.938   4.407   1.464
 3117SOL    HW121382   2.858   4.346   1.467
 3117SOL    HW221383   3.019   4.354   1.440
 3118SOL     OW21384   3.089   5.294   0.793
 3118SOL    HW121385   3.110   5.368   0.728
 3118SOL    HW221386   3.157   5.294   0.866
 3119SOL     OW21387   2.321   4.876   0.741
 3119SOL    HW121388   2.250   4.849   0.806
 3119SOL    HW221389   2.295   4.848   0.648
 3120SOL     OW21390   2.894   4.273   0.016
 3120SOL    HW121391   2.853   4.355  -0.023
 3120SOL    HW221392   2.958   4.299   0.089
 3121SOL     OW21393   2.423   3.946   1.147
 3121SOL    HW121394   2.461   3.862   1.184
 3121SOL    HW221395   2.335   3.965   1.191
 3122SOL     OW21396   2.728   4.178   0.642
 3122SOL    HW121397   2.696   4.250   0.580
 3122SOL    HW221398   2.752   4.097   0.589
 3123SOL     OW21399   2.879   3.763   0.753
 3123SOL    HW121400   2.807   3.768   0.684
 3123SOL    HW221401   2.855   3.694   0.822
 3124SOL     OW21402   3.291   4.897   0.867
 3124SOL    HW121403   3.236   4.813   0.860
 3124SOL    HW221404   3.317   4.926   0.775
 3125SOL     OW21405   3.328   4.314   0.992
 3125SOL    HW121406   3.298   4.219   0.999
 3125SOL    HW221407   3.401   4.330   1.058
 3126SOL     OW21408   3.719   4.557   0.377
 3126SOL    HW121409   3.761   4.493   0.441
 3126SOL    HW221410   3.681   4.506   0.299
 3127SOL     OW21411   2.350   5.109   0.174
 3127SOL    HW121412   2.263   5.094   0.221
 3127SOL    HW221413   2.333   5.135   0.079
 3128SOL     OW21414   3.526   5.004   0.657
 3128SOL    HW121415   3.625   5.012   0.671
 3128SOL    HW221416   3.481   5.088   0.688
 3129SOL     OW21417   3.252   4.299   0.078
 3129SOL    HW121418   3.198   4.278   0.159
 3129SOL    HW221419   3.343   4.258   0.087
 3130SOL     OW21420   2.389   3.980   0.328
 3130SOL    HW121421   2.416   3.921   0.253
 3130SOL    HW221422   2.389   4.075   0.297
 3131SOL     OW21423   3.616   4.947   1.588
 3131SOL    HW121424   3.707   4.908   1.575
 3131SOL    HW221425   3.624   5.043   1.612
 3132SOL     OW21426   2.926   5.071   1.340
 3132SOL    HW121427   2.846   5.048   1.395
 3132SOL    HW221428   3.009   5.045   1.389
 3133SOL     OW21429   3.454   5.353   1.625
 3133SOL    HW121430   3.481   5.387   1.535
 3133SOL    HW221431   3.533   5.315   1.671
 3134SOL     OW21432   2.973   4.919   1.100
 3134SOL    HW121433   2.933   4.963   1.181
 3134SOL    HW221434   2.932   4.956   1.017
 3135SOL     OW21435   3.500   4.823   1.079
 3135SOL    HW121436   3.505   4.904   1.138
 3135SOL    HW221437   3.414   4.825   1.028
 3136SOL     OW21438   2.777   3.813   1.402
 3136SOL    HW121439   2.802   3.793   1.307
 3136SOL    HW221440   2.849   3.869   1.444
 3137SOL     OW21441   2.567   4.774   0.368
 3137SOL    HW121442   2.553   4.781   0.467
 3137SOL    HW221443   2.651   4.723   0.350
 3138SOL     OW21444   2.272   4.537   1.251
 3138SOL    HW121445   2.358   4.549   1.301
 3138SOL    HW221446   2.230   4.450   1.278
 3139SOL     OW21447   3.136   4.110   1.262
 3139SOL    HW121448   3.157   4.184   1.326
 3139SOL    HW221449   3.047   4.127   1.219
 3140SOL     OW21450   1.926   5.288   1.331
 3140SOL    HW121451   1.880   5.370   1.297
 3140SOL    HW221452   2.024   5.307   1.340
 3141SOL     OW21453   2.229   4.824   0.501
 3141SOL    HW121454   2.222   4.907   0.445
 3141SOL    HW221455   2.233   4.744   0.441
 3142SOL     OW21456   2.428   4.261   0.865
 3142SOL    HW121457   2.440   4.327   0.791
 3142SOL    HW221458   2.474   4.295   0.948
 3143SOL     OW21459   3.114   5.072   0.388
 3143SOL    HW121460   3.164   5.149   0.428
 3143SOL    HW221461   3.019   5.074   0.420
 3144SOL     OW21462   3.134   5.169   1.142
 3144SOL    HW121463   3.181   5.182   1.229
 3144SOL    HW221464   3.068   5.095   1.151
 3145SOL     OW21465   3.444   4.363   0.472
 3145SOL    HW121466   3.413   4.424   0.545
 3145SOL    HW221467   3.494   4.415   0.403
 3146SOL     OW21468   2.216   5.234   1.329
 3146SOL    HW121469   2.195   5.190   1.242
 3146SOL    HW221470   2.313   5.260   1.332
 3147SOL     OW21471   2.264   4.475   1.598
 3147SOL    HW121472   2.332   4.530   1.551
 3147SOL    HW221473   2.304   4.387   1.625
 3148SOL     OW21474   3.449   4.503   1.670
 3148SOL    HW121475   3.357   4.541   1.665
 3148SOL    HW221476   3.509   4.550   1.605
 3149SOL     OW21477   2.435   4.594   1.029
 3149SOL    HW121478   2.479   4.683   1.020
 3149SOL    HW221479   2.372   4.594   1.106
 3150SOL     OW21480   3.222   4.586   1.045
 3150SOL    HW121481   3.147   4.586   0.979
 3150SOL    HW221482   3.259   4.494   1.054
 3151SOL     OW21483   3.071   4.249   0.275
 3151SOL    HW121484   3.084   4.165   0.329
 3151SOL    HW221485   3.042   4.323   0.335
 3152SOL     OW21486   1.899   5.034   1.282
 3152SOL    HW121487   1.952   4.985   1.350
 3152SOL    HW221488   1.921   5.132   1.287
 3153SOL     OW21489   2.594   4.358   1.064
 3153SOL    HW121490   2.653   4.332   0.988
 3153SOL    HW221491   2.566   4.454   1.053
 3154SOL     OW21492   3.590   4.659   1.854
 3154SOL    HW121493   3.544   4.652   1.765
 3154SOL    HW221494   3.528   4.703   1.920
 3155SOL     OW21495   2.169   3.787   0.618
 3155SOL    HW121496   2.158   3.881   0.651
 3155SOL    HW221497   2.164   3.724   0.695
 3156SOL     OW21498   3.484   4.091   0.374
 3156SOL    HW121499   3.486   4.015   0.438
 3156SOL    HW221500   3.436   4.168   0.414
 3157SOL     OW21501   2.885   4.490   0.966
 3157SOL    HW121502   2.900   4.511   1.062
 3157SOL    HW221503   2.855   4.395   0.957
 3158SOL     OW21504   3.721   5.242   1.605
 3158SOL    HW121505   3.735   5.269   1.510
 3158SOL    HW221506   3.804   5.264   1.658
 3159SOL     OW21507   3.402   3.998   0.125
 3159SOL    HW121508   3.341   3.923   0.148
 3159SOL    HW221509   3.424   4.050   0.208
 3160SOL     OW21510   3.165   4.562   0.042
 3160SOL    HW121511   3.199   4.469   0.057
 3160SOL    HW221512   3.183   4.589  -0.053
 3161SOL     OW21513   2.930   5.057   0.849
 3161SOL    HW121514   2.937   4.973   0.794
 3161SOL    HW221515   2.992   5.126   0.813
 3162SOL     OW21516   2.181   4.534   0.949
 3162SOL    HW121517   2.274   4.570   0.954
 3162SOL    HW221518   2.175   4.449   1.001
 3163SOL     OW21519   2.201   4.233   1.006
 3163SOL    HW121520   2.149   4.150   0.989
 3163SOL    HW221521   2.278   4.238   0.942
 3164SOL     OW21522   1.950   5.525   0.927
 3164SOL    HW121523   1.908   5.439   0.900
 3164SOL    HW221524   2.044   5.528   0.893
 3165SOL     OW21525   2.366   5.292   0.910
 3165SOL    HW121526   2.432   5.366   0.919
 3165SOL    HW221527   2.410   5.213   0.868
 3166SOL     OW21528   2.864   4.520   1.238
 3166SOL    HW121529   2.905   4.488   1.324
 3166SOL    HW221530   2.768   4.493   1.235
 3167SOL     OW21531   1.902   4.268   1.114
 3167SOL    HW121532   1.987   4.235   1.073
 3167SOL    HW221533   1.915   4.283   1.212
 3168SOL     OW21534   3.231   4.674   1.660
 3168SOL    HW121535   3.270   4.763   1.680
 3168SOL    HW221536   3.241   4.654   1.563
 3169SOL     OW21537   2.677   4.296   0.325
 3169SOL    HW121538   2.684   4.207   0.279
 3169SOL    HW221539   2.583   4.330   0.317
 3170SOL     OW21540   3.519   4.328   1.206
 3170SOL    HW121541   3.481   4.259   1.268
 3170SOL    HW221542   3.601   4.292   1.162
 3171SOL     OW21543   2.533   4.188   1.269
 3171SOL    HW121544   2.499   4.099   1.239
 3171SOL    HW221545   2.559   4.242   1.189
 3172SOL     OW21546   2.792   5.402   1.465
 3172SOL    HW121547   2.768   5.384   1.370
 3172SOL    HW221548   2.822   5.496   1.475
 3173SOL     OW21549   2.021   4.861   1.466
 3173SOL    HW121550   2.043   4.800   1.542
 3173SOL    HW221551   2.031   4.812   1.380
 3174SOL     OW21552   3.209   4.783   1.234
 3174SOL    HW121553   3.233   4.720   1.160
 3174SOL    HW221554   3.119   4.823   1.216
 3175SOL     OW21555   3.164   4.579   0.309
 3175SOL    HW121556   3.078   4.548   0.351
 3175SOL    HW221557   3.160   4.565   0.210
 3176SOL     OW21558   3.621   5.471   1.154
 3176SOL    HW121559   3.682   5.501   1.081
 3176SOL    HW221560   3.583   5.382   1.132
 3177SOL     OW21561   3.114   5.455   1.128
 3177SOL    HW121562   3.198   5.460   1.074
 3177SOL    HW221563   3.091   5.359   1.146
 3178SOL     OW21564   1.945   4.982   1.022
 3178SOL    HW121565   1.940   4.981   1.122
 3178SOL    HW221566   1.862   4.941   0.984
 3179SOL     OW21567   2.765   3.810   0.133
 3179SOL    HW121568   2.816   3.811   0.047
 3179SOL    HW221569   2.821   3.768   0.204
 3180SOL     OW21570   3.588   3.859   0.523
 3180SOL    HW121571   3.661   3.842   0.456
 3180SOL    HW221572   3.557   3.772   0.561
 3181SOL     OW21573   3.142   4.651   0.672
 3181SOL    HW121574   3.202   4.570   0.674
 3181SOL    HW221575   3.182   4.720   0.612
 3182SOL     OW21576   2.692   4.997   1.422
 3182SOL    HW121577   2.687   5.030   1.517
 3182SOL    HW221578   2.606   5.016   1.376
 3183SOL     OW21579   2.534   5.340   0.154
 3183SOL    HW121580   2.543   5.350   0.055
 3183SOL    HW221581   2.494   5.251   0.175
 3184SOL     OW21582   3.512   5.444   1.394
 3184SOL    HW121583   3.565   5.454   1.310
 3184SOL    HW221584   3.485   5.534   1.428
 3185SOL     OW21585   3.703   3.899   0.963
 3185SOL    HW121586   3.742   3.814   0.927
 3185SOL    HW221587   3.605   3.901   0.944
 3186SOL     OW21588   2.125   4.050   0.720
 3186SOL    HW121589   2.046   4.101   0.686
 3186SOL    HW221590   2.116   4.035   0.818
 3187SOL     OW21591   3.056   5.336   0.031
 3187SOL    HW121592   3.062   5.243   0.068
 3187SOL    HW221593   2.997   5.336  -0.049
 3188SOL     OW21594   2.684   4.726   1.372
 3188SOL    HW121595   2.724   4.725   1.280
 3188SOL    HW221596   2.694   4.818   1.412
 3189SOL     OW21597   2.778   4.634   0.291
 3189SOL    HW121598   2.841   4.672   0.223
 3189SOL    HW221599   2.818   4.551   0.330
 3190SOL     OW21600   3.366   5.331   0.044
 3190SOL    HW121601   3.274   5.368   0.051
 3190SOL    HW221602   3.404   5.351  -0.046
 3191SOL     OW21603   2.234   5.012   1.490
 3191SOL    HW121604   2.221   5.105   1.456
 3191SOL    HW221605   2.150   4.960   1.477
 3192SOL     OW21606   3.476   5.016   1.289
 3192SOL    HW121607   3.536   5.019   1.369
 3192SOL    HW221608   3.401   5.080   1.302
 3193SOL     OW21609   2.901   4.822   0.696
 3193SOL    HW121610   2.831   4.775   0.750
 3193SOL    HW221611   2.960   4.754   0.653
 3194SOL     OW21612   2.876   3.960   0.971
 3194SOL    HW121613   2.868   3.924   0.878
 3194SOL    HW221614   2.874   3.884   1.036
 3195SOL     OW21615   2.452   5.211   0.491
 3195SOL    HW121616   2.494   5.153   0.421
 3195SOL    HW221617   2.408   5.290   0.447
 3196SOL     OW21618   3.571   4.109   1.381
 3196SOL    HW121619   3.644   4.178   1.385
 3196SOL    HW221620   3.599   4.034   1.322
 3197SOL     OW21621   2.117   5.072   0.290
 3197SOL    HW121622   2.021   5.073   0.263
 3197SOL    HW221623   2.129   5.125   0.374
 3198SOL     OW21624   2.534   3.927   1.489
 3198SOL    HW121625   2.624   3.911   1.449
 3198SOL    HW221626   2.542   3.932   1.588
 3199SOL     OW21627   1.934   3.890   0.318
 3199SOL    HW121628   1.917   3.973   0.264
 3199SOL    HW221629   2.024   3.853   0.296
 3200SOL     OW21630   3.045   5.059   0.119
 3200SOL    HW121631   2.946   5.048   0.121
 3200SOL    HW221632   3.079   5.074   0.212
 3201SOL     OW21633   2.475   4.566   1.431
 3201SOL    HW121634   2.531   4.647   1.414
 3201SOL    HW221635   2.534   4.486   1.434
 3202SOL     OW21636   3.355   5.491   0.959
 3202SOL    HW121637   3.388   5.555   0.890
 3202SOL    HW221638   3.421   5.485   1.034
 3203SOL     OW21639   3.312   4.944   1.633
 3203SOL    HW121640   3.303   4.934   1.732
 3203SOL    HW221641   3.408   4.937   1.607
 3204SOL     OW21642   3.087   4.049   0.449
 3204SOL    HW121643   3.152   3.975   0.438
 3204SOL    HW221644   3.107   4.099   0.533
 3205SOL     OW21645   2.456   4.469   0.652
 3205SOL    HW121646   2.506   4.554   0.633
 3205SOL    HW221647   2.368   4.471   0.604
 3206SOL     OW21648   3.639   4.066   1.642
 3206SOL    HW121649   3.622   4.097   1.548
 3206SOL    HW221650   3.555   4.029   1.680
 3207SOL     OW21651   3.592   4.658   1.517
 3207SOL    HW121652   3.630   4.749   1.532
 3207SOL    HW221653   3.584   4.641   1.418
 3208SOL     OW21654   2.721   5.098   0.016
 3208SOL    HW121655   2.675   5.113   0.104
 3208SOL    HW221656   2.765   5.183  -0.014
 3209SOL     OW21657   2.523   5.514   0.953
 3209SOL    HW121658   2.477   5.602   0.940
 3209SOL    HW221659   2.622   5.526   0.946
 3210SOL     OW21660   2.721   4.680   0.861
 3210SOL    HW121661   2.775   4.611   0.909
 3210SOL    HW221662   2.689   4.749   0.927
 3211SOL     OW21663   2.945   4.708   0.087
 3211SOL    HW121664   2.922   4.761   0.005
 3211SOL    HW221665   3.026   4.652   0.068
 3212SOL     OW21666   3.723   5.293   0.851
 3212SOL    HW121667   3.652   5.281   0.781
 3212SOL    HW221668   3.724   5.214   0.911
 3213SOL     OW21669   1.941   4.964   0.653
 3213SOL    HW121670   1.940   4.917   0.741
 3213SOL    HW221671   2.023   4.936   0.602
 3214SOL     OW21672   3.686   3.916   1.227
 3214SOL    HW121673   3.682   3.826   1.271
 3214SOL    HW221674   3.689   3.905   1.128
 3215SOL     OW21675   2.290   4.148   0.520
 3215SOL    HW121676   2.320   4.076   0.458
 3215SOL    HW221677   2.251   4.108   0.603
 3216SOL     OW21678   3.567   5.211   1.104
 3216SOL    HW121679   3.474   5.186   1.077
 3216SOL    HW221680   3.593   5.161   1.186
 3217SOL     OW21681   2.179   4.271   1.280
 3217SOL    HW121682   2.217   4.212   1.352
 3217SOL    HW221683   2.219   4.245   1.192
 3218SOL     OW21684   2.674   5.310   0.687
 3218SOL    HW121685   2.706   5.320   0.593
 3218SOL    HW221686   2.595   5.248   0.689
 3219SOL     OW21687   3.286   3.938   1.112
 3219SOL    HW121688   3.338   3.873   1.167
 3219SOL    HW221689   3.237   4.001   1.173
 3220SOL     OW21690   2.863   3.758   1.154
 3220SOL    HW121691   2.800   3.686   1.123
 3220SOL    HW221692   2.956   3.722   1.154
 3221SOL     OW21693   2.632   5.054   0.301
 3221SOL    HW121694   2.586   4.967   0.318
 3221SOL    HW221695   2.723   5.051   0.342
 3222SOL     OW21696   2.480   5.291   1.284
 3222SOL    HW121697   2.475   5.373   1.341
 3222SOL    HW221698   2.569   5.288   1.239
 3223SOL     OW21699   3.214   3.776   0.168
 3223SOL    HW121700   3.249   3.735   0.084
 3223SOL    HW221701   3.124   3.738   0.188
 3224SOL     OW21702   3.162   4.177   0.691
 3224SOL    HW121703   3.103   4.257   0.695
 3224SOL    HW221704   3.177   4.142   0.784
 3225SOL     OW21705   3.455   3.945   0.882
 3225SOL    HW121706   3.371   3.944   0.936
 3225SOL    HW221707   3.457   4.028   0.826
 3226SOL     OW21708   1.901   4.801   0.300
 3226SOL    HW121709   2.000   4.790   0.291
 3226SOL    HW221710   1.861   4.715   0.332
 3227SOL     OW21711   2.737   5.370   0.337
 3227SOL    HW121712   2.660   5.335   0.283
 3227SOL    HW221713   2.705   5.441   0.399
 3228SOL     OW21714   1.881   4.092   2.509
 3228SOL    HW121715   1.799   4.135   2.548
 3228SOL    HW221716   1.853   4.019   2.446
 3229SOL     OW21717   2.431   4.999   3.027
 3229SOL    HW121718   2.338   4.992   2.990
 3229SOL    HW221719   2.442   5.088   3.071
 3230SOL     OW21720   2.997   4.427   2.579
 3230SOL    HW121721   3.054   4.505   2.554
 3230SOL    HW221722   2.937   4.453   2.655
 3231SOL     OW21723   3.617   4.331   2.093
 3231SOL    HW121724   3.605   4.318   1.994
 3231SOL    HW221725   3.587   4.250   2.142
 3232SOL     OW21726   2.630   4.868   2.885
 3232SOL    HW121727   2.552   4.885   2.945
 3232SOL    HW221728   2.664   4.955   2.849
 3233SOL     OW21729   2.300   4.116   3.361
 3233SOL    HW121730   2.382   4.060   3.370
 3233SOL    HW221731   2.219   4.058   3.365
 3234SOL     OW21732   3.465   4.171   2.599
 3234SOL    HW121733   3.391   4.217   2.549
 3234SOL    HW221734   3.516   4.239   2.652
 3235SOL     OW21735   2.093   5.437   2.345
 3235SOL    HW121736   2.127   5.514   2.399
 3235SOL    HW221737   2.137   5.437   2.255
 3236SOL     OW21738   1.975   4.461   3.459
 3236SOL    HW121739   2.063   4.448   3.504
 3236SOL    HW221740   1.962   4.558   3.437
 3237SOL     OW21741   3.155   4.952   3.285
 3237SOL    HW121742   3.192   4.879   3.227
 3237SOL    HW221743   3.207   4.957   3.370
 3238SOL     OW21744   2.669   4.329   3.327
 3238SOL    HW121745   2.622   4.326   3.416
 3238SOL    HW221746   2.618   4.274   3.261
 3239SOL     OW21747   3.256   4.193   3.536
 3239SOL    HW121748   3.236   4.236   3.624
 3239SOL    HW221749   3.334   4.131   3.545
 3240SOL     OW21750   2.853   4.134   3.104
 3240SOL    HW121751   2.776   4.168   3.158
 3240SOL    HW221752   2.819   4.083   3.025
 3241SOL     OW21753   2.903   4.425   2.291
 3241SOL    HW121754   2.929   4.421   2.387
 3241SOL    HW221755   2.818   4.374   2.277
 3242SOL     OW21756   3.657   4.790   2.735
 3242SOL    HW121757   3.595   4.775   2.659
 3242SOL    HW221758   3.605   4.801   2.820
 3243SOL     OW21759   2.183   4.667   2.104
 3243SOL    HW121760   2.265   4.706   2.062
 3243SOL    HW221761   2.156   4.585   2.055
 3244SOL     OW21762   3.494   5.101   1.943
 3244SOL    HW121763   3.462   5.195   1.933
 3244SOL    HW221764   3.418   5.038   1.931
 3245SOL     OW21765   2.643   3.988   3.611
 3245SOL    HW121766   2.710   3.927   3.654
 3245SOL    HW221767   2.570   4.007   3.676
 3246SOL     OW21768   3.296   4.912   1.903
 3246SOL    HW121769   3.328   4.836   1.960
 3246SOL    HW221770   3.204   4.939   1.933
 3247SOL     OW21771   2.159   3.759   2.033
 3247SOL    HW121772   2.208   3.843   2.012
 3247SOL    HW221773   2.221   3.694   2.078
 3248SOL     OW21774   2.797   3.960   2.342
 3248SOL    HW121775   2.749   4.001   2.264
 3248SOL    HW221776   2.896   3.958   2.323
 3249SOL     OW21777   3.291   4.897   2.729
 3249SOL    HW121778   3.236   4.813   2.722
 3249SOL    HW221779   3.317   4.926   2.637
 3250SOL     OW21780   2.350   5.109   2.036
 3250SOL    HW121781   2.263   5.094   2.083
 3250SOL    HW221782   2.333   5.135   1.941
 3251SOL     OW21783   3.616   4.947   3.450
 3251SOL    HW121784   3.707   4.908   3.437
 3251SOL    HW221785   3.624   5.043   3.474
 3252SOL     OW21786   3.454   5.353   3.487
 3252SOL    HW121787   3.481   5.387   3.397
 3252SOL    HW221788   3.533   5.315   3.533
 3253SOL     OW21789   3.500   4.823   2.941
 3253SOL    HW121790   3.505   4.904   3.000
 3253SOL    HW221791   3.414   4.825   2.890
 3254SOL     OW21792   2.842   4.840   3.581
 3254SOL    HW121793   2.743   4.846   3.591
 3254SOL    HW221794   2.865   4.760   3.525
 3255SOL     OW21795   2.272   4.537   3.113
 3255SOL    HW121796   2.358   4.549   3.163
 3255SOL    HW221797   2.230   4.450   3.140
 3256SOL     OW21798   3.136   4.110   3.124
 3256SOL    HW121799   3.157   4.184   3.188
 3256SOL    HW221800   3.047   4.127   3.081
 3257SOL     OW21801   2.229   4.824   2.363
 3257SOL    HW121802   2.222   4.907   2.307
 3257SOL    HW221803   2.233   4.744   2.303
 3258SOL     OW21804   3.134   5.169   3.004
 3258SOL    HW121805   3.181   5.182   3.091
 3258SOL    HW221806   3.068   5.095   3.013
 3259SOL     OW21807   2.264   4.475   3.460
 3259SOL    HW121808   2.332   4.530   3.413
 3259SOL    HW221809   2.304   4.387   3.487
 3260SOL     OW21810   3.222   4.586   2.907
 3260SOL    HW121811   3.147   4.586   2.841
 3260SOL    HW221812   3.259   4.494   2.916
 3261SOL     OW21813   2.594   4.358   2.926
 3261SOL    HW121814   2.653   4.332   2.850
 3261SOL    HW221815   2.566   4.454   2.915
 3262SOL     OW21816   3.484   4.091   2.236
 3262SOL    HW121817   3.486   4.015   2.300
 3262SOL    HW221818   3.436   4.168   2.276
 3263SOL     OW21819   3.721   5.242   3.467
 3263SOL    HW121820   3.735   5.269   3.372
 3263SOL    HW221821   3.804   5.264   3.520
 3264SOL     OW21822   2.212   4.622   3.666
 3264SOL    HW121823   2.288   4.666   3.714
 3264SOL    HW221824   2.247   4.575   3.584
 3265SOL     OW21825   2.930   5.057   2.711
 3265SOL    HW121826   2.937   4.973   2.656
 3265SOL    HW221827   2.992   5.126   2.675
 3266SOL     OW21828   2.051   4.244   3.584
 3266SOL    HW121829   2.110   4.204   3.514
 3266SOL    HW221830   1.993   4.315   3.543
 3267SOL     OW21831   3.231   4.674   3.522
 3267SOL    HW121832   3.270   4.763   3.542
 3267SOL    HW221833   3.241   4.654   3.425
 3268SOL     OW21834   2.677   4.296   2.187
 3268SOL    HW121835   2.684   4.207   2.141
 3268SOL    HW221836   2.583   4.330   2.179
 3269SOL     OW21837   2.021   4.861   3.328
 3269SOL    HW121838   2.043   4.800   3.404
 3269SOL    HW221839   2.031   4.812   3.242
 3270SOL     OW21840   3.114   5.455   2.990
 3270SOL    HW121841   3.198   5.460   2.936
 3270SOL    HW221842   3.091   5.359   3.008
 3271SOL     OW21843   2.550   5.386   3.578
 3271SOL    HW121844   2.494   5.467   3.587
 3271SOL    HW221845   2.602   5.390   3.492
 3272SOL     OW21846   3.250   5.297   2.339
 3272SOL    HW121847   3.317   5.309   2.265
 3272SOL    HW221848   3.210   5.386   2.362
 3273SOL     OW21849   1.992   5.518   3.713
 3273SOL    HW121850   1.951   5.444   3.766
 3273SOL    HW221851   2.056   5.569   3.771
 3274SOL     OW21852   2.692   4.997   3.284
 3274SOL    HW121853   2.687   5.030   3.379
 3274SOL    HW221854   2.606   5.016   3.238
 3275SOL     OW21855   2.117   5.072   2.152
 3275SOL    HW121856   2.021   5.073   2.125
 3275SOL    HW221857   2.129   5.125   2.236
 3276SOL     OW21858   1.934   3.890   2.180
 3276SOL    HW121859   1.917   3.973   2.126
 3276SOL    HW221860   2.024   3.853   2.158
 3277SOL     OW21861   3.355   5.491   2.821
 3277SOL    HW121862   3.388   5.555   2.752
 3277SOL    HW221863   3.421   5.485   2.896
 3278SOL     OW21864   3.312   4.944   3.495
 3278SOL    HW121865   3.303   4.934   3.594
 3278SOL    HW221866   3.408   4.937   3.469
 3279SOL     OW21867   2.721   4.680   2.723
 3279SOL    HW121868   2.775   4.611   2.771
 3279SOL    HW221869   2.689   4.749   2.789
 3280SOL     OW21870   2.534   5.115   3.486
 3280SOL    HW121871   2.456   5.065   3.524
 3280SOL    HW221872   2.531   5.210   3.517
 3281SOL     OW21873   2.290   4.148   2.382
 3281SOL    HW121874   2.320   4.076   2.320
 3281SOL    HW221875   2.251   4.108   2.465
 3282SOL     OW21876   2.674   5.310   2.549
 3282SOL    HW121877   2.706   5.320   2.455
 3282SOL    HW221878   2.595   5.248   2.551
 3283SOL     OW21879   2.087   3.999   4.720
 3283SOL    HW121880   2.122   3.982   4.812
 3283SOL    HW221881   1.999   3.954   4.708
 3284SOL     OW21882   2.431   4.999   4.889
 3284SOL    HW121883   2.338   4.992   4.852
 3284SOL    HW221884   2.442   5.088   4.933
 3285SOL     OW21885   3.417   5.235   4.427
 3285SOL    HW121886   3.360   5.219   4.508
 3285SOL    HW221887   3.358   5.245   4.347
 3286SOL     OW21888   2.630   4.868   4.747
 3286SOL    HW121889   2.552   4.885   4.807
 3286SOL    HW221890   2.664   4.955   4.711
 3287SOL     OW21891   2.712   4.522   5.547
 3287SOL    HW121892   2.708   4.598   5.612
 3287SOL    HW221893   2.734   4.558   5.456
 3288SOL     OW21894   2.547   4.736   4.389
 3288SOL    HW121895   2.616   4.720   4.459
 3288SOL    HW221896   2.474   4.793   4.427
 3289SOL     OW21897   2.197   5.159   4.785
 3289SOL    HW121898   2.119   5.128   4.732
 3289SOL    HW221899   2.255   5.217   4.728
 3290SOL     OW21900   2.482   5.510   5.163
 3290SOL    HW121901   2.390   5.493   5.198
 3290SOL    HW221902   2.510   5.602   5.189
 3291SOL     OW21903   3.456   3.838   5.204
 3291SOL    HW121904   3.438   3.905   5.132
 3291SOL    HW221905   3.453   3.884   5.293
 3292SOL     OW21906   1.984   4.367   4.287
 3292SOL    HW121907   1.939   4.279   4.304
 3292SOL    HW221908   1.983   4.421   4.371
 3293SOL     OW21909   1.889   5.320   3.841
 3293SOL    HW121910   1.870   5.224   3.862
 3293SOL    HW221911   1.856   5.378   3.916
 3294SOL     OW21912   1.975   4.461   5.321
 3294SOL    HW121913   2.063   4.448   5.366
 3294SOL    HW221914   1.962   4.558   5.299
 3295SOL     OW21915   2.671   3.728   4.226
 3295SOL    HW121916   2.711   3.819   4.217
 3295SOL    HW221917   2.571   3.736   4.232
 3296SOL     OW21918   2.059   4.700   4.988
 3296SOL    HW121919   2.148   4.655   4.974
 3296SOL    HW221920   1.986   4.635   4.969
 3297SOL     OW21921   3.387   4.723   3.914
 3297SOL    HW121922   3.324   4.647   3.927
 3297SOL    HW221923   3.435   4.741   4.000
 3298SOL     OW21924   2.460   4.453   3.994
 3298SOL    HW121925   2.484   4.522   3.926
 3298SOL    HW221926   2.382   4.486   4.048
 3299SOL     OW21927   2.669   4.329   5.189
 3299SOL    HW121928   2.622   4.326   5.278
 3299SOL    HW221929   2.618   4.274   5.123
 3300SOL     OW21930   2.903   4.425   4.153
 3300SOL    HW121931   2.929   4.421   4.249
 3300SOL    HW221932   2.818   4.374   4.139
 3301SOL     OW21933   1.938   4.535   4.513
 3301SOL    HW121934   2.037   4.523   4.522
 3301SOL    HW221935   1.914   4.630   4.534
 3302SOL     OW21936   1.992   5.545   5.295
 3302SOL    HW121937   1.982   5.530   5.394
 3302SOL    HW221938   1.906   5.581   5.259
 3303SOL     OW21939   3.657   4.790   4.597
 3303SOL    HW121940   3.595   4.775   4.521
 3303SOL    HW221941   3.605   4.801   4.682
 3304SOL     OW21942   3.494   5.101   3.805
 3304SOL    HW121943   3.462   5.195   3.795
 3304SOL    HW221944   3.418   5.038   3.793
 3305SOL     OW21945   2.244   4.424   4.204
 3305SOL    HW121946   2.289   4.334   4.201
 3305SOL    HW221947   2.150   4.413   4.237
 3306SOL     OW21948   2.476   3.846   3.841
 3306SOL    HW121949   2.574   3.824   3.848
 3306SOL    HW221950   2.445   3.829   3.748
 3307SOL     OW21951   2.938   4.407   5.188
 3307SOL    HW121952   2.858   4.346   5.191
 3307SOL    HW221953   3.019   4.354   5.164
 3308SOL     OW21954   3.089   5.294   4.517
 3308SOL    HW121955   3.110   5.368   4.452
 3308SOL    HW221956   3.157   5.294   4.590
 3309SOL     OW21957   1.940   4.280   5.110
 3309SOL    HW121958   2.032   4.279   5.069
 3309SOL    HW221959   1.934   4.354   5.177
 3310SOL     OW21960   2.423   3.946   4.871
 3310SOL    HW121961   2.461   3.862   4.908
 3310SOL    HW221962   2.335   3.965   4.915
 3311SOL     OW21963   2.879   3.763   4.477
 3311SOL    HW121964   2.807   3.768   4.408
 3311SOL    HW221965   2.855   3.694   4.546
 3312SOL     OW21966   3.328   4.314   4.716
 3312SOL    HW121967   3.298   4.219   4.723
 3312SOL    HW221968   3.401   4.330   4.782
 3313SOL     OW21969   2.350   5.109   3.898
 3313SOL    HW121970   2.263   5.094   3.945
 3313SOL    HW221971   2.333   5.135   3.803
 3314SOL     OW21972   2.389   3.980   4.052
 3314SOL    HW121973   2.416   3.921   3.977
 3314SOL    HW221974   2.389   4.075   4.021
 3315SOL     OW21975   2.926   5.071   5.064
 3315SOL    HW121976   2.846   5.048   5.119
 3315SOL    HW221977   3.009   5.045   5.113
 3316SOL     OW21978   3.500   4.823   4.803
 3316SOL    HW121979   3.505   4.904   4.862
 3316SOL    HW221980   3.414   4.825   4.752
 3317SOL     OW21981   2.567   4.774   4.092
 3317SOL    HW121982   2.553   4.781   4.191
 3317SOL    HW221983   2.651   4.723   4.074
 3318SOL     OW21984   3.444   4.363   4.196
 3318SOL    HW121985   3.413   4.424   4.269
 3318SOL    HW221986   3.494   4.415   4.127
 3319SOL     OW21987   2.216   5.234   5.053
 3319SOL    HW121988   2.195   5.190   4.966
 3319SOL    HW221989   2.313   5.260   5.056
 3320SOL     OW21990   2.875   3.829   5.494
 3320SOL    HW121991   2.881   3.914   5.442
 3320SOL    HW221992   2.907   3.753   5.437
 3321SOL     OW21993   2.594   4.358   4.788
 3321SOL    HW121994   2.653   4.332   4.712
 3321SOL    HW221995   2.566   4.454   4.777
 3322SOL     OW21996   3.484   4.091   4.098
 3322SOL    HW121997   3.486   4.015   4.162
 3322SOL    HW221998   3.436   4.168   4.138
 3323SOL     OW21999   2.212   4.622   5.528
 3323SOL    HW122000   2.288   4.666   5.576
 3323SOL    HW222001   2.247   4.575   5.446
 3324SOL     OW22002   2.930   5.057   4.573
 3324SOL    HW122003   2.937   4.973   4.518
 3324SOL    HW222004   2.992   5.126   4.537
 3325SOL     OW22005   3.000   4.104   5.402
 3325SOL    HW122006   2.955   4.167   5.466
 3325SOL    HW222007   3.093   4.135   5.385
 3326SOL     OW22008   1.870   5.050   3.924
 3326SOL    HW122009   1.777   5.071   3.893
 3326SOL    HW222010   1.880   4.951   3.937
 3327SOL     OW22011   1.950   5.525   4.651
 3327SOL    HW122012   1.908   5.439   4.624
 3327SOL    HW222013   2.044   5.528   4.617
 3328SOL     OW22014   2.051   4.244   5.446
 3328SOL    HW122015   2.110   4.204   5.376
 3328SOL    HW222016   1.993   4.315   5.405
 3329SOL     OW22017   3.519   4.328   4.930
 3329SOL    HW122018   3.481   4.259   4.992
 3329SOL    HW222019   3.601   4.292   4.886
 3330SOL     OW22020   2.114   5.288   5.468
 3330SOL    HW122021   2.084   5.345   5.544
 3330SOL    HW222022   2.107   5.191   5.494
 3331SOL     OW22023   2.335   4.224   3.915
 3331SOL    HW122024   2.396   4.304   3.919
 3331SOL    HW222025   2.240   4.255   3.922
 3332SOL     OW22026   2.021   4.861   5.190
 3332SOL    HW122027   2.043   4.800   5.266
 3332SOL    HW222028   2.031   4.812   5.104
 3333SOL     OW22029   3.114   5.455   4.852
 3333SOL    HW122030   3.198   5.460   4.798
 3333SOL    HW222031   3.091   5.359   4.870
 3334SOL     OW22032   1.945   4.982   4.746
 3334SOL    HW122033   1.940   4.981   4.846
 3334SOL    HW222034   1.862   4.941   4.708
 3335SOL     OW22035   3.250   5.297   4.201
 3335SOL    HW122036   3.317   5.309   4.127
 3335SOL    HW222037   3.210   5.386   4.224
 3336SOL     OW22038   1.992   5.518   5.575
 3336SOL    HW122039   1.951   5.444   5.628
 3336SOL    HW222040   2.056   5.569   5.633
 3337SOL     OW22041   3.142   4.651   4.396
 3337SOL    HW122042   3.202   4.570   4.398
 3337SOL    HW222043   3.182   4.720   4.336
 3338SOL     OW22044   2.534   5.340   3.878
 3338SOL    HW122045   2.543   5.350   3.779
 3338SOL    HW222046   2.494   5.251   3.899
 3339SOL     OW22047   2.125   4.050   4.444
 3339SOL    HW122048   2.046   4.101   4.410
 3339SOL    HW222049   2.116   4.035   4.542
 3340SOL     OW22050   2.684   4.726   5.096
 3340SOL    HW122051   2.724   4.725   5.004
 3340SOL    HW222052   2.694   4.818   5.136
 3341SOL     OW22053   2.234   5.012   5.214
 3341SOL    HW122054   2.221   5.105   5.180
 3341SOL    HW222055   2.150   4.960   5.201
 3342SOL     OW22056   1.967   4.737   5.450
 3342SOL    HW122057   1.890   4.704   5.504
 3342SOL    HW222058   2.052   4.707   5.492
 3343SOL     OW22059   1.934   3.890   4.042
 3343SOL    HW122060   1.917   3.973   3.988
 3343SOL    HW222061   2.024   3.853   4.020
 3344SOL     OW22062   3.355   5.491   4.683
 3344SOL    HW122063   3.388   5.555   4.614
 3344SOL    HW222064   3.421   5.485   4.758
 3345SOL     OW22065   2.252   5.465   5.284
 3345SOL    HW122066   2.161   5.506   5.282
 3345SOL    HW222067   2.245   5.371   5.316
 3346SOL     OW22068   3.536   4.607   4.978
 3346SOL    HW122069   3.509   4.518   4.941
 3346SOL    HW222070   3.537   4.675   4.905
 3347SOL     OW22071   3.087   4.049   4.173
 3347SOL    HW122072   3.152   3.975   4.162
 3347SOL    HW222073   3.107   4.099   4.257
 3348SOL     OW22074   2.721   5.098   3.740
 3348SOL    HW122075   2.675   5.113   3.828
 3348SOL    HW222076   2.765   5.183   3.710
 3349SOL     OW22077   2.083   5.038   5.568
 3349SOL    HW122078   2.018   4.965   5.547
 3349SOL    HW222079   2.087   5.052   5.666
 3350SOL     OW22080   1.941   4.964   4.377
 3350SOL    HW122081   1.940   4.917   4.465
 3350SOL    HW222082   2.023   4.936   4.326
 3351SOL     OW22083   2.290   4.148   4.244
 3351SOL    HW122084   2.320   4.076   4.182
 3351SOL    HW222085   2.251   4.108   4.327
 3352SOL     OW22086   3.567   5.211   4.828
 3352SOL    HW122087   3.474   5.186   4.801
 3352SOL    HW222088   3.593   5.161   4.910
 3353SOL     OW22089   1.901   4.801   4.024
 3353SOL    HW122090   2.000   4.790   4.015
 3353SOL    HW222091   1.861   4.715   4.056
 3354SOL     OW22092   2.087   3.999   6.582
 3354SOL    HW122093   2.122   3.982   6.674
 3354SOL    HW222094   1.999   3.954   6.570
 3355SOL     OW22095   1.881   4.092   6.233
 3355SOL    HW122096   1.799   4.135   6.272
 3355SOL    HW222097   1.853   4.019   6.170
 3356SOL     OW22098   2.431   4.999   6.751
 3356SOL    HW122099   2.338   4.992   6.714
 3356SOL    HW222100   2.442   5.088   6.795
 3357SOL     OW22101   2.997   4.427   6.303
 3357SOL    HW122102   3.054   4.505   6.278
 3357SOL    HW222103   2.937   4.453   6.379
 3358SOL     OW22104   3.617   4.331   5.817
 3358SOL    HW122105   3.605   4.318   5.718
 3358SOL    HW222106   3.587   4.250   5.866
 3359SOL     OW22107   2.630   4.868   6.609
 3359SOL    HW122108   2.552   4.885   6.669
 3359SOL    HW222109   2.664   4.955   6.573
 3360SOL     OW22110   2.547   4.736   6.251
 3360SOL    HW122111   2.616   4.720   6.321
 3360SOL    HW222112   2.474   4.793   6.289
 3361SOL     OW22113   2.197   5.159   6.647
 3361SOL    HW122114   2.119   5.128   6.594
 3361SOL    HW222115   2.255   5.217   6.590
 3362SOL     OW22116   2.093   5.437   6.069
 3362SOL    HW122117   2.127   5.514   6.123
 3362SOL    HW222118   2.137   5.437   5.979
 3363SOL     OW22119   2.092   5.158   6.124
 3363SOL    HW122120   2.066   5.254   6.124
 3363SOL    HW222121   2.021   5.104   6.169
 3364SOL     OW22122   2.102   4.815   6.472
 3364SOL    HW122123   2.116   4.731   6.524
 3364SOL    HW222124   2.047   4.879   6.527
 3365SOL     OW22125   2.482   5.510   7.025
 3365SOL    HW122126   2.390   5.493   7.060
 3365SOL    HW222127   2.510   5.602   7.051
 3366SOL     OW22128   2.468   4.688   5.709
 3366SOL    HW122129   2.475   4.772   5.655
 3366SOL    HW222130   2.514   4.701   5.797
 3367SOL     OW22131   1.984   4.367   6.149
 3367SOL    HW122132   1.939   4.279   6.166
 3367SOL    HW222133   1.983   4.421   6.233
 3368SOL     OW22134   3.704   5.491   5.945
 3368SOL    HW122135   3.758   5.462   6.025
 3368SOL    HW222136   3.734   5.581   5.916
 3369SOL     OW22137   1.889   5.320   5.703
 3369SOL    HW122138   1.870   5.224   5.724
 3369SOL    HW222139   1.856   5.378   5.778
 3370SOL     OW22140   3.551   4.646   6.198
 3370SOL    HW122141   3.646   4.617   6.206
 3370SOL    HW222142   3.543   4.711   6.123
 3371SOL     OW22143   3.503   4.832   6.018
 3371SOL    HW122144   3.589   4.834   5.966
 3371SOL    HW222145   3.517   4.879   6.106
 3372SOL     OW22146   2.475   5.089   6.312
 3372SOL    HW122147   2.426   5.002   6.321
 3372SOL    HW222148   2.452   5.132   6.225
 3373SOL     OW22149   2.671   3.728   6.088
 3373SOL    HW122150   2.711   3.819   6.079
 3373SOL    HW222151   2.571   3.736   6.094
 3374SOL     OW22152   3.529   5.438   6.158
 3374SOL    HW122153   3.488   5.415   6.070
 3374SOL    HW222154   3.511   5.364   6.223
 3375SOL     OW22155   2.460   4.453   5.856
 3375SOL    HW122156   2.484   4.522   5.788
 3375SOL    HW222157   2.382   4.486   5.910
 3376SOL     OW22158   3.143   4.069   6.530
 3376SOL    HW122159   3.057   4.019   6.517
 3376SOL    HW222160   3.205   4.015   6.586
 3377SOL     OW22161   3.438   5.386   5.893
 3377SOL    HW122162   3.527   5.432   5.896
 3377SOL    HW222163   3.417   5.362   5.798
 3378SOL     OW22164   2.853   4.134   6.828
 3378SOL    HW122165   2.776   4.168   6.882
 3378SOL    HW222166   2.819   4.083   6.749
 3379SOL     OW22167   2.903   4.425   6.015
 3379SOL    HW122168   2.929   4.421   6.111
 3379SOL    HW222169   2.818   4.374   6.001
 3380SOL     OW22170   2.727   4.072   5.781
 3380SOL    HW122171   2.786   4.135   5.732
 3380SOL    HW222172   2.746   3.978   5.752
 3381SOL     OW22173   3.224   4.868   6.131
 3381SOL    HW122174   3.307   4.839   6.083
 3381SOL    HW222175   3.175   4.935   6.075
 3382SOL     OW22176   2.412   3.920   6.471
 3382SOL    HW122177   2.407   3.915   6.571
 3382SOL    HW222178   2.414   4.016   6.442
 3383SOL     OW22179   2.870   5.180   6.063
 3383SOL    HW122180   2.824   5.252   6.011
 3383SOL    HW222181   2.866   5.200   6.161
 3384SOL     OW22182   2.213   5.525   6.439
 3384SOL    HW122183   2.263   5.439   6.445
 3384SOL    HW222184   2.278   5.602   6.436
 3385SOL     OW22185   3.657   4.790   6.459
 3385SOL    HW122186   3.595   4.775   6.383
 3385SOL    HW222187   3.605   4.801   6.544
 3386SOL     OW22188   2.183   4.667   5.828
 3386SOL    HW122189   2.265   4.706   5.786
 3386SOL    HW222190   2.156   4.585   5.779
 3387SOL     OW22191   3.320   4.459   6.314
 3387SOL    HW122192   3.315   4.394   6.389
 3387SOL    HW222193   3.400   4.518   6.327
 3388SOL     OW22194   2.973   5.500   5.823
 3388SOL    HW122195   2.913   5.438   5.873
 3388SOL    HW222196   3.004   5.456   5.738
 3389SOL     OW22197   3.494   5.101   5.667
 3389SOL    HW122198   3.462   5.195   5.657
 3389SOL    HW222199   3.418   5.038   5.655
 3390SOL     OW22200   2.326   5.467   5.909
 3390SOL    HW122201   2.359   5.506   5.995
 3390SOL    HW222202   2.402   5.460   5.844
 3391SOL     OW22203   3.262   3.831   6.012
 3391SOL    HW122204   3.238   3.794   5.922
 3391SOL    HW222205   3.361   3.847   6.016
 3392SOL     OW22206   2.111   5.509   6.827
 3392SOL    HW122207   2.168   5.444   6.877
 3392SOL    HW222208   2.095   5.476   6.734
 3393SOL     OW22209   2.244   4.424   6.066
 3393SOL    HW122210   2.289   4.334   6.063
 3393SOL    HW222211   2.150   4.413   6.099
 3394SOL     OW22212   2.476   3.846   5.703
 3394SOL    HW122213   2.574   3.824   5.710
 3394SOL    HW222214   2.445   3.829   5.610
 3395SOL     OW22215   2.665   5.126   6.510
 3395SOL    HW122216   2.755   5.140   6.468
 3395SOL    HW222217   2.594   5.128   6.439
 3396SOL     OW22218   2.784   4.227   6.485
 3396SOL    HW122219   2.759   4.218   6.389
 3396SOL    HW222220   2.832   4.145   6.516
 3397SOL     OW22221   2.401   3.788   6.098
 3397SOL    HW122222   2.320   3.789   6.156
 3397SOL    HW222223   2.404   3.871   6.043
 3398SOL     OW22224   2.159   3.759   5.757
 3398SOL    HW122225   2.208   3.843   5.736
 3398SOL    HW222226   2.221   3.694   5.802
 3399SOL     OW22227   2.797   3.960   6.066
 3399SOL    HW122228   2.749   4.001   5.988
 3399SOL    HW222229   2.896   3.958   6.047
 3400SOL     OW22230   2.321   4.876   6.327
 3400SOL    HW122231   2.250   4.849   6.392
 3400SOL    HW222232   2.295   4.848   6.234
 3401SOL     OW22233   3.133   5.521   6.177
 3401SOL    HW122234   3.177   5.585   6.113
 3401SOL    HW222235   3.083   5.573   6.247
 3402SOL     OW22236   2.894   4.273   5.602
 3402SOL    HW122237   2.853   4.355   5.563
 3402SOL    HW222238   2.958   4.299   5.675
 3403SOL     OW22239   2.423   3.946   6.733
 3403SOL    HW122240   2.461   3.862   6.770
 3403SOL    HW222241   2.335   3.965   6.777
 3404SOL     OW22242   2.728   4.178   6.228
 3404SOL    HW122243   2.696   4.250   6.166
 3404SOL    HW222244   2.752   4.097   6.175
 3405SOL     OW22245   2.879   3.763   6.339
 3405SOL    HW122246   2.807   3.768   6.270
 3405SOL    HW222247   2.855   3.694   6.408
 3406SOL     OW22248   3.291   4.897   6.453
 3406SOL    HW122249   3.236   4.813   6.446
 3406SOL    HW222250   3.317   4.926   6.361
 3407SOL     OW22251   3.328   4.314   6.578
 3407SOL    HW122252   3.298   4.219   6.585
 3407SOL    HW222253   3.401   4.330   6.644
 3408SOL     OW22254   3.719   4.557   5.963
 3408SOL    HW122255   3.761   4.493   6.027
 3408SOL    HW222256   3.681   4.506   5.885
 3409SOL     OW22257   3.526   5.004   6.243
 3409SOL    HW122258   3.625   5.012   6.257
 3409SOL    HW222259   3.481   5.088   6.274
 3410SOL     OW22260   3.252   4.299   5.664
 3410SOL    HW122261   3.198   4.278   5.745
 3410SOL    HW222262   3.343   4.258   5.673
 3411SOL     OW22263   2.389   3.980   5.914
 3411SOL    HW122264   2.416   3.921   5.839
 3411SOL    HW222265   2.389   4.075   5.883
 3412SOL     OW22266   2.973   4.919   6.686
 3412SOL    HW122267   2.933   4.963   6.767
 3412SOL    HW222268   2.932   4.956   6.603
 3413SOL     OW22269   3.500   4.823   6.665
 3413SOL    HW122270   3.505   4.904   6.724
 3413SOL    HW222271   3.414   4.825   6.614
 3414SOL     OW22272   2.567   4.774   5.954
 3414SOL    HW122273   2.553   4.781   6.053
 3414SOL    HW222274   2.651   4.723   5.936
 3415SOL     OW22275   3.136   4.110   6.848
 3415SOL    HW122276   3.157   4.184   6.912
 3415SOL    HW222277   3.047   4.127   6.805
 3416SOL     OW22278   2.229   4.824   6.087
 3416SOL    HW122279   2.222   4.907   6.031
 3416SOL    HW222280   2.233   4.744   6.027
 3417SOL     OW22281   2.428   4.261   6.451
 3417SOL    HW122282   2.440   4.327   6.377
 3417SOL    HW222283   2.474   4.295   6.534
 3418SOL     OW22284   3.114   5.072   5.974
 3418SOL    HW122285   3.164   5.149   6.014
 3418SOL    HW222286   3.019   5.074   6.006
 3419SOL     OW22287   3.134   5.169   6.728
 3419SOL    HW122288   3.181   5.182   6.815
 3419SOL    HW222289   3.068   5.095   6.737
 3420SOL     OW22290   3.444   4.363   6.058
 3420SOL    HW122291   3.413   4.424   6.131
 3420SOL    HW222292   3.494   4.415   5.989
 3421SOL     OW22293   2.216   5.234   6.915
 3421SOL    HW122294   2.195   5.190   6.828
 3421SOL    HW222295   2.313   5.260   6.918
 3422SOL     OW22296   2.435   4.594   6.615
 3422SOL    HW122297   2.479   4.683   6.606
 3422SOL    HW222298   2.372   4.594   6.692
 3423SOL     OW22299   3.222   4.586   6.631
 3423SOL    HW122300   3.147   4.586   6.565
 3423SOL    HW222301   3.259   4.494   6.640
 3424SOL     OW22302   2.169   3.937   6.817
 3424SOL    HW122303   2.146   3.974   6.907
 3424SOL    HW222304   2.139   3.842   6.811
 3425SOL     OW22305   1.899   5.034   6.868
 3425SOL    HW122306   1.952   4.985   6.936
 3425SOL    HW222307   1.921   5.132   6.873
 3426SOL     OW22308   2.594   4.358   6.650
 3426SOL    HW122309   2.653   4.332   6.574
 3426SOL    HW222310   2.566   4.454   6.639
 3427SOL     OW22311   2.169   3.787   6.204
 3427SOL    HW122312   2.158   3.881   6.237
 3427SOL    HW222313   2.164   3.724   6.281
 3428SOL     OW22314   2.885   4.490   6.552
 3428SOL    HW122315   2.900   4.511   6.648
 3428SOL    HW222316   2.855   4.395   6.543
 3429SOL     OW22317   2.930   5.057   6.435
 3429SOL    HW122318   2.937   4.973   6.380
 3429SOL    HW222319   2.992   5.126   6.399
 3430SOL     OW22320   2.201   4.233   6.592
 3430SOL    HW122321   2.149   4.150   6.575
 3430SOL    HW222322   2.278   4.238   6.528
 3431SOL     OW22323   3.022   3.931   7.063
 3431SOL    HW122324   3.022   3.995   7.140
 3431SOL    HW222325   3.050   3.979   6.980
 3432SOL     OW22326   1.870   5.050   5.786
 3432SOL    HW122327   1.777   5.071   5.755
 3432SOL    HW222328   1.880   4.951   5.799
 3433SOL     OW22329   1.950   5.525   6.513
 3433SOL    HW122330   1.908   5.439   6.486
 3433SOL    HW222331   2.044   5.528   6.479
 3434SOL     OW22332   2.366   5.292   6.496
 3434SOL    HW122333   2.432   5.366   6.505
 3434SOL    HW222334   2.410   5.213   6.454
 3435SOL     OW22335   2.864   4.520   6.824
 3435SOL    HW122336   2.905   4.488   6.910
 3435SOL    HW222337   2.768   4.493   6.821
 3436SOL     OW22338   2.677   4.296   5.911
 3436SOL    HW122339   2.684   4.207   5.865
 3436SOL    HW222340   2.583   4.330   5.903
 3437SOL     OW22341   3.519   4.328   6.792
 3437SOL    HW122342   3.481   4.259   6.854
 3437SOL    HW222343   3.601   4.292   6.748
 3438SOL     OW22344   2.533   4.188   6.855
 3438SOL    HW122345   2.499   4.099   6.825
 3438SOL    HW222346   2.559   4.242   6.775
 3439SOL     OW22347   2.792   5.402   7.051
 3439SOL    HW122348   2.768   5.384   6.956
 3439SOL    HW222349   2.822   5.496   7.061
 3440SOL     OW22350   3.209   4.783   6.820
 3440SOL    HW122351   3.233   4.720   6.746
 3440SOL    HW222352   3.119   4.823   6.802
 3441SOL     OW22353   3.164   4.579   5.895
 3441SOL    HW122354   3.078   4.548   5.937
 3441SOL    HW222355   3.160   4.565   5.796
 3442SOL     OW22356   3.114   5.455   6.714
 3442SOL    HW122357   3.198   5.460   6.660
 3442SOL    HW222358   3.091   5.359   6.732
 3443SOL     OW22359   1.945   4.982   6.608
 3443SOL    HW122360   1.940   4.981   6.708
 3443SOL    HW222361   1.862   4.941   6.570
 3444SOL     OW22362   3.588   3.859   6.109
 3444SOL    HW122363   3.661   3.842   6.042
 3444SOL    HW222364   3.557   3.772   6.147
 3445SOL     OW22365   3.250   5.297   6.063
 3445SOL    HW122366   3.317   5.309   5.989
 3445SOL    HW222367   3.210   5.386   6.086
 3446SOL     OW22368   3.142   4.651   6.258
 3446SOL    HW122369   3.202   4.570   6.260
 3446SOL    HW222370   3.182   4.720   6.198
 3447SOL     OW22371   2.534   5.340   5.740
 3447SOL    HW122372   2.543   5.350   5.641
 3447SOL    HW222373   2.494   5.251   5.761
 3448SOL     OW22374   3.512   5.444   6.980
 3448SOL    HW122375   3.565   5.454   6.896
 3448SOL    HW222376   3.485   5.534   7.014
 3449SOL     OW22377   2.125   4.050   6.306
 3449SOL    HW122378   2.046   4.101   6.272
 3449SOL    HW222379   2.116   4.035   6.404
 3450SOL     OW22380   3.056   5.336   5.617
 3450SOL    HW122381   3.062   5.243   5.654
 3450SOL    HW222382   2.997   5.336   5.537
 3451SOL     OW22383   2.684   4.726   6.958
 3451SOL    HW122384   2.724   4.725   6.866
 3451SOL    HW222385   2.694   4.818   6.998
 3452SOL     OW22386   2.778   4.634   5.877
 3452SOL    HW122387   2.841   4.672   5.809
 3452SOL    HW222388   2.818   4.551   5.916
 3453SOL     OW22389   3.366   5.331   5.630
 3453SOL    HW122390   3.274   5.368   5.637
 3453SOL    HW222391   3.404   5.351   5.540
 3454SOL     OW22392   2.901   4.822   6.282
 3454SOL    HW122393   2.831   4.775   6.336
 3454SOL    HW222394   2.960   4.754   6.239
 3455SOL     OW22395   2.876   3.960   6.557
 3455SOL    HW122396   2.868   3.924   6.464
 3455SOL    HW222397   2.874   3.884   6.622
 3456SOL     OW22398   2.452   5.211   6.077
 3456SOL    HW122399   2.494   5.153   6.007
 3456SOL    HW222400   2.408   5.290   6.033
 3457SOL     OW22401   3.571   4.109   6.967
 3457SOL    HW122402   3.644   4.178   6.971
 3457SOL    HW222403   3.599   4.034   6.908
 3458SOL     OW22404   2.117   5.072   5.876
 3458SOL    HW122405   2.021   5.073   5.849
 3458SOL    HW222406   2.129   5.125   5.960
 3459SOL     OW22407   1.937   4.069   5.619
 3459SOL    HW122408   1.845   4.041   5.590
 3459SOL    HW222409   1.968   4.146   5.563
 3460SOL     OW22410   1.934   3.890   5.904
 3460SOL    HW122411   1.917   3.973   5.850
 3460SOL    HW222412   2.024   3.853   5.882
 3461SOL     OW22413   3.045   5.059   5.705
 3461SOL    HW122414   2.946   5.048   5.707
 3461SOL    HW222415   3.079   5.074   5.798
 3462SOL     OW22416   3.312   4.944   7.219
 3462SOL    HW122417   3.303   4.934   7.318
 3462SOL    HW222418   3.408   4.937   7.193
 3463SOL     OW22419   3.536   4.607   6.840
 3463SOL    HW122420   3.509   4.518   6.803
 3463SOL    HW222421   3.537   4.675   6.767
 3464SOL     OW22422   2.456   4.469   6.238
 3464SOL    HW122423   2.506   4.554   6.219
 3464SOL    HW222424   2.368   4.471   6.190
 3465SOL     OW22425   3.592   4.658   7.103
 3465SOL    HW122426   3.630   4.749   7.118
 3465SOL    HW222427   3.584   4.641   7.004
 3466SOL     OW22428   2.721   5.098   5.602
 3466SOL    HW122429   2.675   5.113   5.690
 3466SOL    HW222430   2.765   5.183   5.572
 3467SOL     OW22431   2.523   5.514   6.539
 3467SOL    HW122432   2.477   5.602   6.526
 3467SOL    HW222433   2.622   5.526   6.532
 3468SOL     OW22434   2.721   4.680   6.447
 3468SOL    HW122435   2.775   4.611   6.495
 3468SOL    HW222436   2.689   4.749   6.513
 3469SOL     OW22437   2.945   4.708   5.673
 3469SOL    HW122438   2.922   4.761   5.591
 3469SOL    HW222439   3.026   4.652   5.654
 3470SOL     OW22440   1.941   4.964   6.239
 3470SOL    HW122441   1.940   4.917   6.327
 3470SOL    HW222442   2.023   4.936   6.188
 3471SOL     OW22443   3.686   3.916   6.813
 3471SOL    HW122444   3.682   3.826   6.857
 3471SOL    HW222445   3.689   3.905   6.714
 3472SOL     OW22446   2.290   4.148   6.106
 3472SOL    HW122447   2.320   4.076   6.044
 3472SOL    HW222448   2.251   4.108   6.189
 3473SOL     OW22449   2.674   5.310   6.273
 3473SOL    HW122450   2.706   5.320   6.179
 3473SOL    HW222451   2.595   5.248   6.275
 3474SOL     OW22452   3.286   3.938   6.698
 3474SOL    HW122453   3.338   3.873   6.753
 3474SOL    HW222454   3.237   4.001   6.759
 3475SOL     OW22455   2.863   3.758   6.740
 3475SOL    HW122456   2.800   3.686   6.709
 3475SOL    HW222457   2.956   3.722   6.740
 3476SOL     OW22458   2.632   5.054   5.887
 3476SOL    HW122459   2.586   4.967   5.904
 3476SOL    HW222460   2.723   5.051   5.928
 3477SOL     OW22461   3.214   3.776   5.754
 3477SOL    HW122462   3.249   3.735   5.670
 3477SOL    HW222463   3.124   3.738   5.774
 3478SOL     OW22464   3.162   4.177   6.277
 3478SOL    HW122465   3.103   4.257   6.281
 3478SOL    HW222466   3.177   4.142   6.370
 3479SOL     OW22467   1.901   4.801   5.886
 3479SOL    HW122468   2.000   4.790   5.877
 3479SOL    HW222469   1.861   4.715   5.918
 3480SOL     OW22470   2.737   5.370   5.923
 3480SOL    HW122471   2.660   5.335   5.869
 3480SOL    HW222472   2.705   5.441   5.985
 3481SOL     OW22473   2.092   6.214   0.113
 3481SOL    HW122474   1.999   6.212   0.150
 3481SOL    HW222475   2.093   6.175   0.021
 3482SOL     OW22476   1.881   5.954   0.647
 3482SOL    HW122477   1.799   5.997   0.686
 3482SOL    HW222478   1.853   5.881   0.584
 3483SOL     OW22479   3.417   7.097   0.703
 3483SOL    HW122480   3.360   7.081   0.784
 3483SOL    HW222481   3.358   7.107   0.623
 3484SOL     OW22482   2.997   6.289   0.717
 3484SOL    HW122483   3.054   6.367   0.692
 3484SOL    HW222484   2.937   6.315   0.793
 3485SOL     OW22485   2.630   6.730   1.023
 3485SOL    HW122486   2.552   6.747   1.083
 3485SOL    HW222487   2.664   6.817   0.987
 3486SOL     OW22488   2.547   6.598   0.665
 3486SOL    HW122489   2.616   6.582   0.735
 3486SOL    HW222490   2.474   6.655   0.703
 3487SOL     OW22491   2.197   7.021   1.061
 3487SOL    HW122492   2.119   6.990   1.008
 3487SOL    HW222493   2.255   7.079   1.004
 3488SOL     OW22494   3.322   7.091   1.339
 3488SOL    HW122495   3.346   7.185   1.365
 3488SOL    HW222496   3.306   7.037   1.421
 3489SOL     OW22497   2.300   5.978   1.499
 3489SOL    HW122498   2.382   5.922   1.508
 3489SOL    HW222499   2.219   5.920   1.503
 3490SOL     OW22500   3.465   6.033   0.737
 3490SOL    HW122501   3.391   6.079   0.687
 3490SOL    HW222502   3.516   6.101   0.790
 3491SOL     OW22503   2.093   7.299   0.483
 3491SOL    HW122504   2.127   7.376   0.537
 3491SOL    HW222505   2.137   7.299   0.393
 3492SOL     OW22506   2.092   7.020   0.538
 3492SOL    HW122507   2.066   7.116   0.538
 3492SOL    HW222508   2.021   6.966   0.583
 3493SOL     OW22509   2.468   6.550   0.123
 3493SOL    HW122510   2.475   6.634   0.069
 3493SOL    HW222511   2.514   6.563   0.211
 3494SOL     OW22512   3.456   5.700   1.480
 3494SOL    HW122513   3.438   5.767   1.408
 3494SOL    HW222514   3.453   5.746   1.569
 3495SOL     OW22515   1.984   6.229   0.563
 3495SOL    HW122516   1.939   6.141   0.580
 3495SOL    HW222517   1.983   6.283   0.647
 3496SOL     OW22518   3.704   7.353   0.359
 3496SOL    HW122519   3.758   7.324   0.439
 3496SOL    HW222520   3.734   7.443   0.330
 3497SOL     OW22521   1.889   7.182   0.117
 3497SOL    HW122522   1.870   7.086   0.138
 3497SOL    HW222523   1.856   7.240   0.192
 3498SOL     OW22524   3.551   6.508   0.612
 3498SOL    HW122525   3.646   6.479   0.620
 3498SOL    HW222526   3.543   6.573   0.537
 3499SOL     OW22527   3.503   6.694   0.432
 3499SOL    HW122528   3.589   6.696   0.380
 3499SOL    HW222529   3.517   6.741   0.520
 3500SOL     OW22530   1.975   6.323   1.597
 3500SOL    HW122531   2.063   6.310   1.642
 3500SOL    HW222532   1.962   6.420   1.575
 3501SOL     OW22533   2.475   6.951   0.726
 3501SOL    HW122534   2.426   6.864   0.735
 3501SOL    HW222535   2.452   6.994   0.639
 3502SOL     OW22536   3.155   6.814   1.423
 3502SOL    HW122537   3.192   6.741   1.365
 3502SOL    HW222538   3.207   6.819   1.508
 3503SOL     OW22539   2.671   5.590   0.502
 3503SOL    HW122540   2.711   5.681   0.493
 3503SOL    HW222541   2.571   5.598   0.508
 3504SOL     OW22542   3.387   6.585   0.190
 3504SOL    HW122543   3.324   6.509   0.203
 3504SOL    HW222544   3.435   6.603   0.276
 3505SOL     OW22545   3.049   7.378   1.616
 3505SOL    HW122546   3.073   7.438   1.540
 3505SOL    HW222547   3.056   7.283   1.586
 3506SOL     OW22548   3.328   7.003   0.953
 3506SOL    HW122549   3.269   7.009   1.033
 3506SOL    HW222550   3.313   6.915   0.907
 3507SOL     OW22551   3.529   7.300   0.572
 3507SOL    HW122552   3.488   7.277   0.484
 3507SOL    HW222553   3.511   7.226   0.637
 3508SOL     OW22554   2.460   6.315   0.270
 3508SOL    HW122555   2.484   6.384   0.202
 3508SOL    HW222556   2.382   6.348   0.324
 3509SOL     OW22557   3.143   5.931   0.944
 3509SOL    HW122558   3.057   5.881   0.931
 3509SOL    HW222559   3.205   5.877   1.000
 3510SOL     OW22560   3.438   7.248   0.307
 3510SOL    HW122561   3.527   7.294   0.310
 3510SOL    HW222562   3.417   7.224   0.212
 3511SOL     OW22563   2.853   5.996   1.242
 3511SOL    HW122564   2.776   6.030   1.296
 3511SOL    HW222565   2.819   5.945   1.163
 3512SOL     OW22566   2.903   6.287   0.429
 3512SOL    HW122567   2.929   6.283   0.525
 3512SOL    HW222568   2.818   6.236   0.415
 3513SOL     OW22569   2.727   5.934   0.195
 3513SOL    HW122570   2.786   5.997   0.146
 3513SOL    HW222571   2.746   5.840   0.166
 3514SOL     OW22572   3.224   6.730   0.545
 3514SOL    HW122573   3.307   6.701   0.497
 3514SOL    HW222574   3.175   6.797   0.489
 3515SOL     OW22575   2.213   7.387   0.853
 3515SOL    HW122576   2.263   7.301   0.859
 3515SOL    HW222577   2.278   7.464   0.850
 3516SOL     OW22578   3.657   6.652   0.873
 3516SOL    HW122579   3.595   6.637   0.797
 3516SOL    HW222580   3.605   6.663   0.958
 3517SOL     OW22581   3.089   7.136   1.506
 3517SOL    HW122582   3.095   7.059   1.570
 3517SOL    HW222583   3.037   7.110   1.426
 3518SOL     OW22584   2.183   6.529   0.242
 3518SOL    HW122585   2.265   6.568   0.200
 3518SOL    HW222586   2.156   6.447   0.193
 3519SOL     OW22587   3.320   6.321   0.728
 3519SOL    HW122588   3.315   6.256   0.803
 3519SOL    HW222589   3.400   6.380   0.741
 3520SOL     OW22590   3.494   6.963   0.081
 3520SOL    HW122591   3.462   7.057   0.071
 3520SOL    HW222592   3.418   6.900   0.069
 3521SOL     OW22593   2.326   7.329   0.323
 3521SOL    HW122594   2.359   7.368   0.409
 3521SOL    HW222595   2.402   7.322   0.258
 3522SOL     OW22596   2.111   7.371   1.241
 3522SOL    HW122597   2.168   7.306   1.291
 3522SOL    HW222598   2.095   7.338   1.148
 3523SOL     OW22599   2.802   7.284   0.904
 3523SOL    HW122600   2.882   7.227   0.925
 3523SOL    HW222601   2.753   7.244   0.827
 3524SOL     OW22602   3.409   5.808   1.729
 3524SOL    HW122603   3.404   5.845   1.821
 3524SOL    HW222604   3.337   5.739   1.717
 3525SOL     OW22605   2.750   7.100   1.195
 3525SOL    HW122606   2.727   7.075   1.101
 3525SOL    HW222607   2.811   7.031   1.234
 3526SOL     OW22608   3.213   6.176   1.433
 3526SOL    HW122609   3.241   6.133   1.518
 3526SOL    HW222610   3.238   6.272   1.434
 3527SOL     OW22611   2.665   6.988   0.924
 3527SOL    HW122612   2.755   7.002   0.882
 3527SOL    HW222613   2.594   6.990   0.853
 3528SOL     OW22614   2.784   6.089   0.899
 3528SOL    HW122615   2.759   6.080   0.803
 3528SOL    HW222616   2.832   6.007   0.930
 3529SOL     OW22617   2.401   5.650   0.512
 3529SOL    HW122618   2.320   5.651   0.570
 3529SOL    HW222619   2.404   5.733   0.457
 3530SOL     OW22620   3.296   6.774   0.041
 3530SOL    HW122621   3.328   6.698   0.098
 3530SOL    HW222622   3.204   6.801   0.071
 3531SOL     OW22623   2.159   5.621   0.171
 3531SOL    HW122624   2.208   5.705   0.150
 3531SOL    HW222625   2.221   5.556   0.216
 3532SOL     OW22626   2.321   6.738   0.741
 3532SOL    HW122627   2.250   6.711   0.806
 3532SOL    HW222628   2.295   6.710   0.648
 3533SOL     OW22629   3.133   7.383   0.591
 3533SOL    HW122630   3.177   7.447   0.527
 3533SOL    HW222631   3.083   7.435   0.661
 3534SOL     OW22632   2.894   6.135   0.016
 3534SOL    HW122633   2.853   6.217  -0.023
 3534SOL    HW222634   2.958   6.161   0.089
 3535SOL     OW22635   1.940   6.142   1.386
 3535SOL    HW122636   2.032   6.141   1.345
 3535SOL    HW222637   1.934   6.216   1.453
 3536SOL     OW22638   2.423   5.808   1.147
 3536SOL    HW122639   2.461   5.724   1.184
 3536SOL    HW222640   2.335   5.827   1.191
 3537SOL     OW22641   2.879   5.625   0.753
 3537SOL    HW122642   2.807   5.630   0.684
 3537SOL    HW222643   2.855   5.556   0.822
 3538SOL     OW22644   3.291   6.759   0.867
 3538SOL    HW122645   3.236   6.675   0.860
 3538SOL    HW222646   3.317   6.788   0.775
 3539SOL     OW22647   3.328   6.176   0.992
 3539SOL    HW122648   3.298   6.081   0.999
 3539SOL    HW222649   3.401   6.192   1.058
 3540SOL     OW22650   2.350   6.971   0.174
 3540SOL    HW122651   2.263   6.956   0.221
 3540SOL    HW222652   2.333   6.997   0.079
 3541SOL     OW22653   3.526   6.866   0.657
 3541SOL    HW122654   3.625   6.874   0.671
 3541SOL    HW222655   3.481   6.950   0.688
 3542SOL     OW22656   3.252   6.161   0.078
 3542SOL    HW122657   3.198   6.140   0.159
 3542SOL    HW222658   3.343   6.120   0.087
 3543SOL     OW22659   2.389   5.842   0.328
 3543SOL    HW122660   2.416   5.783   0.253
 3543SOL    HW222661   2.389   5.937   0.297
 3544SOL     OW22662   3.616   6.809   1.588
 3544SOL    HW122663   3.707   6.770   1.575
 3544SOL    HW222664   3.624   6.905   1.612
 3545SOL     OW22665   2.926   6.933   1.340
 3545SOL    HW122666   2.846   6.910   1.395
 3545SOL    HW222667   3.009   6.907   1.389
 3546SOL     OW22668   3.454   7.215   1.625
 3546SOL    HW122669   3.481   7.249   1.535
 3546SOL    HW222670   3.533   7.177   1.671
 3547SOL     OW22671   2.973   6.781   1.100
 3547SOL    HW122672   2.933   6.825   1.181
 3547SOL    HW222673   2.932   6.818   1.017
 3548SOL     OW22674   3.500   6.685   1.079
 3548SOL    HW122675   3.505   6.766   1.138
 3548SOL    HW222676   3.414   6.687   1.028
 3549SOL     OW22677   2.567   6.636   0.368
 3549SOL    HW122678   2.553   6.643   0.467
 3549SOL    HW222679   2.651   6.585   0.350
 3550SOL     OW22680   3.136   5.972   1.262
 3550SOL    HW122681   3.157   6.046   1.326
 3550SOL    HW222682   3.047   5.989   1.219
 3551SOL     OW22683   1.926   7.150   1.331
 3551SOL    HW122684   1.880   7.232   1.297
 3551SOL    HW222685   2.024   7.169   1.340
 3552SOL     OW22686   2.229   6.686   0.501
 3552SOL    HW122687   2.222   6.769   0.445
 3552SOL    HW222688   2.233   6.606   0.441
 3553SOL     OW22689   3.134   7.031   1.142
 3553SOL    HW122690   3.181   7.044   1.229
 3553SOL    HW222691   3.068   6.957   1.151
 3554SOL     OW22692   3.449   6.365   1.670
 3554SOL    HW122693   3.357   6.403   1.665
 3554SOL    HW222694   3.509   6.412   1.605
 3555SOL     OW22695   2.875   5.691   1.770
 3555SOL    HW122696   2.881   5.776   1.718
 3555SOL    HW222697   2.907   5.615   1.713
 3556SOL     OW22698   3.222   6.448   1.045
 3556SOL    HW122699   3.147   6.448   0.979
 3556SOL    HW222700   3.259   6.356   1.054
 3557SOL     OW22701   2.169   5.799   1.231
 3557SOL    HW122702   2.146   5.836   1.321
 3557SOL    HW222703   2.139   5.704   1.225
 3558SOL     OW22704   1.899   6.896   1.282
 3558SOL    HW122705   1.952   6.847   1.350
 3558SOL    HW222706   1.921   6.994   1.287
 3559SOL     OW22707   2.594   6.220   1.064
 3559SOL    HW122708   2.653   6.194   0.988
 3559SOL    HW222709   2.566   6.316   1.053
 3560SOL     OW22710   3.590   6.521   1.854
 3560SOL    HW122711   3.544   6.514   1.765
 3560SOL    HW222712   3.528   6.565   1.920
 3561SOL     OW22713   2.169   5.649   0.618
 3561SOL    HW122714   2.158   5.743   0.651
 3561SOL    HW222715   2.164   5.586   0.695
 3562SOL     OW22716   2.885   6.352   0.966
 3562SOL    HW122717   2.900   6.373   1.062
 3562SOL    HW222718   2.855   6.257   0.957
 3563SOL     OW22719   2.842   7.159   1.700
 3563SOL    HW122720   2.822   7.203   1.612
 3563SOL    HW222721   2.881   7.068   1.684
 3564SOL     OW22722   3.721   7.104   1.605
 3564SOL    HW122723   3.735   7.131   1.510
 3564SOL    HW222724   3.804   7.126   1.658
 3565SOL     OW22725   3.165   6.424   0.042
 3565SOL    HW122726   3.199   6.331   0.057
 3565SOL    HW222727   3.183   6.451  -0.053
 3566SOL     OW22728   2.930   6.919   0.849
 3566SOL    HW122729   2.937   6.835   0.794
 3566SOL    HW222730   2.992   6.988   0.813
 3567SOL     OW22731   1.950   7.387   0.927
 3567SOL    HW122732   1.908   7.301   0.900
 3567SOL    HW222733   2.044   7.390   0.893
 3568SOL     OW22734   2.366   7.154   0.910
 3568SOL    HW122735   2.432   7.228   0.919
 3568SOL    HW222736   2.410   7.075   0.868
 3569SOL     OW22737   2.864   6.382   1.238
 3569SOL    HW122738   2.905   6.350   1.324
 3569SOL    HW222739   2.768   6.355   1.235
 3570SOL     OW22740   1.902   6.130   1.114
 3570SOL    HW122741   1.987   6.097   1.073
 3570SOL    HW222742   1.915   6.145   1.212
 3571SOL     OW22743   2.051   6.106   1.722
 3571SOL    HW122744   2.110   6.066   1.652
 3571SOL    HW222745   1.993   6.177   1.681
 3572SOL     OW22746   2.677   6.158   0.325
 3572SOL    HW122747   2.684   6.069   0.279
 3572SOL    HW222748   2.583   6.192   0.317
 3573SOL     OW22749   3.519   6.190   1.206
 3573SOL    HW122750   3.481   6.121   1.268
 3573SOL    HW222751   3.601   6.154   1.162
 3574SOL     OW22752   2.533   6.050   1.269
 3574SOL    HW122753   2.499   5.961   1.239
 3574SOL    HW222754   2.559   6.104   1.189
 3575SOL     OW22755   2.335   6.086   0.191
 3575SOL    HW122756   2.396   6.166   0.195
 3575SOL    HW222757   2.240   6.117   0.198
 3576SOL     OW22758   2.021   6.723   1.466
 3576SOL    HW122759   2.043   6.662   1.542
 3576SOL    HW222760   2.031   6.674   1.380
 3577SOL     OW22761   3.209   6.645   1.234
 3577SOL    HW122762   3.233   6.582   1.160
 3577SOL    HW222763   3.119   6.685   1.216
 3578SOL     OW22764   3.164   6.441   0.309
 3578SOL    HW122765   3.078   6.410   0.351
 3578SOL    HW222766   3.160   6.427   0.210
 3579SOL     OW22767   3.621   7.333   1.154
 3579SOL    HW122768   3.682   7.363   1.081
 3579SOL    HW222769   3.583   7.244   1.132
 3580SOL     OW22770   3.114   7.317   1.128
 3580SOL    HW122771   3.198   7.322   1.074
 3580SOL    HW222772   3.091   7.221   1.146
 3581SOL     OW22773   1.945   6.844   1.022
 3581SOL    HW122774   1.940   6.843   1.122
 3581SOL    HW222775   1.862   6.803   0.984
 3582SOL     OW22776   2.765   5.672   0.133
 3582SOL    HW122777   2.816   5.673   0.047
 3582SOL    HW222778   2.821   5.630   0.204
 3583SOL     OW22779   3.142   6.513   0.672
 3583SOL    HW122780   3.202   6.432   0.674
 3583SOL    HW222781   3.182   6.582   0.612
 3584SOL     OW22782   2.692   6.859   1.422
 3584SOL    HW122783   2.687   6.892   1.517
 3584SOL    HW222784   2.606   6.878   1.376
 3585SOL     OW22785   3.512   7.306   1.394
 3585SOL    HW122786   3.565   7.316   1.310
 3585SOL    HW222787   3.485   7.396   1.428
 3586SOL     OW22788   3.703   5.761   0.963
 3586SOL    HW122789   3.742   5.676   0.927
 3586SOL    HW222790   3.605   5.763   0.944
 3587SOL     OW22791   2.684   6.588   1.372
 3587SOL    HW122792   2.724   6.587   1.280
 3587SOL    HW222793   2.694   6.680   1.412
 3588SOL     OW22794   2.778   6.496   0.291
 3588SOL    HW122795   2.841   6.534   0.223
 3588SOL    HW222796   2.818   6.413   0.330
 3589SOL     OW22797   3.366   7.193   0.044
 3589SOL    HW122798   3.274   7.230   0.051
 3589SOL    HW222799   3.404   7.213  -0.046
 3590SOL     OW22800   3.476   6.878   1.289
 3590SOL    HW122801   3.536   6.881   1.369
 3590SOL    HW222802   3.401   6.942   1.302
 3591SOL     OW22803   2.901   6.684   0.696
 3591SOL    HW122804   2.831   6.637   0.750
 3591SOL    HW222805   2.960   6.616   0.653
 3592SOL     OW22806   2.876   5.822   0.971
 3592SOL    HW122807   2.868   5.786   0.878
 3592SOL    HW222808   2.874   5.746   1.036
 3593SOL     OW22809   3.571   5.971   1.381
 3593SOL    HW122810   3.644   6.040   1.385
 3593SOL    HW222811   3.599   5.896   1.322
 3594SOL     OW22812   2.117   6.934   0.290
 3594SOL    HW122813   2.021   6.935   0.263
 3594SOL    HW222814   2.129   6.987   0.374
 3595SOL     OW22815   1.967   6.599   1.726
 3595SOL    HW122816   1.890   6.566   1.780
 3595SOL    HW222817   2.052   6.569   1.768
 3596SOL     OW22818   3.302   6.442   1.398
 3596SOL    HW122819   3.245   6.494   1.335
 3596SOL    HW222820   3.398   6.454   1.374
 3597SOL     OW22821   1.934   5.752   0.318
 3597SOL    HW122822   1.917   5.835   0.264
 3597SOL    HW222823   2.024   5.715   0.296
 3598SOL     OW22824   3.355   7.353   0.959
 3598SOL    HW122825   3.388   7.417   0.890
 3598SOL    HW222826   3.421   7.347   1.034
 3599SOL     OW22827   3.312   6.806   1.633
 3599SOL    HW122828   3.303   6.796   1.732
 3599SOL    HW222829   3.408   6.799   1.607
 3600SOL     OW22830   2.252   7.327   1.560
 3600SOL    HW122831   2.161   7.368   1.558
 3600SOL    HW222832   2.245   7.233   1.592
 3601SOL     OW22833   3.536   6.469   1.254
 3601SOL    HW122834   3.509   6.380   1.217
 3601SOL    HW222835   3.537   6.537   1.181
 3602SOL     OW22836   3.592   6.520   1.517
 3602SOL    HW122837   3.630   6.611   1.532
 3602SOL    HW222838   3.584   6.503   1.418
 3603SOL     OW22839   2.523   7.376   0.953
 3603SOL    HW122840   2.477   7.464   0.940
 3603SOL    HW222841   2.622   7.388   0.946
 3604SOL     OW22842   2.721   6.542   0.861
 3604SOL    HW122843   2.775   6.473   0.909
 3604SOL    HW222844   2.689   6.611   0.927
 3605SOL     OW22845   2.945   6.570   0.087
 3605SOL    HW122846   2.922   6.623   0.005
 3605SOL    HW222847   3.026   6.514   0.068
 3606SOL     OW22848   3.723   7.155   0.851
 3606SOL    HW122849   3.652   7.143   0.781
 3606SOL    HW222850   3.724   7.076   0.911
 3607SOL     OW22851   1.941   6.826   0.653
 3607SOL    HW122852   1.940   6.779   0.741
 3607SOL    HW222853   2.023   6.798   0.602
 3608SOL     OW22854   2.534   6.977   1.624
 3608SOL    HW122855   2.456   6.927   1.662
 3608SOL    HW222856   2.531   7.072   1.655
 3609SOL     OW22857   3.686   5.778   1.227
 3609SOL    HW122858   3.682   5.688   1.271
 3609SOL    HW222859   3.689   5.767   1.128
 3610SOL     OW22860   3.567   7.073   1.104
 3610SOL    HW122861   3.474   7.048   1.077
 3610SOL    HW222862   3.593   7.023   1.186
 3611SOL     OW22863   2.674   7.172   0.687
 3611SOL    HW122864   2.706   7.182   0.593
 3611SOL    HW222865   2.595   7.110   0.689
 3612SOL     OW22866   3.286   5.800   1.112
 3612SOL    HW122867   3.338   5.735   1.167
 3612SOL    HW222868   3.237   5.863   1.173
 3613SOL     OW22869   2.863   5.620   1.154
 3613SOL    HW122870   2.800   5.548   1.123
 3613SOL    HW222871   2.956   5.584   1.154
 3614SOL     OW22872   3.214   5.638   0.168
 3614SOL    HW122873   3.249   5.597   0.084
 3614SOL    HW222874   3.124   5.600   0.188
 3615SOL     OW22875   3.162   6.039   0.691
 3615SOL    HW122876   3.103   6.119   0.695
 3615SOL    HW222877   3.177   6.004   0.784
 3616SOL     OW22878   1.901   6.663   0.300
 3616SOL    HW122879   2.000   6.652   0.291
 3616SOL    HW222880   1.861   6.577   0.332
 3617SOL     OW22881   3.617   6.193   2.093
 3617SOL    HW122882   3.605   6.180   1.994
 3617SOL    HW222883   3.587   6.112   2.142
 3618SOL     OW22884   2.712   6.384   3.685
 3618SOL    HW122885   2.708   6.460   3.750
 3618SOL    HW222886   2.734   6.420   3.594
 3619SOL     OW22887   2.989   6.927   3.552
 3619SOL    HW122888   3.036   6.927   3.640
 3619SOL    HW222889   2.941   6.840   3.541
 3620SOL     OW22890   2.092   7.020   2.400
 3620SOL    HW122891   2.066   7.116   2.400
 3620SOL    HW222892   2.021   6.966   2.445
 3621SOL     OW22893   2.482   7.372   3.301
 3621SOL    HW122894   2.390   7.355   3.336
 3621SOL    HW222895   2.510   7.464   3.327
 3622SOL     OW22896   3.551   6.508   2.474
 3622SOL    HW122897   3.646   6.479   2.482
 3622SOL    HW222898   3.543   6.573   2.399
 3623SOL     OW22899   1.975   6.323   3.459
 3623SOL    HW122900   2.063   6.310   3.504
 3623SOL    HW222901   1.962   6.420   3.437
 3624SOL     OW22902   3.328   7.003   2.815
 3624SOL    HW122903   3.269   7.009   2.895
 3624SOL    HW222904   3.313   6.915   2.769
 3625SOL     OW22905   3.438   7.248   2.169
 3625SOL    HW122906   3.527   7.294   2.172
 3625SOL    HW222907   3.417   7.224   2.074
 3626SOL     OW22908   2.835   6.476   3.434
 3626SOL    HW122909   2.881   6.392   3.405
 3626SOL    HW222910   2.779   6.510   3.359
 3627SOL     OW22911   2.853   5.996   3.104
 3627SOL    HW122912   2.776   6.030   3.158
 3627SOL    HW222913   2.819   5.945   3.025
 3628SOL     OW22914   1.938   6.397   2.651
 3628SOL    HW122915   2.037   6.385   2.660
 3628SOL    HW222916   1.914   6.492   2.672
 3629SOL     OW22917   3.581   6.171   3.693
 3629SOL    HW122918   3.555   6.260   3.657
 3629SOL    HW222919   3.579   6.103   3.620
 3630SOL     OW22920   3.224   6.730   2.407
 3630SOL    HW122921   3.307   6.701   2.359
 3630SOL    HW222922   3.175   6.797   2.351
 3631SOL     OW22923   3.089   7.136   3.368
 3631SOL    HW122924   3.095   7.059   3.432
 3631SOL    HW222925   3.037   7.110   3.288
 3632SOL     OW22926   2.973   7.362   2.099
 3632SOL    HW122927   2.913   7.300   2.149
 3632SOL    HW222928   3.004   7.318   2.014
 3633SOL     OW22929   3.494   6.963   1.943
 3633SOL    HW122930   3.462   7.057   1.933
 3633SOL    HW222931   3.418   6.900   1.931
 3634SOL     OW22932   2.111   7.371   3.103
 3634SOL    HW122933   2.168   7.306   3.153
 3634SOL    HW222934   2.095   7.338   3.010
 3635SOL     OW22935   2.802   7.284   2.766
 3635SOL    HW122936   2.882   7.227   2.787
 3635SOL    HW222937   2.753   7.244   2.689
 3636SOL     OW22938   2.244   6.286   2.342
 3636SOL    HW122939   2.289   6.196   2.339
 3636SOL    HW222940   2.150   6.275   2.375
 3637SOL     OW22941   2.784   6.089   2.761
 3637SOL    HW122942   2.759   6.080   2.665
 3637SOL    HW222943   2.832   6.007   2.792
 3638SOL     OW22944   2.159   5.621   2.033
 3638SOL    HW122945   2.208   5.705   2.012
 3638SOL    HW222946   2.221   5.556   2.078
 3639SOL     OW22947   2.321   6.738   2.603
 3639SOL    HW122948   2.250   6.711   2.668
 3639SOL    HW222949   2.295   6.710   2.510
 3640SOL     OW22950   3.291   6.759   2.729
 3640SOL    HW122951   3.236   6.675   2.722
 3640SOL    HW222952   3.317   6.788   2.637
 3641SOL     OW22953   3.719   6.419   2.239
 3641SOL    HW122954   3.761   6.355   2.303
 3641SOL    HW222955   3.681   6.368   2.161
 3642SOL     OW22956   2.350   6.971   2.036
 3642SOL    HW122957   2.263   6.956   2.083
 3642SOL    HW222958   2.333   6.997   1.941
 3643SOL     OW22959   3.526   6.866   2.519
 3643SOL    HW122960   3.625   6.874   2.533
 3643SOL    HW222961   3.481   6.950   2.550
 3644SOL     OW22962   3.252   6.161   1.940
 3644SOL    HW122963   3.198   6.140   2.021
 3644SOL    HW222964   3.343   6.120   1.949
 3645SOL     OW22965   2.389   5.842   2.190
 3645SOL    HW122966   2.416   5.783   2.115
 3645SOL    HW222967   2.389   5.937   2.159
 3646SOL     OW22968   2.973   6.781   2.962
 3646SOL    HW122969   2.933   6.825   3.043
 3646SOL    HW222970   2.932   6.818   2.879
 3647SOL     OW22971   2.777   5.675   3.264
 3647SOL    HW122972   2.802   5.655   3.169
 3647SOL    HW222973   2.849   5.731   3.306
 3648SOL     OW22974   1.926   7.150   3.193
 3648SOL    HW122975   1.880   7.232   3.159
 3648SOL    HW222976   2.024   7.169   3.202
 3649SOL     OW22977   3.134   7.031   3.004
 3649SOL    HW122978   3.181   7.044   3.091
 3649SOL    HW222979   3.068   6.957   3.013
 3650SOL     OW22980   3.222   6.448   2.907
 3650SOL    HW122981   3.147   6.448   2.841
 3650SOL    HW222982   3.259   6.356   2.916
 3651SOL     OW22983   3.071   6.111   2.137
 3651SOL    HW122984   3.084   6.027   2.191
 3651SOL    HW222985   3.042   6.185   2.197
 3652SOL     OW22986   2.169   5.799   3.093
 3652SOL    HW122987   2.146   5.836   3.183
 3652SOL    HW222988   2.139   5.704   3.087
 3653SOL     OW22989   1.899   6.896   3.144
 3653SOL    HW122990   1.952   6.847   3.212
 3653SOL    HW222991   1.921   6.994   3.149
 3654SOL     OW22992   2.594   6.220   2.926
 3654SOL    HW122993   2.653   6.194   2.850
 3654SOL    HW222994   2.566   6.316   2.915
 3655SOL     OW22995   3.590   6.521   3.716
 3655SOL    HW122996   3.544   6.514   3.627
 3655SOL    HW222997   3.528   6.565   3.782
 3656SOL     OW22998   3.484   5.953   2.236
 3656SOL    HW122999   3.486   5.877   2.300
 3656SOL    HW223000   3.436   6.030   2.276
 3657SOL     OW23001   2.885   6.352   2.828
 3657SOL    HW123002   2.900   6.373   2.924
 3657SOL    HW223003   2.855   6.257   2.819
 3658SOL     OW23004   2.842   7.159   3.562
 3658SOL    HW123005   2.822   7.203   3.474
 3658SOL    HW223006   2.881   7.068   3.546
 3659SOL     OW23007   3.721   7.104   3.467
 3659SOL    HW123008   3.735   7.131   3.372
 3659SOL    HW223009   3.804   7.126   3.520
 3660SOL     OW23010   2.212   6.484   3.666
 3660SOL    HW123011   2.288   6.528   3.714
 3660SOL    HW223012   2.247   6.437   3.584
 3661SOL     OW23013   3.165   6.424   1.904
 3661SOL    HW123014   3.199   6.331   1.919
 3661SOL    HW223015   3.183   6.451   1.809
 3662SOL     OW23016   2.201   6.095   2.868
 3662SOL    HW123017   2.149   6.012   2.851
 3662SOL    HW223018   2.278   6.100   2.804
 3663SOL     OW23019   3.022   5.793   3.339
 3663SOL    HW123020   3.022   5.857   3.416
 3663SOL    HW223021   3.050   5.841   3.256
 3664SOL     OW23022   3.231   6.536   3.522
 3664SOL    HW123023   3.270   6.625   3.542
 3664SOL    HW223024   3.241   6.516   3.425
 3665SOL     OW23025   2.335   6.086   2.053
 3665SOL    HW123026   2.396   6.166   2.057
 3665SOL    HW223027   2.240   6.117   2.060
 3666SOL     OW23028   2.021   6.723   3.328
 3666SOL    HW123029   2.043   6.662   3.404
 3666SOL    HW223030   2.031   6.674   3.242
 3667SOL     OW23031   3.114   7.317   2.990
 3667SOL    HW123032   3.198   7.322   2.936
 3667SOL    HW223033   3.091   7.221   3.008
 3668SOL     OW23034   3.250   7.159   2.339
 3668SOL    HW123035   3.317   7.171   2.265
 3668SOL    HW223036   3.210   7.248   2.362
 3669SOL     OW23037   2.692   6.859   3.284
 3669SOL    HW123038   2.687   6.892   3.379
 3669SOL    HW223039   2.606   6.878   3.238
 3670SOL     OW23040   3.512   7.306   3.256
 3670SOL    HW123041   3.565   7.316   3.172
 3670SOL    HW223042   3.485   7.396   3.290
 3671SOL     OW23043   2.876   5.822   2.833
 3671SOL    HW123044   2.868   5.786   2.740
 3671SOL    HW223045   2.874   5.746   2.898
 3672SOL     OW23046   3.571   5.971   3.243
 3672SOL    HW123047   3.644   6.040   3.247
 3672SOL    HW223048   3.599   5.896   3.184
 3673SOL     OW23049   3.302   6.442   3.260
 3673SOL    HW123050   3.245   6.494   3.197
 3673SOL    HW223051   3.398   6.454   3.236
 3674SOL     OW23052   2.252   7.327   3.422
 3674SOL    HW123053   2.161   7.368   3.420
 3674SOL    HW223054   2.245   7.233   3.454
 3675SOL     OW23055   2.721   6.960   1.878
 3675SOL    HW123056   2.675   6.975   1.966
 3675SOL    HW223057   2.765   7.045   1.848
 3676SOL     OW23058   2.290   6.010   2.382
 3676SOL    HW123059   2.320   5.938   2.320
 3676SOL    HW223060   2.251   5.970   2.465
 3677SOL     OW23061   2.179   6.133   3.142
 3677SOL    HW123062   2.217   6.074   3.214
 3677SOL    HW223063   2.219   6.107   3.054
 3678SOL     OW23064   3.286   5.800   2.974
 3678SOL    HW123065   3.338   5.735   3.029
 3678SOL    HW223066   3.237   5.863   3.035
 3679SOL     OW23067   2.632   6.916   2.163
 3679SOL    HW123068   2.586   6.829   2.180
 3679SOL    HW223069   2.723   6.913   2.204
 3680SOL     OW23070   2.480   7.153   3.146
 3680SOL    HW123071   2.475   7.235   3.203
 3680SOL    HW223072   2.569   7.150   3.101
 3681SOL     OW23073   3.162   6.039   2.553
 3681SOL    HW123074   3.103   6.119   2.557
 3681SOL    HW223075   3.177   6.004   2.646
 3682SOL     OW23076   1.901   6.663   2.162
 3682SOL    HW123077   2.000   6.652   2.153
 3682SOL    HW223078   1.861   6.577   2.194
 3683SOL     OW23079   2.737   7.232   2.199
 3683SOL    HW123080   2.660   7.197   2.145
 3683SOL    HW223081   2.705   7.303   2.261
 3684SOL     OW23082   2.431   6.861   4.889
 3684SOL    HW123083   2.338   6.854   4.852
 3684SOL    HW223084   2.442   6.950   4.933
 3685SOL     OW23085   2.630   6.730   4.747
 3685SOL    HW123086   2.552   6.747   4.807
 3685SOL    HW223087   2.664   6.817   4.711
 3686SOL     OW23088   2.712   6.384   5.547
 3686SOL    HW123089   2.708   6.460   5.612
 3686SOL    HW223090   2.734   6.420   5.456
 3687SOL     OW23091   2.547   6.598   4.389
 3687SOL    HW123092   2.616   6.582   4.459
 3687SOL    HW223093   2.474   6.655   4.427
 3688SOL     OW23094   2.548   6.747   5.527
 3688SOL    HW123095   2.608   6.826   5.541
 3688SOL    HW223096   2.462   6.778   5.486
 3689SOL     OW23097   3.322   7.091   5.063
 3689SOL    HW123098   3.346   7.185   5.089
 3689SOL    HW223099   3.306   7.037   5.145
 3690SOL     OW23100   2.468   6.550   3.847
 3690SOL    HW123101   2.475   6.634   3.793
 3690SOL    HW223102   2.514   6.563   3.935
 3691SOL     OW23103   3.704   7.353   4.083
 3691SOL    HW123104   3.758   7.324   4.163
 3691SOL    HW223105   3.734   7.443   4.054
 3692SOL     OW23106   1.975   6.323   5.321
 3692SOL    HW123107   2.063   6.310   5.366
 3692SOL    HW223108   1.962   6.420   5.299
 3693SOL     OW23109   2.059   6.562   4.988
 3693SOL    HW123110   2.148   6.517   4.974
 3693SOL    HW223111   1.986   6.497   4.969
 3694SOL     OW23112   3.387   6.585   3.914
 3694SOL    HW123113   3.324   6.509   3.927
 3694SOL    HW223114   3.435   6.603   4.000
 3695SOL     OW23115   3.049   7.378   5.340
 3695SOL    HW123116   3.073   7.438   5.264
 3695SOL    HW223117   3.056   7.283   5.310
 3696SOL     OW23118   2.179   5.837   5.525
 3696SOL    HW123119   2.250   5.908   5.531
 3696SOL    HW223120   2.091   5.876   5.553
 3697SOL     OW23121   2.460   6.315   3.994
 3697SOL    HW123122   2.484   6.384   3.926
 3697SOL    HW223123   2.382   6.348   4.048
 3698SOL     OW23124   3.256   6.055   5.398
 3698SOL    HW123125   3.236   6.098   5.486
 3698SOL    HW223126   3.334   5.993   5.407
 3699SOL     OW23127   1.992   7.407   5.295
 3699SOL    HW123128   1.982   7.392   5.394
 3699SOL    HW223129   1.906   7.443   5.259
 3700SOL     OW23130   2.727   5.934   3.919
 3700SOL    HW123131   2.786   5.997   3.870
 3700SOL    HW223132   2.746   5.840   3.890
 3701SOL     OW23133   2.183   6.529   3.966
 3701SOL    HW123134   2.265   6.568   3.924
 3701SOL    HW223135   2.156   6.447   3.917
 3702SOL     OW23136   2.323   6.852   5.451
 3702SOL    HW123137   2.273   6.853   5.365
 3702SOL    HW223138   2.260   6.834   5.527
 3703SOL     OW23139   2.064   5.871   5.222
 3703SOL    HW123140   1.984   5.931   5.209
 3703SOL    HW223141   2.054   5.822   5.308
 3704SOL     OW23142   3.262   5.693   4.150
 3704SOL    HW123143   3.238   5.656   4.060
 3704SOL    HW223144   3.361   5.709   4.154
 3705SOL     OW23145   2.784   6.089   4.623
 3705SOL    HW123146   2.759   6.080   4.527
 3705SOL    HW223147   2.832   6.007   4.654
 3706SOL     OW23148   3.133   7.383   4.315
 3706SOL    HW123149   3.177   7.447   4.251
 3706SOL    HW223150   3.083   7.435   4.385
 3707SOL     OW23151   1.940   6.142   5.110
 3707SOL    HW123152   2.032   6.141   5.069
 3707SOL    HW223153   1.934   6.216   5.177
 3708SOL     OW23154   3.252   6.161   3.802
 3708SOL    HW123155   3.198   6.140   3.883
 3708SOL    HW223156   3.343   6.120   3.811
 3709SOL     OW23157   3.616   6.809   5.312
 3709SOL    HW123158   3.707   6.770   5.299
 3709SOL    HW223159   3.624   6.905   5.336
 3710SOL     OW23160   3.444   6.225   4.196
 3710SOL    HW123161   3.413   6.286   4.269
 3710SOL    HW223162   3.494   6.277   4.127
 3711SOL     OW23163   2.264   6.337   5.322
 3711SOL    HW123164   2.332   6.392   5.275
 3711SOL    HW223165   2.304   6.249   5.349
 3712SOL     OW23166   2.875   5.691   5.494
 3712SOL    HW123167   2.881   5.776   5.442
 3712SOL    HW223168   2.907   5.615   5.437
 3713SOL     OW23169   2.169   5.799   4.955
 3713SOL    HW123170   2.146   5.836   5.045
 3713SOL    HW223171   2.139   5.704   4.949
 3714SOL     OW23172   2.169   5.649   4.342
 3714SOL    HW123173   2.158   5.743   4.375
 3714SOL    HW223174   2.164   5.586   4.419
 3715SOL     OW23175   2.885   6.352   4.690
 3715SOL    HW123176   2.900   6.373   4.786
 3715SOL    HW223177   2.855   6.257   4.681
 3716SOL     OW23178   3.721   7.104   5.329
 3716SOL    HW123179   3.735   7.131   5.234
 3716SOL    HW223180   3.804   7.126   5.382
 3717SOL     OW23181   2.212   6.484   5.528
 3717SOL    HW123182   2.288   6.528   5.576
 3717SOL    HW223183   2.247   6.437   5.446
 3718SOL     OW23184   3.165   6.424   3.766
 3718SOL    HW123185   3.199   6.331   3.781
 3718SOL    HW223186   3.183   6.451   3.671
 3719SOL     OW23187   3.000   5.966   5.402
 3719SOL    HW123188   2.955   6.029   5.466
 3719SOL    HW223189   3.093   5.997   5.385
 3720SOL     OW23190   3.022   5.793   5.201
 3720SOL    HW123191   3.022   5.857   5.278
 3720SOL    HW223192   3.050   5.841   5.118
 3721SOL     OW23193   3.519   6.190   4.930
 3721SOL    HW123194   3.481   6.121   4.992
 3721SOL    HW223195   3.601   6.154   4.886
 3722SOL     OW23196   3.209   6.645   4.958
 3722SOL    HW123197   3.233   6.582   4.884
 3722SOL    HW223198   3.119   6.685   4.940
 3723SOL     OW23199   2.550   7.248   5.440
 3723SOL    HW123200   2.494   7.329   5.449
 3723SOL    HW223201   2.602   7.252   5.354
 3724SOL     OW23202   1.992   7.380   5.575
 3724SOL    HW123203   1.951   7.306   5.628
 3724SOL    HW223204   2.056   7.431   5.633
 3725SOL     OW23205   2.125   5.912   4.444
 3725SOL    HW123206   2.046   5.963   4.410
 3725SOL    HW223207   2.116   5.897   4.542
 3726SOL     OW23208   3.366   7.193   3.768
 3726SOL    HW123209   3.274   7.230   3.775
 3726SOL    HW223210   3.404   7.213   3.678
 3727SOL     OW23211   3.476   6.878   5.013
 3727SOL    HW123212   3.536   6.881   5.093
 3727SOL    HW223213   3.401   6.942   5.026
 3728SOL     OW23214   2.117   6.934   4.014
 3728SOL    HW123215   2.021   6.935   3.987
 3728SOL    HW223216   2.129   6.987   4.098
 3729SOL     OW23217   1.967   6.599   5.450
 3729SOL    HW123218   1.890   6.566   5.504
 3729SOL    HW223219   2.052   6.569   5.492
 3730SOL     OW23220   1.937   5.931   3.757
 3730SOL    HW123221   1.845   5.903   3.728
 3730SOL    HW223222   1.968   6.008   3.701
 3731SOL     OW23223   3.302   6.442   5.122
 3731SOL    HW123224   3.245   6.494   5.059
 3731SOL    HW223225   3.398   6.454   5.098
 3732SOL     OW23226   2.578   6.151   5.432
 3732SOL    HW123227   2.597   6.216   5.506
 3732SOL    HW223228   2.638   6.071   5.441
 3733SOL     OW23229   3.312   6.806   5.357
 3733SOL    HW123230   3.303   6.796   5.456
 3733SOL    HW223231   3.408   6.799   5.331
 3734SOL     OW23232   3.087   5.911   4.173
 3734SOL    HW123233   3.152   5.837   4.162
 3734SOL    HW223234   3.107   5.961   4.257
 3735SOL     OW23235   2.456   6.331   4.376
 3735SOL    HW123236   2.506   6.416   4.357
 3735SOL    HW223237   2.368   6.333   4.328
 3736SOL     OW23238   3.639   5.928   5.366
 3736SOL    HW123239   3.622   5.959   5.272
 3736SOL    HW223240   3.555   5.891   5.404
 3737SOL     OW23241   2.534   6.977   5.348
 3737SOL    HW123242   2.456   6.927   5.386
 3737SOL    HW223243   2.531   7.072   5.379
 3738SOL     OW23244   3.686   5.778   4.951
 3738SOL    HW123245   3.682   5.688   4.995
 3738SOL    HW223246   3.689   5.767   4.852
 3739SOL     OW23247   3.214   5.638   3.892
 3739SOL    HW123248   3.249   5.597   3.808
 3739SOL    HW223249   3.124   5.600   3.912
 3740SOL     OW23250   3.162   6.039   4.415
 3740SOL    HW123251   3.103   6.119   4.419
 3740SOL    HW223252   3.177   6.004   4.508
 3741SOL     OW23253   2.092   6.214   5.699
 3741SOL    HW123254   1.999   6.212   5.736
 3741SOL    HW223255   2.093   6.175   5.607
 3742SOL     OW23256   2.087   5.861   6.582
 3742SOL    HW123257   2.122   5.844   6.674
 3742SOL    HW223258   1.999   5.816   6.570
 3743SOL     OW23259   1.881   5.954   6.233
 3743SOL    HW123260   1.799   5.997   6.272
 3743SOL    HW223261   1.853   5.881   6.170
 3744SOL     OW23262   2.431   6.861   6.751
 3744SOL    HW123263   2.338   6.854   6.714
 3744SOL    HW223264   2.442   6.950   6.795
 3745SOL     OW23265   3.417   7.097   6.289
 3745SOL    HW123266   3.360   7.081   6.370
 3745SOL    HW223267   3.358   7.107   6.209
 3746SOL     OW23268   2.997   6.289   6.303
 3746SOL    HW123269   3.054   6.367   6.278
 3746SOL    HW223270   2.937   6.315   6.379
 3747SOL     OW23271   3.617   6.193   5.817
 3747SOL    HW123272   3.605   6.180   5.718
 3747SOL    HW223273   3.587   6.112   5.866
 3748SOL     OW23274   2.630   6.730   6.609
 3748SOL    HW123275   2.552   6.747   6.669
 3748SOL    HW223276   2.664   6.817   6.573
 3749SOL     OW23277   2.547   6.598   6.251
 3749SOL    HW123278   2.616   6.582   6.321
 3749SOL    HW223279   2.474   6.655   6.289
 3750SOL     OW23280   2.197   7.021   6.647
 3750SOL    HW123281   2.119   6.990   6.594
 3750SOL    HW223282   2.255   7.079   6.590
 3751SOL     OW23283   3.465   6.033   6.323
 3751SOL    HW123284   3.391   6.079   6.273
 3751SOL    HW223285   3.516   6.101   6.376
 3752SOL     OW23286   2.093   7.299   6.069
 3752SOL    HW123287   2.127   7.376   6.123
 3752SOL    HW223288   2.137   7.299   5.979
 3753SOL     OW23289   2.092   7.020   6.124
 3753SOL    HW123290   2.066   7.116   6.124
 3753SOL    HW223291   2.021   6.966   6.169
 3754SOL     OW23292   2.102   6.677   6.472
 3754SOL    HW123293   2.116   6.593   6.524
 3754SOL    HW223294   2.047   6.741   6.527
 3755SOL     OW23295   2.468   6.550   5.709
 3755SOL    HW123296   2.475   6.634   5.655
 3755SOL    HW223297   2.514   6.563   5.797
 3756SOL     OW23298   1.984   6.229   6.149
 3756SOL    HW123299   1.939   6.141   6.166
 3756SOL    HW223300   1.983   6.283   6.233
 3757SOL     OW23301   3.704   7.353   5.945
 3757SOL    HW123302   3.758   7.324   6.025
 3757SOL    HW223303   3.734   7.443   5.916
 3758SOL     OW23304   1.889   7.182   5.703
 3758SOL    HW123305   1.870   7.086   5.724
 3758SOL    HW223306   1.856   7.240   5.778
 3759SOL     OW23307   3.551   6.508   6.198
 3759SOL    HW123308   3.646   6.479   6.206
 3759SOL    HW223309   3.543   6.573   6.123
 3760SOL     OW23310   3.503   6.694   6.018
 3760SOL    HW123311   3.589   6.696   5.966
 3760SOL    HW223312   3.517   6.741   6.106
 3761SOL     OW23313   2.475   6.951   6.312
 3761SOL    HW123314   2.426   6.864   6.321
 3761SOL    HW223315   2.452   6.994   6.225
 3762SOL     OW23316   2.671   5.590   6.088
 3762SOL    HW123317   2.711   5.681   6.079
 3762SOL    HW223318   2.571   5.598   6.094
 3763SOL     OW23319   2.059   6.562   6.850
 3763SOL    HW123320   2.148   6.517   6.836
 3763SOL    HW223321   1.986   6.497   6.831
 3764SOL     OW23322   3.387   6.585   5.776
 3764SOL    HW123323   3.324   6.509   5.789
 3764SOL    HW223324   3.435   6.603   5.862
 3765SOL     OW23325   3.328   7.003   6.539
 3765SOL    HW123326   3.269   7.009   6.619
 3765SOL    HW223327   3.313   6.915   6.493
 3766SOL     OW23328   3.529   7.300   6.158
 3766SOL    HW123329   3.488   7.277   6.070
 3766SOL    HW223330   3.511   7.226   6.223
 3767SOL     OW23331   2.460   6.315   5.856
 3767SOL    HW123332   2.484   6.384   5.788
 3767SOL    HW223333   2.382   6.348   5.910
 3768SOL     OW23334   3.143   5.931   6.530
 3768SOL    HW123335   3.057   5.881   6.517
 3768SOL    HW223336   3.205   5.877   6.586
 3769SOL     OW23337   2.853   5.996   6.828
 3769SOL    HW123338   2.776   6.030   6.882
 3769SOL    HW223339   2.819   5.945   6.749
 3770SOL     OW23340   2.903   6.287   6.015
 3770SOL    HW123341   2.929   6.283   6.111
 3770SOL    HW223342   2.818   6.236   6.001
 3771SOL     OW23343   1.938   6.397   6.375
 3771SOL    HW123344   2.037   6.385   6.384
 3771SOL    HW223345   1.914   6.492   6.396
 3772SOL     OW23346   2.727   5.934   5.781
 3772SOL    HW123347   2.786   5.997   5.732
 3772SOL    HW223348   2.746   5.840   5.752
 3773SOL     OW23349   3.224   6.730   6.131
 3773SOL    HW123350   3.307   6.701   6.083
 3773SOL    HW223351   3.175   6.797   6.075
 3774SOL     OW23352   2.412   5.782   6.471
 3774SOL    HW123353   2.407   5.777   6.571
 3774SOL    HW223354   2.414   5.878   6.442
 3775SOL     OW23355   2.870   7.042   6.063
 3775SOL    HW123356   2.824   7.114   6.011
 3775SOL    HW223357   2.866   7.062   6.161
 3776SOL     OW23358   2.213   7.387   6.439
 3776SOL    HW123359   2.263   7.301   6.445
 3776SOL    HW223360   2.278   7.464   6.436
 3777SOL     OW23361   3.657   6.652   6.459
 3777SOL    HW123362   3.595   6.637   6.383
 3777SOL    HW223363   3.605   6.663   6.544
 3778SOL     OW23364   2.183   6.529   5.828
 3778SOL    HW123365   2.265   6.568   5.786
 3778SOL    HW223366   2.156   6.447   5.779
 3779SOL     OW23367   3.320   6.321   6.314
 3779SOL    HW123368   3.315   6.256   6.389
 3779SOL    HW223369   3.400   6.380   6.327
 3780SOL     OW23370   2.973   7.362   5.823
 3780SOL    HW123371   2.913   7.300   5.873
 3780SOL    HW223372   3.004   7.318   5.738
 3781SOL     OW23373   3.494   6.963   5.667
 3781SOL    HW123374   3.462   7.057   5.657
 3781SOL    HW223375   3.418   6.900   5.655
 3782SOL     OW23376   2.326   7.329   5.909
 3782SOL    HW123377   2.359   7.368   5.995
 3782SOL    HW223378   2.402   7.322   5.844
 3783SOL     OW23379   3.262   5.693   6.012
 3783SOL    HW123380   3.238   5.656   5.922
 3783SOL    HW223381   3.361   5.709   6.016
 3784SOL     OW23382   2.111   7.371   6.827
 3784SOL    HW123383   2.168   7.306   6.877
 3784SOL    HW223384   2.095   7.338   6.734
 3785SOL     OW23385   2.802   7.284   6.490
 3785SOL    HW123386   2.882   7.227   6.511
 3785SOL    HW223387   2.753   7.244   6.413
 3786SOL     OW23388   2.244   6.286   6.066
 3786SOL    HW123389   2.289   6.196   6.063
 3786SOL    HW223390   2.150   6.275   6.099
 3787SOL     OW23391   2.784   6.089   6.485
 3787SOL    HW123392   2.759   6.080   6.389
 3787SOL    HW223393   2.832   6.007   6.516
 3788SOL     OW23394   2.401   5.650   6.098
 3788SOL    HW123395   2.320   5.651   6.156
 3788SOL    HW223396   2.404   5.733   6.043
 3789SOL     OW23397   3.296   6.774   5.627
 3789SOL    HW123398   3.328   6.698   5.684
 3789SOL    HW223399   3.204   6.801   5.657
 3790SOL     OW23400   2.159   5.621   5.757
 3790SOL    HW123401   2.208   5.705   5.736
 3790SOL    HW223402   2.221   5.556   5.802
 3791SOL     OW23403   2.797   5.822   6.066
 3791SOL    HW123404   2.749   5.863   5.988
 3791SOL    HW223405   2.896   5.820   6.047
 3792SOL     OW23406   3.089   7.156   6.379
 3792SOL    HW123407   3.110   7.230   6.314
 3792SOL    HW223408   3.157   7.156   6.452
 3793SOL     OW23409   2.321   6.738   6.327
 3793SOL    HW123410   2.250   6.711   6.392
 3793SOL    HW223411   2.295   6.710   6.234
 3794SOL     OW23412   3.133   7.383   6.177
 3794SOL    HW123413   3.177   7.447   6.113
 3794SOL    HW223414   3.083   7.435   6.247
 3795SOL     OW23415   2.894   6.135   5.602
 3795SOL    HW123416   2.853   6.217   5.563
 3795SOL    HW223417   2.958   6.161   5.675
 3796SOL     OW23418   2.423   5.808   6.733
 3796SOL    HW123419   2.461   5.724   6.770
 3796SOL    HW223420   2.335   5.827   6.777
 3797SOL     OW23421   2.728   6.040   6.228
 3797SOL    HW123422   2.696   6.112   6.166
 3797SOL    HW223423   2.752   5.959   6.175
 3798SOL     OW23424   2.879   5.625   6.339
 3798SOL    HW123425   2.807   5.630   6.270
 3798SOL    HW223426   2.855   5.556   6.408
 3799SOL     OW23427   3.291   6.759   6.453
 3799SOL    HW123428   3.236   6.675   6.446
 3799SOL    HW223429   3.317   6.788   6.361
 3800SOL     OW23430   3.328   6.176   6.578
 3800SOL    HW123431   3.298   6.081   6.585
 3800SOL    HW223432   3.401   6.192   6.644
 3801SOL     OW23433   3.719   6.419   5.963
 3801SOL    HW123434   3.761   6.355   6.027
 3801SOL    HW223435   3.681   6.368   5.885
 3802SOL     OW23436   2.350   6.971   5.760
 3802SOL    HW123437   2.263   6.956   5.807
 3802SOL    HW223438   2.333   6.997   5.665
 3803SOL     OW23439   3.526   6.866   6.243
 3803SOL    HW123440   3.625   6.874   6.257
 3803SOL    HW223441   3.481   6.950   6.274
 3804SOL     OW23442   3.252   6.161   5.664
 3804SOL    HW123443   3.198   6.140   5.745
 3804SOL    HW223444   3.343   6.120   5.673
 3805SOL     OW23445   2.389   5.842   5.914
 3805SOL    HW123446   2.416   5.783   5.839
 3805SOL    HW223447   2.389   5.937   5.883
 3806SOL     OW23448   2.973   6.781   6.686
 3806SOL    HW123449   2.933   6.825   6.767
 3806SOL    HW223450   2.932   6.818   6.603
 3807SOL     OW23451   3.500   6.685   6.665
 3807SOL    HW123452   3.505   6.766   6.724
 3807SOL    HW223453   3.414   6.687   6.614
 3808SOL     OW23454   2.567   6.636   5.954
 3808SOL    HW123455   2.553   6.643   6.053
 3808SOL    HW223456   2.651   6.585   5.936
 3809SOL     OW23457   2.272   6.399   6.837
 3809SOL    HW123458   2.358   6.411   6.887
 3809SOL    HW223459   2.230   6.312   6.864
 3810SOL     OW23460   3.136   5.972   6.848
 3810SOL    HW123461   3.157   6.046   6.912
 3810SOL    HW223462   3.047   5.989   6.805
 3811SOL     OW23463   2.229   6.686   6.087
 3811SOL    HW123464   2.222   6.769   6.031
 3811SOL    HW223465   2.233   6.606   6.027
 3812SOL     OW23466   2.428   6.123   6.451
 3812SOL    HW123467   2.440   6.189   6.377
 3812SOL    HW223468   2.474   6.157   6.534
 3813SOL     OW23469   3.114   6.934   5.974
 3813SOL    HW123470   3.164   7.011   6.014
 3813SOL    HW223471   3.019   6.936   6.006
 3814SOL     OW23472   3.444   6.225   6.058
 3814SOL    HW123473   3.413   6.286   6.131
 3814SOL    HW223474   3.494   6.277   5.989
 3815SOL     OW23475   2.216   7.096   6.915
 3815SOL    HW123476   2.195   7.052   6.828
 3815SOL    HW223477   2.313   7.122   6.918
 3816SOL     OW23478   2.435   6.456   6.615
 3816SOL    HW123479   2.479   6.545   6.606
 3816SOL    HW223480   2.372   6.456   6.692
 3817SOL     OW23481   3.222   6.448   6.631
 3817SOL    HW123482   3.147   6.448   6.565
 3817SOL    HW223483   3.259   6.356   6.640
 3818SOL     OW23484   3.071   6.111   5.861
 3818SOL    HW123485   3.084   6.027   5.915
 3818SOL    HW223486   3.042   6.185   5.921
 3819SOL     OW23487   2.169   5.799   6.817
 3819SOL    HW123488   2.146   5.836   6.907
 3819SOL    HW223489   2.139   5.704   6.811
 3820SOL     OW23490   1.899   6.896   6.868
 3820SOL    HW123491   1.952   6.847   6.936
 3820SOL    HW223492   1.921   6.994   6.873
 3821SOL     OW23493   2.594   6.220   6.650
 3821SOL    HW123494   2.653   6.194   6.574
 3821SOL    HW223495   2.566   6.316   6.639
 3822SOL     OW23496   2.169   5.649   6.204
 3822SOL    HW123497   2.158   5.743   6.237
 3822SOL    HW223498   2.164   5.586   6.281
 3823SOL     OW23499   2.885   6.352   6.552
 3823SOL    HW123500   2.900   6.373   6.648
 3823SOL    HW223501   2.855   6.257   6.543
 3824SOL     OW23502   3.402   5.860   5.711
 3824SOL    HW123503   3.341   5.785   5.734
 3824SOL    HW223504   3.424   5.912   5.794
 3825SOL     OW23505   3.165   6.424   5.628
 3825SOL    HW123506   3.199   6.331   5.643
 3825SOL    HW223507   3.183   6.451   5.533
 3826SOL     OW23508   2.930   6.919   6.435
 3826SOL    HW123509   2.937   6.835   6.380
 3826SOL    HW223510   2.992   6.988   6.399
 3827SOL     OW23511   2.181   6.396   6.535
 3827SOL    HW123512   2.274   6.432   6.540
 3827SOL    HW223513   2.175   6.311   6.587
 3828SOL     OW23514   2.201   6.095   6.592
 3828SOL    HW123515   2.149   6.012   6.575
 3828SOL    HW223516   2.278   6.100   6.528
 3829SOL     OW23517   3.022   5.793   7.063
 3829SOL    HW123518   3.022   5.857   7.140
 3829SOL    HW223519   3.050   5.841   6.980
 3830SOL     OW23520   1.870   6.912   5.786
 3830SOL    HW123521   1.777   6.933   5.755
 3830SOL    HW223522   1.880   6.813   5.799
 3831SOL     OW23523   1.950   7.387   6.513
 3831SOL    HW123524   1.908   7.301   6.486
 3831SOL    HW223525   2.044   7.390   6.479
 3832SOL     OW23526   2.366   7.154   6.496
 3832SOL    HW123527   2.432   7.228   6.505
 3832SOL    HW223528   2.410   7.075   6.454
 3833SOL     OW23529   2.864   6.382   6.824
 3833SOL    HW123530   2.905   6.350   6.910
 3833SOL    HW223531   2.768   6.355   6.821
 3834SOL     OW23532   1.902   6.130   6.700
 3834SOL    HW123533   1.987   6.097   6.659
 3834SOL    HW223534   1.915   6.145   6.798
 3835SOL     OW23535   2.677   6.158   5.911
 3835SOL    HW123536   2.684   6.069   5.865
 3835SOL    HW223537   2.583   6.192   5.903
 3836SOL     OW23538   3.519   6.190   6.792
 3836SOL    HW123539   3.481   6.121   6.854
 3836SOL    HW223540   3.601   6.154   6.748
 3837SOL     OW23541   2.533   6.050   6.855
 3837SOL    HW123542   2.499   5.961   6.825
 3837SOL    HW223543   2.559   6.104   6.775
 3838SOL     OW23544   2.792   7.264   7.051
 3838SOL    HW123545   2.768   7.246   6.956
 3838SOL    HW223546   2.822   7.358   7.061
 3839SOL     OW23547   2.335   6.086   5.777
 3839SOL    HW123548   2.396   6.166   5.781
 3839SOL    HW223549   2.240   6.117   5.784
 3840SOL     OW23550   3.209   6.645   6.820
 3840SOL    HW123551   3.233   6.582   6.746
 3840SOL    HW223552   3.119   6.685   6.802
 3841SOL     OW23553   3.164   6.441   5.895
 3841SOL    HW123554   3.078   6.410   5.937
 3841SOL    HW223555   3.160   6.427   5.796
 3842SOL     OW23556   3.621   7.333   6.740
 3842SOL    HW123557   3.682   7.363   6.667
 3842SOL    HW223558   3.583   7.244   6.718
 3843SOL     OW23559   1.945   6.844   6.608
 3843SOL    HW123560   1.940   6.843   6.708
 3843SOL    HW223561   1.862   6.803   6.570
 3844SOL     OW23562   3.250   7.159   6.063
 3844SOL    HW123563   3.317   7.171   5.989
 3844SOL    HW223564   3.210   7.248   6.086
 3845SOL     OW23565   3.142   6.513   6.258
 3845SOL    HW123566   3.202   6.432   6.260
 3845SOL    HW223567   3.182   6.582   6.198
 3846SOL     OW23568   2.534   7.202   5.740
 3846SOL    HW123569   2.543   7.212   5.641
 3846SOL    HW223570   2.494   7.113   5.761
 3847SOL     OW23571   3.512   7.306   6.980
 3847SOL    HW123572   3.565   7.316   6.896
 3847SOL    HW223573   3.485   7.396   7.014
 3848SOL     OW23574   2.125   5.912   6.306
 3848SOL    HW123575   2.046   5.963   6.272
 3848SOL    HW223576   2.116   5.897   6.404
 3849SOL     OW23577   3.056   7.198   5.617
 3849SOL    HW123578   3.062   7.105   5.654
 3849SOL    HW223579   2.997   7.198   5.537
 3850SOL     OW23580   2.684   6.588   6.958
 3850SOL    HW123581   2.724   6.587   6.866
 3850SOL    HW223582   2.694   6.680   6.998
 3851SOL     OW23583   2.778   6.496   5.877
 3851SOL    HW123584   2.841   6.534   5.809
 3851SOL    HW223585   2.818   6.413   5.916
 3852SOL     OW23586   2.901   6.684   6.282
 3852SOL    HW123587   2.831   6.637   6.336
 3852SOL    HW223588   2.960   6.616   6.239
 3853SOL     OW23589   2.876   5.822   6.557
 3853SOL    HW123590   2.868   5.786   6.464
 3853SOL    HW223591   2.874   5.746   6.622
 3854SOL     OW23592   2.452   7.073   6.077
 3854SOL    HW123593   2.494   7.015   6.007
 3854SOL    HW223594   2.408   7.152   6.033
 3855SOL     OW23595   2.117   6.934   5.876
 3855SOL    HW123596   2.021   6.935   5.849
 3855SOL    HW223597   2.129   6.987   5.960
 3856SOL     OW23598   1.934   5.752   5.904
 3856SOL    HW123599   1.917   5.835   5.850
 3856SOL    HW223600   2.024   5.715   5.882
 3857SOL     OW23601   3.045   6.921   5.705
 3857SOL    HW123602   2.946   6.910   5.707
 3857SOL    HW223603   3.079   6.936   5.798
 3858SOL     OW23604   3.355   7.353   6.545
 3858SOL    HW123605   3.388   7.417   6.476
 3858SOL    HW223606   3.421   7.347   6.620
 3859SOL     OW23607   3.312   6.806   7.219
 3859SOL    HW123608   3.303   6.796   7.318
 3859SOL    HW223609   3.408   6.799   7.193
 3860SOL     OW23610   3.087   5.911   6.035
 3860SOL    HW123611   3.152   5.837   6.024
 3860SOL    HW223612   3.107   5.961   6.119
 3861SOL     OW23613   2.456   6.331   6.238
 3861SOL    HW123614   2.506   6.416   6.219
 3861SOL    HW223615   2.368   6.333   6.190
 3862SOL     OW23616   3.592   6.520   7.103
 3862SOL    HW123617   3.630   6.611   7.118
 3862SOL    HW223618   3.584   6.503   7.004
 3863SOL     OW23619   2.721   6.960   5.602
 3863SOL    HW123620   2.675   6.975   5.690
 3863SOL    HW223621   2.765   7.045   5.572
 3864SOL     OW23622   2.523   7.376   6.539
 3864SOL    HW123623   2.477   7.464   6.526
 3864SOL    HW223624   2.622   7.388   6.532
 3865SOL     OW23625   2.721   6.542   6.447
 3865SOL    HW123626   2.775   6.473   6.495
 3865SOL    HW223627   2.689   6.611   6.513
 3866SOL     OW23628   2.945   6.570   5.673
 3866SOL    HW123629   2.922   6.623   5.591
 3866SOL    HW223630   3.026   6.514   5.654
 3867SOL     OW23631   3.723   7.155   6.437
 3867SOL    HW123632   3.652   7.143   6.367
 3867SOL    HW223633   3.724   7.076   6.497
 3868SOL     OW23634   1.941   6.826   6.239
 3868SOL    HW123635   1.940   6.779   6.327
 3868SOL    HW223636   2.023   6.798   6.188
 3869SOL     OW23637   3.686   5.778   6.813
 3869SOL    HW123638   3.682   5.688   6.857
 3869SOL    HW223639   3.689   5.767   6.714
 3870SOL     OW23640   2.290   6.010   6.106
 3870SOL    HW123641   2.320   5.938   6.044
 3870SOL    HW223642   2.251   5.970   6.189
 3871SOL     OW23643   3.567   7.073   6.690
 3871SOL    HW123644   3.474   7.048   6.663
 3871SOL    HW223645   3.593   7.023   6.772
 3872SOL     OW23646   2.674   7.172   6.273
 3872SOL    HW123647   2.706   7.182   6.179
 3872SOL    HW223648   2.595   7.110   6.275
 3873SOL     OW23649   3.286   5.800   6.698
 3873SOL    HW123650   3.338   5.735   6.753
 3873SOL    HW223651   3.237   5.863   6.759
 3874SOL     OW23652   2.863   5.620   6.740
 3874SOL    HW123653   2.800   5.548   6.709
 3874SOL    HW223654   2.956   5.584   6.740
 3875SOL     OW23655   2.632   6.916   5.887
 3875SOL    HW123656   2.586   6.829   5.904
 3875SOL    HW223657   2.723   6.913   5.928
 3876SOL     OW23658   3.214   5.638   5.754
 3876SOL    HW123659   3.249   5.597   5.670
 3876SOL    HW223660   3.124   5.600   5.774
 3877SOL     OW23661   3.162   6.039   6.277
 3877SOL    HW123662   3.103   6.119   6.281
 3877SOL    HW223663   3.177   6.004   6.370
 3878SOL     OW23664   3.455   5.807   6.468
 3878SOL    HW123665   3.371   5.806   6.522
 3878SOL    HW223666   3.457   5.890   6.412
 3879SOL     OW23667   1.901   6.663   5.886
 3879SOL    HW123668   2.000   6.652   5.877
 3879SOL    HW223669   1.861   6.577   5.918
 3880SOL     OW23670   2.737   7.232   5.923
 3880SOL    HW123671   2.660   7.197   5.869
 3880SOL    HW223672   2.705   7.303   5.985
 3881SOL     OW23673   2.092   8.076   0.113
 3881SOL    HW123674   1.999   8.074   0.150
 3881SOL    HW223675   2.093   8.037   0.021
 3882SOL     OW23676   2.087   7.723   0.996
 3882SOL    HW123677   2.122   7.706   1.088
 3882SOL    HW223678   1.999   7.678   0.984
 3883SOL     OW23679   1.881   7.816   0.647
 3883SOL    HW123680   1.799   7.859   0.686
 3883SOL    HW223681   1.853   7.743   0.584
 3884SOL     OW23682   2.997   8.151   0.717
 3884SOL    HW123683   3.054   8.229   0.692
 3884SOL    HW223684   2.937   8.177   0.793
 3885SOL     OW23685   3.617   8.055   0.231
 3885SOL    HW123686   3.605   8.042   0.132
 3885SOL    HW223687   3.587   7.974   0.280
 3886SOL     OW23688   2.630   8.592   1.023
 3886SOL    HW123689   2.552   8.609   1.083
 3886SOL    HW223690   2.664   8.679   0.987
 3887SOL     OW23691   2.300   7.840   1.499
 3887SOL    HW123692   2.382   7.784   1.508
 3887SOL    HW223693   2.219   7.782   1.503
 3888SOL     OW23694   3.465   7.895   0.737
 3888SOL    HW123695   3.391   7.941   0.687
 3888SOL    HW223696   3.516   7.963   0.790
 3889SOL     OW23697   2.102   8.539   0.886
 3889SOL    HW123698   2.116   8.455   0.938
 3889SOL    HW223699   2.047   8.603   0.941
 3890SOL     OW23700   1.984   8.091   0.563
 3890SOL    HW123701   1.939   8.003   0.580
 3890SOL    HW223702   1.983   8.145   0.647
 3891SOL     OW23703   1.975   8.185   1.597
 3891SOL    HW123704   2.063   8.172   1.642
 3891SOL    HW223705   1.962   8.282   1.575
 3892SOL     OW23706   2.671   7.452   0.502
 3892SOL    HW123707   2.711   7.543   0.493
 3892SOL    HW223708   2.571   7.460   0.508
 3893SOL     OW23709   2.059   8.424   1.264
 3893SOL    HW123710   2.148   8.379   1.250
 3893SOL    HW223711   1.986   8.359   1.245
 3894SOL     OW23712   3.387   8.447   0.190
 3894SOL    HW123713   3.324   8.371   0.203
 3894SOL    HW223714   3.435   8.465   0.276
 3895SOL     OW23715   3.143   7.793   0.944
 3895SOL    HW123716   3.057   7.743   0.931
 3895SOL    HW223717   3.205   7.739   1.000
 3896SOL     OW23718   3.256   7.917   1.674
 3896SOL    HW123719   3.236   7.960   1.762
 3896SOL    HW223720   3.334   7.855   1.683
 3897SOL     OW23721   1.938   8.259   0.789
 3897SOL    HW123722   2.037   8.247   0.798
 3897SOL    HW223723   1.914   8.354   0.810
 3898SOL     OW23724   2.727   7.796   0.195
 3898SOL    HW123725   2.786   7.859   0.146
 3898SOL    HW223726   2.746   7.702   0.166
 3899SOL     OW23727   2.412   7.644   0.885
 3899SOL    HW123728   2.407   7.639   0.985
 3899SOL    HW223729   2.414   7.740   0.856
 3900SOL     OW23730   3.320   8.183   0.728
 3900SOL    HW123731   3.315   8.118   0.803
 3900SOL    HW223732   3.400   8.242   0.741
 3901SOL     OW23733   3.262   7.555   0.426
 3901SOL    HW123734   3.238   7.518   0.336
 3901SOL    HW223735   3.361   7.571   0.430
 3902SOL     OW23736   3.409   7.670   1.729
 3902SOL    HW123737   3.404   7.707   1.821
 3902SOL    HW223738   3.337   7.601   1.717
 3903SOL     OW23739   2.476   7.570   0.117
 3903SOL    HW123740   2.574   7.548   0.124
 3903SOL    HW223741   2.445   7.553   0.024
 3904SOL     OW23742   3.213   8.038   1.433
 3904SOL    HW123743   3.241   7.995   1.518
 3904SOL    HW223744   3.238   8.134   1.434
 3905SOL     OW23745   2.784   7.951   0.899
 3905SOL    HW123746   2.759   7.942   0.803
 3905SOL    HW223747   2.832   7.869   0.930
 3906SOL     OW23748   2.401   7.512   0.512
 3906SOL    HW123749   2.320   7.513   0.570
 3906SOL    HW223750   2.404   7.595   0.457
 3907SOL     OW23751   2.159   7.483   0.171
 3907SOL    HW123752   2.208   7.567   0.150
 3907SOL    HW223753   2.221   7.418   0.216
 3908SOL     OW23754   2.797   7.684   0.480
 3908SOL    HW123755   2.749   7.725   0.402
 3908SOL    HW223756   2.896   7.682   0.461
 3909SOL     OW23757   2.938   8.131   1.464
 3909SOL    HW123758   2.858   8.070   1.467
 3909SOL    HW223759   3.019   8.078   1.440
 3910SOL     OW23760   2.894   7.997   0.016
 3910SOL    HW123761   2.853   8.079  -0.023
 3910SOL    HW223762   2.958   8.023   0.089
 3911SOL     OW23763   2.423   7.670   1.147
 3911SOL    HW123764   2.461   7.586   1.184
 3911SOL    HW223765   2.335   7.689   1.191
 3912SOL     OW23766   2.728   7.902   0.642
 3912SOL    HW123767   2.696   7.974   0.580
 3912SOL    HW223768   2.752   7.821   0.589
 3913SOL     OW23769   2.879   7.487   0.753
 3913SOL    HW123770   2.807   7.492   0.684
 3913SOL    HW223771   2.855   7.418   0.822
 3914SOL     OW23772   3.328   8.038   0.992
 3914SOL    HW123773   3.298   7.943   0.999
 3914SOL    HW223774   3.401   8.054   1.058
 3915SOL     OW23775   3.719   8.281   0.377
 3915SOL    HW123776   3.761   8.217   0.441
 3915SOL    HW223777   3.681   8.230   0.299
 3916SOL     OW23778   3.252   8.023   0.078
 3916SOL    HW123779   3.198   8.002   0.159
 3916SOL    HW223780   3.343   7.982   0.087
 3917SOL     OW23781   3.500   8.547   1.079
 3917SOL    HW123782   3.505   8.628   1.138
 3917SOL    HW223783   3.414   8.549   1.028
 3918SOL     OW23784   3.136   7.834   1.262
 3918SOL    HW123785   3.157   7.908   1.326
 3918SOL    HW223786   3.047   7.851   1.219
 3919SOL     OW23787   2.428   7.985   0.865
 3919SOL    HW123788   2.440   8.051   0.791
 3919SOL    HW223789   2.474   8.019   0.948
 3920SOL     OW23790   3.444   8.087   0.472
 3920SOL    HW123791   3.413   8.148   0.545
 3920SOL    HW223792   3.494   8.139   0.403
 3921SOL     OW23793   2.366   7.498   1.740
 3921SOL    HW123794   2.324   7.441   1.670
 3921SOL    HW223795   2.300   7.567   1.772
 3922SOL     OW23796   2.435   8.318   1.029
 3922SOL    HW123797   2.479   8.407   1.020
 3922SOL    HW223798   2.372   8.318   1.106
 3923SOL     OW23799   3.222   8.310   1.045
 3923SOL    HW123800   3.147   8.310   0.979
 3923SOL    HW223801   3.259   8.218   1.054
 3924SOL     OW23802   3.071   7.973   0.275
 3924SOL    HW123803   3.084   7.889   0.329
 3924SOL    HW223804   3.042   8.047   0.335
 3925SOL     OW23805   2.169   7.661   1.231
 3925SOL    HW123806   2.146   7.698   1.321
 3925SOL    HW223807   2.139   7.566   1.225
 3926SOL     OW23808   2.594   8.082   1.064
 3926SOL    HW123809   2.653   8.056   0.988
 3926SOL    HW223810   2.566   8.178   1.053
 3927SOL     OW23811   3.590   8.383   1.854
 3927SOL    HW123812   3.544   8.376   1.765
 3927SOL    HW223813   3.528   8.427   1.920
 3928SOL     OW23814   2.169   7.511   0.618
 3928SOL    HW123815   2.158   7.605   0.651
 3928SOL    HW223816   2.164   7.448   0.695
 3929SOL     OW23817   3.484   7.815   0.374
 3929SOL    HW123818   3.486   7.739   0.438
 3929SOL    HW223819   3.436   7.892   0.414
 3930SOL     OW23820   2.885   8.214   0.966
 3930SOL    HW123821   2.900   8.235   1.062
 3930SOL    HW223822   2.855   8.119   0.957
 3931SOL     OW23823   3.402   7.722   0.125
 3931SOL    HW123824   3.341   7.647   0.148
 3931SOL    HW223825   3.424   7.774   0.208
 3932SOL     OW23826   3.165   8.286   0.042
 3932SOL    HW123827   3.199   8.193   0.057
 3932SOL    HW223828   3.183   8.313  -0.053
 3933SOL     OW23829   2.181   8.258   0.949
 3933SOL    HW123830   2.274   8.294   0.954
 3933SOL    HW223831   2.175   8.173   1.001
 3934SOL     OW23832   2.201   7.957   1.006
 3934SOL    HW123833   2.149   7.874   0.989
 3934SOL    HW223834   2.278   7.962   0.942
 3935SOL     OW23835   3.000   7.828   1.678
 3935SOL    HW123836   2.955   7.891   1.742
 3935SOL    HW223837   3.093   7.859   1.661
 3936SOL     OW23838   3.022   7.655   1.477
 3936SOL    HW123839   3.022   7.719   1.554
 3936SOL    HW223840   3.050   7.703   1.394
 3937SOL     OW23841   2.864   8.244   1.238
 3937SOL    HW123842   2.905   8.212   1.324
 3937SOL    HW223843   2.768   8.217   1.235
 3938SOL     OW23844   1.902   7.992   1.114
 3938SOL    HW123845   1.987   7.959   1.073
 3938SOL    HW223846   1.915   8.007   1.212
 3939SOL     OW23847   3.519   8.052   1.206
 3939SOL    HW123848   3.481   7.983   1.268
 3939SOL    HW223849   3.601   8.016   1.162
 3940SOL     OW23850   3.209   8.507   1.234
 3940SOL    HW123851   3.233   8.444   1.160
 3940SOL    HW223852   3.119   8.547   1.216
 3941SOL     OW23853   3.164   8.303   0.309
 3941SOL    HW123854   3.078   8.272   0.351
 3941SOL    HW223855   3.160   8.289   0.210
 3942SOL     OW23856   2.765   7.534   0.133
 3942SOL    HW123857   2.816   7.535   0.047
 3942SOL    HW223858   2.821   7.492   0.204
 3943SOL     OW23859   3.588   7.583   0.523
 3943SOL    HW123860   3.661   7.566   0.456
 3943SOL    HW223861   3.557   7.496   0.561
 3944SOL     OW23862   3.142   8.375   0.672
 3944SOL    HW123863   3.202   8.294   0.674
 3944SOL    HW223864   3.182   8.444   0.612
 3945SOL     OW23865   3.703   7.623   0.963
 3945SOL    HW123866   3.742   7.538   0.927
 3945SOL    HW223867   3.605   7.625   0.944
 3946SOL     OW23868   2.125   7.774   0.720
 3946SOL    HW123869   2.046   7.825   0.686
 3946SOL    HW223870   2.116   7.759   0.818
 3947SOL     OW23871   2.778   8.358   0.291
 3947SOL    HW123872   2.841   8.396   0.223
 3947SOL    HW223873   2.818   8.275   0.330
 3948SOL     OW23874   2.876   7.684   0.971
 3948SOL    HW123875   2.868   7.648   0.878
 3948SOL    HW223876   2.874   7.608   1.036
 3949SOL     OW23877   3.571   7.833   1.381
 3949SOL    HW123878   3.644   7.902   1.385
 3949SOL    HW223879   3.599   7.758   1.322
 3950SOL     OW23880   1.967   8.461   1.726
 3950SOL    HW123881   1.890   8.428   1.780
 3950SOL    HW223882   2.052   8.431   1.768
 3951SOL     OW23883   3.302   8.304   1.398
 3951SOL    HW123884   3.245   8.356   1.335
 3951SOL    HW223885   3.398   8.316   1.374
 3952SOL     OW23886   1.934   7.614   0.318
 3952SOL    HW123887   1.917   7.697   0.264
 3952SOL    HW223888   2.024   7.577   0.296
 3953SOL     OW23889   3.536   8.331   1.254
 3953SOL    HW123890   3.509   8.242   1.217
 3953SOL    HW223891   3.537   8.399   1.181
 3954SOL     OW23892   3.087   7.773   0.449
 3954SOL    HW123893   3.152   7.699   0.438
 3954SOL    HW223894   3.107   7.823   0.533
 3955SOL     OW23895   2.456   8.193   0.652
 3955SOL    HW123896   2.506   8.278   0.633
 3955SOL    HW223897   2.368   8.195   0.604
 3956SOL     OW23898   3.592   8.382   1.517
 3956SOL    HW123899   3.630   8.473   1.532
 3956SOL    HW223900   3.584   8.365   1.418
 3957SOL     OW23901   2.945   8.432   0.087
 3957SOL    HW123902   2.922   8.485   0.005
 3957SOL    HW223903   3.026   8.376   0.068
 3958SOL     OW23904   3.686   7.640   1.227
 3958SOL    HW123905   3.682   7.550   1.271
 3958SOL    HW223906   3.689   7.629   1.128
 3959SOL     OW23907   2.290   7.872   0.520
 3959SOL    HW123908   2.320   7.800   0.458
 3959SOL    HW223909   2.251   7.832   0.603
 3960SOL     OW23910   2.179   7.995   1.280
 3960SOL    HW123911   2.217   7.936   1.352
 3960SOL    HW223912   2.219   7.969   1.192
 3961SOL     OW23913   3.286   7.662   1.112
 3961SOL    HW123914   3.338   7.597   1.167
 3961SOL    HW223915   3.237   7.725   1.173
 3962SOL     OW23916   2.863   7.482   1.154
 3962SOL    HW123917   2.800   7.410   1.123
 3962SOL    HW223918   2.956   7.446   1.154
 3963SOL     OW23919   3.214   7.500   0.168
 3963SOL    HW123920   3.249   7.459   0.084
 3963SOL    HW223921   3.124   7.462   0.188
 3964SOL     OW23922   3.162   7.901   0.691
 3964SOL    HW123923   3.103   7.981   0.695
 3964SOL    HW223924   3.177   7.866   0.784
 3965SOL     OW23925   3.455   7.669   0.882
 3965SOL    HW123926   3.371   7.668   0.936
 3965SOL    HW223927   3.457   7.752   0.826
 3966SOL     OW23928   1.901   8.525   0.300
 3966SOL    HW123929   2.000   8.514   0.291
 3966SOL    HW223930   1.861   8.439   0.332
 3967SOL     OW23931   2.087   7.723   2.858
 3967SOL    HW123932   2.122   7.706   2.950
 3967SOL    HW223933   1.999   7.678   2.846
 3968SOL     OW23934   1.975   8.185   3.459
 3968SOL    HW123935   2.063   8.172   3.504
 3968SOL    HW223936   1.962   8.282   3.437
 3969SOL     OW23937   2.059   8.424   3.126
 3969SOL    HW123938   2.148   8.379   3.112
 3969SOL    HW223939   1.986   8.359   3.107
 3970SOL     OW23940   3.387   8.447   2.052
 3970SOL    HW123941   3.324   8.371   2.065
 3970SOL    HW223942   3.435   8.465   2.138
 3971SOL     OW23943   2.179   7.699   3.663
 3971SOL    HW123944   2.250   7.770   3.669
 3971SOL    HW223945   2.091   7.738   3.691
 3972SOL     OW23946   3.143   7.793   2.806
 3972SOL    HW123947   3.057   7.743   2.793
 3972SOL    HW223948   3.205   7.739   2.862
 3973SOL     OW23949   2.669   8.053   3.327
 3973SOL    HW123950   2.622   8.050   3.416
 3973SOL    HW223951   2.618   7.998   3.261
 3974SOL     OW23952   2.853   7.858   3.104
 3974SOL    HW123953   2.776   7.892   3.158
 3974SOL    HW223954   2.819   7.807   3.025
 3975SOL     OW23955   3.262   7.555   2.288
 3975SOL    HW123956   3.238   7.518   2.198
 3975SOL    HW223957   3.361   7.571   2.292
 3976SOL     OW23958   3.409   7.670   3.591
 3976SOL    HW123959   3.404   7.707   3.683
 3976SOL    HW223960   3.337   7.601   3.579
 3977SOL     OW23961   3.213   8.038   3.295
 3977SOL    HW123962   3.241   7.995   3.380
 3977SOL    HW223963   3.238   8.134   3.296
 3978SOL     OW23964   2.159   7.483   2.033
 3978SOL    HW123965   2.208   7.567   2.012
 3978SOL    HW223966   2.221   7.418   2.078
 3979SOL     OW23967   2.728   7.902   2.504
 3979SOL    HW123968   2.696   7.974   2.442
 3979SOL    HW223969   2.752   7.821   2.451
 3980SOL     OW23970   3.328   8.038   2.854
 3980SOL    HW123971   3.298   7.943   2.861
 3980SOL    HW223972   3.401   8.054   2.920
 3981SOL     OW23973   3.500   8.547   2.941
 3981SOL    HW123974   3.505   8.628   3.000
 3981SOL    HW223975   3.414   8.549   2.890
 3982SOL     OW23976   3.444   8.087   2.334
 3982SOL    HW123977   3.413   8.148   2.407
 3982SOL    HW223978   3.494   8.139   2.265
 3983SOL     OW23979   3.590   8.383   3.716
 3983SOL    HW123980   3.544   8.376   3.627
 3983SOL    HW223981   3.528   8.427   3.782
 3984SOL     OW23982   3.165   8.286   1.904
 3984SOL    HW123983   3.199   8.193   1.919
 3984SOL    HW223984   3.183   8.313   1.809
 3985SOL     OW23985   2.051   7.968   3.584
 3985SOL    HW123986   2.110   7.928   3.514
 3985SOL    HW223987   1.993   8.039   3.543
 3986SOL     OW23988   3.231   8.398   3.522
 3986SOL    HW123989   3.270   8.487   3.542
 3986SOL    HW223990   3.241   8.378   3.425
 3987SOL     OW23991   3.519   8.052   3.068
 3987SOL    HW123992   3.481   7.983   3.130
 3987SOL    HW223993   3.601   8.016   3.024
 3988SOL     OW23994   3.209   8.507   3.096
 3988SOL    HW123995   3.233   8.444   3.022
 3988SOL    HW223996   3.119   8.547   3.078
 3989SOL     OW23997   3.164   8.303   2.171
 3989SOL    HW123998   3.078   8.272   2.213
 3989SOL    HW223999   3.160   8.289   2.072
 3990SOL     OW24000   3.588   7.583   2.385
 3990SOL    HW124001   3.661   7.566   2.318
 3990SOL    HW224002   3.557   7.496   2.423
 3991SOL     OW24003   3.142   8.375   2.534
 3991SOL    HW124004   3.202   8.294   2.536
 3991SOL    HW224005   3.182   8.444   2.474
 3992SOL     OW24006   3.703   7.623   2.825
 3992SOL    HW124007   3.742   7.538   2.789
 3992SOL    HW224008   3.605   7.625   2.806
 3993SOL     OW24009   3.571   7.833   3.243
 3993SOL    HW124010   3.644   7.902   3.247
 3993SOL    HW224011   3.599   7.758   3.184
 3994SOL     OW24012   1.967   8.461   3.588
 3994SOL    HW124013   1.890   8.428   3.642
 3994SOL    HW224014   2.052   8.431   3.630
 3995SOL     OW24015   2.475   8.290   3.293
 3995SOL    HW124016   2.531   8.371   3.276
 3995SOL    HW224017   2.534   8.210   3.296
 3996SOL     OW24018   3.639   7.790   3.504
 3996SOL    HW124019   3.622   7.821   3.410
 3996SOL    HW224020   3.555   7.753   3.542
 3997SOL     OW24021   2.945   8.432   1.949
 3997SOL    HW124022   2.922   8.485   1.867
 3997SOL    HW224023   3.026   8.376   1.930
 3998SOL     OW24024   2.179   7.995   3.142
 3998SOL    HW124025   2.217   7.936   3.214
 3998SOL    HW224026   2.219   7.969   3.054
 3999SOL     OW24027   3.214   7.500   2.030
 3999SOL    HW124028   3.249   7.459   1.946
 3999SOL    HW224029   3.124   7.462   2.050
 4000SOL     OW24030   3.455   7.669   2.744
 4000SOL    HW124031   3.371   7.668   2.798
 4000SOL    HW224032   3.457   7.752   2.688
 4001SOL     OW24033   2.997   8.151   4.441
 4001SOL    HW124034   3.054   8.229   4.416
 4001SOL    HW224035   2.937   8.177   4.517
 4002SOL     OW24036   2.712   8.246   5.547
 4002SOL    HW124037   2.708   8.322   5.612
 4002SOL    HW224038   2.734   8.282   5.456
 4003SOL     OW24039   2.300   7.840   5.223
 4003SOL    HW124040   2.382   7.784   5.232
 4003SOL    HW224041   2.219   7.782   5.227
 4004SOL     OW24042   3.465   7.895   4.461
 4004SOL    HW124043   3.391   7.941   4.411
 4004SOL    HW224044   3.516   7.963   4.514
 4005SOL     OW24045   1.984   8.091   4.287
 4005SOL    HW124046   1.939   8.003   4.304
 4005SOL    HW224047   1.983   8.145   4.371
 4006SOL     OW24048   2.671   7.452   4.226
 4006SOL    HW124049   2.711   7.543   4.217
 4006SOL    HW224050   2.571   7.460   4.232
 4007SOL     OW24051   2.179   7.699   5.525
 4007SOL    HW124052   2.250   7.770   5.531
 4007SOL    HW224053   2.091   7.738   5.553
 4008SOL     OW24054   3.143   7.793   4.668
 4008SOL    HW124055   3.057   7.743   4.655
 4008SOL    HW224056   3.205   7.739   4.724
 4009SOL     OW24057   2.669   8.053   5.189
 4009SOL    HW124058   2.622   8.050   5.278
 4009SOL    HW224059   2.618   7.998   5.123
 4010SOL     OW24060   3.256   7.917   5.398
 4010SOL    HW124061   3.236   7.960   5.486
 4010SOL    HW224062   3.334   7.855   5.407
 4011SOL     OW24063   3.581   8.033   5.555
 4011SOL    HW124064   3.555   8.122   5.519
 4011SOL    HW224065   3.579   7.965   5.482
 4012SOL     OW24066   2.064   7.733   5.222
 4012SOL    HW124067   1.984   7.793   5.209
 4012SOL    HW224068   2.054   7.684   5.308
 4013SOL     OW24069   3.409   7.670   5.453
 4013SOL    HW124070   3.404   7.707   5.545
 4013SOL    HW224071   3.337   7.601   5.441
 4014SOL     OW24072   2.643   7.712   5.473
 4014SOL    HW124073   2.710   7.651   5.516
 4014SOL    HW224074   2.570   7.731   5.538
 4015SOL     OW24075   2.159   7.483   3.895
 4015SOL    HW124076   2.208   7.567   3.874
 4015SOL    HW224077   2.221   7.418   3.940
 4016SOL     OW24078   2.797   7.684   4.204
 4016SOL    HW124079   2.749   7.725   4.126
 4016SOL    HW224080   2.896   7.682   4.185
 4017SOL     OW24081   2.423   7.670   4.871
 4017SOL    HW124082   2.461   7.586   4.908
 4017SOL    HW224083   2.335   7.689   4.915
 4018SOL     OW24084   3.136   7.834   4.986
 4018SOL    HW124085   3.157   7.908   5.050
 4018SOL    HW224086   3.047   7.851   4.943
 4019SOL     OW24087   2.428   7.985   4.589
 4019SOL    HW124088   2.440   8.051   4.515
 4019SOL    HW224089   2.474   8.019   4.672
 4020SOL     OW24090   3.449   8.227   5.394
 4020SOL    HW124091   3.357   8.265   5.389
 4020SOL    HW224092   3.509   8.274   5.329
 4021SOL     OW24093   2.875   7.553   5.494
 4021SOL    HW124094   2.881   7.638   5.442
 4021SOL    HW224095   2.907   7.477   5.437
 4022SOL     OW24096   2.366   7.498   5.464
 4022SOL    HW124097   2.324   7.441   5.394
 4022SOL    HW224098   2.300   7.567   5.496
 4023SOL     OW24099   3.590   8.383   5.578
 4023SOL    HW124100   3.544   8.376   5.489
 4023SOL    HW224101   3.528   8.427   5.644
 4024SOL     OW24102   2.212   8.346   5.528
 4024SOL    HW124103   2.288   8.390   5.576
 4024SOL    HW224104   2.247   8.299   5.446
 4025SOL     OW24105   3.000   7.828   5.402
 4025SOL    HW124106   2.955   7.891   5.466
 4025SOL    HW224107   3.093   7.859   5.385
 4026SOL     OW24108   3.022   7.655   5.201
 4026SOL    HW124109   3.022   7.719   5.278
 4026SOL    HW224110   3.050   7.703   5.118
 4027SOL     OW24111   3.231   8.398   5.384
 4027SOL    HW124112   3.270   8.487   5.404
 4027SOL    HW224113   3.241   8.378   5.287
 4028SOL     OW24114   2.677   8.020   4.049
 4028SOL    HW124115   2.684   7.931   4.003
 4028SOL    HW224116   2.583   8.054   4.041
 4029SOL     OW24117   3.588   7.583   4.247
 4029SOL    HW124118   3.661   7.566   4.180
 4029SOL    HW224119   3.557   7.496   4.285
 4030SOL     OW24120   3.142   8.375   4.396
 4030SOL    HW124121   3.202   8.294   4.398
 4030SOL    HW224122   3.182   8.444   4.336
 4031SOL     OW24123   2.125   7.774   4.444
 4031SOL    HW124124   2.046   7.825   4.410
 4031SOL    HW224125   2.116   7.759   4.542
 4032SOL     OW24126   3.571   7.833   5.105
 4032SOL    HW124127   3.644   7.902   5.109
 4032SOL    HW224128   3.599   7.758   5.046
 4033SOL     OW24129   1.967   8.461   5.450
 4033SOL    HW124130   1.890   8.428   5.504
 4033SOL    HW224131   2.052   8.431   5.492
 4034SOL     OW24132   2.578   8.013   5.432
 4034SOL    HW124133   2.597   8.078   5.506
 4034SOL    HW224134   2.638   7.933   5.441
 4035SOL     OW24135   3.639   7.790   5.366
 4035SOL    HW124136   3.622   7.821   5.272
 4035SOL    HW224137   3.555   7.753   5.404
 4036SOL     OW24138   2.945   8.432   3.811
 4036SOL    HW124139   2.922   8.485   3.729
 4036SOL    HW224140   3.026   8.376   3.792
 4037SOL     OW24141   3.686   7.640   4.951
 4037SOL    HW124142   3.682   7.550   4.995
 4037SOL    HW224143   3.689   7.629   4.852
 4038SOL     OW24144   2.290   7.872   4.244
 4038SOL    HW124145   2.320   7.800   4.182
 4038SOL    HW224146   2.251   7.832   4.327
 4039SOL     OW24147   3.214   7.500   3.892
 4039SOL    HW124148   3.249   7.459   3.808
 4039SOL    HW224149   3.124   7.462   3.912
 4040SOL     OW24150   3.162   7.901   4.415
 4040SOL    HW124151   3.103   7.981   4.419
 4040SOL    HW224152   3.177   7.866   4.508
 4041SOL     OW24153   2.087   7.723   6.582
 4041SOL    HW124154   2.122   7.706   6.674
 4041SOL    HW224155   1.999   7.678   6.570
 4042SOL     OW24156   1.881   7.816   6.233
 4042SOL    HW124157   1.799   7.859   6.272
 4042SOL    HW224158   1.853   7.743   6.170
 4043SOL     OW24159   2.997   8.151   6.303
 4043SOL    HW124160   3.054   8.229   6.278
 4043SOL    HW224161   2.937   8.177   6.379
 4044SOL     OW24162   3.617   8.055   5.817
 4044SOL    HW124163   3.605   8.042   5.718
 4044SOL    HW224164   3.587   7.974   5.866
 4045SOL     OW24165   2.630   8.592   6.609
 4045SOL    HW124166   2.552   8.609   6.669
 4045SOL    HW224167   2.664   8.679   6.573
 4046SOL     OW24168   2.547   8.460   6.251
 4046SOL    HW124169   2.616   8.444   6.321
 4046SOL    HW224170   2.474   8.517   6.289
 4047SOL     OW24171   3.465   7.895   6.323
 4047SOL    HW124172   3.391   7.941   6.273
 4047SOL    HW224173   3.516   7.963   6.376
 4048SOL     OW24174   2.102   8.539   6.472
 4048SOL    HW124175   2.116   8.455   6.524
 4048SOL    HW224176   2.047   8.603   6.527
 4049SOL     OW24177   1.984   8.091   6.149
 4049SOL    HW124178   1.939   8.003   6.166
 4049SOL    HW224179   1.983   8.145   6.233
 4050SOL     OW24180   2.671   7.452   6.088
 4050SOL    HW124181   2.711   7.543   6.079
 4050SOL    HW224182   2.571   7.460   6.094
 4051SOL     OW24183   2.059   8.424   6.850
 4051SOL    HW124184   2.148   8.379   6.836
 4051SOL    HW224185   1.986   8.359   6.831
 4052SOL     OW24186   3.387   8.447   5.776
 4052SOL    HW124187   3.324   8.371   5.789
 4052SOL    HW224188   3.435   8.465   5.862
 4053SOL     OW24189   2.460   8.177   5.856
 4053SOL    HW124190   2.484   8.246   5.788
 4053SOL    HW224191   2.382   8.210   5.910
 4054SOL     OW24192   3.143   7.793   6.530
 4054SOL    HW124193   3.057   7.743   6.517
 4054SOL    HW224194   3.205   7.739   6.586
 4055SOL     OW24195   2.853   7.858   6.828
 4055SOL    HW124196   2.776   7.892   6.882
 4055SOL    HW224197   2.819   7.807   6.749
 4056SOL     OW24198   2.903   8.149   6.015
 4056SOL    HW124199   2.929   8.145   6.111
 4056SOL    HW224200   2.818   8.098   6.001
 4057SOL     OW24201   1.938   8.259   6.375
 4057SOL    HW124202   2.037   8.247   6.384
 4057SOL    HW224203   1.914   8.354   6.396
 4058SOL     OW24204   2.727   7.796   5.781
 4058SOL    HW124205   2.786   7.859   5.732
 4058SOL    HW224206   2.746   7.702   5.752
 4059SOL     OW24207   2.412   7.644   6.471
 4059SOL    HW124208   2.407   7.639   6.571
 4059SOL    HW224209   2.414   7.740   6.442
 4060SOL     OW24210   3.320   8.183   6.314
 4060SOL    HW124211   3.315   8.118   6.389
 4060SOL    HW224212   3.400   8.242   6.327
 4061SOL     OW24213   3.262   7.555   6.012
 4061SOL    HW124214   3.238   7.518   5.922
 4061SOL    HW224215   3.361   7.571   6.016
 4062SOL     OW24216   2.244   8.148   6.066
 4062SOL    HW124217   2.289   8.058   6.063
 4062SOL    HW224218   2.150   8.137   6.099
 4063SOL     OW24219   2.476   7.570   5.703
 4063SOL    HW124220   2.574   7.548   5.710
 4063SOL    HW224221   2.445   7.553   5.610
 4064SOL     OW24222   2.784   7.951   6.485
 4064SOL    HW124223   2.759   7.942   6.389
 4064SOL    HW224224   2.832   7.869   6.516
 4065SOL     OW24225   2.401   7.512   6.098
 4065SOL    HW124226   2.320   7.513   6.156
 4065SOL    HW224227   2.404   7.595   6.043
 4066SOL     OW24228   2.159   7.483   5.757
 4066SOL    HW124229   2.208   7.567   5.736
 4066SOL    HW224230   2.221   7.418   5.802
 4067SOL     OW24231   2.797   7.684   6.066
 4067SOL    HW124232   2.749   7.725   5.988
 4067SOL    HW224233   2.896   7.682   6.047
 4068SOL     OW24234   2.894   7.997   5.602
 4068SOL    HW124235   2.853   8.079   5.563
 4068SOL    HW224236   2.958   8.023   5.675
 4069SOL     OW24237   2.423   7.670   6.733
 4069SOL    HW124238   2.461   7.586   6.770
 4069SOL    HW224239   2.335   7.689   6.777
 4070SOL     OW24240   2.728   7.902   6.228
 4070SOL    HW124241   2.696   7.974   6.166
 4070SOL    HW224242   2.752   7.821   6.175
 4071SOL     OW24243   2.879   7.487   6.339
 4071SOL    HW124244   2.807   7.492   6.270
 4071SOL    HW224245   2.855   7.418   6.408
 4072SOL     OW24246   3.328   8.038   6.578
 4072SOL    HW124247   3.298   7.943   6.585
 4072SOL    HW224248   3.401   8.054   6.644
 4073SOL     OW24249   3.252   8.023   5.664
 4073SOL    HW124250   3.198   8.002   5.745
 4073SOL    HW224251   3.343   7.982   5.673
 4074SOL     OW24252   2.389   7.704   5.914
 4074SOL    HW124253   2.416   7.645   5.839
 4074SOL    HW224254   2.389   7.799   5.883
 4075SOL     OW24255   3.500   8.547   6.665
 4075SOL    HW124256   3.505   8.628   6.724
 4075SOL    HW224257   3.414   8.549   6.614
 4076SOL     OW24258   2.272   8.261   6.837
 4076SOL    HW124259   2.358   8.273   6.887
 4076SOL    HW224260   2.230   8.174   6.864
 4077SOL     OW24261   3.136   7.834   6.848
 4077SOL    HW124262   3.157   7.908   6.912
 4077SOL    HW224263   3.047   7.851   6.805
 4078SOL     OW24264   2.428   7.985   6.451
 4078SOL    HW124265   2.440   8.051   6.377
 4078SOL    HW224266   2.474   8.019   6.534
 4079SOL     OW24267   3.444   8.087   6.058
 4079SOL    HW124268   3.413   8.148   6.131
 4079SOL    HW224269   3.494   8.139   5.989
 4080SOL     OW24270   2.435   8.318   6.615
 4080SOL    HW124271   2.479   8.407   6.606
 4080SOL    HW224272   2.372   8.318   6.692
 4081SOL     OW24273   3.222   8.310   6.631
 4081SOL    HW124274   3.147   8.310   6.565
 4081SOL    HW224275   3.259   8.218   6.640
 4082SOL     OW24276   3.071   7.973   5.861
 4082SOL    HW124277   3.084   7.889   5.915
 4082SOL    HW224278   3.042   8.047   5.921
 4083SOL     OW24279   2.169   7.661   6.817
 4083SOL    HW124280   2.146   7.698   6.907
 4083SOL    HW224281   2.139   7.566   6.811
 4084SOL     OW24282   2.169   7.511   6.204
 4084SOL    HW124283   2.158   7.605   6.237
 4084SOL    HW224284   2.164   7.448   6.281
 4085SOL     OW24285   3.484   7.815   5.960
 4085SOL    HW124286   3.486   7.739   6.024
 4085SOL    HW224287   3.436   7.892   6.000
 4086SOL     OW24288   2.885   8.214   6.552
 4086SOL    HW124289   2.900   8.235   6.648
 4086SOL    HW224290   2.855   8.119   6.543
 4087SOL     OW24291   3.402   7.722   5.711
 4087SOL    HW124292   3.341   7.647   5.734
 4087SOL    HW224293   3.424   7.774   5.794
 4088SOL     OW24294   3.165   8.286   5.628
 4088SOL    HW124295   3.199   8.193   5.643
 4088SOL    HW224296   3.183   8.313   5.533
 4089SOL     OW24297   2.181   8.258   6.535
 4089SOL    HW124298   2.274   8.294   6.540
 4089SOL    HW224299   2.175   8.173   6.587
 4090SOL     OW24300   2.201   7.957   6.592
 4090SOL    HW124301   2.149   7.874   6.575
 4090SOL    HW224302   2.278   7.962   6.528
 4091SOL     OW24303   3.022   7.655   7.063
 4091SOL    HW124304   3.022   7.719   7.140
 4091SOL    HW224305   3.050   7.703   6.980
 4092SOL     OW24306   1.902   7.992   6.700
 4092SOL    HW124307   1.987   7.959   6.659
 4092SOL    HW224308   1.915   8.007   6.798
 4093SOL     OW24309   2.677   8.020   5.911
 4093SOL    HW124310   2.684   7.931   5.865
 4093SOL    HW224311   2.583   8.054   5.903
 4094SOL     OW24312   3.519   8.052   6.792
 4094SOL    HW124313   3.481   7.983   6.854
 4094SOL    HW224314   3.601   8.016   6.748
 4095SOL     OW24315   2.335   7.948   5.777
 4095SOL    HW124316   2.396   8.028   5.781
 4095SOL    HW224317   2.240   7.979   5.784
 4096SOL     OW24318   3.209   8.507   6.820
 4096SOL    HW124319   3.233   8.444   6.746
 4096SOL    HW224320   3.119   8.547   6.802
 4097SOL     OW24321   3.164   8.303   5.895
 4097SOL    HW124322   3.078   8.272   5.937
 4097SOL    HW224323   3.160   8.289   5.796
 4098SOL     OW24324   3.588   7.583   6.109
 4098SOL    HW124325   3.661   7.566   6.042
 4098SOL    HW224326   3.557   7.496   6.147
 4099SOL     OW24327   3.142   8.375   6.258
 4099SOL    HW124328   3.202   8.294   6.260
 4099SOL    HW224329   3.182   8.444   6.198
 4100SOL     OW24330   3.703   7.623   6.549
 4100SOL    HW124331   3.742   7.538   6.513
 4100SOL    HW224332   3.605   7.625   6.530
 4101SOL     OW24333   2.125   7.774   6.306
 4101SOL    HW124334   2.046   7.825   6.272
 4101SOL    HW224335   2.116   7.759   6.404
 4102SOL     OW24336   2.778   8.358   5.877
 4102SOL    HW124337   2.841   8.396   5.809
 4102SOL    HW224338   2.818   8.275   5.916
 4103SOL     OW24339   2.876   7.684   6.557
 4103SOL    HW124340   2.868   7.648   6.464
 4103SOL    HW224341   2.874   7.608   6.622
 4104SOL     OW24342   3.571   7.833   6.967
 4104SOL    HW124343   3.644   7.902   6.971
 4104SOL    HW224344   3.599   7.758   6.908
 4105SOL     OW24345   1.937   7.793   5.619
 4105SOL    HW124346   1.845   7.765   5.590
 4105SOL    HW224347   1.968   7.870   5.563
 4106SOL     OW24348   1.934   7.614   5.904
 4106SOL    HW124349   1.917   7.697   5.850
 4106SOL    HW224350   2.024   7.577   5.882
 4107SOL     OW24351   3.536   8.331   6.840
 4107SOL    HW124352   3.509   8.242   6.803
 4107SOL    HW224353   3.537   8.399   6.767
 4108SOL     OW24354   3.087   7.773   6.035
 4108SOL    HW124355   3.152   7.699   6.024
 4108SOL    HW224356   3.107   7.823   6.119
 4109SOL     OW24357   2.456   8.193   6.238
 4109SOL    HW124358   2.506   8.278   6.219
 4109SOL    HW224359   2.368   8.195   6.190
 4110SOL     OW24360   3.592   8.382   7.103
 4110SOL    HW124361   3.630   8.473   7.118
 4110SOL    HW224362   3.584   8.365   7.004
 4111SOL     OW24363   2.945   8.432   5.673
 4111SOL    HW124364   2.922   8.485   5.591
 4111SOL    HW224365   3.026   8.376   5.654
 4112SOL     OW24366   3.686   7.640   6.813
 4112SOL    HW124367   3.682   7.550   6.857
 4112SOL    HW224368   3.689   7.629   6.714
 4113SOL     OW24369   2.290   7.872   6.106
 4113SOL    HW124370   2.320   7.800   6.044
 4113SOL    HW224371   2.251   7.832   6.189
 4114SOL     OW24372   3.286   7.662   6.698
 4114SOL    HW124373   3.338   7.597   6.753
 4114SOL    HW224374   3.237   7.725   6.759
 4115SOL     OW24375   2.863   7.482   6.740
 4115SOL    HW124376   2.800   7.410   6.709
 4115SOL    HW224377   2.956   7.446   6.740
 4116SOL     OW24378   3.214   7.500   5.754
 4116SOL    HW124379   3.249   7.459   5.670
 4116SOL    HW224380   3.124   7.462   5.774
 4117SOL     OW24381   3.162   7.901   6.277
 4117SOL    HW124382   3.103   7.981   6.281
 4117SOL    HW224383   3.177   7.866   6.370
 4118SOL     OW24384   3.455   7.669   6.468
 4118SOL    HW124385   3.371   7.668   6.522
 4118SOL    HW224386   3.457   7.752   6.412
 4119SOL     OW24387   3.954   0.628   0.113
 4119SOL    HW124388   3.861   0.626   0.150
 4119SOL    HW224389   3.955   0.589   0.021
 4120SOL     OW24390   3.949   0.275   0.996
 4120SOL    HW124391   3.984   0.258   1.088
 4120SOL    HW224392   3.861   0.230   0.984
 4121SOL     OW24393   3.743   0.368   0.647
 4121SOL    HW124394   3.661   0.411   0.686
 4121SOL    HW224395   3.715   0.295   0.584
 4122SOL     OW24396   4.293   1.275   1.165
 4122SOL    HW124397   4.200   1.268   1.128
 4122SOL    HW224398   4.304   1.364   1.209
 4123SOL     OW24399   5.279   1.511   0.703
 4123SOL    HW124400   5.222   1.495   0.784
 4123SOL    HW224401   5.220   1.521   0.623
 4124SOL     OW24402   4.859   0.703   0.717
 4124SOL    HW124403   4.916   0.781   0.692
 4124SOL    HW224404   4.799   0.729   0.793
 4125SOL     OW24405   5.479   0.607   0.231
 4125SOL    HW124406   5.467   0.594   0.132
 4125SOL    HW224407   5.449   0.526   0.280
 4126SOL     OW24408   4.492   1.144   1.023
 4126SOL    HW124409   4.414   1.161   1.083
 4126SOL    HW224410   4.526   1.231   0.987
 4127SOL     OW24411   4.574   0.798   1.823
 4127SOL    HW124412   4.570   0.874   1.888
 4127SOL    HW224413   4.596   0.834   1.732
 4128SOL     OW24414   4.409   1.012   0.665
 4128SOL    HW124415   4.478   0.996   0.735
 4128SOL    HW224416   4.336   1.069   0.703
 4129SOL     OW24417   4.410   1.161   1.803
 4129SOL    HW124418   4.470   1.240   1.817
 4129SOL    HW224419   4.324   1.192   1.762
 4130SOL     OW24420   4.059   1.435   1.061
 4130SOL    HW124421   3.981   1.404   1.008
 4130SOL    HW224422   4.117   1.493   1.004
 4131SOL     OW24423   5.184   1.505   1.339
 4131SOL    HW124424   5.208   1.599   1.365
 4131SOL    HW224425   5.168   1.451   1.421
 4132SOL     OW24426   4.162   0.392   1.499
 4132SOL    HW124427   4.244   0.336   1.508
 4132SOL    HW224428   4.081   0.334   1.503
 4133SOL     OW24429   5.327   0.447   0.737
 4133SOL    HW124430   5.253   0.493   0.687
 4133SOL    HW224431   5.378   0.515   0.790
 4134SOL     OW24432   3.955   1.713   0.483
 4134SOL    HW124433   3.989   1.790   0.537
 4134SOL    HW224434   3.999   1.713   0.393
 4135SOL     OW24435   4.851   1.341   1.690
 4135SOL    HW124436   4.898   1.341   1.778
 4135SOL    HW224437   4.803   1.254   1.679
 4136SOL     OW24438   3.954   1.434   0.538
 4136SOL    HW124439   3.928   1.530   0.538
 4136SOL    HW224440   3.883   1.380   0.583
 4137SOL     OW24441   3.964   1.091   0.886
 4137SOL    HW124442   3.978   1.007   0.938
 4137SOL    HW224443   3.909   1.155   0.941
 4138SOL     OW24444   4.344   1.786   1.439
 4138SOL    HW124445   4.252   1.769   1.474
 4138SOL    HW224446   4.372   1.878   1.465
 4139SOL     OW24447   4.330   0.964   0.123
 4139SOL    HW124448   4.337   1.048   0.069
 4139SOL    HW224449   4.376   0.977   0.211
 4140SOL     OW24450   5.318   0.114   1.480
 4140SOL    HW124451   5.300   0.181   1.408
 4140SOL    HW224452   5.315   0.160   1.569
 4141SOL     OW24453   3.846   0.643   0.563
 4141SOL    HW124454   3.801   0.555   0.580
 4141SOL    HW224455   3.845   0.697   0.647
 4142SOL     OW24456   5.566   1.767   0.359
 4142SOL    HW124457   5.620   1.738   0.439
 4142SOL    HW224458   5.596   1.857   0.330
 4143SOL     OW24459   3.751   1.596   0.117
 4143SOL    HW124460   3.732   1.500   0.138
 4143SOL    HW224461   3.718   1.654   0.192
 4144SOL     OW24462   5.413   0.922   0.612
 4144SOL    HW124463   5.508   0.893   0.620
 4144SOL    HW224464   5.405   0.987   0.537
 4145SOL     OW24465   5.365   1.108   0.432
 4145SOL    HW124466   5.451   1.110   0.380
 4145SOL    HW224467   5.379   1.155   0.520
 4146SOL     OW24468   3.837   0.737   1.597
 4146SOL    HW124469   3.925   0.724   1.642
 4146SOL    HW224470   3.824   0.834   1.575
 4147SOL     OW24471   4.337   1.365   0.726
 4147SOL    HW124472   4.288   1.278   0.735
 4147SOL    HW224473   4.314   1.408   0.639
 4148SOL     OW24474   5.017   1.228   1.423
 4148SOL    HW124475   5.054   1.155   1.365
 4148SOL    HW224476   5.069   1.233   1.508
 4149SOL     OW24477   4.533   0.004   0.502
 4149SOL    HW124478   4.573   0.095   0.493
 4149SOL    HW224479   4.433   0.012   0.508
 4150SOL     OW24480   3.921   0.976   1.264
 4150SOL    HW124481   4.010   0.931   1.250
 4150SOL    HW224482   3.848   0.911   1.245
 4151SOL     OW24483   5.249   0.999   0.190
 4151SOL    HW124484   5.186   0.923   0.203
 4151SOL    HW224485   5.297   1.017   0.276
 4152SOL     OW24486   5.190   1.417   0.953
 4152SOL    HW124487   5.131   1.423   1.033
 4152SOL    HW224488   5.175   1.329   0.907
 4153SOL     OW24489   5.391   1.714   0.572
 4153SOL    HW124490   5.350   1.691   0.484
 4153SOL    HW224491   5.373   1.640   0.637
 4154SOL     OW24492   4.322   0.729   0.270
 4154SOL    HW124493   4.346   0.798   0.202
 4154SOL    HW224494   4.244   0.762   0.324
 4155SOL     OW24495   5.005   0.345   0.944
 4155SOL    HW124496   4.919   0.295   0.931
 4155SOL    HW224497   5.067   0.291   1.000
 4156SOL     OW24498   5.300   1.662   0.307
 4156SOL    HW124499   5.389   1.708   0.310
 4156SOL    HW224500   5.279   1.638   0.212
 4157SOL     OW24501   4.531   0.605   1.465
 4157SOL    HW124502   4.484   0.602   1.554
 4157SOL    HW224503   4.480   0.550   1.399
 4158SOL     OW24504   5.118   0.469   1.674
 4158SOL    HW124505   5.098   0.512   1.762
 4158SOL    HW224506   5.196   0.407   1.683
 4159SOL     OW24507   4.715   0.410   1.242
 4159SOL    HW124508   4.638   0.444   1.296
 4159SOL    HW224509   4.681   0.359   1.163
 4160SOL     OW24510   4.765   0.701   0.429
 4160SOL    HW124511   4.791   0.697   0.525
 4160SOL    HW224512   4.680   0.650   0.415
 4161SOL     OW24513   3.800   0.811   0.789
 4161SOL    HW124514   3.899   0.799   0.798
 4161SOL    HW224515   3.776   0.906   0.810
 4162SOL     OW24516   3.854   1.821   1.571
 4162SOL    HW124517   3.844   1.806   1.670
 4162SOL    HW224518   3.768   1.857   1.535
 4163SOL     OW24519   4.589   0.348   0.195
 4163SOL    HW124520   4.648   0.411   0.146
 4163SOL    HW224521   4.608   0.254   0.166
 4164SOL     OW24522   5.086   1.144   0.545
 4164SOL    HW124523   5.169   1.115   0.497
 4164SOL    HW224524   5.037   1.211   0.489
 4165SOL     OW24525   4.274   0.196   0.885
 4165SOL    HW124526   4.269   0.191   0.985
 4165SOL    HW224527   4.276   0.292   0.856
 4166SOL     OW24528   4.732   1.456   0.477
 4166SOL    HW124529   4.686   1.528   0.425
 4166SOL    HW224530   4.728   1.476   0.575
 4167SOL     OW24531   4.075   1.801   0.853
 4167SOL    HW124532   4.125   1.715   0.859
 4167SOL    HW224533   4.140   1.878   0.850
 4168SOL     OW24534   5.519   1.066   0.873
 4168SOL    HW124535   5.457   1.051   0.797
 4168SOL    HW224536   5.467   1.077   0.958
 4169SOL     OW24537   4.951   1.550   1.506
 4169SOL    HW124538   4.957   1.473   1.570
 4169SOL    HW224539   4.899   1.524   1.426
 4170SOL     OW24540   4.045   0.943   0.242
 4170SOL    HW124541   4.127   0.982   0.200
 4170SOL    HW224542   4.018   0.861   0.193
 4171SOL     OW24543   5.182   0.735   0.728
 4171SOL    HW124544   5.177   0.670   0.803
 4171SOL    HW224545   5.262   0.794   0.741
 4172SOL     OW24546   4.185   1.266   1.727
 4172SOL    HW124547   4.135   1.267   1.641
 4172SOL    HW224548   4.122   1.248   1.803
 4173SOL     OW24549   4.835   1.776   0.237
 4173SOL    HW124550   4.775   1.714   0.287
 4173SOL    HW224551   4.866   1.732   0.152
 4174SOL     OW24552   3.926   0.285   1.498
 4174SOL    HW124553   3.846   0.345   1.485
 4174SOL    HW224554   3.916   0.236   1.584
 4175SOL     OW24555   5.356   1.377   0.081
 4175SOL    HW124556   5.324   1.471   0.071
 4175SOL    HW224557   5.280   1.314   0.069
 4176SOL     OW24558   4.188   1.743   0.323
 4176SOL    HW124559   4.221   1.782   0.409
 4176SOL    HW224560   4.264   1.736   0.258
 4177SOL     OW24561   5.124   0.107   0.426
 4177SOL    HW124562   5.100   0.070   0.336
 4177SOL    HW224563   5.223   0.123   0.430
 4178SOL     OW24564   3.973   1.785   1.241
 4178SOL    HW124565   4.030   1.720   1.291
 4178SOL    HW224566   3.957   1.752   1.148
 4179SOL     OW24567   4.664   1.698   0.904
 4179SOL    HW124568   4.744   1.641   0.925
 4179SOL    HW224569   4.615   1.658   0.827
 4180SOL     OW24570   4.106   0.700   0.480
 4180SOL    HW124571   4.151   0.610   0.477
 4180SOL    HW224572   4.012   0.689   0.513
 4181SOL     OW24573   4.338   0.122   0.117
 4181SOL    HW124574   4.436   0.100   0.124
 4181SOL    HW224575   4.307   0.105   0.024
 4182SOL     OW24576   4.505   0.264   1.749
 4182SOL    HW124577   4.572   0.203   1.792
 4182SOL    HW224578   4.432   0.283   1.814
 4183SOL     OW24579   4.612   1.514   1.195
 4183SOL    HW124580   4.589   1.489   1.101
 4183SOL    HW224581   4.673   1.445   1.234
 4184SOL     OW24582   5.075   0.590   1.433
 4184SOL    HW124583   5.103   0.547   1.518
 4184SOL    HW224584   5.100   0.686   1.434
 4185SOL     OW24585   4.527   1.402   0.924
 4185SOL    HW124586   4.617   1.416   0.882
 4185SOL    HW224587   4.456   1.404   0.853
 4186SOL     OW24588   4.646   0.503   0.899
 4186SOL    HW124589   4.621   0.494   0.803
 4186SOL    HW224590   4.694   0.421   0.930
 4187SOL     OW24591   4.263   0.064   0.512
 4187SOL    HW124592   4.182   0.065   0.570
 4187SOL    HW224593   4.266   0.147   0.457
 4188SOL     OW24594   5.158   1.188   0.041
 4188SOL    HW124595   5.190   1.112   0.098
 4188SOL    HW224596   5.066   1.215   0.071
 4189SOL     OW24597   4.021   0.035   0.171
 4189SOL    HW124598   4.070   0.119   0.150
 4189SOL    HW224599   4.083  -0.030   0.216
 4190SOL     OW24600   4.659   0.236   0.480
 4190SOL    HW124601   4.611   0.277   0.402
 4190SOL    HW224602   4.758   0.234   0.461
 4191SOL     OW24603   4.800   0.683   1.464
 4191SOL    HW124604   4.720   0.622   1.467
 4191SOL    HW224605   4.881   0.630   1.440
 4192SOL     OW24606   4.183   1.152   0.741
 4192SOL    HW124607   4.112   1.125   0.806
 4192SOL    HW224608   4.157   1.124   0.648
 4193SOL     OW24609   4.756   0.549   0.016
 4193SOL    HW124610   4.715   0.631  -0.023
 4193SOL    HW224611   4.820   0.575   0.089
 4194SOL     OW24612   3.802   0.556   1.386
 4194SOL    HW124613   3.894   0.555   1.345
 4194SOL    HW224614   3.796   0.630   1.453
 4195SOL     OW24615   4.285   0.222   1.147
 4195SOL    HW124616   4.323   0.138   1.184
 4195SOL    HW224617   4.197   0.241   1.191
 4196SOL     OW24618   4.590   0.454   0.642
 4196SOL    HW124619   4.558   0.526   0.580
 4196SOL    HW224620   4.614   0.373   0.589
 4197SOL     OW24621   4.741   0.039   0.753
 4197SOL    HW124622   4.669   0.044   0.684
 4197SOL    HW224623   4.717  -0.030   0.822
 4198SOL     OW24624   5.153   1.173   0.867
 4198SOL    HW124625   5.098   1.089   0.860
 4198SOL    HW224626   5.179   1.202   0.775
 4199SOL     OW24627   5.190   0.590   0.992
 4199SOL    HW124628   5.160   0.495   0.999
 4199SOL    HW224629   5.263   0.606   1.058
 4200SOL     OW24630   5.581   0.833   0.377
 4200SOL    HW124631   5.623   0.769   0.441
 4200SOL    HW224632   5.543   0.782   0.299
 4201SOL     OW24633   4.212   1.385   0.174
 4201SOL    HW124634   4.125   1.370   0.221
 4201SOL    HW224635   4.195   1.411   0.079
 4202SOL     OW24636   5.388   1.280   0.657
 4202SOL    HW124637   5.487   1.288   0.671
 4202SOL    HW224638   5.343   1.364   0.688
 4203SOL     OW24639   5.114   0.575   0.078
 4203SOL    HW124640   5.060   0.554   0.159
 4203SOL    HW224641   5.205   0.534   0.087
 4204SOL     OW24642   4.251   0.256   0.328
 4204SOL    HW124643   4.278   0.197   0.253
 4204SOL    HW224644   4.251   0.351   0.297
 4205SOL     OW24645   4.788   1.347   1.340
 4205SOL    HW124646   4.708   1.324   1.395
 4205SOL    HW224647   4.871   1.321   1.389
 4206SOL     OW24648   4.835   1.195   1.100
 4206SOL    HW124649   4.795   1.239   1.181
 4206SOL    HW224650   4.794   1.232   1.017
 4207SOL     OW24651   5.362   1.099   1.079
 4207SOL    HW124652   5.367   1.180   1.138
 4207SOL    HW224653   5.276   1.101   1.028
 4208SOL     OW24654   4.429   1.050   0.368
 4208SOL    HW124655   4.415   1.057   0.467
 4208SOL    HW224656   4.513   0.999   0.350
 4209SOL     OW24657   4.134   0.813   1.251
 4209SOL    HW124658   4.220   0.825   1.301
 4209SOL    HW224659   4.092   0.726   1.278
 4210SOL     OW24660   4.998   0.386   1.262
 4210SOL    HW124661   5.019   0.460   1.326
 4210SOL    HW224662   4.909   0.403   1.219
 4211SOL     OW24663   3.788   1.564   1.331
 4211SOL    HW124664   3.742   1.646   1.297
 4211SOL    HW224665   3.886   1.583   1.340
 4212SOL     OW24666   4.091   1.100   0.501
 4212SOL    HW124667   4.084   1.183   0.445
 4212SOL    HW224668   4.095   1.020   0.441
 4213SOL     OW24669   4.290   0.537   0.865
 4213SOL    HW124670   4.302   0.603   0.791
 4213SOL    HW224671   4.336   0.571   0.948
 4214SOL     OW24672   4.976   1.348   0.388
 4214SOL    HW124673   5.026   1.425   0.428
 4214SOL    HW224674   4.881   1.350   0.420
 4215SOL     OW24675   4.996   1.445   1.142
 4215SOL    HW124676   5.043   1.458   1.229
 4215SOL    HW224677   4.930   1.371   1.151
 4216SOL     OW24678   5.306   0.639   0.472
 4216SOL    HW124679   5.275   0.700   0.545
 4216SOL    HW224680   5.356   0.691   0.403
 4217SOL     OW24681   4.078   1.510   1.329
 4217SOL    HW124682   4.057   1.466   1.242
 4217SOL    HW224683   4.175   1.536   1.332
 4218SOL     OW24684   4.126   0.751   1.598
 4218SOL    HW124685   4.194   0.806   1.551
 4218SOL    HW224686   4.166   0.663   1.625
 4219SOL     OW24687   5.311   0.779   1.670
 4219SOL    HW124688   5.219   0.817   1.665
 4219SOL    HW224689   5.371   0.826   1.605
 4220SOL     OW24690   4.228   0.050   1.740
 4220SOL    HW124691   4.186  -0.007   1.670
 4220SOL    HW224692   4.162   0.119   1.772
 4221SOL     OW24693   4.297   0.870   1.029
 4221SOL    HW124694   4.341   0.959   1.020
 4221SOL    HW224695   4.234   0.870   1.106
 4222SOL     OW24696   5.084   0.862   1.045
 4222SOL    HW124697   5.009   0.862   0.979
 4222SOL    HW224698   5.121   0.770   1.054
 4223SOL     OW24699   4.933   0.525   0.275
 4223SOL    HW124700   4.946   0.441   0.329
 4223SOL    HW224701   4.904   0.599   0.335
 4224SOL     OW24702   4.031   0.213   1.231
 4224SOL    HW124703   4.008   0.250   1.321
 4224SOL    HW224704   4.001   0.118   1.225
 4225SOL     OW24705   3.761   1.310   1.282
 4225SOL    HW124706   3.814   1.261   1.350
 4225SOL    HW224707   3.783   1.408   1.287
 4226SOL     OW24708   4.456   0.634   1.064
 4226SOL    HW124709   4.515   0.608   0.988
 4226SOL    HW224710   4.428   0.730   1.053
 4227SOL     OW24711   4.031   0.063   0.618
 4227SOL    HW124712   4.020   0.157   0.651
 4227SOL    HW224713   4.026   0.000   0.695
 4228SOL     OW24714   5.346   0.367   0.374
 4228SOL    HW124715   5.348   0.291   0.438
 4228SOL    HW224716   5.298   0.444   0.414
 4229SOL     OW24717   4.747   0.766   0.966
 4229SOL    HW124718   4.762   0.787   1.062
 4229SOL    HW224719   4.717   0.671   0.957
 4230SOL     OW24720   4.704   1.573   1.700
 4230SOL    HW124721   4.684   1.617   1.612
 4230SOL    HW224722   4.743   1.482   1.684
 4231SOL     OW24723   4.074   0.898   1.804
 4231SOL    HW124724   4.150   0.942   1.852
 4231SOL    HW224725   4.109   0.851   1.722
 4232SOL     OW24726   5.264   0.274   0.125
 4232SOL    HW124727   5.203   0.199   0.148
 4232SOL    HW224728   5.286   0.326   0.208
 4233SOL     OW24729   5.027   0.838   0.042
 4233SOL    HW124730   5.061   0.745   0.057
 4233SOL    HW224731   5.045   0.865  -0.053
 4234SOL     OW24732   4.792   1.333   0.849
 4234SOL    HW124733   4.799   1.249   0.794
 4234SOL    HW224734   4.854   1.402   0.813
 4235SOL     OW24735   4.043   0.810   0.949
 4235SOL    HW124736   4.136   0.846   0.954
 4235SOL    HW224737   4.037   0.725   1.001
 4236SOL     OW24738   4.063   0.509   1.006
 4236SOL    HW124739   4.011   0.426   0.989
 4236SOL    HW224740   4.140   0.514   0.942
 4237SOL     OW24741   3.812   1.801   0.927
 4237SOL    HW124742   3.770   1.715   0.900
 4237SOL    HW224743   3.906   1.804   0.893
 4238SOL     OW24744   4.228   1.568   0.910
 4238SOL    HW124745   4.294   1.642   0.919
 4238SOL    HW224746   4.272   1.489   0.868
 4239SOL     OW24747   4.726   0.796   1.238
 4239SOL    HW124748   4.767   0.764   1.324
 4239SOL    HW224749   4.630   0.769   1.235
 4240SOL     OW24750   3.764   0.544   1.114
 4240SOL    HW124751   3.849   0.511   1.073
 4240SOL    HW224752   3.777   0.559   1.212
 4241SOL     OW24753   3.913   0.520   1.722
 4241SOL    HW124754   3.972   0.480   1.652
 4241SOL    HW224755   3.855   0.591   1.681
 4242SOL     OW24756   4.539   0.572   0.325
 4242SOL    HW124757   4.546   0.483   0.279
 4242SOL    HW224758   4.445   0.606   0.317
 4243SOL     OW24759   5.381   0.604   1.206
 4243SOL    HW124760   5.343   0.535   1.268
 4243SOL    HW224761   5.463   0.568   1.162
 4244SOL     OW24762   3.976   1.564   1.744
 4244SOL    HW124763   3.946   1.621   1.820
 4244SOL    HW224764   3.969   1.467   1.770
 4245SOL     OW24765   4.395   0.464   1.269
 4245SOL    HW124766   4.361   0.375   1.239
 4245SOL    HW224767   4.421   0.518   1.189
 4246SOL     OW24768   4.197   0.500   0.191
 4246SOL    HW124769   4.258   0.580   0.195
 4246SOL    HW224770   4.102   0.531   0.198
 4247SOL     OW24771   3.883   1.137   1.466
 4247SOL    HW124772   3.905   1.076   1.542
 4247SOL    HW224773   3.893   1.088   1.380
 4248SOL     OW24774   5.071   1.059   1.234
 4248SOL    HW124775   5.095   0.996   1.160
 4248SOL    HW224776   4.981   1.099   1.216
 4249SOL     OW24777   5.026   0.855   0.309
 4249SOL    HW124778   4.940   0.824   0.351
 4249SOL    HW224779   5.022   0.841   0.210
 4250SOL     OW24780   3.807   1.258   1.022
 4250SOL    HW124781   3.802   1.257   1.122
 4250SOL    HW224782   3.724   1.217   0.984
 4251SOL     OW24783   4.412   1.662   1.716
 4251SOL    HW124784   4.356   1.743   1.725
 4251SOL    HW224785   4.464   1.666   1.630
 4252SOL     OW24786   4.627   0.086   0.133
 4252SOL    HW124787   4.678   0.087   0.047
 4252SOL    HW224788   4.683   0.044   0.204
 4253SOL     OW24789   5.450   0.135   0.523
 4253SOL    HW124790   5.523   0.118   0.456
 4253SOL    HW224791   5.419   0.048   0.561
 4254SOL     OW24792   5.112   1.573   0.477
 4254SOL    HW124793   5.179   1.585   0.403
 4254SOL    HW224794   5.072   1.662   0.500
 4255SOL     OW24795   5.004   0.927   0.672
 4255SOL    HW124796   5.064   0.846   0.674
 4255SOL    HW224797   5.044   0.996   0.612
 4256SOL     OW24798   4.554   1.273   1.422
 4256SOL    HW124799   4.549   1.306   1.517
 4256SOL    HW224800   4.468   1.292   1.376
 4257SOL     OW24801   4.396   1.616   0.154
 4257SOL    HW124802   4.405   1.626   0.055
 4257SOL    HW224803   4.356   1.527   0.175
 4258SOL     OW24804   5.374   1.720   1.394
 4258SOL    HW124805   5.427   1.730   1.310
 4258SOL    HW224806   5.347   1.810   1.428
 4259SOL     OW24807   5.565   0.175   0.963
 4259SOL    HW124808   5.604   0.090   0.927
 4259SOL    HW224809   5.467   0.177   0.944
 4260SOL     OW24810   3.987   0.326   0.720
 4260SOL    HW124811   3.908   0.377   0.686
 4260SOL    HW224812   3.978   0.311   0.818
 4261SOL     OW24813   4.918   1.612   0.031
 4261SOL    HW124814   4.924   1.519   0.068
 4261SOL    HW224815   4.859   1.612  -0.049
 4262SOL     OW24816   4.546   1.002   1.372
 4262SOL    HW124817   4.586   1.001   1.280
 4262SOL    HW224818   4.556   1.094   1.412
 4263SOL     OW24819   4.640   0.910   0.291
 4263SOL    HW124820   4.703   0.948   0.223
 4263SOL    HW224821   4.680   0.827   0.330
 4264SOL     OW24822   5.228   1.607   0.044
 4264SOL    HW124823   5.136   1.644   0.051
 4264SOL    HW224824   5.266   1.627  -0.046
 4265SOL     OW24825   4.096   1.288   1.490
 4265SOL    HW124826   4.083   1.381   1.456
 4265SOL    HW224827   4.012   1.236   1.477
 4266SOL     OW24828   5.338   1.292   1.289
 4266SOL    HW124829   5.398   1.295   1.369
 4266SOL    HW224830   5.263   1.356   1.302
 4267SOL     OW24831   4.763   1.098   0.696
 4267SOL    HW124832   4.693   1.051   0.750
 4267SOL    HW224833   4.822   1.030   0.653
 4268SOL     OW24834   4.738   0.236   0.971
 4268SOL    HW124835   4.730   0.200   0.878
 4268SOL    HW224836   4.736   0.160   1.036
 4269SOL     OW24837   4.314   1.487   0.491
 4269SOL    HW124838   4.356   1.429   0.421
 4269SOL    HW224839   4.270   1.566   0.447
 4270SOL     OW24840   5.433   0.385   1.381
 4270SOL    HW124841   5.506   0.454   1.385
 4270SOL    HW224842   5.461   0.310   1.322
 4271SOL     OW24843   3.979   1.348   0.290
 4271SOL    HW124844   3.883   1.349   0.263
 4271SOL    HW224845   3.991   1.401   0.374
 4272SOL     OW24846   3.829   1.013   1.726
 4272SOL    HW124847   3.752   0.980   1.780
 4272SOL    HW224848   3.914   0.983   1.768
 4273SOL     OW24849   5.164   0.856   1.398
 4273SOL    HW124850   5.107   0.908   1.335
 4273SOL    HW224851   5.260   0.868   1.374
 4274SOL     OW24852   4.907   1.335   0.119
 4274SOL    HW124853   4.808   1.324   0.121
 4274SOL    HW224854   4.941   1.350   0.212
 4275SOL     OW24855   4.337   0.842   1.431
 4275SOL    HW124856   4.393   0.923   1.414
 4275SOL    HW224857   4.396   0.762   1.434
 4276SOL     OW24858   5.217   1.767   0.959
 4276SOL    HW124859   5.250   1.831   0.890
 4276SOL    HW224860   5.283   1.761   1.034
 4277SOL     OW24861   4.440   0.565   1.708
 4277SOL    HW124862   4.459   0.630   1.782
 4277SOL    HW224863   4.500   0.485   1.717
 4278SOL     OW24864   5.174   1.220   1.633
 4278SOL    HW124865   5.165   1.210   1.732
 4278SOL    HW224866   5.270   1.213   1.607
 4279SOL     OW24867   4.114   1.741   1.560
 4279SOL    HW124868   4.023   1.782   1.558
 4279SOL    HW224869   4.107   1.647   1.592
 4280SOL     OW24870   5.398   0.883   1.254
 4280SOL    HW124871   5.371   0.794   1.217
 4280SOL    HW224872   5.399   0.951   1.181
 4281SOL     OW24873   4.949   0.325   0.449
 4281SOL    HW124874   5.014   0.251   0.438
 4281SOL    HW224875   4.969   0.375   0.533
 4282SOL     OW24876   4.318   0.745   0.652
 4282SOL    HW124877   4.368   0.830   0.633
 4282SOL    HW224878   4.230   0.747   0.604
 4283SOL     OW24879   5.501   0.342   1.642
 4283SOL    HW124880   5.484   0.373   1.548
 4283SOL    HW224881   5.417   0.305   1.680
 4284SOL     OW24882   5.454   0.934   1.517
 4284SOL    HW124883   5.492   1.025   1.532
 4284SOL    HW224884   5.446   0.917   1.418
 4285SOL     OW24885   4.583   1.374   0.016
 4285SOL    HW124886   4.537   1.389   0.104
 4285SOL    HW224887   4.627   1.459  -0.014
 4286SOL     OW24888   4.385   1.790   0.953
 4286SOL    HW124889   4.339   1.878   0.940
 4286SOL    HW224890   4.484   1.802   0.946
 4287SOL     OW24891   4.583   0.956   0.861
 4287SOL    HW124892   4.637   0.887   0.909
 4287SOL    HW224893   4.551   1.025   0.927
 4288SOL     OW24894   4.807   0.984   0.087
 4288SOL    HW124895   4.784   1.037   0.005
 4288SOL    HW224896   4.888   0.928   0.068
 4289SOL     OW24897   5.585   1.569   0.851
 4289SOL    HW124898   5.514   1.557   0.781
 4289SOL    HW224899   5.586   1.490   0.911
 4290SOL     OW24900   3.803   1.240   0.653
 4290SOL    HW124901   3.802   1.193   0.741
 4290SOL    HW224902   3.885   1.212   0.602
 4291SOL     OW24903   4.396   1.391   1.624
 4291SOL    HW124904   4.318   1.341   1.662
 4291SOL    HW224905   4.393   1.486   1.655
 4292SOL     OW24906   5.548   0.192   1.227
 4292SOL    HW124907   5.544   0.102   1.271
 4292SOL    HW224908   5.551   0.181   1.128
 4293SOL     OW24909   4.152   0.424   0.520
 4293SOL    HW124910   4.182   0.352   0.458
 4293SOL    HW224911   4.113   0.384   0.603
 4294SOL     OW24912   5.429   1.487   1.104
 4294SOL    HW124913   5.336   1.462   1.077
 4294SOL    HW224914   5.455   1.437   1.186
 4295SOL     OW24915   4.041   0.547   1.280
 4295SOL    HW124916   4.079   0.488   1.352
 4295SOL    HW224917   4.081   0.521   1.192
 4296SOL     OW24918   4.536   1.586   0.687
 4296SOL    HW124919   4.568   1.596   0.593
 4296SOL    HW224920   4.457   1.524   0.689
 4297SOL     OW24921   5.148   0.214   1.112
 4297SOL    HW124922   5.200   0.149   1.167
 4297SOL    HW224923   5.099   0.277   1.173
 4298SOL     OW24924   4.725   0.034   1.154
 4298SOL    HW124925   4.662  -0.038   1.123
 4298SOL    HW224926   4.818  -0.002   1.154
 4299SOL     OW24927   4.494   1.330   0.301
 4299SOL    HW124928   4.448   1.243   0.318
 4299SOL    HW224929   4.585   1.327   0.342
 4300SOL     OW24930   4.342   1.567   1.284
 4300SOL    HW124931   4.337   1.649   1.341
 4300SOL    HW224932   4.431   1.564   1.239
 4301SOL     OW24933   5.076   0.052   0.168
 4301SOL    HW124934   5.111   0.011   0.084
 4301SOL    HW224935   4.986   0.014   0.188
 4302SOL     OW24936   5.024   0.453   0.691
 4302SOL    HW124937   4.965   0.533   0.695
 4302SOL    HW224938   5.039   0.418   0.784
 4303SOL     OW24939   3.763   1.077   0.300
 4303SOL    HW124940   3.862   1.066   0.291
 4303SOL    HW224941   3.723   0.991   0.332
 4304SOL     OW24942   4.599   1.646   0.337
 4304SOL    HW124943   4.522   1.611   0.283
 4304SOL    HW224944   4.567   1.717   0.399
 4305SOL     OW24945   5.279   1.511   2.565
 4305SOL    HW124946   5.222   1.495   2.646
 4305SOL    HW224947   5.220   1.521   2.485
 4306SOL     OW24948   5.479   0.607   2.093
 4306SOL    HW124949   5.467   0.594   1.994
 4306SOL    HW224950   5.449   0.526   2.142
 4307SOL     OW24951   4.574   0.798   3.685
 4307SOL    HW124952   4.570   0.874   3.750
 4307SOL    HW224953   4.596   0.834   3.594
 4308SOL     OW24954   4.409   1.012   2.527
 4308SOL    HW124955   4.478   0.996   2.597
 4308SOL    HW224956   4.336   1.069   2.565
 4309SOL     OW24957   4.410   1.161   3.665
 4309SOL    HW124958   4.470   1.240   3.679
 4309SOL    HW224959   4.324   1.192   3.624
 4310SOL     OW24960   4.162   0.392   3.361
 4310SOL    HW124961   4.244   0.336   3.370
 4310SOL    HW224962   4.081   0.334   3.365
 4311SOL     OW24963   3.955   1.713   2.345
 4311SOL    HW124964   3.989   1.790   2.399
 4311SOL    HW224965   3.999   1.713   2.255
 4312SOL     OW24966   4.330   0.964   1.985
 4312SOL    HW124967   4.337   1.048   1.931
 4312SOL    HW224968   4.376   0.977   2.073
 4313SOL     OW24969   5.318   0.114   3.342
 4313SOL    HW124970   5.300   0.181   3.270
 4313SOL    HW224971   5.315   0.160   3.431
 4314SOL     OW24972   3.921   0.976   3.126
 4314SOL    HW124973   4.010   0.931   3.112
 4314SOL    HW224974   3.848   0.911   3.107
 4315SOL     OW24975   4.322   0.729   2.132
 4315SOL    HW124976   4.346   0.798   2.064
 4315SOL    HW224977   4.244   0.762   2.186
 4316SOL     OW24978   5.005   0.345   2.806
 4316SOL    HW124979   4.919   0.295   2.793
 4316SOL    HW224980   5.067   0.291   2.862
 4317SOL     OW24981   4.715   0.410   3.104
 4317SOL    HW124982   4.638   0.444   3.158
 4317SOL    HW224983   4.681   0.359   3.025
 4318SOL     OW24984   4.765   0.701   2.291
 4318SOL    HW124985   4.791   0.697   2.387
 4318SOL    HW224986   4.680   0.650   2.277
 4319SOL     OW24987   3.854   1.821   3.433
 4319SOL    HW124988   3.844   1.806   3.532
 4319SOL    HW224989   3.768   1.857   3.397
 4320SOL     OW24990   4.589   0.348   2.057
 4320SOL    HW124991   4.648   0.411   2.008
 4320SOL    HW224992   4.608   0.254   2.028
 4321SOL     OW24993   5.086   1.144   2.407
 4321SOL    HW124994   5.169   1.115   2.359
 4321SOL    HW224995   5.037   1.211   2.351
 4322SOL     OW24996   4.075   1.801   2.715
 4322SOL    HW124997   4.125   1.715   2.721
 4322SOL    HW224998   4.140   1.878   2.712
 4323SOL     OW24999   4.045   0.943   2.104
 4323SOL    HW125000   4.127   0.982   2.062
 4323SOL    HW225001   4.018   0.861   2.055
 4324SOL     OW25002   3.973   1.785   3.103
 4324SOL    HW125003   4.030   1.720   3.153
 4324SOL    HW225004   3.957   1.752   3.010
 4325SOL     OW25005   4.664   1.698   2.766
 4325SOL    HW125006   4.744   1.641   2.787
 4325SOL    HW225007   4.615   1.658   2.689
 4326SOL     OW25008   4.338   0.122   1.979
 4326SOL    HW125009   4.436   0.100   1.986
 4326SOL    HW225010   4.307   0.105   1.886
 4327SOL     OW25011   4.505   0.264   3.611
 4327SOL    HW125012   4.572   0.203   3.654
 4327SOL    HW225013   4.432   0.283   3.676
 4328SOL     OW25014   5.075   0.590   3.295
 4328SOL    HW125015   5.103   0.547   3.380
 4328SOL    HW225016   5.100   0.686   3.296
 4329SOL     OW25017   4.951   1.570   2.655
 4329SOL    HW125018   4.972   1.644   2.590
 4329SOL    HW225019   5.019   1.570   2.728
 4330SOL     OW25020   4.756   0.549   1.878
 4330SOL    HW125021   4.715   0.631   1.839
 4330SOL    HW225022   4.820   0.575   1.951
 4331SOL     OW25023   4.590   0.454   2.504
 4331SOL    HW125024   4.558   0.526   2.442
 4331SOL    HW225025   4.614   0.373   2.451
 4332SOL     OW25026   5.581   0.833   2.239
 4332SOL    HW125027   5.623   0.769   2.303
 4332SOL    HW225028   5.543   0.782   2.161
 4333SOL     OW25029   4.212   1.385   2.036
 4333SOL    HW125030   4.125   1.370   2.083
 4333SOL    HW225031   4.195   1.411   1.941
 4334SOL     OW25032   4.251   0.256   2.190
 4334SOL    HW125033   4.278   0.197   2.115
 4334SOL    HW225034   4.251   0.351   2.159
 4335SOL     OW25035   5.478   1.223   3.450
 4335SOL    HW125036   5.569   1.184   3.437
 4335SOL    HW225037   5.486   1.319   3.474
 4336SOL     OW25038   4.704   1.116   3.581
 4336SOL    HW125039   4.605   1.122   3.591
 4336SOL    HW225040   4.727   1.036   3.525
 4337SOL     OW25041   4.429   1.050   2.230
 4337SOL    HW125042   4.415   1.057   2.329
 4337SOL    HW225043   4.513   0.999   2.212
 4338SOL     OW25044   4.996   1.445   3.004
 4338SOL    HW125045   5.043   1.458   3.091
 4338SOL    HW225046   4.930   1.371   3.013
 4339SOL     OW25047   4.078   1.510   3.191
 4339SOL    HW125048   4.057   1.466   3.104
 4339SOL    HW225049   4.175   1.536   3.194
 4340SOL     OW25050   5.084   0.862   2.907
 4340SOL    HW125051   5.009   0.862   2.841
 4340SOL    HW225052   5.121   0.770   2.916
 4341SOL     OW25053   3.761   1.310   3.144
 4341SOL    HW125054   3.814   1.261   3.212
 4341SOL    HW225055   3.783   1.408   3.149
 4342SOL     OW25056   4.031   0.063   2.480
 4342SOL    HW125057   4.020   0.157   2.513
 4342SOL    HW225058   4.026   0.000   2.557
 4343SOL     OW25059   4.862   0.380   3.540
 4343SOL    HW125060   4.817   0.443   3.604
 4343SOL    HW225061   4.955   0.411   3.523
 4344SOL     OW25062   3.913   0.520   3.584
 4344SOL    HW125063   3.972   0.480   3.514
 4344SOL    HW225064   3.855   0.591   3.543
 4345SOL     OW25065   4.539   0.572   2.187
 4345SOL    HW125066   4.546   0.483   2.141
 4345SOL    HW225067   4.445   0.606   2.179
 4346SOL     OW25068   4.654   1.678   3.327
 4346SOL    HW125069   4.630   1.660   3.232
 4346SOL    HW225070   4.684   1.772   3.337
 4347SOL     OW25071   4.197   0.500   2.053
 4347SOL    HW125072   4.258   0.580   2.057
 4347SOL    HW225073   4.102   0.531   2.060
 4348SOL     OW25074   3.883   1.137   3.328
 4348SOL    HW125075   3.905   1.076   3.404
 4348SOL    HW225076   3.893   1.088   3.242
 4349SOL     OW25077   5.483   1.747   3.016
 4349SOL    HW125078   5.544   1.777   2.943
 4349SOL    HW225079   5.445   1.658   2.994
 4350SOL     OW25080   4.396   1.616   2.016
 4350SOL    HW125081   4.405   1.626   1.917
 4350SOL    HW225082   4.356   1.527   2.037
 4351SOL     OW25083   5.374   1.720   3.256
 4351SOL    HW125084   5.427   1.730   3.172
 4351SOL    HW225085   5.347   1.810   3.290
 4352SOL     OW25086   4.640   0.910   2.153
 4352SOL    HW125087   4.703   0.948   2.085
 4352SOL    HW225088   4.680   0.827   2.192
 4353SOL     OW25089   5.433   0.385   3.243
 4353SOL    HW125090   5.506   0.454   3.247
 4353SOL    HW225091   5.461   0.310   3.184
 4354SOL     OW25092   4.583   1.374   1.878
 4354SOL    HW125093   4.537   1.389   1.966
 4354SOL    HW225094   4.627   1.459   1.848
 4355SOL     OW25095   4.396   1.391   3.486
 4355SOL    HW125096   4.318   1.341   3.524
 4355SOL    HW225097   4.393   1.486   3.517
 4356SOL     OW25098   5.548   0.192   3.089
 4356SOL    HW125099   5.544   0.102   3.133
 4356SOL    HW225100   5.551   0.181   2.990
 4357SOL     OW25101   4.152   0.424   2.382
 4357SOL    HW125102   4.182   0.352   2.320
 4357SOL    HW225103   4.113   0.384   2.465
 4358SOL     OW25104   4.725   0.034   3.016
 4358SOL    HW125105   4.662  -0.038   2.985
 4358SOL    HW225106   4.818  -0.002   3.016
 4359SOL     OW25107   4.494   1.330   2.163
 4359SOL    HW125108   4.448   1.243   2.180
 4359SOL    HW225109   4.585   1.327   2.204
 4360SOL     OW25110   5.317   0.221   2.744
 4360SOL    HW125111   5.233   0.220   2.798
 4360SOL    HW225112   5.319   0.304   2.688
 4361SOL     OW25113   3.763   1.077   2.162
 4361SOL    HW125114   3.862   1.066   2.153
 4361SOL    HW225115   3.723   0.991   2.194
 4362SOL     OW25116   4.599   1.646   2.199
 4362SOL    HW125117   4.522   1.611   2.145
 4362SOL    HW225118   4.567   1.717   2.261
 4363SOL     OW25119   5.279   1.511   4.427
 4363SOL    HW125120   5.222   1.495   4.508
 4363SOL    HW225121   5.220   1.521   4.347
 4364SOL     OW25122   4.410   1.161   5.527
 4364SOL    HW125123   4.470   1.240   5.541
 4364SOL    HW225124   4.324   1.192   5.486
 4365SOL     OW25125   4.162   0.392   5.223
 4365SOL    HW125126   4.244   0.336   5.232
 4365SOL    HW225127   4.081   0.334   5.227
 4366SOL     OW25128   3.955   1.713   4.207
 4366SOL    HW125129   3.989   1.790   4.261
 4366SOL    HW225130   3.999   1.713   4.117
 4367SOL     OW25131   4.851   1.341   5.414
 4367SOL    HW125132   4.898   1.341   5.502
 4367SOL    HW225133   4.803   1.254   5.403
 4368SOL     OW25134   5.566   1.767   4.083
 4368SOL    HW125135   5.620   1.738   4.163
 4368SOL    HW225136   5.596   1.857   4.054
 4369SOL     OW25137   5.413   0.922   4.336
 4369SOL    HW125138   5.508   0.893   4.344
 4369SOL    HW225139   5.405   0.987   4.261
 4370SOL     OW25140   5.365   1.108   4.156
 4370SOL    HW125141   5.451   1.110   4.104
 4370SOL    HW225142   5.379   1.155   4.244
 4371SOL     OW25143   3.837   0.737   5.321
 4371SOL    HW125144   3.925   0.724   5.366
 4371SOL    HW225145   3.824   0.834   5.299
 4372SOL     OW25146   3.921   0.976   4.988
 4372SOL    HW125147   4.010   0.931   4.974
 4372SOL    HW225148   3.848   0.911   4.969
 4373SOL     OW25149   5.249   0.999   3.914
 4373SOL    HW125150   5.186   0.923   3.927
 4373SOL    HW225151   5.297   1.017   4.000
 4374SOL     OW25152   4.911   1.792   5.340
 4374SOL    HW125153   4.935   1.852   5.264
 4374SOL    HW225154   4.918   1.697   5.310
 4375SOL     OW25155   4.041   0.251   5.525
 4375SOL    HW125156   4.112   0.322   5.531
 4375SOL    HW225157   3.953   0.290   5.553
 4376SOL     OW25158   5.005   0.345   4.668
 4376SOL    HW125159   4.919   0.295   4.655
 4376SOL    HW225160   5.067   0.291   4.724
 4377SOL     OW25161   5.118   0.469   5.398
 4377SOL    HW125162   5.098   0.512   5.486
 4377SOL    HW225163   5.196   0.407   5.407
 4378SOL     OW25164   4.274   0.196   4.609
 4378SOL    HW125165   4.269   0.191   4.709
 4378SOL    HW225166   4.276   0.292   4.580
 4379SOL     OW25167   4.732   1.456   4.201
 4379SOL    HW125168   4.686   1.528   4.149
 4379SOL    HW225169   4.728   1.476   4.299
 4380SOL     OW25170   4.075   1.801   4.577
 4380SOL    HW125171   4.125   1.715   4.583
 4380SOL    HW225172   4.140   1.878   4.574
 4381SOL     OW25173   4.951   1.550   5.230
 4381SOL    HW125174   4.957   1.473   5.294
 4381SOL    HW225175   4.899   1.524   5.150
 4382SOL     OW25176   4.185   1.266   5.451
 4382SOL    HW125177   4.135   1.267   5.365
 4382SOL    HW225178   4.122   1.248   5.527
 4383SOL     OW25179   4.664   1.698   4.628
 4383SOL    HW125180   4.744   1.641   4.649
 4383SOL    HW225181   4.615   1.658   4.551
 4384SOL     OW25182   4.106   0.700   4.204
 4384SOL    HW125183   4.151   0.610   4.201
 4384SOL    HW225184   4.012   0.689   4.237
 4385SOL     OW25185   5.271   0.222   5.453
 4385SOL    HW125186   5.266   0.259   5.545
 4385SOL    HW225187   5.199   0.153   5.441
 4386SOL     OW25188   4.338   0.122   3.841
 4386SOL    HW125189   4.436   0.100   3.848
 4386SOL    HW225190   4.307   0.105   3.748
 4387SOL     OW25191   4.505   0.264   5.473
 4387SOL    HW125192   4.572   0.203   5.516
 4387SOL    HW225193   4.432   0.283   5.538
 4388SOL     OW25194   4.612   1.514   4.919
 4388SOL    HW125195   4.589   1.489   4.825
 4388SOL    HW225196   4.673   1.445   4.958
 4389SOL     OW25197   4.646   0.503   4.623
 4389SOL    HW125198   4.621   0.494   4.527
 4389SOL    HW225199   4.694   0.421   4.654
 4390SOL     OW25200   4.263   0.064   4.236
 4390SOL    HW125201   4.182   0.065   4.294
 4390SOL    HW225202   4.266   0.147   4.181
 4391SOL     OW25203   3.802   0.556   5.110
 4391SOL    HW125204   3.894   0.555   5.069
 4391SOL    HW225205   3.796   0.630   5.177
 4392SOL     OW25206   4.285   0.222   4.871
 4392SOL    HW125207   4.323   0.138   4.908
 4392SOL    HW225208   4.197   0.241   4.915
 4393SOL     OW25209   4.590   0.454   4.366
 4393SOL    HW125210   4.558   0.526   4.304
 4393SOL    HW225211   4.614   0.373   4.313
 4394SOL     OW25212   5.388   1.280   4.381
 4394SOL    HW125213   5.487   1.288   4.395
 4394SOL    HW225214   5.343   1.364   4.412
 4395SOL     OW25215   4.704   1.116   5.443
 4395SOL    HW125216   4.605   1.122   5.453
 4395SOL    HW225217   4.727   1.036   5.387
 4396SOL     OW25218   4.429   1.050   4.092
 4396SOL    HW125219   4.415   1.057   4.191
 4396SOL    HW225220   4.513   0.999   4.074
 4397SOL     OW25221   4.998   0.386   4.986
 4397SOL    HW125222   5.019   0.460   5.050
 4397SOL    HW225223   4.909   0.403   4.943
 4398SOL     OW25224   3.788   1.564   5.055
 4398SOL    HW125225   3.742   1.646   5.021
 4398SOL    HW225226   3.886   1.583   5.064
 4399SOL     OW25227   4.996   1.445   4.866
 4399SOL    HW125228   5.043   1.458   4.953
 4399SOL    HW225229   4.930   1.371   4.875
 4400SOL     OW25230   4.126   0.751   5.322
 4400SOL    HW125231   4.194   0.806   5.275
 4400SOL    HW225232   4.166   0.663   5.349
 4401SOL     OW25233   4.228   0.050   5.464
 4401SOL    HW125234   4.186  -0.007   5.394
 4401SOL    HW225235   4.162   0.119   5.496
 4402SOL     OW25236   4.031   0.213   4.955
 4402SOL    HW125237   4.008   0.250   5.045
 4402SOL    HW225238   4.001   0.118   4.949
 4403SOL     OW25239   3.761   1.310   5.006
 4403SOL    HW125240   3.814   1.261   5.074
 4403SOL    HW225241   3.783   1.408   5.011
 4404SOL     OW25242   5.452   0.935   5.578
 4404SOL    HW125243   5.406   0.928   5.489
 4404SOL    HW225244   5.390   0.979   5.644
 4405SOL     OW25245   4.031   0.063   4.342
 4405SOL    HW125246   4.020   0.157   4.375
 4405SOL    HW225247   4.026   0.000   4.419
 4406SOL     OW25248   4.747   0.766   4.690
 4406SOL    HW125249   4.762   0.787   4.786
 4406SOL    HW225250   4.717   0.671   4.681
 4407SOL     OW25251   4.704   1.573   5.424
 4407SOL    HW125252   4.684   1.617   5.336
 4407SOL    HW225253   4.743   1.482   5.408
 4408SOL     OW25254   4.074   0.898   5.528
 4408SOL    HW125255   4.150   0.942   5.576
 4408SOL    HW225256   4.109   0.851   5.446
 4409SOL     OW25257   5.264   0.274   3.849
 4409SOL    HW125258   5.203   0.199   3.872
 4409SOL    HW225259   5.286   0.326   3.932
 4410SOL     OW25260   5.027   0.838   3.766
 4410SOL    HW125261   5.061   0.745   3.781
 4410SOL    HW225262   5.045   0.865   3.671
 4411SOL     OW25263   4.792   1.333   4.573
 4411SOL    HW125264   4.799   1.249   4.518
 4411SOL    HW225265   4.854   1.402   4.537
 4412SOL     OW25266   4.862   0.380   5.402
 4412SOL    HW125267   4.817   0.443   5.466
 4412SOL    HW225268   4.955   0.411   5.385
 4413SOL     OW25269   4.884   0.207   5.201
 4413SOL    HW125270   4.884   0.271   5.278
 4413SOL    HW225271   4.912   0.255   5.118
 4414SOL     OW25272   3.913   0.520   5.446
 4414SOL    HW125273   3.972   0.480   5.376
 4414SOL    HW225274   3.855   0.591   5.405
 4415SOL     OW25275   3.976   1.564   5.468
 4415SOL    HW125276   3.946   1.621   5.544
 4415SOL    HW225277   3.969   1.467   5.494
 4416SOL     OW25278   4.654   1.678   5.189
 4416SOL    HW125279   4.630   1.660   5.094
 4416SOL    HW225280   4.684   1.772   5.199
 4417SOL     OW25281   3.883   1.137   5.190
 4417SOL    HW125282   3.905   1.076   5.266
 4417SOL    HW225283   3.893   1.088   5.104
 4418SOL     OW25284   3.854   1.794   5.575
 4418SOL    HW125285   3.813   1.720   5.628
 4418SOL    HW225286   3.918   1.845   5.633
 4419SOL     OW25287   4.396   1.616   3.878
 4419SOL    HW125288   4.405   1.626   3.779
 4419SOL    HW225289   4.356   1.527   3.899
 4420SOL     OW25290   5.374   1.720   5.118
 4420SOL    HW125291   5.427   1.730   5.034
 4420SOL    HW225292   5.347   1.810   5.152
 4421SOL     OW25293   4.096   1.288   5.214
 4421SOL    HW125294   4.083   1.381   5.180
 4421SOL    HW225295   4.012   1.236   5.201
 4422SOL     OW25296   5.338   1.292   5.013
 4422SOL    HW125297   5.398   1.295   5.093
 4422SOL    HW225298   5.263   1.356   5.026
 4423SOL     OW25299   4.763   1.098   4.420
 4423SOL    HW125300   4.693   1.051   4.474
 4423SOL    HW225301   4.822   1.030   4.377
 4424SOL     OW25302   5.433   0.385   5.105
 4424SOL    HW125303   5.506   0.454   5.109
 4424SOL    HW225304   5.461   0.310   5.046
 4425SOL     OW25305   3.829   1.013   5.450
 4425SOL    HW125306   3.752   0.980   5.504
 4425SOL    HW225307   3.914   0.983   5.492
 4426SOL     OW25308   4.396   0.203   5.213
 4426SOL    HW125309   4.486   0.187   5.173
 4426SOL    HW225310   4.404   0.208   5.312
 4427SOL     OW25311   4.907   1.335   3.843
 4427SOL    HW125312   4.808   1.324   3.845
 4427SOL    HW225313   4.941   1.350   3.936
 4428SOL     OW25314   4.440   0.565   5.432
 4428SOL    HW125315   4.459   0.630   5.506
 4428SOL    HW225316   4.500   0.485   5.441
 4429SOL     OW25317   5.501   0.342   5.366
 4429SOL    HW125318   5.484   0.373   5.272
 4429SOL    HW225319   5.417   0.305   5.404
 4430SOL     OW25320   4.385   1.790   4.677
 4430SOL    HW125321   4.339   1.878   4.664
 4430SOL    HW225322   4.484   1.802   4.670
 4431SOL     OW25323   4.807   0.984   3.811
 4431SOL    HW125324   4.784   1.037   3.729
 4431SOL    HW225325   4.888   0.928   3.792
 4432SOL     OW25326   3.945   1.314   5.568
 4432SOL    HW125327   3.880   1.241   5.547
 4432SOL    HW225328   3.949   1.328   5.666
 4433SOL     OW25329   3.803   1.240   4.377
 4433SOL    HW125330   3.802   1.193   4.465
 4433SOL    HW225331   3.885   1.212   4.326
 4434SOL     OW25332   4.041   0.547   5.004
 4434SOL    HW125333   4.079   0.488   5.076
 4434SOL    HW225334   4.081   0.521   4.916
 4435SOL     OW25335   4.536   1.586   4.411
 4435SOL    HW125336   4.568   1.596   4.317
 4435SOL    HW225337   4.457   1.524   4.413
 4436SOL     OW25338   5.148   0.214   4.836
 4436SOL    HW125339   5.200   0.149   4.891
 4436SOL    HW225340   5.099   0.277   4.897
 4437SOL     OW25341   5.076   0.052   3.892
 4437SOL    HW125342   5.111   0.011   3.808
 4437SOL    HW225343   4.986   0.014   3.912
 4438SOL     OW25344   5.024   0.453   4.415
 4438SOL    HW125345   4.965   0.533   4.419
 4438SOL    HW225346   5.039   0.418   4.508
 4439SOL     OW25347   3.954   0.628   5.699
 4439SOL    HW125348   3.861   0.626   5.736
 4439SOL    HW225349   3.955   0.589   5.607
 4440SOL     OW25350   3.949   0.275   6.582
 4440SOL    HW125351   3.984   0.258   6.674
 4440SOL    HW225352   3.861   0.230   6.570
 4441SOL     OW25353   3.743   0.368   6.233
 4441SOL    HW125354   3.661   0.411   6.272
 4441SOL    HW225355   3.715   0.295   6.170
 4442SOL     OW25356   4.293   1.275   6.751
 4442SOL    HW125357   4.200   1.268   6.714
 4442SOL    HW225358   4.304   1.364   6.795
 4443SOL     OW25359   5.279   1.511   6.289
 4443SOL    HW125360   5.222   1.495   6.370
 4443SOL    HW225361   5.220   1.521   6.209
 4444SOL     OW25362   4.859   0.703   6.303
 4444SOL    HW125363   4.916   0.781   6.278
 4444SOL    HW225364   4.799   0.729   6.379
 4445SOL     OW25365   5.479   0.607   5.817
 4445SOL    HW125366   5.467   0.594   5.718
 4445SOL    HW225367   5.449   0.526   5.866
 4446SOL     OW25368   4.492   1.144   6.609
 4446SOL    HW125369   4.414   1.161   6.669
 4446SOL    HW225370   4.526   1.231   6.573
 4447SOL     OW25371   4.409   1.012   6.251
 4447SOL    HW125372   4.478   0.996   6.321
 4447SOL    HW225373   4.336   1.069   6.289
 4448SOL     OW25374   5.327   0.447   6.323
 4448SOL    HW125375   5.253   0.493   6.273
 4448SOL    HW225376   5.378   0.515   6.376
 4449SOL     OW25377   3.954   1.434   6.124
 4449SOL    HW125378   3.928   1.530   6.124
 4449SOL    HW225379   3.883   1.380   6.169
 4450SOL     OW25380   3.964   1.091   6.472
 4450SOL    HW125381   3.978   1.007   6.524
 4450SOL    HW225382   3.909   1.155   6.527
 4451SOL     OW25383   4.344   1.786   7.025
 4451SOL    HW125384   4.252   1.769   7.060
 4451SOL    HW225385   4.372   1.878   7.051
 4452SOL     OW25386   4.330   0.964   5.709
 4452SOL    HW125387   4.337   1.048   5.655
 4452SOL    HW225388   4.376   0.977   5.797
 4453SOL     OW25389   3.846   0.643   6.149
 4453SOL    HW125390   3.801   0.555   6.166
 4453SOL    HW225391   3.845   0.697   6.233
 4454SOL     OW25392   5.413   0.922   6.198
 4454SOL    HW125393   5.508   0.893   6.206
 4454SOL    HW225394   5.405   0.987   6.123
 4455SOL     OW25395   5.365   1.108   6.018
 4455SOL    HW125396   5.451   1.110   5.966
 4455SOL    HW225397   5.379   1.155   6.106
 4456SOL     OW25398   4.337   1.365   6.312
 4456SOL    HW125399   4.288   1.278   6.321
 4456SOL    HW225400   4.314   1.408   6.225
 4457SOL     OW25401   4.533   0.004   6.088
 4457SOL    HW125402   4.573   0.095   6.079
 4457SOL    HW225403   4.433   0.012   6.094
 4458SOL     OW25404   3.921   0.976   6.850
 4458SOL    HW125405   4.010   0.931   6.836
 4458SOL    HW225406   3.848   0.911   6.831
 4459SOL     OW25407   5.249   0.999   5.776
 4459SOL    HW125408   5.186   0.923   5.789
 4459SOL    HW225409   5.297   1.017   5.862
 4460SOL     OW25410   5.190   1.417   6.539
 4460SOL    HW125411   5.131   1.423   6.619
 4460SOL    HW225412   5.175   1.329   6.493
 4461SOL     OW25413   5.391   1.714   6.158
 4461SOL    HW125414   5.350   1.691   6.070
 4461SOL    HW225415   5.373   1.640   6.223
 4462SOL     OW25416   4.322   0.729   5.856
 4462SOL    HW125417   4.346   0.798   5.788
 4462SOL    HW225418   4.244   0.762   5.910
 4463SOL     OW25419   5.005   0.345   6.530
 4463SOL    HW125420   4.919   0.295   6.517
 4463SOL    HW225421   5.067   0.291   6.586
 4464SOL     OW25422   5.300   1.662   5.893
 4464SOL    HW125423   5.389   1.708   5.896
 4464SOL    HW225424   5.279   1.638   5.798
 4465SOL     OW25425   4.715   0.410   6.828
 4465SOL    HW125426   4.638   0.444   6.882
 4465SOL    HW225427   4.681   0.359   6.749
 4466SOL     OW25428   4.765   0.701   6.015
 4466SOL    HW125429   4.791   0.697   6.111
 4466SOL    HW225430   4.680   0.650   6.001
 4467SOL     OW25431   3.800   0.811   6.375
 4467SOL    HW125432   3.899   0.799   6.384
 4467SOL    HW225433   3.776   0.906   6.396
 4468SOL     OW25434   4.589   0.348   5.781
 4468SOL    HW125435   4.648   0.411   5.732
 4468SOL    HW225436   4.608   0.254   5.752
 4469SOL     OW25437   5.086   1.144   6.131
 4469SOL    HW125438   5.169   1.115   6.083
 4469SOL    HW225439   5.037   1.211   6.075
 4470SOL     OW25440   4.274   0.196   6.471
 4470SOL    HW125441   4.269   0.191   6.571
 4470SOL    HW225442   4.276   0.292   6.442
 4471SOL     OW25443   4.732   1.456   6.063
 4471SOL    HW125444   4.686   1.528   6.011
 4471SOL    HW225445   4.728   1.476   6.161
 4472SOL     OW25446   5.519   1.066   6.459
 4472SOL    HW125447   5.457   1.051   6.383
 4472SOL    HW225448   5.467   1.077   6.544
 4473SOL     OW25449   4.045   0.943   5.828
 4473SOL    HW125450   4.127   0.982   5.786
 4473SOL    HW225451   4.018   0.861   5.779
 4474SOL     OW25452   5.182   0.735   6.314
 4474SOL    HW125453   5.177   0.670   6.389
 4474SOL    HW225454   5.262   0.794   6.327
 4475SOL     OW25455   3.926   0.285   7.084
 4475SOL    HW125456   3.846   0.345   7.071
 4475SOL    HW225457   3.916   0.236   7.170
 4476SOL     OW25458   5.356   1.377   5.667
 4476SOL    HW125459   5.324   1.471   5.657
 4476SOL    HW225460   5.280   1.314   5.655
 4477SOL     OW25461   5.124   0.107   6.012
 4477SOL    HW125462   5.100   0.070   5.922
 4477SOL    HW225463   5.223   0.123   6.016
 4478SOL     OW25464   3.973   1.785   6.827
 4478SOL    HW125465   4.030   1.720   6.877
 4478SOL    HW225466   3.957   1.752   6.734
 4479SOL     OW25467   4.664   1.698   6.490
 4479SOL    HW125468   4.744   1.641   6.511
 4479SOL    HW225469   4.615   1.658   6.413
 4480SOL     OW25470   4.106   0.700   6.066
 4480SOL    HW125471   4.151   0.610   6.063
 4480SOL    HW225472   4.012   0.689   6.099
 4481SOL     OW25473   4.338   0.122   5.703
 4481SOL    HW125474   4.436   0.100   5.710
 4481SOL    HW225475   4.307   0.105   5.610
 4482SOL     OW25476   4.527   1.402   6.510
 4482SOL    HW125477   4.617   1.416   6.468
 4482SOL    HW225478   4.456   1.404   6.439
 4483SOL     OW25479   4.646   0.503   6.485
 4483SOL    HW125480   4.621   0.494   6.389
 4483SOL    HW225481   4.694   0.421   6.516
 4484SOL     OW25482   4.263   0.064   6.098
 4484SOL    HW125483   4.182   0.065   6.156
 4484SOL    HW225484   4.266   0.147   6.043
 4485SOL     OW25485   5.158   1.188   5.627
 4485SOL    HW125486   5.190   1.112   5.684
 4485SOL    HW225487   5.066   1.215   5.657
 4486SOL     OW25488   4.021   0.035   5.757
 4486SOL    HW125489   4.070   0.119   5.736
 4486SOL    HW225490   4.083  -0.030   5.802
 4487SOL     OW25491   4.659   0.236   6.066
 4487SOL    HW125492   4.611   0.277   5.988
 4487SOL    HW225493   4.758   0.234   6.047
 4488SOL     OW25494   4.951   1.570   6.379
 4488SOL    HW125495   4.972   1.644   6.314
 4488SOL    HW225496   5.019   1.570   6.452
 4489SOL     OW25497   4.183   1.152   6.327
 4489SOL    HW125498   4.112   1.125   6.392
 4489SOL    HW225499   4.157   1.124   6.234
 4490SOL     OW25500   4.995   1.797   6.177
 4490SOL    HW125501   5.039   1.861   6.113
 4490SOL    HW225502   4.945   1.849   6.247
 4491SOL     OW25503   4.756   0.549   5.602
 4491SOL    HW125504   4.715   0.631   5.563
 4491SOL    HW225505   4.820   0.575   5.675
 4492SOL     OW25506   4.285   0.222   6.733
 4492SOL    HW125507   4.323   0.138   6.770
 4492SOL    HW225508   4.197   0.241   6.777
 4493SOL     OW25509   4.590   0.454   6.228
 4493SOL    HW125510   4.558   0.526   6.166
 4493SOL    HW225511   4.614   0.373   6.175
 4494SOL     OW25512   4.741   0.039   6.339
 4494SOL    HW125513   4.669   0.044   6.270
 4494SOL    HW225514   4.717  -0.030   6.408
 4495SOL     OW25515   5.153   1.173   6.453
 4495SOL    HW125516   5.098   1.089   6.446
 4495SOL    HW225517   5.179   1.202   6.361
 4496SOL     OW25518   5.190   0.590   6.578
 4496SOL    HW125519   5.160   0.495   6.585
 4496SOL    HW225520   5.263   0.606   6.644
 4497SOL     OW25521   5.581   0.833   5.963
 4497SOL    HW125522   5.623   0.769   6.027
 4497SOL    HW225523   5.543   0.782   5.885
 4498SOL     OW25524   4.212   1.385   5.760
 4498SOL    HW125525   4.125   1.370   5.807
 4498SOL    HW225526   4.195   1.411   5.665
 4499SOL     OW25527   5.388   1.280   6.243
 4499SOL    HW125528   5.487   1.288   6.257
 4499SOL    HW225529   5.343   1.364   6.274
 4500SOL     OW25530   5.114   0.575   5.664
 4500SOL    HW125531   5.060   0.554   5.745
 4500SOL    HW225532   5.205   0.534   5.673
 4501SOL     OW25533   4.251   0.256   5.914
 4501SOL    HW125534   4.278   0.197   5.839
 4501SOL    HW225535   4.251   0.351   5.883
 4502SOL     OW25536   4.835   1.195   6.686
 4502SOL    HW125537   4.795   1.239   6.767
 4502SOL    HW225538   4.794   1.232   6.603
 4503SOL     OW25539   5.362   1.099   6.665
 4503SOL    HW125540   5.367   1.180   6.724
 4503SOL    HW225541   5.276   1.101   6.614
 4504SOL     OW25542   4.429   1.050   5.954
 4504SOL    HW125543   4.415   1.057   6.053
 4504SOL    HW225544   4.513   0.999   5.936
 4505SOL     OW25545   4.134   0.813   6.837
 4505SOL    HW125546   4.220   0.825   6.887
 4505SOL    HW225547   4.092   0.726   6.864
 4506SOL     OW25548   4.998   0.386   6.848
 4506SOL    HW125549   5.019   0.460   6.912
 4506SOL    HW225550   4.909   0.403   6.805
 4507SOL     OW25551   4.091   1.100   6.087
 4507SOL    HW125552   4.084   1.183   6.031
 4507SOL    HW225553   4.095   1.020   6.027
 4508SOL     OW25554   4.290   0.537   6.451
 4508SOL    HW125555   4.302   0.603   6.377
 4508SOL    HW225556   4.336   0.571   6.534
 4509SOL     OW25557   4.976   1.348   5.974
 4509SOL    HW125558   5.026   1.425   6.014
 4509SOL    HW225559   4.881   1.350   6.006
 4510SOL     OW25560   4.996   1.445   6.728
 4510SOL    HW125561   5.043   1.458   6.815
 4510SOL    HW225562   4.930   1.371   6.737
 4511SOL     OW25563   5.306   0.639   6.058
 4511SOL    HW125564   5.275   0.700   6.131
 4511SOL    HW225565   5.356   0.691   5.989
 4512SOL     OW25566   4.297   0.870   6.615
 4512SOL    HW125567   4.341   0.959   6.606
 4512SOL    HW225568   4.234   0.870   6.692
 4513SOL     OW25569   5.084   0.862   6.631
 4513SOL    HW125570   5.009   0.862   6.565
 4513SOL    HW225571   5.121   0.770   6.640
 4514SOL     OW25572   4.933   0.525   5.861
 4514SOL    HW125573   4.946   0.441   5.915
 4514SOL    HW225574   4.904   0.599   5.921
 4515SOL     OW25575   4.031   0.213   6.817
 4515SOL    HW125576   4.008   0.250   6.907
 4515SOL    HW225577   4.001   0.118   6.811
 4516SOL     OW25578   3.761   1.310   6.868
 4516SOL    HW125579   3.814   1.261   6.936
 4516SOL    HW225580   3.783   1.408   6.873
 4517SOL     OW25581   4.456   0.634   6.650
 4517SOL    HW125582   4.515   0.608   6.574
 4517SOL    HW225583   4.428   0.730   6.639
 4518SOL     OW25584   4.031   0.063   6.204
 4518SOL    HW125585   4.020   0.157   6.237
 4518SOL    HW225586   4.026   0.000   6.281
 4519SOL     OW25587   5.346   0.367   5.960
 4519SOL    HW125588   5.348   0.291   6.024
 4519SOL    HW225589   5.298   0.444   6.000
 4520SOL     OW25590   4.747   0.766   6.552
 4520SOL    HW125591   4.762   0.787   6.648
 4520SOL    HW225592   4.717   0.671   6.543
 4521SOL     OW25593   5.264   0.274   5.711
 4521SOL    HW125594   5.203   0.199   5.734
 4521SOL    HW225595   5.286   0.326   5.794
 4522SOL     OW25596   4.792   1.333   6.435
 4522SOL    HW125597   4.799   1.249   6.380
 4522SOL    HW225598   4.854   1.402   6.399
 4523SOL     OW25599   4.043   0.810   6.535
 4523SOL    HW125600   4.136   0.846   6.540
 4523SOL    HW225601   4.037   0.725   6.587
 4524SOL     OW25602   4.063   0.509   6.592
 4524SOL    HW125603   4.011   0.426   6.575
 4524SOL    HW225604   4.140   0.514   6.528
 4525SOL     OW25605   4.884   0.207   7.063
 4525SOL    HW125606   4.884   0.271   7.140
 4525SOL    HW225607   4.912   0.255   6.980
 4526SOL     OW25608   3.732   1.326   5.786
 4526SOL    HW125609   3.639   1.347   5.755
 4526SOL    HW225610   3.742   1.227   5.799
 4527SOL     OW25611   3.812   1.801   6.513
 4527SOL    HW125612   3.770   1.715   6.486
 4527SOL    HW225613   3.906   1.804   6.479
 4528SOL     OW25614   4.726   0.796   6.824
 4528SOL    HW125615   4.767   0.764   6.910
 4528SOL    HW225616   4.630   0.769   6.821
 4529SOL     OW25617   3.764   0.544   6.700
 4529SOL    HW125618   3.849   0.511   6.659
 4529SOL    HW225619   3.777   0.559   6.798
 4530SOL     OW25620   4.539   0.572   5.911
 4530SOL    HW125621   4.546   0.483   5.865
 4530SOL    HW225622   4.445   0.606   5.903
 4531SOL     OW25623   5.381   0.604   6.792
 4531SOL    HW125624   5.343   0.535   6.854
 4531SOL    HW225625   5.463   0.568   6.748
 4532SOL     OW25626   4.395   0.464   6.855
 4532SOL    HW125627   4.361   0.375   6.825
 4532SOL    HW225628   4.421   0.518   6.775
 4533SOL     OW25629   4.654   1.678   7.051
 4533SOL    HW125630   4.630   1.660   6.956
 4533SOL    HW225631   4.684   1.772   7.061
 4534SOL     OW25632   4.197   0.500   5.777
 4534SOL    HW125633   4.258   0.580   5.781
 4534SOL    HW225634   4.102   0.531   5.784
 4535SOL     OW25635   5.071   1.059   6.820
 4535SOL    HW125636   5.095   0.996   6.746
 4535SOL    HW225637   4.981   1.099   6.802
 4536SOL     OW25638   5.026   0.855   5.895
 4536SOL    HW125639   4.940   0.824   5.937
 4536SOL    HW225640   5.022   0.841   5.796
 4537SOL     OW25641   5.483   1.747   6.740
 4537SOL    HW125642   5.544   1.777   6.667
 4537SOL    HW225643   5.445   1.658   6.718
 4538SOL     OW25644   4.976   1.731   6.714
 4538SOL    HW125645   5.060   1.736   6.660
 4538SOL    HW225646   4.953   1.635   6.732
 4539SOL     OW25647   3.807   1.258   6.608
 4539SOL    HW125648   3.802   1.257   6.708
 4539SOL    HW225649   3.724   1.217   6.570
 4540SOL     OW25650   5.450   0.135   6.109
 4540SOL    HW125651   5.523   0.118   6.042
 4540SOL    HW225652   5.419   0.048   6.147
 4541SOL     OW25653   5.112   1.573   6.063
 4541SOL    HW125654   5.179   1.585   5.989
 4541SOL    HW225655   5.072   1.662   6.086
 4542SOL     OW25656   5.004   0.927   6.258
 4542SOL    HW125657   5.064   0.846   6.260
 4542SOL    HW225658   5.044   0.996   6.198
 4543SOL     OW25659   5.565   0.175   6.549
 4543SOL    HW125660   5.604   0.090   6.513
 4543SOL    HW225661   5.467   0.177   6.530
 4544SOL     OW25662   3.987   0.326   6.306
 4544SOL    HW125663   3.908   0.377   6.272
 4544SOL    HW225664   3.978   0.311   6.404
 4545SOL     OW25665   4.918   1.612   5.617
 4545SOL    HW125666   4.924   1.519   5.654
 4545SOL    HW225667   4.859   1.612   5.537
 4546SOL     OW25668   4.546   1.002   6.958
 4546SOL    HW125669   4.586   1.001   6.866
 4546SOL    HW225670   4.556   1.094   6.998
 4547SOL     OW25671   5.228   1.607   5.630
 4547SOL    HW125672   5.136   1.644   5.637
 4547SOL    HW225673   5.266   1.627   5.540
 4548SOL     OW25674   4.763   1.098   6.282
 4548SOL    HW125675   4.693   1.051   6.336
 4548SOL    HW225676   4.822   1.030   6.239
 4549SOL     OW25677   4.738   0.236   6.557
 4549SOL    HW125678   4.730   0.200   6.464
 4549SOL    HW225679   4.736   0.160   6.622
 4550SOL     OW25680   5.433   0.385   6.967
 4550SOL    HW125681   5.506   0.454   6.971
 4550SOL    HW225682   5.461   0.310   6.908
 4551SOL     OW25683   3.979   1.348   5.876
 4551SOL    HW125684   3.883   1.349   5.849
 4551SOL    HW225685   3.991   1.401   5.960
 4552SOL     OW25686   3.799   0.345   5.619
 4552SOL    HW125687   3.707   0.317   5.590
 4552SOL    HW225688   3.830   0.422   5.563
 4553SOL     OW25689   3.796   0.166   5.904
 4553SOL    HW125690   3.779   0.249   5.850
 4553SOL    HW225691   3.886   0.129   5.882
 4554SOL     OW25692   4.907   1.335   5.705
 4554SOL    HW125693   4.808   1.324   5.707
 4554SOL    HW225694   4.941   1.350   5.798
 4555SOL     OW25695   5.217   1.767   6.545
 4555SOL    HW125696   5.250   1.831   6.476
 4555SOL    HW225697   5.283   1.761   6.620
 4556SOL     OW25698   5.174   1.220   7.219
 4556SOL    HW125699   5.165   1.210   7.318
 4556SOL    HW225700   5.270   1.213   7.193
 4557SOL     OW25701   5.398   0.883   6.840
 4557SOL    HW125702   5.371   0.794   6.803
 4557SOL    HW225703   5.399   0.951   6.767
 4558SOL     OW25704   4.949   0.325   6.035
 4558SOL    HW125705   5.014   0.251   6.024
 4558SOL    HW225706   4.969   0.375   6.119
 4559SOL     OW25707   4.318   0.745   6.238
 4559SOL    HW125708   4.368   0.830   6.219
 4559SOL    HW225709   4.230   0.747   6.190
 4560SOL     OW25710   5.454   0.934   7.103
 4560SOL    HW125711   5.492   1.025   7.118
 4560SOL    HW225712   5.446   0.917   7.004
 4561SOL     OW25713   4.583   0.956   6.447
 4561SOL    HW125714   4.637   0.887   6.495
 4561SOL    HW225715   4.551   1.025   6.513
 4562SOL     OW25716   5.585   1.569   6.437
 4562SOL    HW125717   5.514   1.557   6.367
 4562SOL    HW225718   5.586   1.490   6.497
 4563SOL     OW25719   3.803   1.240   6.239
 4563SOL    HW125720   3.802   1.193   6.327
 4563SOL    HW225721   3.885   1.212   6.188
 4564SOL     OW25722   5.548   0.192   6.813
 4564SOL    HW125723   5.544   0.102   6.857
 4564SOL    HW225724   5.551   0.181   6.714
 4565SOL     OW25725   4.152   0.424   6.106
 4565SOL    HW125726   4.182   0.352   6.044
 4565SOL    HW225727   4.113   0.384   6.189
 4566SOL     OW25728   5.429   1.487   6.690
 4566SOL    HW125729   5.336   1.462   6.663
 4566SOL    HW225730   5.455   1.437   6.772
 4567SOL     OW25731   4.536   1.586   6.273
 4567SOL    HW125732   4.568   1.596   6.179
 4567SOL    HW225733   4.457   1.524   6.275
 4568SOL     OW25734   5.148   0.214   6.698
 4568SOL    HW125735   5.200   0.149   6.753
 4568SOL    HW225736   5.099   0.277   6.759
 4569SOL     OW25737   4.725   0.034   6.740
 4569SOL    HW125738   4.662  -0.038   6.709
 4569SOL    HW225739   4.818  -0.002   6.740
 4570SOL     OW25740   4.494   1.330   5.887
 4570SOL    HW125741   4.448   1.243   5.904
 4570SOL    HW225742   4.585   1.327   5.928
 4571SOL     OW25743   5.076   0.052   5.754
 4571SOL    HW125744   5.111   0.011   5.670
 4571SOL    HW225745   4.986   0.014   5.774
 4572SOL     OW25746   5.024   0.453   6.277
 4572SOL    HW125747   4.965   0.533   6.281
 4572SOL    HW225748   5.039   0.418   6.370
 4573SOL     OW25749   5.317   0.221   6.468
 4573SOL    HW125750   5.233   0.220   6.522
 4573SOL    HW225751   5.319   0.304   6.412
 4574SOL     OW25752   3.763   1.077   5.886
 4574SOL    HW125753   3.862   1.066   5.877
 4574SOL    HW225754   3.723   0.991   5.918
 4575SOL     OW25755   4.599   1.646   5.923
 4575SOL    HW125756   4.522   1.611   5.869
 4575SOL    HW225757   4.567   1.717   5.985
 4576SOL     OW25758   3.954   2.490   0.113
 4576SOL    HW125759   3.861   2.488   0.150
 4576SOL    HW225760   3.955   2.451   0.021
 4577SOL     OW25761   3.949   2.137   0.996
 4577SOL    HW125762   3.984   2.120   1.088
 4577SOL    HW225763   3.861   2.092   0.984
 4578SOL     OW25764   3.743   2.230   0.647
 4578SOL    HW125765   3.661   2.273   0.686
 4578SOL    HW225766   3.715   2.157   0.584
 4579SOL     OW25767   4.293   3.137   1.165
 4579SOL    HW125768   4.200   3.130   1.128
 4579SOL    HW225769   4.304   3.226   1.209
 4580SOL     OW25770   5.279   3.373   0.703
 4580SOL    HW125771   5.222   3.357   0.784
 4580SOL    HW225772   5.220   3.383   0.623
 4581SOL     OW25773   4.859   2.565   0.717
 4581SOL    HW125774   4.916   2.643   0.692
 4581SOL    HW225775   4.799   2.591   0.793
 4582SOL     OW25776   4.409   2.874   0.665
 4582SOL    HW125777   4.478   2.858   0.735
 4582SOL    HW225778   4.336   2.931   0.703
 4583SOL     OW25779   4.410   3.023   1.803
 4583SOL    HW125780   4.470   3.102   1.817
 4583SOL    HW225781   4.324   3.054   1.762
 4584SOL     OW25782   4.059   3.297   1.061
 4584SOL    HW125783   3.981   3.266   1.008
 4584SOL    HW225784   4.117   3.355   1.004
 4585SOL     OW25785   5.184   3.367   1.339
 4585SOL    HW125786   5.208   3.461   1.365
 4585SOL    HW225787   5.168   3.313   1.421
 4586SOL     OW25788   4.162   2.254   1.499
 4586SOL    HW125789   4.244   2.198   1.508
 4586SOL    HW225790   4.081   2.196   1.503
 4587SOL     OW25791   5.327   2.309   0.737
 4587SOL    HW125792   5.253   2.355   0.687
 4587SOL    HW225793   5.378   2.377   0.790
 4588SOL     OW25794   3.955   3.575   0.483
 4588SOL    HW125795   3.989   3.652   0.537
 4588SOL    HW225796   3.999   3.575   0.393
 4589SOL     OW25797   3.954   3.296   0.538
 4589SOL    HW125798   3.928   3.392   0.538
 4589SOL    HW225799   3.883   3.242   0.583
 4590SOL     OW25800   4.344   3.648   1.439
 4590SOL    HW125801   4.252   3.631   1.474
 4590SOL    HW225802   4.372   3.740   1.465
 4591SOL     OW25803   4.330   2.826   0.123
 4591SOL    HW125804   4.337   2.910   0.069
 4591SOL    HW225805   4.376   2.839   0.211
 4592SOL     OW25806   5.318   1.976   1.480
 4592SOL    HW125807   5.300   2.043   1.408
 4592SOL    HW225808   5.315   2.022   1.569
 4593SOL     OW25809   3.846   2.505   0.563
 4593SOL    HW125810   3.801   2.417   0.580
 4593SOL    HW225811   3.845   2.559   0.647
 4594SOL     OW25812   5.566   3.629   0.359
 4594SOL    HW125813   5.620   3.600   0.439
 4594SOL    HW225814   5.596   3.719   0.330
 4595SOL     OW25815   3.751   3.458   0.117
 4595SOL    HW125816   3.732   3.362   0.138
 4595SOL    HW225817   3.718   3.516   0.192
 4596SOL     OW25818   5.365   2.970   0.432
 4596SOL    HW125819   5.451   2.972   0.380
 4596SOL    HW225820   5.379   3.017   0.520
 4597SOL     OW25821   3.837   2.599   1.597
 4597SOL    HW125822   3.925   2.586   1.642
 4597SOL    HW225823   3.824   2.696   1.575
 4598SOL     OW25824   4.337   3.227   0.726
 4598SOL    HW125825   4.288   3.140   0.735
 4598SOL    HW225826   4.314   3.270   0.639
 4599SOL     OW25827   5.017   3.090   1.423
 4599SOL    HW125828   5.054   3.017   1.365
 4599SOL    HW225829   5.069   3.095   1.508
 4600SOL     OW25830   4.533   1.866   0.502
 4600SOL    HW125831   4.573   1.957   0.493
 4600SOL    HW225832   4.433   1.874   0.508
 4601SOL     OW25833   5.249   2.861   0.190
 4601SOL    HW125834   5.186   2.785   0.203
 4601SOL    HW225835   5.297   2.879   0.276
 4602SOL     OW25836   4.911   3.654   1.616
 4602SOL    HW125837   4.935   3.714   1.540
 4602SOL    HW225838   4.918   3.559   1.586
 4603SOL     OW25839   4.041   2.113   1.801
 4603SOL    HW125840   4.112   2.184   1.807
 4603SOL    HW225841   3.953   2.152   1.829
 4604SOL     OW25842   5.190   3.279   0.953
 4604SOL    HW125843   5.131   3.285   1.033
 4604SOL    HW225844   5.175   3.191   0.907
 4605SOL     OW25845   5.391   3.576   0.572
 4605SOL    HW125846   5.350   3.553   0.484
 4605SOL    HW225847   5.373   3.502   0.637
 4606SOL     OW25848   4.322   2.591   0.270
 4606SOL    HW125849   4.346   2.660   0.202
 4606SOL    HW225850   4.244   2.624   0.324
 4607SOL     OW25851   5.300   3.524   0.307
 4607SOL    HW125852   5.389   3.570   0.310
 4607SOL    HW225853   5.279   3.500   0.212
 4608SOL     OW25854   4.531   2.467   1.465
 4608SOL    HW125855   4.484   2.464   1.554
 4608SOL    HW225856   4.480   2.412   1.399
 4609SOL     OW25857   4.715   2.272   1.242
 4609SOL    HW125858   4.638   2.306   1.296
 4609SOL    HW225859   4.681   2.221   1.163
 4610SOL     OW25860   4.765   2.563   0.429
 4610SOL    HW125861   4.791   2.559   0.525
 4610SOL    HW225862   4.680   2.512   0.415
 4611SOL     OW25863   3.800   2.673   0.789
 4611SOL    HW125864   3.899   2.661   0.798
 4611SOL    HW225865   3.776   2.768   0.810
 4612SOL     OW25866   5.086   3.006   0.545
 4612SOL    HW125867   5.169   2.977   0.497
 4612SOL    HW225868   5.037   3.073   0.489
 4613SOL     OW25869   4.274   2.058   0.885
 4613SOL    HW125870   4.269   2.053   0.985
 4613SOL    HW225871   4.276   2.154   0.856
 4614SOL     OW25872   4.732   3.318   0.477
 4614SOL    HW125873   4.686   3.390   0.425
 4614SOL    HW225874   4.728   3.338   0.575
 4615SOL     OW25875   4.075   3.663   0.853
 4615SOL    HW125876   4.125   3.577   0.859
 4615SOL    HW225877   4.140   3.740   0.850
 4616SOL     OW25878   4.951   3.412   1.506
 4616SOL    HW125879   4.957   3.335   1.570
 4616SOL    HW225880   4.899   3.386   1.426
 4617SOL     OW25881   4.045   2.805   0.242
 4617SOL    HW125882   4.127   2.844   0.200
 4617SOL    HW225883   4.018   2.723   0.193
 4618SOL     OW25884   5.182   2.597   0.728
 4618SOL    HW125885   5.177   2.532   0.803
 4618SOL    HW225886   5.262   2.656   0.741
 4619SOL     OW25887   4.185   3.128   1.727
 4619SOL    HW125888   4.135   3.129   1.641
 4619SOL    HW225889   4.122   3.110   1.803
 4620SOL     OW25890   4.835   3.638   0.237
 4620SOL    HW125891   4.775   3.576   0.287
 4620SOL    HW225892   4.866   3.594   0.152
 4621SOL     OW25893   3.926   2.147   1.498
 4621SOL    HW125894   3.846   2.207   1.485
 4621SOL    HW225895   3.916   2.098   1.584
 4622SOL     OW25896   5.356   3.239   0.081
 4622SOL    HW125897   5.324   3.333   0.071
 4622SOL    HW225898   5.280   3.176   0.069
 4623SOL     OW25899   4.188   3.605   0.323
 4623SOL    HW125900   4.221   3.644   0.409
 4623SOL    HW225901   4.264   3.598   0.258
 4624SOL     OW25902   5.124   1.969   0.426
 4624SOL    HW125903   5.100   1.932   0.336
 4624SOL    HW225904   5.223   1.985   0.430
 4625SOL     OW25905   3.973   3.647   1.241
 4625SOL    HW125906   4.030   3.582   1.291
 4625SOL    HW225907   3.957   3.614   1.148
 4626SOL     OW25908   4.664   3.560   0.904
 4626SOL    HW125909   4.744   3.503   0.925
 4626SOL    HW225910   4.615   3.520   0.827
 4627SOL     OW25911   4.106   2.562   0.480
 4627SOL    HW125912   4.151   2.472   0.477
 4627SOL    HW225913   4.012   2.551   0.513
 4628SOL     OW25914   4.505   2.126   1.749
 4628SOL    HW125915   4.572   2.065   1.792
 4628SOL    HW225916   4.432   2.145   1.814
 4629SOL     OW25917   5.075   2.452   1.433
 4629SOL    HW125918   5.103   2.409   1.518
 4629SOL    HW225919   5.100   2.548   1.434
 4630SOL     OW25920   4.527   3.264   0.924
 4630SOL    HW125921   4.617   3.278   0.882
 4630SOL    HW225922   4.456   3.266   0.853
 4631SOL     OW25923   4.646   2.365   0.899
 4631SOL    HW125924   4.621   2.356   0.803
 4631SOL    HW225925   4.694   2.283   0.930
 4632SOL     OW25926   4.263   1.926   0.512
 4632SOL    HW125927   4.182   1.927   0.570
 4632SOL    HW225928   4.266   2.009   0.457
 4633SOL     OW25929   5.158   3.050   0.041
 4633SOL    HW125930   5.190   2.974   0.098
 4633SOL    HW225931   5.066   3.077   0.071
 4634SOL     OW25932   4.021   1.897   0.171
 4634SOL    HW125933   4.070   1.981   0.150
 4634SOL    HW225934   4.083   1.832   0.216
 4635SOL     OW25935   4.659   2.098   0.480
 4635SOL    HW125936   4.611   2.139   0.402
 4635SOL    HW225937   4.758   2.096   0.461
 4636SOL     OW25938   4.800   2.545   1.464
 4636SOL    HW125939   4.720   2.484   1.467
 4636SOL    HW225940   4.881   2.492   1.440
 4637SOL     OW25941   4.951   3.432   0.793
 4637SOL    HW125942   4.972   3.506   0.728
 4637SOL    HW225943   5.019   3.432   0.866
 4638SOL     OW25944   4.183   3.014   0.741
 4638SOL    HW125945   4.112   2.987   0.806
 4638SOL    HW225946   4.157   2.986   0.648
 4639SOL     OW25947   4.995   3.659   0.591
 4639SOL    HW125948   5.039   3.723   0.527
 4639SOL    HW225949   4.945   3.711   0.661
 4640SOL     OW25950   4.756   2.411   0.016
 4640SOL    HW125951   4.715   2.493  -0.023
 4640SOL    HW225952   4.820   2.437   0.089
 4641SOL     OW25953   3.802   2.418   1.386
 4641SOL    HW125954   3.894   2.417   1.345
 4641SOL    HW225955   3.796   2.492   1.453
 4642SOL     OW25956   4.285   2.084   1.147
 4642SOL    HW125957   4.323   2.000   1.184
 4642SOL    HW225958   4.197   2.103   1.191
 4643SOL     OW25959   4.590   2.316   0.642
 4643SOL    HW125960   4.558   2.388   0.580
 4643SOL    HW225961   4.614   2.235   0.589
 4644SOL     OW25962   4.741   1.901   0.753
 4644SOL    HW125963   4.669   1.906   0.684
 4644SOL    HW225964   4.717   1.832   0.822
 4645SOL     OW25965   5.153   3.035   0.867
 4645SOL    HW125966   5.098   2.951   0.860
 4645SOL    HW225967   5.179   3.064   0.775
 4646SOL     OW25968   4.212   3.247   0.174
 4646SOL    HW125969   4.125   3.232   0.221
 4646SOL    HW225970   4.195   3.273   0.079
 4647SOL     OW25971   5.388   3.142   0.657
 4647SOL    HW125972   5.487   3.150   0.671
 4647SOL    HW225973   5.343   3.226   0.688
 4648SOL     OW25974   5.114   2.437   0.078
 4648SOL    HW125975   5.060   2.416   0.159
 4648SOL    HW225976   5.205   2.396   0.087
 4649SOL     OW25977   4.251   2.118   0.328
 4649SOL    HW125978   4.278   2.059   0.253
 4649SOL    HW225979   4.251   2.213   0.297
 4650SOL     OW25980   4.835   3.057   1.100
 4650SOL    HW125981   4.795   3.101   1.181
 4650SOL    HW225982   4.794   3.094   1.017
 4651SOL     OW25983   4.429   2.912   0.368
 4651SOL    HW125984   4.415   2.919   0.467
 4651SOL    HW225985   4.513   2.861   0.350
 4652SOL     OW25986   4.134   2.675   1.251
 4652SOL    HW125987   4.220   2.687   1.301
 4652SOL    HW225988   4.092   2.588   1.278
 4653SOL     OW25989   3.788   3.426   1.331
 4653SOL    HW125990   3.742   3.508   1.297
 4653SOL    HW225991   3.886   3.445   1.340
 4654SOL     OW25992   4.091   2.962   0.501
 4654SOL    HW125993   4.084   3.045   0.445
 4654SOL    HW225994   4.095   2.882   0.441
 4655SOL     OW25995   4.290   2.399   0.865
 4655SOL    HW125996   4.302   2.465   0.791
 4655SOL    HW225997   4.336   2.433   0.948
 4656SOL     OW25998   4.976   3.210   0.388
 4656SOL    HW125999   5.026   3.287   0.428
 4656SOL    HW226000   4.881   3.212   0.420
 4657SOL     OW26001   4.996   3.307   1.142
 4657SOL    HW126002   5.043   3.320   1.229
 4657SOL    HW226003   4.930   3.233   1.151
 4658SOL     OW26004   4.078   3.372   1.329
 4658SOL    HW126005   4.057   3.328   1.242
 4658SOL    HW226006   4.175   3.398   1.332
 4659SOL     OW26007   4.126   2.613   1.598
 4659SOL    HW126008   4.194   2.668   1.551
 4659SOL    HW226009   4.166   2.525   1.625
 4660SOL     OW26010   5.311   2.641   1.670
 4660SOL    HW126011   5.219   2.679   1.665
 4660SOL    HW226012   5.371   2.688   1.605
 4661SOL     OW26013   4.228   1.912   1.740
 4661SOL    HW126014   4.186   1.855   1.670
 4661SOL    HW226015   4.162   1.981   1.772
 4662SOL     OW26016   4.297   2.732   1.029
 4662SOL    HW126017   4.341   2.821   1.020
 4662SOL    HW226018   4.234   2.732   1.106
 4663SOL     OW26019   5.084   2.724   1.045
 4663SOL    HW126020   5.009   2.724   0.979
 4663SOL    HW226021   5.121   2.632   1.054
 4664SOL     OW26022   4.031   2.075   1.231
 4664SOL    HW126023   4.008   2.112   1.321
 4664SOL    HW226024   4.001   1.980   1.225
 4665SOL     OW26025   3.761   3.172   1.282
 4665SOL    HW126026   3.814   3.123   1.350
 4665SOL    HW226027   3.783   3.270   1.287
 4666SOL     OW26028   4.456   2.496   1.064
 4666SOL    HW126029   4.515   2.470   0.988
 4666SOL    HW226030   4.428   2.592   1.053
 4667SOL     OW26031   4.031   1.925   0.618
 4667SOL    HW126032   4.020   2.019   0.651
 4667SOL    HW226033   4.026   1.862   0.695
 4668SOL     OW26034   4.747   2.628   0.966
 4668SOL    HW126035   4.762   2.649   1.062
 4668SOL    HW226036   4.717   2.533   0.957
 4669SOL     OW26037   4.704   3.435   1.700
 4669SOL    HW126038   4.684   3.479   1.612
 4669SOL    HW226039   4.743   3.344   1.684
 4670SOL     OW26040   5.583   3.380   1.605
 4670SOL    HW126041   5.597   3.407   1.510
 4670SOL    HW226042   5.666   3.402   1.658
 4671SOL     OW26043   4.074   2.760   1.804
 4671SOL    HW126044   4.150   2.804   1.852
 4671SOL    HW226045   4.109   2.713   1.722
 4672SOL     OW26046   5.027   2.700   0.042
 4672SOL    HW126047   5.061   2.607   0.057
 4672SOL    HW226048   5.045   2.727  -0.053
 4673SOL     OW26049   4.792   3.195   0.849
 4673SOL    HW126050   4.799   3.111   0.794
 4673SOL    HW226051   4.854   3.264   0.813
 4674SOL     OW26052   4.043   2.672   0.949
 4674SOL    HW126053   4.136   2.708   0.954
 4674SOL    HW226054   4.037   2.587   1.001
 4675SOL     OW26055   4.063   2.371   1.006
 4675SOL    HW126056   4.011   2.288   0.989
 4675SOL    HW226057   4.140   2.376   0.942
 4676SOL     OW26058   3.812   3.663   0.927
 4676SOL    HW126059   3.770   3.577   0.900
 4676SOL    HW226060   3.906   3.666   0.893
 4677SOL     OW26061   4.228   3.430   0.910
 4677SOL    HW126062   4.294   3.504   0.919
 4677SOL    HW226063   4.272   3.351   0.868
 4678SOL     OW26064   4.726   2.658   1.238
 4678SOL    HW126065   4.767   2.626   1.324
 4678SOL    HW226066   4.630   2.631   1.235
 4679SOL     OW26067   3.764   2.406   1.114
 4679SOL    HW126068   3.849   2.373   1.073
 4679SOL    HW226069   3.777   2.421   1.212
 4680SOL     OW26070   3.913   2.382   1.722
 4680SOL    HW126071   3.972   2.342   1.652
 4680SOL    HW226072   3.855   2.453   1.681
 4681SOL     OW26073   5.093   2.812   1.660
 4681SOL    HW126074   5.132   2.901   1.680
 4681SOL    HW226075   5.103   2.792   1.563
 4682SOL     OW26076   4.539   2.434   0.325
 4682SOL    HW126077   4.546   2.345   0.279
 4682SOL    HW226078   4.445   2.468   0.317
 4683SOL     OW26079   5.381   2.466   1.206
 4683SOL    HW126080   5.343   2.397   1.268
 4683SOL    HW226081   5.463   2.430   1.162
 4684SOL     OW26082   4.395   2.326   1.269
 4684SOL    HW126083   4.361   2.237   1.239
 4684SOL    HW226084   4.421   2.380   1.189
 4685SOL     OW26085   4.654   3.540   1.465
 4685SOL    HW126086   4.630   3.522   1.370
 4685SOL    HW226087   4.684   3.634   1.475
 4686SOL     OW26088   4.197   2.362   0.191
 4686SOL    HW126089   4.258   2.442   0.195
 4686SOL    HW226090   4.102   2.393   0.198
 4687SOL     OW26091   3.883   2.999   1.466
 4687SOL    HW126092   3.905   2.938   1.542
 4687SOL    HW226093   3.893   2.950   1.380
 4688SOL     OW26094   5.071   2.921   1.234
 4688SOL    HW126095   5.095   2.858   1.160
 4688SOL    HW226096   4.981   2.961   1.216
 4689SOL     OW26097   5.026   2.717   0.309
 4689SOL    HW126098   4.940   2.686   0.351
 4689SOL    HW226099   5.022   2.703   0.210
 4690SOL     OW26100   5.483   3.609   1.154
 4690SOL    HW126101   5.544   3.639   1.081
 4690SOL    HW226102   5.445   3.520   1.132
 4691SOL     OW26103   4.976   3.593   1.128
 4691SOL    HW126104   5.060   3.598   1.074
 4691SOL    HW226105   4.953   3.497   1.146
 4692SOL     OW26106   5.450   1.997   0.523
 4692SOL    HW126107   5.523   1.980   0.456
 4692SOL    HW226108   5.419   1.910   0.561
 4693SOL     OW26109   5.112   3.435   0.477
 4693SOL    HW126110   5.179   3.447   0.403
 4693SOL    HW226111   5.072   3.524   0.500
 4694SOL     OW26112   5.004   2.789   0.672
 4694SOL    HW126113   5.064   2.708   0.674
 4694SOL    HW226114   5.044   2.858   0.612
 4695SOL     OW26115   4.396   3.478   0.154
 4695SOL    HW126116   4.405   3.488   0.055
 4695SOL    HW226117   4.356   3.389   0.175
 4696SOL     OW26118   5.565   2.037   0.963
 4696SOL    HW126119   5.604   1.952   0.927
 4696SOL    HW226120   5.467   2.039   0.944
 4697SOL     OW26121   3.987   2.188   0.720
 4697SOL    HW126122   3.908   2.239   0.686
 4697SOL    HW226123   3.978   2.173   0.818
 4698SOL     OW26124   4.918   3.474   0.031
 4698SOL    HW126125   4.924   3.381   0.068
 4698SOL    HW226126   4.859   3.474  -0.049
 4699SOL     OW26127   4.546   2.864   1.372
 4699SOL    HW126128   4.586   2.863   1.280
 4699SOL    HW226129   4.556   2.956   1.412
 4700SOL     OW26130   4.640   2.772   0.291
 4700SOL    HW126131   4.703   2.810   0.223
 4700SOL    HW226132   4.680   2.689   0.330
 4701SOL     OW26133   5.228   3.469   0.044
 4701SOL    HW126134   5.136   3.506   0.051
 4701SOL    HW226135   5.266   3.489  -0.046
 4702SOL     OW26136   4.096   3.150   1.490
 4702SOL    HW126137   4.083   3.243   1.456
 4702SOL    HW226138   4.012   3.098   1.477
 4703SOL     OW26139   5.338   3.154   1.289
 4703SOL    HW126140   5.398   3.157   1.369
 4703SOL    HW226141   5.263   3.218   1.302
 4704SOL     OW26142   4.763   2.960   0.696
 4704SOL    HW126143   4.693   2.913   0.750
 4704SOL    HW226144   4.822   2.892   0.653
 4705SOL     OW26145   4.738   2.098   0.971
 4705SOL    HW126146   4.730   2.062   0.878
 4705SOL    HW226147   4.736   2.022   1.036
 4706SOL     OW26148   4.314   3.349   0.491
 4706SOL    HW126149   4.356   3.291   0.421
 4706SOL    HW226150   4.270   3.428   0.447
 4707SOL     OW26151   5.433   2.247   1.381
 4707SOL    HW126152   5.506   2.316   1.385
 4707SOL    HW226153   5.461   2.172   1.322
 4708SOL     OW26154   3.829   2.875   1.726
 4708SOL    HW126155   3.752   2.842   1.780
 4708SOL    HW226156   3.914   2.845   1.768
 4709SOL     OW26157   4.396   2.065   1.489
 4709SOL    HW126158   4.486   2.049   1.449
 4709SOL    HW226159   4.404   2.070   1.588
 4710SOL     OW26160   5.164   2.718   1.398
 4710SOL    HW126161   5.107   2.770   1.335
 4710SOL    HW226162   5.260   2.730   1.374
 4711SOL     OW26163   3.796   2.028   0.318
 4711SOL    HW126164   3.779   2.111   0.264
 4711SOL    HW226165   3.886   1.991   0.296
 4712SOL     OW26166   4.907   3.197   0.119
 4712SOL    HW126167   4.808   3.186   0.121
 4712SOL    HW226168   4.941   3.212   0.212
 4713SOL     OW26169   4.337   2.704   1.431
 4713SOL    HW126170   4.393   2.785   1.414
 4713SOL    HW226171   4.396   2.624   1.434
 4714SOL     OW26172   5.217   3.629   0.959
 4714SOL    HW126173   5.250   3.693   0.890
 4714SOL    HW226174   5.283   3.623   1.034
 4715SOL     OW26175   5.174   3.082   1.633
 4715SOL    HW126176   5.165   3.072   1.732
 4715SOL    HW226177   5.270   3.075   1.607
 4716SOL     OW26178   5.398   2.745   1.254
 4716SOL    HW126179   5.371   2.656   1.217
 4716SOL    HW226180   5.399   2.813   1.181
 4717SOL     OW26181   4.318   2.607   0.652
 4717SOL    HW126182   4.368   2.692   0.633
 4717SOL    HW226183   4.230   2.609   0.604
 4718SOL     OW26184   5.501   2.204   1.642
 4718SOL    HW126185   5.484   2.235   1.548
 4718SOL    HW226186   5.417   2.167   1.680
 4719SOL     OW26187   5.454   2.796   1.517
 4719SOL    HW126188   5.492   2.887   1.532
 4719SOL    HW226189   5.446   2.779   1.418
 4720SOL     OW26190   4.583   3.236   0.016
 4720SOL    HW126191   4.537   3.251   0.104
 4720SOL    HW226192   4.627   3.321  -0.014
 4721SOL     OW26193   4.385   3.652   0.953
 4721SOL    HW126194   4.339   3.740   0.940
 4721SOL    HW226195   4.484   3.664   0.946
 4722SOL     OW26196   4.583   2.818   0.861
 4722SOL    HW126197   4.637   2.749   0.909
 4722SOL    HW226198   4.551   2.887   0.927
 4723SOL     OW26199   4.807   2.846   0.087
 4723SOL    HW126200   4.784   2.899   0.005
 4723SOL    HW226201   4.888   2.790   0.068
 4724SOL     OW26202   5.585   3.431   0.851
 4724SOL    HW126203   5.514   3.419   0.781
 4724SOL    HW226204   5.586   3.352   0.911
 4725SOL     OW26205   4.396   3.253   1.624
 4725SOL    HW126206   4.318   3.203   1.662
 4725SOL    HW226207   4.393   3.348   1.655
 4726SOL     OW26208   4.152   2.286   0.520
 4726SOL    HW126209   4.182   2.214   0.458
 4726SOL    HW226210   4.113   2.246   0.603
 4727SOL     OW26211   5.429   3.349   1.104
 4727SOL    HW126212   5.336   3.324   1.077
 4727SOL    HW226213   5.455   3.299   1.186
 4728SOL     OW26214   4.041   2.409   1.280
 4728SOL    HW126215   4.079   2.350   1.352
 4728SOL    HW226216   4.081   2.383   1.192
 4729SOL     OW26217   4.536   3.448   0.687
 4729SOL    HW126218   4.568   3.458   0.593
 4729SOL    HW226219   4.457   3.386   0.689
 4730SOL     OW26220   4.494   3.192   0.301
 4730SOL    HW126221   4.448   3.105   0.318
 4730SOL    HW226222   4.585   3.189   0.342
 4731SOL     OW26223   4.342   3.429   1.284
 4731SOL    HW126224   4.337   3.511   1.341
 4731SOL    HW226225   4.431   3.426   1.239
 4732SOL     OW26226   5.076   1.914   0.168
 4732SOL    HW126227   5.111   1.873   0.084
 4732SOL    HW226228   4.986   1.876   0.188
 4733SOL     OW26229   5.024   2.315   0.691
 4733SOL    HW126230   4.965   2.395   0.695
 4733SOL    HW226231   5.039   2.280   0.784
 4734SOL     OW26232   5.317   2.083   0.882
 4734SOL    HW126233   5.233   2.082   0.936
 4734SOL    HW226234   5.319   2.166   0.826
 4735SOL     OW26235   3.763   2.939   0.300
 4735SOL    HW126236   3.862   2.928   0.291
 4735SOL    HW226237   3.723   2.853   0.332
 4736SOL     OW26238   4.599   3.508   0.337
 4736SOL    HW126239   4.522   3.473   0.283
 4736SOL    HW226240   4.567   3.579   0.399
 4737SOL     OW26241   5.279   3.373   2.565
 4737SOL    HW126242   5.222   3.357   2.646
 4737SOL    HW226243   5.220   3.383   2.485
 4738SOL     OW26244   5.479   2.469   2.093
 4738SOL    HW126245   5.467   2.456   1.994
 4738SOL    HW226246   5.449   2.388   2.142
 4739SOL     OW26247   4.492   3.006   2.885
 4739SOL    HW126248   4.414   3.023   2.945
 4739SOL    HW226249   4.526   3.093   2.849
 4740SOL     OW26250   4.574   2.660   3.685
 4740SOL    HW126251   4.570   2.736   3.750
 4740SOL    HW226252   4.596   2.696   3.594
 4741SOL     OW26253   4.410   3.023   3.665
 4741SOL    HW126254   4.470   3.102   3.679
 4741SOL    HW226255   4.324   3.054   3.624
 4742SOL     OW26256   3.964   2.953   2.748
 4742SOL    HW126257   3.978   2.869   2.800
 4742SOL    HW226258   3.909   3.017   2.803
 4743SOL     OW26259   5.318   1.976   3.342
 4743SOL    HW126260   5.300   2.043   3.270
 4743SOL    HW226261   5.315   2.022   3.431
 4744SOL     OW26262   5.566   3.629   2.221
 4744SOL    HW126263   5.620   3.600   2.301
 4744SOL    HW226264   5.596   3.719   2.192
 4745SOL     OW26265   5.413   2.784   2.474
 4745SOL    HW126266   5.508   2.755   2.482
 4745SOL    HW226267   5.405   2.849   2.399
 4746SOL     OW26268   5.005   2.207   2.806
 4746SOL    HW126269   4.919   2.157   2.793
 4746SOL    HW226270   5.067   2.153   2.862
 4747SOL     OW26271   5.118   2.331   3.536
 4747SOL    HW126272   5.098   2.374   3.624
 4747SOL    HW226273   5.196   2.269   3.545
 4748SOL     OW26274   4.697   2.752   3.434
 4748SOL    HW126275   4.743   2.668   3.405
 4748SOL    HW226276   4.641   2.786   3.359
 4749SOL     OW26277   5.443   2.447   3.693
 4749SOL    HW126278   5.417   2.536   3.657
 4749SOL    HW226279   5.441   2.379   3.620
 4750SOL     OW26280   5.519   2.928   2.735
 4750SOL    HW126281   5.457   2.913   2.659
 4750SOL    HW226282   5.467   2.939   2.820
 4751SOL     OW26283   5.271   2.084   3.591
 4751SOL    HW126284   5.266   2.121   3.683
 4751SOL    HW226285   5.199   2.015   3.579
 4752SOL     OW26286   4.505   2.126   3.611
 4752SOL    HW126287   4.572   2.065   3.654
 4752SOL    HW226288   4.432   2.145   3.676
 4753SOL     OW26289   4.646   2.365   2.761
 4753SOL    HW126290   4.621   2.356   2.665
 4753SOL    HW226291   4.694   2.283   2.792
 4754SOL     OW26292   4.183   3.014   2.603
 4754SOL    HW126293   4.112   2.987   2.668
 4754SOL    HW226294   4.157   2.986   2.510
 4755SOL     OW26295   4.756   2.411   1.878
 4755SOL    HW126296   4.715   2.493   1.839
 4755SOL    HW226297   4.820   2.437   1.951
 4756SOL     OW26298   3.802   2.418   3.248
 4756SOL    HW126299   3.894   2.417   3.207
 4756SOL    HW226300   3.796   2.492   3.315
 4757SOL     OW26301   4.285   2.084   3.009
 4757SOL    HW126302   4.323   2.000   3.046
 4757SOL    HW226303   4.197   2.103   3.053
 4758SOL     OW26304   4.251   2.118   2.190
 4758SOL    HW126305   4.278   2.059   2.115
 4758SOL    HW226306   4.251   2.213   2.159
 4759SOL     OW26307   5.316   3.491   3.487
 4759SOL    HW126308   5.343   3.525   3.397
 4759SOL    HW226309   5.395   3.453   3.533
 4760SOL     OW26310   4.639   1.951   3.264
 4760SOL    HW126311   4.664   1.931   3.169
 4760SOL    HW226312   4.711   2.007   3.306
 4761SOL     OW26313   4.704   2.978   3.581
 4761SOL    HW126314   4.605   2.984   3.591
 4761SOL    HW226315   4.727   2.898   3.525
 4762SOL     OW26316   5.306   2.501   2.334
 4762SOL    HW126317   5.275   2.562   2.407
 4762SOL    HW226318   5.356   2.553   2.265
 4763SOL     OW26319   4.078   3.372   3.191
 4763SOL    HW126320   4.057   3.328   3.104
 4763SOL    HW226321   4.175   3.398   3.194
 4764SOL     OW26322   4.737   1.967   3.632
 4764SOL    HW126323   4.743   2.052   3.580
 4764SOL    HW226324   4.769   1.891   3.575
 4765SOL     OW26325   5.084   2.724   2.907
 4765SOL    HW126326   5.009   2.724   2.841
 4765SOL    HW226327   5.121   2.632   2.916
 4766SOL     OW26328   3.761   3.172   3.144
 4766SOL    HW126329   3.814   3.123   3.212
 4766SOL    HW226330   3.783   3.270   3.149
 4767SOL     OW26331   5.452   2.797   3.716
 4767SOL    HW126332   5.406   2.790   3.627
 4767SOL    HW226333   5.390   2.841   3.782
 4768SOL     OW26334   4.031   1.925   2.480
 4768SOL    HW126335   4.020   2.019   2.513
 4768SOL    HW226336   4.026   1.862   2.557
 4769SOL     OW26337   4.704   3.435   3.562
 4769SOL    HW126338   4.684   3.479   3.474
 4769SOL    HW226339   4.743   3.344   3.546
 4770SOL     OW26340   4.862   2.242   3.540
 4770SOL    HW126341   4.817   2.305   3.604
 4770SOL    HW226342   4.955   2.273   3.523
 4771SOL     OW26343   4.884   2.069   3.339
 4771SOL    HW126344   4.884   2.133   3.416
 4771SOL    HW226345   4.912   2.117   3.256
 4772SOL     OW26346   3.976   3.426   3.606
 4772SOL    HW126347   3.946   3.483   3.682
 4772SOL    HW226348   3.969   3.329   3.632
 4773SOL     OW26349   4.654   3.540   3.327
 4773SOL    HW126350   4.630   3.522   3.232
 4773SOL    HW226351   4.684   3.634   3.337
 4774SOL     OW26352   3.883   2.999   3.328
 4774SOL    HW126353   3.905   2.938   3.404
 4774SOL    HW226354   3.893   2.950   3.242
 4775SOL     OW26355   4.412   3.524   3.578
 4775SOL    HW126356   4.356   3.605   3.587
 4775SOL    HW226357   4.464   3.528   3.492
 4776SOL     OW26358   4.396   3.478   2.016
 4776SOL    HW126359   4.405   3.488   1.917
 4776SOL    HW226360   4.356   3.389   2.037
 4777SOL     OW26361   5.374   3.582   3.256
 4777SOL    HW126362   5.427   3.592   3.172
 4777SOL    HW226363   5.347   3.672   3.290
 4778SOL     OW26364   4.763   2.960   2.558
 4778SOL    HW126365   4.693   2.913   2.612
 4778SOL    HW226366   4.822   2.892   2.515
 4779SOL     OW26367   4.738   2.098   2.833
 4779SOL    HW126368   4.730   2.062   2.740
 4779SOL    HW226369   4.736   2.022   2.898
 4780SOL     OW26370   4.396   2.065   3.351
 4780SOL    HW126371   4.486   2.049   3.311
 4780SOL    HW226372   4.404   2.070   3.450
 4781SOL     OW26373   3.799   2.207   1.895
 4781SOL    HW126374   3.707   2.179   1.866
 4781SOL    HW226375   3.830   2.284   1.839
 4782SOL     OW26376   5.164   2.718   3.260
 4782SOL    HW126377   5.107   2.770   3.197
 4782SOL    HW226378   5.260   2.730   3.236
 4783SOL     OW26379   3.796   2.028   2.180
 4783SOL    HW126380   3.779   2.111   2.126
 4783SOL    HW226381   3.886   1.991   2.158
 4784SOL     OW26382   5.217   3.629   2.821
 4784SOL    HW126383   5.250   3.693   2.752
 4784SOL    HW226384   5.283   3.623   2.896
 4785SOL     OW26385   4.114   3.603   3.422
 4785SOL    HW126386   4.023   3.644   3.420
 4785SOL    HW226387   4.107   3.509   3.454
 4786SOL     OW26388   4.318   2.607   2.514
 4786SOL    HW126389   4.368   2.692   2.495
 4786SOL    HW226390   4.230   2.609   2.466
 4787SOL     OW26391   4.583   2.818   2.723
 4787SOL    HW126392   4.637   2.749   2.771
 4787SOL    HW226393   4.551   2.887   2.789
 4788SOL     OW26394   3.945   3.176   3.706
 4788SOL    HW126395   3.880   3.103   3.685
 4788SOL    HW226396   3.949   3.190   3.804
 4789SOL     OW26397   4.152   2.286   2.382
 4789SOL    HW126398   4.182   2.214   2.320
 4789SOL    HW226399   4.113   2.246   2.465
 4790SOL     OW26400   4.536   3.448   2.549
 4790SOL    HW126401   4.568   3.458   2.455
 4790SOL    HW226402   4.457   3.386   2.551
 4791SOL     OW26403   4.342   3.429   3.146
 4791SOL    HW126404   4.337   3.511   3.203
 4791SOL    HW226405   4.431   3.426   3.101
 4792SOL     OW26406   4.599   3.508   2.199
 4792SOL    HW126407   4.522   3.473   2.145
 4792SOL    HW226408   4.567   3.579   2.261
 4793SOL     OW26409   3.954   2.490   3.837
 4793SOL    HW126410   3.861   2.488   3.874
 4793SOL    HW226411   3.955   2.451   3.745
 4794SOL     OW26412   3.743   2.230   4.371
 4794SOL    HW126413   3.661   2.273   4.410
 4794SOL    HW226414   3.715   2.157   4.308
 4795SOL     OW26415   4.859   2.565   4.441
 4795SOL    HW126416   4.916   2.643   4.416
 4795SOL    HW226417   4.799   2.591   4.517
 4796SOL     OW26418   5.479   2.469   3.955
 4796SOL    HW126419   5.467   2.456   3.856
 4796SOL    HW226420   5.449   2.388   4.004
 4797SOL     OW26421   4.574   2.660   5.547
 4797SOL    HW126422   4.570   2.736   5.612
 4797SOL    HW226423   4.596   2.696   5.456
 4798SOL     OW26424   4.409   2.874   4.389
 4798SOL    HW126425   4.478   2.858   4.459
 4798SOL    HW226426   4.336   2.931   4.427
 4799SOL     OW26427   4.162   2.254   5.223
 4799SOL    HW126428   4.244   2.198   5.232
 4799SOL    HW226429   4.081   2.196   5.227
 4800SOL     OW26430   3.955   3.575   4.207
 4800SOL    HW126431   3.989   3.652   4.261
 4800SOL    HW226432   3.999   3.575   4.117
 4801SOL     OW26433   5.566   3.629   4.083
 4801SOL    HW126434   5.620   3.600   4.163
 4801SOL    HW226435   5.596   3.719   4.054
 4802SOL     OW26436   3.751   3.458   3.841
 4802SOL    HW126437   3.732   3.362   3.862
 4802SOL    HW226438   3.718   3.516   3.916
 4803SOL     OW26439   3.837   2.599   5.321
 4803SOL    HW126440   3.925   2.586   5.366
 4803SOL    HW226441   3.824   2.696   5.299
 4804SOL     OW26442   4.337   3.227   4.450
 4804SOL    HW126443   4.288   3.140   4.459
 4804SOL    HW226444   4.314   3.270   4.363
 4805SOL     OW26445   4.533   1.866   4.226
 4805SOL    HW126446   4.573   1.957   4.217
 4805SOL    HW226447   4.433   1.874   4.232
 4806SOL     OW26448   4.041   2.113   5.525
 4806SOL    HW126449   4.112   2.184   5.531
 4806SOL    HW226450   3.953   2.152   5.553
 4807SOL     OW26451   5.190   3.279   4.677
 4807SOL    HW126452   5.131   3.285   4.757
 4807SOL    HW226453   5.175   3.191   4.631
 4808SOL     OW26454   5.391   3.576   4.296
 4808SOL    HW126455   5.350   3.553   4.208
 4808SOL    HW226456   5.373   3.502   4.361
 4809SOL     OW26457   4.715   2.272   4.966
 4809SOL    HW126458   4.638   2.306   5.020
 4809SOL    HW226459   4.681   2.221   4.887
 4810SOL     OW26460   4.589   2.210   3.919
 4810SOL    HW126461   4.648   2.273   3.870
 4810SOL    HW226462   4.608   2.116   3.890
 4811SOL     OW26463   5.519   2.928   4.597
 4811SOL    HW126464   5.457   2.913   4.521
 4811SOL    HW226465   5.467   2.939   4.682
 4812SOL     OW26466   4.045   2.805   3.966
 4812SOL    HW126467   4.127   2.844   3.924
 4812SOL    HW226468   4.018   2.723   3.917
 4813SOL     OW26469   5.356   3.239   3.805
 4813SOL    HW126470   5.324   3.333   3.795
 4813SOL    HW226471   5.280   3.176   3.793
 4814SOL     OW26472   5.124   1.969   4.150
 4814SOL    HW126473   5.100   1.932   4.060
 4814SOL    HW226474   5.223   1.985   4.154
 4815SOL     OW26475   4.106   2.562   4.204
 4815SOL    HW126476   4.151   2.472   4.201
 4815SOL    HW226477   4.012   2.551   4.237
 4816SOL     OW26478   4.338   1.984   3.841
 4816SOL    HW126479   4.436   1.962   3.848
 4816SOL    HW226480   4.307   1.967   3.748
 4817SOL     OW26481   4.505   2.126   5.473
 4817SOL    HW126482   4.572   2.065   5.516
 4817SOL    HW226483   4.432   2.145   5.538
 4818SOL     OW26484   4.612   3.376   4.919
 4818SOL    HW126485   4.589   3.351   4.825
 4818SOL    HW226486   4.673   3.307   4.958
 4819SOL     OW26487   4.527   3.264   4.648
 4819SOL    HW126488   4.617   3.278   4.606
 4819SOL    HW226489   4.456   3.266   4.577
 4820SOL     OW26490   5.158   3.050   3.765
 4820SOL    HW126491   5.190   2.974   3.822
 4820SOL    HW226492   5.066   3.077   3.795
 4821SOL     OW26493   4.800   2.545   5.188
 4821SOL    HW126494   4.720   2.484   5.191
 4821SOL    HW226495   4.881   2.492   5.164
 4822SOL     OW26496   4.951   3.432   4.517
 4822SOL    HW126497   4.972   3.506   4.452
 4822SOL    HW226498   5.019   3.432   4.590
 4823SOL     OW26499   3.802   2.418   5.110
 4823SOL    HW126500   3.894   2.417   5.069
 4823SOL    HW226501   3.796   2.492   5.177
 4824SOL     OW26502   4.285   2.084   4.871
 4824SOL    HW126503   4.323   2.000   4.908
 4824SOL    HW226504   4.197   2.103   4.915
 4825SOL     OW26505   4.741   1.901   4.477
 4825SOL    HW126506   4.669   1.906   4.408
 4825SOL    HW226507   4.717   1.832   4.546
 4826SOL     OW26508   5.153   3.035   4.591
 4826SOL    HW126509   5.098   2.951   4.584
 4826SOL    HW226510   5.179   3.064   4.499
 4827SOL     OW26511   5.581   2.695   4.101
 4827SOL    HW126512   5.623   2.631   4.165
 4827SOL    HW226513   5.543   2.644   4.023
 4828SOL     OW26514   4.212   3.247   3.898
 4828SOL    HW126515   4.125   3.232   3.945
 4828SOL    HW226516   4.195   3.273   3.803
 4829SOL     OW26517   5.114   2.437   3.802
 4829SOL    HW126518   5.060   2.416   3.883
 4829SOL    HW226519   5.205   2.396   3.811
 4830SOL     OW26520   5.362   2.961   4.803
 4830SOL    HW126521   5.367   3.042   4.862
 4830SOL    HW226522   5.276   2.963   4.752
 4831SOL     OW26523   4.704   2.978   5.443
 4831SOL    HW126524   4.605   2.984   5.453
 4831SOL    HW226525   4.727   2.898   5.387
 4832SOL     OW26526   4.429   2.912   4.092
 4832SOL    HW126527   4.415   2.919   4.191
 4832SOL    HW226528   4.513   2.861   4.074
 4833SOL     OW26529   4.998   2.248   4.986
 4833SOL    HW126530   5.019   2.322   5.050
 4833SOL    HW226531   4.909   2.265   4.943
 4834SOL     OW26532   5.306   2.501   4.196
 4834SOL    HW126533   5.275   2.562   4.269
 4834SOL    HW226534   5.356   2.553   4.127
 4835SOL     OW26535   4.078   3.372   5.053
 4835SOL    HW126536   4.057   3.328   4.966
 4835SOL    HW226537   4.175   3.398   5.056
 4836SOL     OW26538   4.737   1.967   5.494
 4836SOL    HW126539   4.743   2.052   5.442
 4836SOL    HW226540   4.769   1.891   5.437
 4837SOL     OW26541   4.228   1.912   5.464
 4837SOL    HW126542   4.186   1.855   5.394
 4837SOL    HW226543   4.162   1.981   5.496
 4838SOL     OW26544   4.297   2.732   4.753
 4838SOL    HW126545   4.341   2.821   4.744
 4838SOL    HW226546   4.234   2.732   4.830
 4839SOL     OW26547   4.933   2.387   3.999
 4839SOL    HW126548   4.946   2.303   4.053
 4839SOL    HW226549   4.904   2.461   4.059
 4840SOL     OW26550   4.031   2.075   4.955
 4840SOL    HW126551   4.008   2.112   5.045
 4840SOL    HW226552   4.001   1.980   4.949
 4841SOL     OW26553   4.456   2.496   4.788
 4841SOL    HW126554   4.515   2.470   4.712
 4841SOL    HW226555   4.428   2.592   4.777
 4842SOL     OW26556   4.031   1.925   4.342
 4842SOL    HW126557   4.020   2.019   4.375
 4842SOL    HW226558   4.026   1.862   4.419
 4843SOL     OW26559   4.747   2.628   4.690
 4843SOL    HW126560   4.762   2.649   4.786
 4843SOL    HW226561   4.717   2.533   4.681
 4844SOL     OW26562   5.583   3.380   5.329
 4844SOL    HW126563   5.597   3.407   5.234
 4844SOL    HW226564   5.666   3.402   5.382
 4845SOL     OW26565   5.264   2.136   3.849
 4845SOL    HW126566   5.203   2.061   3.872
 4845SOL    HW226567   5.286   2.188   3.932
 4846SOL     OW26568   5.027   2.700   3.766
 4846SOL    HW126569   5.061   2.607   3.781
 4846SOL    HW226570   5.045   2.727   3.671
 4847SOL     OW26571   3.913   2.382   5.446
 4847SOL    HW126572   3.972   2.342   5.376
 4847SOL    HW226573   3.855   2.453   5.405
 4848SOL     OW26574   4.539   2.434   4.049
 4848SOL    HW126575   4.546   2.345   4.003
 4848SOL    HW226576   4.445   2.468   4.041
 4849SOL     OW26577   5.381   2.466   4.930
 4849SOL    HW126578   5.343   2.397   4.992
 4849SOL    HW226579   5.463   2.430   4.886
 4850SOL     OW26580   4.395   2.326   4.993
 4850SOL    HW126581   4.361   2.237   4.963
 4850SOL    HW226582   4.421   2.380   4.913
 4851SOL     OW26583   5.112   3.435   4.201
 4851SOL    HW126584   5.179   3.447   4.127
 4851SOL    HW226585   5.072   3.524   4.224
 4852SOL     OW26586   5.565   2.037   4.687
 4852SOL    HW126587   5.604   1.952   4.651
 4852SOL    HW226588   5.467   2.039   4.668
 4853SOL     OW26589   3.987   2.188   4.444
 4853SOL    HW126590   3.908   2.239   4.410
 4853SOL    HW226591   3.978   2.173   4.542
 4854SOL     OW26592   4.918   3.474   3.755
 4854SOL    HW126593   4.924   3.381   3.792
 4854SOL    HW226594   4.859   3.474   3.675
 4855SOL     OW26595   4.096   3.150   5.214
 4855SOL    HW126596   4.083   3.243   5.180
 4855SOL    HW226597   4.012   3.098   5.201
 4856SOL     OW26598   3.799   2.207   3.757
 4856SOL    HW126599   3.707   2.179   3.728
 4856SOL    HW226600   3.830   2.284   3.701
 4857SOL     OW26601   3.796   2.028   4.042
 4857SOL    HW126602   3.779   2.111   3.988
 4857SOL    HW226603   3.886   1.991   4.020
 4858SOL     OW26604   4.907   3.197   3.843
 4858SOL    HW126605   4.808   3.186   3.845
 4858SOL    HW226606   4.941   3.212   3.936
 4859SOL     OW26607   4.114   3.603   5.284
 4859SOL    HW126608   4.023   3.644   5.282
 4859SOL    HW226609   4.107   3.509   5.316
 4860SOL     OW26610   5.148   2.076   4.836
 4860SOL    HW126611   5.200   2.011   4.891
 4860SOL    HW226612   5.099   2.139   4.897
 4861SOL     OW26613   5.076   1.914   3.892
 4861SOL    HW126614   5.111   1.873   3.808
 4861SOL    HW226615   4.986   1.876   3.912
 4862SOL     OW26616   5.024   2.315   4.415
 4862SOL    HW126617   4.965   2.395   4.419
 4862SOL    HW226618   5.039   2.280   4.508
 4863SOL     OW26619   4.599   3.508   4.061
 4863SOL    HW126620   4.522   3.473   4.007
 4863SOL    HW226621   4.567   3.579   4.123
 4864SOL     OW26622   3.954   2.490   5.699
 4864SOL    HW126623   3.861   2.488   5.736
 4864SOL    HW226624   3.955   2.451   5.607
 4865SOL     OW26625   3.949   2.137   6.582
 4865SOL    HW126626   3.984   2.120   6.674
 4865SOL    HW226627   3.861   2.092   6.570
 4866SOL     OW26628   3.743   2.230   6.233
 4866SOL    HW126629   3.661   2.273   6.272
 4866SOL    HW226630   3.715   2.157   6.170
 4867SOL     OW26631   4.293   3.137   6.751
 4867SOL    HW126632   4.200   3.130   6.714
 4867SOL    HW226633   4.304   3.226   6.795
 4868SOL     OW26634   5.279   3.373   6.289
 4868SOL    HW126635   5.222   3.357   6.370
 4868SOL    HW226636   5.220   3.383   6.209
 4869SOL     OW26637   4.859   2.565   6.303
 4869SOL    HW126638   4.916   2.643   6.278
 4869SOL    HW226639   4.799   2.591   6.379
 4870SOL     OW26640   4.492   3.006   6.609
 4870SOL    HW126641   4.414   3.023   6.669
 4870SOL    HW226642   4.526   3.093   6.573
 4871SOL     OW26643   4.409   2.874   6.251
 4871SOL    HW126644   4.478   2.858   6.321
 4871SOL    HW226645   4.336   2.931   6.289
 4872SOL     OW26646   4.059   3.297   6.647
 4872SOL    HW126647   3.981   3.266   6.594
 4872SOL    HW226648   4.117   3.355   6.590
 4873SOL     OW26649   5.327   2.309   6.323
 4873SOL    HW126650   5.253   2.355   6.273
 4873SOL    HW226651   5.378   2.377   6.376
 4874SOL     OW26652   3.955   3.575   6.069
 4874SOL    HW126653   3.989   3.652   6.123
 4874SOL    HW226654   3.999   3.575   5.979
 4875SOL     OW26655   3.954   3.296   6.124
 4875SOL    HW126656   3.928   3.392   6.124
 4875SOL    HW226657   3.883   3.242   6.169
 4876SOL     OW26658   3.964   2.953   6.472
 4876SOL    HW126659   3.978   2.869   6.524
 4876SOL    HW226660   3.909   3.017   6.527
 4877SOL     OW26661   4.344   3.648   7.025
 4877SOL    HW126662   4.252   3.631   7.060
 4877SOL    HW226663   4.372   3.740   7.051
 4878SOL     OW26664   3.846   2.505   6.149
 4878SOL    HW126665   3.801   2.417   6.166
 4878SOL    HW226666   3.845   2.559   6.233
 4879SOL     OW26667   4.337   3.227   6.312
 4879SOL    HW126668   4.288   3.140   6.321
 4879SOL    HW226669   4.314   3.270   6.225
 4880SOL     OW26670   3.921   2.838   6.850
 4880SOL    HW126671   4.010   2.793   6.836
 4880SOL    HW226672   3.848   2.773   6.831
 4881SOL     OW26673   5.190   3.279   6.539
 4881SOL    HW126674   5.131   3.285   6.619
 4881SOL    HW226675   5.175   3.191   6.493
 4882SOL     OW26676   5.391   3.576   6.158
 4882SOL    HW126677   5.350   3.553   6.070
 4882SOL    HW226678   5.373   3.502   6.223
 4883SOL     OW26679   4.322   2.591   5.856
 4883SOL    HW126680   4.346   2.660   5.788
 4883SOL    HW226681   4.244   2.624   5.910
 4884SOL     OW26682   5.005   2.207   6.530
 4884SOL    HW126683   4.919   2.157   6.517
 4884SOL    HW226684   5.067   2.153   6.586
 4885SOL     OW26685   5.300   3.524   5.893
 4885SOL    HW126686   5.389   3.570   5.896
 4885SOL    HW226687   5.279   3.500   5.798
 4886SOL     OW26688   4.715   2.272   6.828
 4886SOL    HW126689   4.638   2.306   6.882
 4886SOL    HW226690   4.681   2.221   6.749
 4887SOL     OW26691   4.765   2.563   6.015
 4887SOL    HW126692   4.791   2.559   6.111
 4887SOL    HW226693   4.680   2.512   6.001
 4888SOL     OW26694   3.800   2.673   6.375
 4888SOL    HW126695   3.899   2.661   6.384
 4888SOL    HW226696   3.776   2.768   6.396
 4889SOL     OW26697   4.589   2.210   5.781
 4889SOL    HW126698   4.648   2.273   5.732
 4889SOL    HW226699   4.608   2.116   5.752
 4890SOL     OW26700   4.732   3.318   6.063
 4890SOL    HW126701   4.686   3.390   6.011
 4890SOL    HW226702   4.728   3.338   6.161
 4891SOL     OW26703   4.075   3.663   6.439
 4891SOL    HW126704   4.125   3.577   6.445
 4891SOL    HW226705   4.140   3.740   6.436
 4892SOL     OW26706   5.519   2.928   6.459
 4892SOL    HW126707   5.457   2.913   6.383
 4892SOL    HW226708   5.467   2.939   6.544
 4893SOL     OW26709   4.045   2.805   5.828
 4893SOL    HW126710   4.127   2.844   5.786
 4893SOL    HW226711   4.018   2.723   5.779
 4894SOL     OW26712   5.182   2.597   6.314
 4894SOL    HW126713   5.177   2.532   6.389
 4894SOL    HW226714   5.262   2.656   6.327
 4895SOL     OW26715   3.973   3.647   6.827
 4895SOL    HW126716   4.030   3.582   6.877
 4895SOL    HW226717   3.957   3.614   6.734
 4896SOL     OW26718   4.664   3.560   6.490
 4896SOL    HW126719   4.744   3.503   6.511
 4896SOL    HW226720   4.615   3.520   6.413
 4897SOL     OW26721   4.106   2.562   6.066
 4897SOL    HW126722   4.151   2.472   6.063
 4897SOL    HW226723   4.012   2.551   6.099
 4898SOL     OW26724   4.338   1.984   5.703
 4898SOL    HW126725   4.436   1.962   5.710
 4898SOL    HW226726   4.307   1.967   5.610
 4899SOL     OW26727   4.527   3.264   6.510
 4899SOL    HW126728   4.617   3.278   6.468
 4899SOL    HW226729   4.456   3.266   6.439
 4900SOL     OW26730   4.646   2.365   6.485
 4900SOL    HW126731   4.621   2.356   6.389
 4900SOL    HW226732   4.694   2.283   6.516
 4901SOL     OW26733   4.659   2.098   6.066
 4901SOL    HW126734   4.611   2.139   5.988
 4901SOL    HW226735   4.758   2.096   6.047
 4902SOL     OW26736   4.951   3.432   6.379
 4902SOL    HW126737   4.972   3.506   6.314
 4902SOL    HW226738   5.019   3.432   6.452
 4903SOL     OW26739   4.183   3.014   6.327
 4903SOL    HW126740   4.112   2.987   6.392
 4903SOL    HW226741   4.157   2.986   6.234
 4904SOL     OW26742   4.995   3.659   6.177
 4904SOL    HW126743   5.039   3.723   6.113
 4904SOL    HW226744   4.945   3.711   6.247
 4905SOL     OW26745   4.590   2.316   6.228
 4905SOL    HW126746   4.558   2.388   6.166
 4905SOL    HW226747   4.614   2.235   6.175
 4906SOL     OW26748   5.153   3.035   6.453
 4906SOL    HW126749   5.098   2.951   6.446
 4906SOL    HW226750   5.179   3.064   6.361
 4907SOL     OW26751   5.190   2.452   6.578
 4907SOL    HW126752   5.160   2.357   6.585
 4907SOL    HW226753   5.263   2.468   6.644
 4908SOL     OW26754   4.212   3.247   5.760
 4908SOL    HW126755   4.125   3.232   5.807
 4908SOL    HW226756   4.195   3.273   5.665
 4909SOL     OW26757   4.251   2.118   5.914
 4909SOL    HW126758   4.278   2.059   5.839
 4909SOL    HW226759   4.251   2.213   5.883
 4910SOL     OW26760   4.835   3.057   6.686
 4910SOL    HW126761   4.795   3.101   6.767
 4910SOL    HW226762   4.794   3.094   6.603
 4911SOL     OW26763   4.429   2.912   5.954
 4911SOL    HW126764   4.415   2.919   6.053
 4911SOL    HW226765   4.513   2.861   5.936
 4912SOL     OW26766   4.134   2.675   6.837
 4912SOL    HW126767   4.220   2.687   6.887
 4912SOL    HW226768   4.092   2.588   6.864
 4913SOL     OW26769   4.998   2.248   6.848
 4913SOL    HW126770   5.019   2.322   6.912
 4913SOL    HW226771   4.909   2.265   6.805
 4914SOL     OW26772   4.091   2.962   6.087
 4914SOL    HW126773   4.084   3.045   6.031
 4914SOL    HW226774   4.095   2.882   6.027
 4915SOL     OW26775   4.290   2.399   6.451
 4915SOL    HW126776   4.302   2.465   6.377
 4915SOL    HW226777   4.336   2.433   6.534
 4916SOL     OW26778   4.976   3.210   5.974
 4916SOL    HW126779   5.026   3.287   6.014
 4916SOL    HW226780   4.881   3.212   6.006
 4917SOL     OW26781   4.996   3.307   6.728
 4917SOL    HW126782   5.043   3.320   6.815
 4917SOL    HW226783   4.930   3.233   6.737
 4918SOL     OW26784   4.078   3.372   6.915
 4918SOL    HW126785   4.057   3.328   6.828
 4918SOL    HW226786   4.175   3.398   6.918
 4919SOL     OW26787   4.297   2.732   6.615
 4919SOL    HW126788   4.341   2.821   6.606
 4919SOL    HW226789   4.234   2.732   6.692
 4920SOL     OW26790   5.084   2.724   6.631
 4920SOL    HW126791   5.009   2.724   6.565
 4920SOL    HW226792   5.121   2.632   6.640
 4921SOL     OW26793   4.031   2.075   6.817
 4921SOL    HW126794   4.008   2.112   6.907
 4921SOL    HW226795   4.001   1.980   6.811
 4922SOL     OW26796   3.761   3.172   6.868
 4922SOL    HW126797   3.814   3.123   6.936
 4922SOL    HW226798   3.783   3.270   6.873
 4923SOL     OW26799   4.456   2.496   6.650
 4923SOL    HW126800   4.515   2.470   6.574
 4923SOL    HW226801   4.428   2.592   6.639
 4924SOL     OW26802   5.346   2.229   5.960
 4924SOL    HW126803   5.348   2.153   6.024
 4924SOL    HW226804   5.298   2.306   6.000
 4925SOL     OW26805   4.747   2.628   6.552
 4925SOL    HW126806   4.762   2.649   6.648
 4925SOL    HW226807   4.717   2.533   6.543
 4926SOL     OW26808   5.264   2.136   5.711
 4926SOL    HW126809   5.203   2.061   5.734
 4926SOL    HW226810   5.286   2.188   5.794
 4927SOL     OW26811   4.792   3.195   6.435
 4927SOL    HW126812   4.799   3.111   6.380
 4927SOL    HW226813   4.854   3.264   6.399
 4928SOL     OW26814   4.043   2.672   6.535
 4928SOL    HW126815   4.136   2.708   6.540
 4928SOL    HW226816   4.037   2.587   6.587
 4929SOL     OW26817   4.063   2.371   6.592
 4929SOL    HW126818   4.011   2.288   6.575
 4929SOL    HW226819   4.140   2.376   6.528
 4930SOL     OW26820   3.812   3.663   6.513
 4930SOL    HW126821   3.770   3.577   6.486
 4930SOL    HW226822   3.906   3.666   6.479
 4931SOL     OW26823   4.228   3.430   6.496
 4931SOL    HW126824   4.294   3.504   6.505
 4931SOL    HW226825   4.272   3.351   6.454
 4932SOL     OW26826   4.726   2.658   6.824
 4932SOL    HW126827   4.767   2.626   6.910
 4932SOL    HW226828   4.630   2.631   6.821
 4933SOL     OW26829   3.764   2.406   6.700
 4933SOL    HW126830   3.849   2.373   6.659
 4933SOL    HW226831   3.777   2.421   6.798
 4934SOL     OW26832   4.539   2.434   5.911
 4934SOL    HW126833   4.546   2.345   5.865
 4934SOL    HW226834   4.445   2.468   5.903
 4935SOL     OW26835   4.395   2.326   6.855
 4935SOL    HW126836   4.361   2.237   6.825
 4935SOL    HW226837   4.421   2.380   6.775
 4936SOL     OW26838   4.654   3.540   7.051
 4936SOL    HW126839   4.630   3.522   6.956
 4936SOL    HW226840   4.684   3.634   7.061
 4937SOL     OW26841   4.197   2.362   5.777
 4937SOL    HW126842   4.258   2.442   5.781
 4937SOL    HW226843   4.102   2.393   5.784
 4938SOL     OW26844   5.071   2.921   6.820
 4938SOL    HW126845   5.095   2.858   6.746
 4938SOL    HW226846   4.981   2.961   6.802
 4939SOL     OW26847   5.483   3.609   6.740
 4939SOL    HW126848   5.544   3.639   6.667
 4939SOL    HW226849   5.445   3.520   6.718
 4940SOL     OW26850   4.976   3.593   6.714
 4940SOL    HW126851   5.060   3.598   6.660
 4940SOL    HW226852   4.953   3.497   6.732
 4941SOL     OW26853   3.807   3.120   6.608
 4941SOL    HW126854   3.802   3.119   6.708
 4941SOL    HW226855   3.724   3.079   6.570
 4942SOL     OW26856   5.112   3.435   6.063
 4942SOL    HW126857   5.179   3.447   5.989
 4942SOL    HW226858   5.072   3.524   6.086
 4943SOL     OW26859   5.374   3.582   6.980
 4943SOL    HW126860   5.427   3.592   6.896
 4943SOL    HW226861   5.347   3.672   7.014
 4944SOL     OW26862   5.565   2.037   6.549
 4944SOL    HW126863   5.604   1.952   6.513
 4944SOL    HW226864   5.467   2.039   6.530
 4945SOL     OW26865   4.546   2.864   6.958
 4945SOL    HW126866   4.586   2.863   6.866
 4945SOL    HW226867   4.556   2.956   6.998
 4946SOL     OW26868   4.763   2.960   6.282
 4946SOL    HW126869   4.693   2.913   6.336
 4946SOL    HW226870   4.822   2.892   6.239
 4947SOL     OW26871   4.738   2.098   6.557
 4947SOL    HW126872   4.730   2.062   6.464
 4947SOL    HW226873   4.736   2.022   6.622
 4948SOL     OW26874   4.314   3.349   6.077
 4948SOL    HW126875   4.356   3.291   6.007
 4948SOL    HW226876   4.270   3.428   6.033
 4949SOL     OW26877   3.979   3.210   5.876
 4949SOL    HW126878   3.883   3.211   5.849
 4949SOL    HW226879   3.991   3.263   5.960
 4950SOL     OW26880   3.799   2.207   5.619
 4950SOL    HW126881   3.707   2.179   5.590
 4950SOL    HW226882   3.830   2.284   5.563
 4951SOL     OW26883   3.796   2.028   5.904
 4951SOL    HW126884   3.779   2.111   5.850
 4951SOL    HW226885   3.886   1.991   5.882
 4952SOL     OW26886   4.907   3.197   5.705
 4952SOL    HW126887   4.808   3.186   5.707
 4952SOL    HW226888   4.941   3.212   5.798
 4953SOL     OW26889   5.217   3.629   6.545
 4953SOL    HW126890   5.250   3.693   6.476
 4953SOL    HW226891   5.283   3.623   6.620
 4954SOL     OW26892   5.174   3.082   7.219
 4954SOL    HW126893   5.165   3.072   7.318
 4954SOL    HW226894   5.270   3.075   7.193
 4955SOL     OW26895   4.949   2.187   6.035
 4955SOL    HW126896   5.014   2.113   6.024
 4955SOL    HW226897   4.969   2.237   6.119
 4956SOL     OW26898   4.318   2.607   6.238
 4956SOL    HW126899   4.368   2.692   6.219
 4956SOL    HW226900   4.230   2.609   6.190
 4957SOL     OW26901   4.385   3.652   6.539
 4957SOL    HW126902   4.339   3.740   6.526
 4957SOL    HW226903   4.484   3.664   6.532
 4958SOL     OW26904   4.583   2.818   6.447
 4958SOL    HW126905   4.637   2.749   6.495
 4958SOL    HW226906   4.551   2.887   6.513
 4959SOL     OW26907   5.585   3.431   6.437
 4959SOL    HW126908   5.514   3.419   6.367
 4959SOL    HW226909   5.586   3.352   6.497
 4960SOL     OW26910   3.803   3.102   6.239
 4960SOL    HW126911   3.802   3.055   6.327
 4960SOL    HW226912   3.885   3.074   6.188
 4961SOL     OW26913   4.152   2.286   6.106
 4961SOL    HW126914   4.182   2.214   6.044
 4961SOL    HW226915   4.113   2.246   6.189
 4962SOL     OW26916   5.429   3.349   6.690
 4962SOL    HW126917   5.336   3.324   6.663
 4962SOL    HW226918   5.455   3.299   6.772
 4963SOL     OW26919   4.536   3.448   6.273
 4963SOL    HW126920   4.568   3.458   6.179
 4963SOL    HW226921   4.457   3.386   6.275
 4964SOL     OW26922   4.725   1.896   6.740
 4964SOL    HW126923   4.662   1.824   6.709
 4964SOL    HW226924   4.818   1.860   6.740
 4965SOL     OW26925   4.494   3.192   5.887
 4965SOL    HW126926   4.448   3.105   5.904
 4965SOL    HW226927   4.585   3.189   5.928
 4966SOL     OW26928   5.024   2.315   6.277
 4966SOL    HW126929   4.965   2.395   6.281
 4966SOL    HW226930   5.039   2.280   6.370
 4967SOL     OW26931   5.317   2.083   6.468
 4967SOL    HW126932   5.233   2.082   6.522
 4967SOL    HW226933   5.319   2.166   6.412
 4968SOL     OW26934   3.954   4.352   0.113
 4968SOL    HW126935   3.861   4.350   0.150
 4968SOL    HW226936   3.955   4.313   0.021
 4969SOL     OW26937   3.949   3.999   0.996
 4969SOL    HW126938   3.984   3.982   1.088
 4969SOL    HW226939   3.861   3.954   0.984
 4970SOL     OW26940   3.743   4.092   0.647
 4970SOL    HW126941   3.661   4.135   0.686
 4970SOL    HW226942   3.715   4.019   0.584
 4971SOL     OW26943   4.293   4.999   1.165
 4971SOL    HW126944   4.200   4.992   1.128
 4971SOL    HW226945   4.304   5.088   1.209
 4972SOL     OW26946   5.279   5.235   0.703
 4972SOL    HW126947   5.222   5.219   0.784
 4972SOL    HW226948   5.220   5.245   0.623
 4973SOL     OW26949   4.859   4.427   0.717
 4973SOL    HW126950   4.916   4.505   0.692
 4973SOL    HW226951   4.799   4.453   0.793
 4974SOL     OW26952   5.479   4.331   0.231
 4974SOL    HW126953   5.467   4.318   0.132
 4974SOL    HW226954   5.449   4.250   0.280
 4975SOL     OW26955   4.492   4.868   1.023
 4975SOL    HW126956   4.414   4.885   1.083
 4975SOL    HW226957   4.526   4.955   0.987
 4976SOL     OW26958   4.409   4.736   0.665
 4976SOL    HW126959   4.478   4.720   0.735
 4976SOL    HW226960   4.336   4.793   0.703
 4977SOL     OW26961   4.410   4.885   1.803
 4977SOL    HW126962   4.470   4.964   1.817
 4977SOL    HW226963   4.324   4.916   1.762
 4978SOL     OW26964   4.059   5.159   1.061
 4978SOL    HW126965   3.981   5.128   1.008
 4978SOL    HW226966   4.117   5.217   1.004
 4979SOL     OW26967   5.184   5.229   1.339
 4979SOL    HW126968   5.208   5.323   1.365
 4979SOL    HW226969   5.168   5.175   1.421
 4980SOL     OW26970   4.162   4.116   1.499
 4980SOL    HW126971   4.244   4.060   1.508
 4980SOL    HW226972   4.081   4.058   1.503
 4981SOL     OW26973   5.327   4.171   0.737
 4981SOL    HW126974   5.253   4.217   0.687
 4981SOL    HW226975   5.378   4.239   0.790
 4982SOL     OW26976   3.955   5.437   0.483
 4982SOL    HW126977   3.989   5.514   0.537
 4982SOL    HW226978   3.999   5.437   0.393
 4983SOL     OW26979   3.954   5.158   0.538
 4983SOL    HW126980   3.928   5.254   0.538
 4983SOL    HW226981   3.883   5.104   0.583
 4984SOL     OW26982   3.964   4.815   0.886
 4984SOL    HW126983   3.978   4.731   0.938
 4984SOL    HW226984   3.909   4.879   0.941
 4985SOL     OW26985   4.344   5.510   1.439
 4985SOL    HW126986   4.252   5.493   1.474
 4985SOL    HW226987   4.372   5.602   1.465
 4986SOL     OW26988   4.330   4.688   0.123
 4986SOL    HW126989   4.337   4.772   0.069
 4986SOL    HW226990   4.376   4.701   0.211
 4987SOL     OW26991   3.846   4.367   0.563
 4987SOL    HW126992   3.801   4.279   0.580
 4987SOL    HW226993   3.845   4.421   0.647
 4988SOL     OW26994   5.566   5.491   0.359
 4988SOL    HW126995   5.620   5.462   0.439
 4988SOL    HW226996   5.596   5.581   0.330
 4989SOL     OW26997   3.751   5.320   0.117
 4989SOL    HW126998   3.732   5.224   0.138
 4989SOL    HW226999   3.718   5.378   0.192
 4990SOL     OW27000   5.413   4.646   0.612
 4990SOL    HW127001   5.508   4.617   0.620
 4990SOL    HW227002   5.405   4.711   0.537
 4991SOL     OW27003   5.365   4.832   0.432
 4991SOL    HW127004   5.451   4.834   0.380
 4991SOL    HW227005   5.379   4.879   0.520
 4992SOL     OW27006   3.837   4.461   1.597
 4992SOL    HW127007   3.925   4.448   1.642
 4992SOL    HW227008   3.824   4.558   1.575
 4993SOL     OW27009   4.337   5.089   0.726
 4993SOL    HW127010   4.288   5.002   0.735
 4993SOL    HW227011   4.314   5.132   0.639
 4994SOL     OW27012   5.017   4.952   1.423
 4994SOL    HW127013   5.054   4.879   1.365
 4994SOL    HW227014   5.069   4.957   1.508
 4995SOL     OW27015   4.533   3.728   0.502
 4995SOL    HW127016   4.573   3.819   0.493
 4995SOL    HW227017   4.433   3.736   0.508
 4996SOL     OW27018   3.921   4.700   1.264
 4996SOL    HW127019   4.010   4.655   1.250
 4996SOL    HW227020   3.848   4.635   1.245
 4997SOL     OW27021   5.249   4.723   0.190
 4997SOL    HW127022   5.186   4.647   0.203
 4997SOL    HW227023   5.297   4.741   0.276
 4998SOL     OW27024   4.911   5.516   1.616
 4998SOL    HW127025   4.935   5.576   1.540
 4998SOL    HW227026   4.918   5.421   1.586
 4999SOL     OW27027   5.190   5.141   0.953
 4999SOL    HW127028   5.131   5.147   1.033
 4999SOL    HW227029   5.175   5.053   0.907
 5000SOL     OW27030   5.391   5.438   0.572
 5000SOL    HW127031   5.350   5.415   0.484
 5000SOL    HW227032   5.373   5.364   0.637
 5001SOL     OW27033   5.005   4.069   0.944
 5001SOL    HW127034   4.919   4.019   0.931
 5001SOL    HW227035   5.067   4.015   1.000
 5002SOL     OW27036   5.300   5.386   0.307
 5002SOL    HW127037   5.389   5.432   0.310
 5002SOL    HW227038   5.279   5.362   0.212
 5003SOL     OW27039   4.765   4.425   0.429
 5003SOL    HW127040   4.791   4.421   0.525
 5003SOL    HW227041   4.680   4.374   0.415
 5004SOL     OW27042   3.800   4.535   0.789
 5004SOL    HW127043   3.899   4.523   0.798
 5004SOL    HW227044   3.776   4.630   0.810
 5005SOL     OW27045   3.854   5.545   1.571
 5005SOL    HW127046   3.844   5.530   1.670
 5005SOL    HW227047   3.768   5.581   1.535
 5006SOL     OW27048   4.589   4.072   0.195
 5006SOL    HW127049   4.648   4.135   0.146
 5006SOL    HW227050   4.608   3.978   0.166
 5007SOL     OW27051   5.443   4.309   1.831
 5007SOL    HW127052   5.417   4.398   1.795
 5007SOL    HW227053   5.441   4.241   1.758
 5008SOL     OW27054   5.086   4.868   0.545
 5008SOL    HW127055   5.169   4.839   0.497
 5008SOL    HW227056   5.037   4.935   0.489
 5009SOL     OW27057   4.274   3.920   0.885
 5009SOL    HW127058   4.269   3.915   0.985
 5009SOL    HW227059   4.276   4.016   0.856
 5010SOL     OW27060   4.732   5.180   0.477
 5010SOL    HW127061   4.686   5.252   0.425
 5010SOL    HW227062   4.728   5.200   0.575
 5011SOL     OW27063   4.075   5.525   0.853
 5011SOL    HW127064   4.125   5.439   0.859
 5011SOL    HW227065   4.140   5.602   0.850
 5012SOL     OW27066   5.519   4.790   0.873
 5012SOL    HW127067   5.457   4.775   0.797
 5012SOL    HW227068   5.467   4.801   0.958
 5013SOL     OW27069   4.951   5.274   1.506
 5013SOL    HW127070   4.957   5.197   1.570
 5013SOL    HW227071   4.899   5.248   1.426
 5014SOL     OW27072   4.045   4.667   0.242
 5014SOL    HW127073   4.127   4.706   0.200
 5014SOL    HW227074   4.018   4.585   0.193
 5015SOL     OW27075   5.182   4.459   0.728
 5015SOL    HW127076   5.177   4.394   0.803
 5015SOL    HW227077   5.262   4.518   0.741
 5016SOL     OW27078   4.185   4.990   1.727
 5016SOL    HW127079   4.135   4.991   1.641
 5016SOL    HW227080   4.122   4.972   1.803
 5017SOL     OW27081   4.835   5.500   0.237
 5017SOL    HW127082   4.775   5.438   0.287
 5017SOL    HW227083   4.866   5.456   0.152
 5018SOL     OW27084   5.356   5.101   0.081
 5018SOL    HW127085   5.324   5.195   0.071
 5018SOL    HW227086   5.280   5.038   0.069
 5019SOL     OW27087   4.188   5.467   0.323
 5019SOL    HW127088   4.221   5.506   0.409
 5019SOL    HW227089   4.264   5.460   0.258
 5020SOL     OW27090   5.124   3.831   0.426
 5020SOL    HW127091   5.100   3.794   0.336
 5020SOL    HW227092   5.223   3.847   0.430
 5021SOL     OW27093   3.973   5.509   1.241
 5021SOL    HW127094   4.030   5.444   1.291
 5021SOL    HW227095   3.957   5.476   1.148
 5022SOL     OW27096   4.664   5.422   0.904
 5022SOL    HW127097   4.744   5.365   0.925
 5022SOL    HW227098   4.615   5.382   0.827
 5023SOL     OW27099   4.505   3.988   1.749
 5023SOL    HW127100   4.572   3.927   1.792
 5023SOL    HW227101   4.432   4.007   1.814
 5024SOL     OW27102   4.612   5.238   1.195
 5024SOL    HW127103   4.589   5.213   1.101
 5024SOL    HW227104   4.673   5.169   1.234
 5025SOL     OW27105   5.075   4.314   1.433
 5025SOL    HW127106   5.103   4.271   1.518
 5025SOL    HW227107   5.100   4.410   1.434
 5026SOL     OW27108   4.527   5.126   0.924
 5026SOL    HW127109   4.617   5.140   0.882
 5026SOL    HW227110   4.456   5.128   0.853
 5027SOL     OW27111   4.263   3.788   0.512
 5027SOL    HW127112   4.182   3.789   0.570
 5027SOL    HW227113   4.266   3.871   0.457
 5028SOL     OW27114   5.158   4.912   0.041
 5028SOL    HW127115   5.190   4.836   0.098
 5028SOL    HW227116   5.066   4.939   0.071
 5029SOL     OW27117   4.021   3.759   0.171
 5029SOL    HW127118   4.070   3.843   0.150
 5029SOL    HW227119   4.083   3.694   0.216
 5030SOL     OW27120   4.659   3.960   0.480
 5030SOL    HW127121   4.611   4.001   0.402
 5030SOL    HW227122   4.758   3.958   0.461
 5031SOL     OW27123   4.951   5.294   0.793
 5031SOL    HW127124   4.972   5.368   0.728
 5031SOL    HW227125   5.019   5.294   0.866
 5032SOL     OW27126   4.183   4.876   0.741
 5032SOL    HW127127   4.112   4.849   0.806
 5032SOL    HW227128   4.157   4.848   0.648
 5033SOL     OW27129   4.995   5.521   0.591
 5033SOL    HW127130   5.039   5.585   0.527
 5033SOL    HW227131   4.945   5.573   0.661
 5034SOL     OW27132   4.756   4.273   0.016
 5034SOL    HW127133   4.715   4.355  -0.023
 5034SOL    HW227134   4.820   4.299   0.089
 5035SOL     OW27135   3.802   4.280   1.386
 5035SOL    HW127136   3.894   4.279   1.345
 5035SOL    HW227137   3.796   4.354   1.453
 5036SOL     OW27138   4.285   3.946   1.147
 5036SOL    HW127139   4.323   3.862   1.184
 5036SOL    HW227140   4.197   3.965   1.191
 5037SOL     OW27141   4.590   4.178   0.642
 5037SOL    HW127142   4.558   4.250   0.580
 5037SOL    HW227143   4.614   4.097   0.589
 5038SOL     OW27144   4.741   3.763   0.753
 5038SOL    HW127145   4.669   3.768   0.684
 5038SOL    HW227146   4.717   3.694   0.822
 5039SOL     OW27147   5.153   4.897   0.867
 5039SOL    HW127148   5.098   4.813   0.860
 5039SOL    HW227149   5.179   4.926   0.775
 5040SOL     OW27150   5.190   4.314   0.992
 5040SOL    HW127151   5.160   4.219   0.999
 5040SOL    HW227152   5.263   4.330   1.058
 5041SOL     OW27153   5.581   4.557   0.377
 5041SOL    HW127154   5.623   4.493   0.441
 5041SOL    HW227155   5.543   4.506   0.299
 5042SOL     OW27156   4.212   5.109   0.174
 5042SOL    HW127157   4.125   5.094   0.221
 5042SOL    HW227158   4.195   5.135   0.079
 5043SOL     OW27159   5.388   5.004   0.657
 5043SOL    HW127160   5.487   5.012   0.671
 5043SOL    HW227161   5.343   5.088   0.688
 5044SOL     OW27162   5.114   4.299   0.078
 5044SOL    HW127163   5.060   4.278   0.159
 5044SOL    HW227164   5.205   4.258   0.087
 5045SOL     OW27165   4.251   3.980   0.328
 5045SOL    HW127166   4.278   3.921   0.253
 5045SOL    HW227167   4.251   4.075   0.297
 5046SOL     OW27168   5.478   4.947   1.588
 5046SOL    HW127169   5.569   4.908   1.575
 5046SOL    HW227170   5.486   5.043   1.612
 5047SOL     OW27171   4.788   5.071   1.340
 5047SOL    HW127172   4.708   5.048   1.395
 5047SOL    HW227173   4.871   5.045   1.389
 5048SOL     OW27174   4.835   4.919   1.100
 5048SOL    HW127175   4.795   4.963   1.181
 5048SOL    HW227176   4.794   4.956   1.017
 5049SOL     OW27177   5.362   4.823   1.079
 5049SOL    HW127178   5.367   4.904   1.138
 5049SOL    HW227179   5.276   4.825   1.028
 5050SOL     OW27180   4.639   3.813   1.402
 5050SOL    HW127181   4.664   3.793   1.307
 5050SOL    HW227182   4.711   3.869   1.444
 5051SOL     OW27183   4.429   4.774   0.368
 5051SOL    HW127184   4.415   4.781   0.467
 5051SOL    HW227185   4.513   4.723   0.350
 5052SOL     OW27186   4.134   4.537   1.251
 5052SOL    HW127187   4.220   4.549   1.301
 5052SOL    HW227188   4.092   4.450   1.278
 5053SOL     OW27189   4.998   4.110   1.262
 5053SOL    HW127190   5.019   4.184   1.326
 5053SOL    HW227191   4.909   4.127   1.219
 5054SOL     OW27192   3.788   5.288   1.331
 5054SOL    HW127193   3.742   5.370   1.297
 5054SOL    HW227194   3.886   5.307   1.340
 5055SOL     OW27195   4.091   4.824   0.501
 5055SOL    HW127196   4.084   4.907   0.445
 5055SOL    HW227197   4.095   4.744   0.441
 5056SOL     OW27198   4.976   5.072   0.388
 5056SOL    HW127199   5.026   5.149   0.428
 5056SOL    HW227200   4.881   5.074   0.420
 5057SOL     OW27201   4.996   5.169   1.142
 5057SOL    HW127202   5.043   5.182   1.229
 5057SOL    HW227203   4.930   5.095   1.151
 5058SOL     OW27204   5.306   4.363   0.472
 5058SOL    HW127205   5.275   4.424   0.545
 5058SOL    HW227206   5.356   4.415   0.403
 5059SOL     OW27207   4.078   5.234   1.329
 5059SOL    HW127208   4.057   5.190   1.242
 5059SOL    HW227209   4.175   5.260   1.332
 5060SOL     OW27210   4.126   4.475   1.598
 5060SOL    HW127211   4.194   4.530   1.551
 5060SOL    HW227212   4.166   4.387   1.625
 5061SOL     OW27213   5.311   4.503   1.670
 5061SOL    HW127214   5.219   4.541   1.665
 5061SOL    HW227215   5.371   4.550   1.605
 5062SOL     OW27216   4.737   3.829   1.770
 5062SOL    HW127217   4.743   3.914   1.718
 5062SOL    HW227218   4.769   3.753   1.713
 5063SOL     OW27219   5.084   4.586   1.045
 5063SOL    HW127220   5.009   4.586   0.979
 5063SOL    HW227221   5.121   4.494   1.054
 5064SOL     OW27222   4.933   4.249   0.275
 5064SOL    HW127223   4.946   4.165   0.329
 5064SOL    HW227224   4.904   4.323   0.335
 5065SOL     OW27225   3.761   5.034   1.282
 5065SOL    HW127226   3.814   4.985   1.350
 5065SOL    HW227227   3.783   5.132   1.287
 5066SOL     OW27228   5.452   4.659   1.854
 5066SOL    HW127229   5.406   4.652   1.765
 5066SOL    HW227230   5.390   4.703   1.920
 5067SOL     OW27231   4.031   3.787   0.618
 5067SOL    HW127232   4.020   3.881   0.651
 5067SOL    HW227233   4.026   3.724   0.695
 5068SOL     OW27234   5.346   4.091   0.374
 5068SOL    HW127235   5.348   4.015   0.438
 5068SOL    HW227236   5.298   4.168   0.414
 5069SOL     OW27237   4.074   4.622   1.804
 5069SOL    HW127238   4.150   4.666   1.852
 5069SOL    HW227239   4.109   4.575   1.722
 5070SOL     OW27240   5.264   3.998   0.125
 5070SOL    HW127241   5.203   3.923   0.148
 5070SOL    HW227242   5.286   4.050   0.208
 5071SOL     OW27243   5.027   4.562   0.042
 5071SOL    HW127244   5.061   4.469   0.057
 5071SOL    HW227245   5.045   4.589  -0.053
 5072SOL     OW27246   4.792   5.057   0.849
 5072SOL    HW127247   4.799   4.973   0.794
 5072SOL    HW227248   4.854   5.126   0.813
 5073SOL     OW27249   4.043   4.534   0.949
 5073SOL    HW127250   4.136   4.570   0.954
 5073SOL    HW227251   4.037   4.449   1.001
 5074SOL     OW27252   4.862   4.104   1.678
 5074SOL    HW127253   4.817   4.167   1.742
 5074SOL    HW227254   4.955   4.135   1.661
 5075SOL     OW27255   4.884   3.931   1.477
 5075SOL    HW127256   4.884   3.995   1.554
 5075SOL    HW227257   4.912   3.979   1.394
 5076SOL     OW27258   4.228   5.292   0.910
 5076SOL    HW127259   4.294   5.366   0.919
 5076SOL    HW227260   4.272   5.213   0.868
 5077SOL     OW27261   3.764   4.268   1.114
 5077SOL    HW127262   3.849   4.235   1.073
 5077SOL    HW227263   3.777   4.283   1.212
 5078SOL     OW27264   3.913   4.244   1.722
 5078SOL    HW127265   3.972   4.204   1.652
 5078SOL    HW227266   3.855   4.315   1.681
 5079SOL     OW27267   5.093   4.674   1.660
 5079SOL    HW127268   5.132   4.763   1.680
 5079SOL    HW227269   5.103   4.654   1.563
 5080SOL     OW27270   4.539   4.296   0.325
 5080SOL    HW127271   4.546   4.207   0.279
 5080SOL    HW227272   4.445   4.330   0.317
 5081SOL     OW27273   5.381   4.328   1.206
 5081SOL    HW127274   5.343   4.259   1.268
 5081SOL    HW227275   5.463   4.292   1.162
 5082SOL     OW27276   3.976   5.288   1.744
 5082SOL    HW127277   3.946   5.345   1.820
 5082SOL    HW227278   3.969   5.191   1.770
 5083SOL     OW27279   4.395   4.188   1.269
 5083SOL    HW127280   4.361   4.099   1.239
 5083SOL    HW227281   4.421   4.242   1.189
 5084SOL     OW27282   4.654   5.402   1.465
 5084SOL    HW127283   4.630   5.384   1.370
 5084SOL    HW227284   4.684   5.496   1.475
 5085SOL     OW27285   4.197   4.224   0.191
 5085SOL    HW127286   4.258   4.304   0.195
 5085SOL    HW227287   4.102   4.255   0.198
 5086SOL     OW27288   3.883   4.861   1.466
 5086SOL    HW127289   3.905   4.800   1.542
 5086SOL    HW227290   3.893   4.812   1.380
 5087SOL     OW27291   5.071   4.783   1.234
 5087SOL    HW127292   5.095   4.720   1.160
 5087SOL    HW227293   4.981   4.823   1.216
 5088SOL     OW27294   5.026   4.579   0.309
 5088SOL    HW127295   4.940   4.548   0.351
 5088SOL    HW227296   5.022   4.565   0.210
 5089SOL     OW27297   5.483   5.471   1.154
 5089SOL    HW127298   5.544   5.501   1.081
 5089SOL    HW227299   5.445   5.382   1.132
 5090SOL     OW27300   4.976   5.455   1.128
 5090SOL    HW127301   5.060   5.460   1.074
 5090SOL    HW227302   4.953   5.359   1.146
 5091SOL     OW27303   3.807   4.982   1.022
 5091SOL    HW127304   3.802   4.981   1.122
 5091SOL    HW227305   3.724   4.941   0.984
 5092SOL     OW27306   4.412   5.386   1.716
 5092SOL    HW127307   4.356   5.467   1.725
 5092SOL    HW227308   4.464   5.390   1.630
 5093SOL     OW27309   4.627   3.810   0.133
 5093SOL    HW127310   4.678   3.811   0.047
 5093SOL    HW227311   4.683   3.768   0.204
 5094SOL     OW27312   5.450   3.859   0.523
 5094SOL    HW127313   5.523   3.842   0.456
 5094SOL    HW227314   5.419   3.772   0.561
 5095SOL     OW27315   5.112   5.297   0.477
 5095SOL    HW127316   5.179   5.309   0.403
 5095SOL    HW227317   5.072   5.386   0.500
 5096SOL     OW27318   3.854   5.518   1.851
 5096SOL    HW127319   3.813   5.444   1.904
 5096SOL    HW227320   3.918   5.569   1.909
 5097SOL     OW27321   5.004   4.651   0.672
 5097SOL    HW127322   5.064   4.570   0.674
 5097SOL    HW227323   5.044   4.720   0.612
 5098SOL     OW27324   4.396   5.340   0.154
 5098SOL    HW127325   4.405   5.350   0.055
 5098SOL    HW227326   4.356   5.251   0.175
 5099SOL     OW27327   5.374   5.444   1.394
 5099SOL    HW127328   5.427   5.454   1.310
 5099SOL    HW227329   5.347   5.534   1.428
 5100SOL     OW27330   5.565   3.899   0.963
 5100SOL    HW127331   5.604   3.814   0.927
 5100SOL    HW227332   5.467   3.901   0.944
 5101SOL     OW27333   3.987   4.050   0.720
 5101SOL    HW127334   3.908   4.101   0.686
 5101SOL    HW227335   3.978   4.035   0.818
 5102SOL     OW27336   4.918   5.336   0.031
 5102SOL    HW127337   4.924   5.243   0.068
 5102SOL    HW227338   4.859   5.336  -0.049
 5103SOL     OW27339   4.546   4.726   1.372
 5103SOL    HW127340   4.586   4.725   1.280
 5103SOL    HW227341   4.556   4.818   1.412
 5104SOL     OW27342   4.640   4.634   0.291
 5104SOL    HW127343   4.703   4.672   0.223
 5104SOL    HW227344   4.680   4.551   0.330
 5105SOL     OW27345   5.228   5.331   0.044
 5105SOL    HW127346   5.136   5.368   0.051
 5105SOL    HW227347   5.266   5.351  -0.046
 5106SOL     OW27348   4.096   5.012   1.490
 5106SOL    HW127349   4.083   5.105   1.456
 5106SOL    HW227350   4.012   4.960   1.477
 5107SOL     OW27351   5.338   5.016   1.289
 5107SOL    HW127352   5.398   5.019   1.369
 5107SOL    HW227353   5.263   5.080   1.302
 5108SOL     OW27354   4.763   4.822   0.696
 5108SOL    HW127355   4.693   4.775   0.750
 5108SOL    HW227356   4.822   4.754   0.653
 5109SOL     OW27357   4.738   3.960   0.971
 5109SOL    HW127358   4.730   3.924   0.878
 5109SOL    HW227359   4.736   3.884   1.036
 5110SOL     OW27360   4.314   5.211   0.491
 5110SOL    HW127361   4.356   5.153   0.421
 5110SOL    HW227362   4.270   5.290   0.447
 5111SOL     OW27363   5.433   4.109   1.381
 5111SOL    HW127364   5.506   4.178   1.385
 5111SOL    HW227365   5.461   4.034   1.322
 5112SOL     OW27366   3.979   5.072   0.290
 5112SOL    HW127367   3.883   5.073   0.263
 5112SOL    HW227368   3.991   5.125   0.374
 5113SOL     OW27369   3.829   4.737   1.726
 5113SOL    HW127370   3.752   4.704   1.780
 5113SOL    HW227371   3.914   4.707   1.768
 5114SOL     OW27372   4.396   3.927   1.489
 5114SOL    HW127373   4.486   3.911   1.449
 5114SOL    HW227374   4.404   3.932   1.588
 5115SOL     OW27375   5.164   4.580   1.398
 5115SOL    HW127376   5.107   4.632   1.335
 5115SOL    HW227377   5.260   4.592   1.374
 5116SOL     OW27378   3.796   3.890   0.318
 5116SOL    HW127379   3.779   3.973   0.264
 5116SOL    HW227380   3.886   3.853   0.296
 5117SOL     OW27381   4.907   5.059   0.119
 5117SOL    HW127382   4.808   5.048   0.121
 5117SOL    HW227383   4.941   5.074   0.212
 5118SOL     OW27384   4.337   4.566   1.431
 5118SOL    HW127385   4.393   4.647   1.414
 5118SOL    HW227386   4.396   4.486   1.434
 5119SOL     OW27387   5.217   5.491   0.959
 5119SOL    HW127388   5.250   5.555   0.890
 5119SOL    HW227389   5.283   5.485   1.034
 5120SOL     OW27390   4.440   4.289   1.708
 5120SOL    HW127391   4.459   4.354   1.782
 5120SOL    HW227392   4.500   4.209   1.717
 5121SOL     OW27393   5.174   4.944   1.633
 5121SOL    HW127394   5.165   4.934   1.732
 5121SOL    HW227395   5.270   4.937   1.607
 5122SOL     OW27396   4.114   5.465   1.560
 5122SOL    HW127397   4.023   5.506   1.558
 5122SOL    HW227398   4.107   5.371   1.592
 5123SOL     OW27399   5.398   4.607   1.254
 5123SOL    HW127400   5.371   4.518   1.217
 5123SOL    HW227401   5.399   4.675   1.181
 5124SOL     OW27402   4.949   4.049   0.449
 5124SOL    HW127403   5.014   3.975   0.438
 5124SOL    HW227404   4.969   4.099   0.533
 5125SOL     OW27405   5.454   4.658   1.517
 5125SOL    HW127406   5.492   4.749   1.532
 5125SOL    HW227407   5.446   4.641   1.418
 5126SOL     OW27408   4.583   5.098   0.016
 5126SOL    HW127409   4.537   5.113   0.104
 5126SOL    HW227410   4.627   5.183  -0.014
 5127SOL     OW27411   4.385   5.514   0.953
 5127SOL    HW127412   4.339   5.602   0.940
 5127SOL    HW227413   4.484   5.526   0.946
 5128SOL     OW27414   4.807   4.708   0.087
 5128SOL    HW127415   4.784   4.761   0.005
 5128SOL    HW227416   4.888   4.652   0.068
 5129SOL     OW27417   5.585   5.293   0.851
 5129SOL    HW127418   5.514   5.281   0.781
 5129SOL    HW227419   5.586   5.214   0.911
 5130SOL     OW27420   3.803   4.964   0.653
 5130SOL    HW127421   3.802   4.917   0.741
 5130SOL    HW227422   3.885   4.936   0.602
 5131SOL     OW27423   5.548   3.916   1.227
 5131SOL    HW127424   5.544   3.826   1.271
 5131SOL    HW227425   5.551   3.905   1.128
 5132SOL     OW27426   5.429   5.211   1.104
 5132SOL    HW127427   5.336   5.186   1.077
 5132SOL    HW227428   5.455   5.161   1.186
 5133SOL     OW27429   4.536   5.310   0.687
 5133SOL    HW127430   4.568   5.320   0.593
 5133SOL    HW227431   4.457   5.248   0.689
 5134SOL     OW27432   5.148   3.938   1.112
 5134SOL    HW127433   5.200   3.873   1.167
 5134SOL    HW227434   5.099   4.001   1.173
 5135SOL     OW27435   4.725   3.758   1.154
 5135SOL    HW127436   4.662   3.686   1.123
 5135SOL    HW227437   4.818   3.722   1.154
 5136SOL     OW27438   4.494   5.054   0.301
 5136SOL    HW127439   4.448   4.967   0.318
 5136SOL    HW227440   4.585   5.051   0.342
 5137SOL     OW27441   4.342   5.291   1.284
 5137SOL    HW127442   4.337   5.373   1.341
 5137SOL    HW227443   4.431   5.288   1.239
 5138SOL     OW27444   5.076   3.776   0.168
 5138SOL    HW127445   5.111   3.735   0.084
 5138SOL    HW227446   4.986   3.738   0.188
 5139SOL     OW27447   5.024   4.177   0.691
 5139SOL    HW127448   4.965   4.257   0.695
 5139SOL    HW227449   5.039   4.142   0.784
 5140SOL     OW27450   5.317   3.945   0.882
 5140SOL    HW127451   5.233   3.944   0.936
 5140SOL    HW227452   5.319   4.028   0.826
 5141SOL     OW27453   3.763   4.801   0.300
 5141SOL    HW127454   3.862   4.790   0.291
 5141SOL    HW227455   3.723   4.715   0.332
 5142SOL     OW27456   4.599   5.370   0.337
 5142SOL    HW127457   4.522   5.335   0.283
 5142SOL    HW227458   4.567   5.441   0.399
 5143SOL     OW27459   3.954   4.352   1.975
 5143SOL    HW127460   3.861   4.350   2.012
 5143SOL    HW227461   3.955   4.313   1.883
 5144SOL     OW27462   5.279   5.235   2.565
 5144SOL    HW127463   5.222   5.219   2.646
 5144SOL    HW227464   5.220   5.245   2.485
 5145SOL     OW27465   4.410   4.885   3.665
 5145SOL    HW127466   4.470   4.964   3.679
 5145SOL    HW227467   4.324   4.916   3.624
 5146SOL     OW27468   5.017   4.952   3.285
 5146SOL    HW127469   5.054   4.879   3.227
 5146SOL    HW227470   5.069   4.957   3.370
 5147SOL     OW27471   4.697   4.614   3.434
 5147SOL    HW127472   4.743   4.530   3.405
 5147SOL    HW227473   4.641   4.648   3.359
 5148SOL     OW27474   4.715   4.134   3.104
 5148SOL    HW127475   4.638   4.168   3.158
 5148SOL    HW227476   4.681   4.083   3.025
 5149SOL     OW27477   3.854   5.545   3.433
 5149SOL    HW127478   3.844   5.530   3.532
 5149SOL    HW227479   3.768   5.581   3.397
 5150SOL     OW27480   4.274   3.920   2.747
 5150SOL    HW127481   4.269   3.915   2.847
 5150SOL    HW227482   4.276   4.016   2.718
 5151SOL     OW27483   4.732   5.180   2.339
 5151SOL    HW127484   4.686   5.252   2.287
 5151SOL    HW227485   4.728   5.200   2.437
 5152SOL     OW27486   4.951   5.274   3.368
 5152SOL    HW127487   4.957   5.197   3.432
 5152SOL    HW227488   4.899   5.248   3.288
 5153SOL     OW27489   4.185   4.990   3.589
 5153SOL    HW127490   4.135   4.991   3.503
 5153SOL    HW227491   4.122   4.972   3.665
 5154SOL     OW27492   4.835   5.500   2.099
 5154SOL    HW127493   4.775   5.438   2.149
 5154SOL    HW227494   4.866   5.456   2.014
 5155SOL     OW27495   3.926   4.009   3.360
 5155SOL    HW127496   3.846   4.069   3.347
 5155SOL    HW227497   3.916   3.960   3.446
 5156SOL     OW27498   4.664   5.422   2.766
 5156SOL    HW127499   4.744   5.365   2.787
 5156SOL    HW227500   4.615   5.382   2.689
 5157SOL     OW27501   4.505   3.988   3.611
 5157SOL    HW127502   4.572   3.927   3.654
 5157SOL    HW227503   4.432   4.007   3.676
 5158SOL     OW27504   4.612   5.238   3.057
 5158SOL    HW127505   4.589   5.213   2.963
 5158SOL    HW227506   4.673   5.169   3.096
 5159SOL     OW27507   4.800   4.407   3.326
 5159SOL    HW127508   4.720   4.346   3.329
 5159SOL    HW227509   4.881   4.354   3.302
 5160SOL     OW27510   4.285   3.946   3.009
 5160SOL    HW127511   4.323   3.862   3.046
 5160SOL    HW227512   4.197   3.965   3.053
 5161SOL     OW27513   4.590   4.178   2.504
 5161SOL    HW127514   4.558   4.250   2.442
 5161SOL    HW227515   4.614   4.097   2.451
 5162SOL     OW27516   5.190   4.314   2.854
 5162SOL    HW127517   5.160   4.219   2.861
 5162SOL    HW227518   5.263   4.330   2.920
 5163SOL     OW27519   4.212   5.109   2.036
 5163SOL    HW127520   4.125   5.094   2.083
 5163SOL    HW227521   4.195   5.135   1.941
 5164SOL     OW27522   4.251   3.980   2.190
 5164SOL    HW127523   4.278   3.921   2.115
 5164SOL    HW227524   4.251   4.075   2.159
 5165SOL     OW27525   4.134   4.537   3.113
 5165SOL    HW127526   4.220   4.549   3.163
 5165SOL    HW227527   4.092   4.450   3.140
 5166SOL     OW27528   4.976   5.072   2.250
 5166SOL    HW127529   5.026   5.149   2.290
 5166SOL    HW227530   4.881   5.074   2.282
 5167SOL     OW27531   4.996   5.169   3.004
 5167SOL    HW127532   5.043   5.182   3.091
 5167SOL    HW227533   4.930   5.095   3.013
 5168SOL     OW27534   4.126   4.475   3.460
 5168SOL    HW127535   4.194   4.530   3.413
 5168SOL    HW227536   4.166   4.387   3.487
 5169SOL     OW27537   4.297   4.594   2.891
 5169SOL    HW127538   4.341   4.683   2.882
 5169SOL    HW227539   4.234   4.594   2.968
 5170SOL     OW27540   5.084   4.586   2.907
 5170SOL    HW127541   5.009   4.586   2.841
 5170SOL    HW227542   5.121   4.494   2.916
 5171SOL     OW27543   4.031   3.937   3.093
 5171SOL    HW127544   4.008   3.974   3.183
 5171SOL    HW227545   4.001   3.842   3.087
 5172SOL     OW27546   5.346   4.091   2.236
 5172SOL    HW127547   5.348   4.015   2.300
 5172SOL    HW227548   5.298   4.168   2.276
 5173SOL     OW27549   4.228   5.292   2.772
 5173SOL    HW127550   4.294   5.366   2.781
 5173SOL    HW227551   4.272   5.213   2.730
 5174SOL     OW27552   4.726   4.520   3.100
 5174SOL    HW127553   4.767   4.488   3.186
 5174SOL    HW227554   4.630   4.493   3.097
 5175SOL     OW27555   3.764   4.268   2.976
 5175SOL    HW127556   3.849   4.235   2.935
 5175SOL    HW227557   3.777   4.283   3.074
 5176SOL     OW27558   3.913   4.244   3.584
 5176SOL    HW127559   3.972   4.204   3.514
 5176SOL    HW227560   3.855   4.315   3.543
 5177SOL     OW27561   4.539   4.296   2.187
 5177SOL    HW127562   4.546   4.207   2.141
 5177SOL    HW227563   4.445   4.330   2.179
 5178SOL     OW27564   4.395   4.188   3.131
 5178SOL    HW127565   4.361   4.099   3.101
 5178SOL    HW227566   4.421   4.242   3.051
 5179SOL     OW27567   4.197   4.224   2.053
 5179SOL    HW127568   4.258   4.304   2.057
 5179SOL    HW227569   4.102   4.255   2.060
 5180SOL     OW27570   4.412   5.386   3.578
 5180SOL    HW127571   4.356   5.467   3.587
 5180SOL    HW227572   4.464   5.390   3.492
 5181SOL     OW27573   5.450   3.859   2.385
 5181SOL    HW127574   5.523   3.842   2.318
 5181SOL    HW227575   5.419   3.772   2.423
 5182SOL     OW27576   5.112   5.297   2.339
 5182SOL    HW127577   5.179   5.309   2.265
 5182SOL    HW227578   5.072   5.386   2.362
 5183SOL     OW27579   3.854   5.518   3.713
 5183SOL    HW127580   3.813   5.444   3.766
 5183SOL    HW227581   3.918   5.569   3.771
 5184SOL     OW27582   4.396   5.340   2.016
 5184SOL    HW127583   4.405   5.350   1.917
 5184SOL    HW227584   4.356   5.251   2.037
 5185SOL     OW27585   5.565   3.899   2.825
 5185SOL    HW127586   5.604   3.814   2.789
 5185SOL    HW227587   5.467   3.901   2.806
 5186SOL     OW27588   3.987   4.050   2.582
 5186SOL    HW127589   3.908   4.101   2.548
 5186SOL    HW227590   3.978   4.035   2.680
 5187SOL     OW27591   4.918   5.336   1.893
 5187SOL    HW127592   4.924   5.243   1.930
 5187SOL    HW227593   4.859   5.336   1.813
 5188SOL     OW27594   4.096   5.012   3.352
 5188SOL    HW127595   4.083   5.105   3.318
 5188SOL    HW227596   4.012   4.960   3.339
 5189SOL     OW27597   4.396   3.927   3.351
 5189SOL    HW127598   4.486   3.911   3.311
 5189SOL    HW227599   4.404   3.932   3.450
 5190SOL     OW27600   3.799   4.069   1.895
 5190SOL    HW127601   3.707   4.041   1.866
 5190SOL    HW227602   3.830   4.146   1.839
 5191SOL     OW27603   5.454   4.658   3.379
 5191SOL    HW127604   5.492   4.749   3.394
 5191SOL    HW227605   5.446   4.641   3.280
 5192SOL     OW27606   4.583   5.098   1.878
 5192SOL    HW127607   4.537   5.113   1.966
 5192SOL    HW227608   4.627   5.183   1.848
 5193SOL     OW27609   4.583   4.680   2.723
 5193SOL    HW127610   4.637   4.611   2.771
 5193SOL    HW227611   4.551   4.749   2.789
 5194SOL     OW27612   5.548   3.916   3.089
 5194SOL    HW127613   5.544   3.826   3.133
 5194SOL    HW227614   5.551   3.905   2.990
 5195SOL     OW27615   4.536   5.310   2.549
 5195SOL    HW127616   4.568   5.320   2.455
 5195SOL    HW227617   4.457   5.248   2.551
 5196SOL     OW27618   4.342   5.291   3.146
 5196SOL    HW127619   4.337   5.373   3.203
 5196SOL    HW227620   4.431   5.288   3.101
 5197SOL     OW27621   4.599   5.370   2.199
 5197SOL    HW127622   4.522   5.335   2.145
 5197SOL    HW227623   4.567   5.441   2.261
 5198SOL     OW27624   4.293   4.999   4.889
 5198SOL    HW127625   4.200   4.992   4.852
 5198SOL    HW227626   4.304   5.088   4.933
 5199SOL     OW27627   4.859   4.427   4.441
 5199SOL    HW127628   4.916   4.505   4.416
 5199SOL    HW227629   4.799   4.453   4.517
 5200SOL     OW27630   5.479   4.331   3.955
 5200SOL    HW127631   5.467   4.318   3.856
 5200SOL    HW227632   5.449   4.250   4.004
 5201SOL     OW27633   4.574   4.522   5.547
 5201SOL    HW127634   4.570   4.598   5.612
 5201SOL    HW227635   4.596   4.558   5.456
 5202SOL     OW27636   3.955   5.437   4.207
 5202SOL    HW127637   3.989   5.514   4.261
 5202SOL    HW227638   3.999   5.437   4.117
 5203SOL     OW27639   4.851   5.065   5.414
 5203SOL    HW127640   4.898   5.065   5.502
 5203SOL    HW227641   4.803   4.978   5.403
 5204SOL     OW27642   3.964   4.815   4.610
 5204SOL    HW127643   3.978   4.731   4.662
 5204SOL    HW227644   3.909   4.879   4.665
 5205SOL     OW27645   4.344   5.510   5.163
 5205SOL    HW127646   4.252   5.493   5.198
 5205SOL    HW227647   4.372   5.602   5.189
 5206SOL     OW27648   5.318   3.838   5.204
 5206SOL    HW127649   5.300   3.905   5.132
 5206SOL    HW227650   5.315   3.884   5.293
 5207SOL     OW27651   5.365   4.832   4.156
 5207SOL    HW127652   5.451   4.834   4.104
 5207SOL    HW227653   5.379   4.879   4.244
 5208SOL     OW27654   4.337   5.089   4.450
 5208SOL    HW127655   4.288   5.002   4.459
 5208SOL    HW227656   4.314   5.132   4.363
 5209SOL     OW27657   4.533   3.728   4.226
 5209SOL    HW127658   4.573   3.819   4.217
 5209SOL    HW227659   4.433   3.736   4.232
 5210SOL     OW27660   5.249   4.723   3.914
 5210SOL    HW127661   5.186   4.647   3.927
 5210SOL    HW227662   5.297   4.741   4.000
 5211SOL     OW27663   4.911   5.516   5.340
 5211SOL    HW127664   4.935   5.576   5.264
 5211SOL    HW227665   4.918   5.421   5.310
 5212SOL     OW27666   4.041   3.975   5.525
 5212SOL    HW127667   4.112   4.046   5.531
 5212SOL    HW227668   3.953   4.014   5.553
 5213SOL     OW27669   4.715   4.134   4.966
 5213SOL    HW127670   4.638   4.168   5.020
 5213SOL    HW227671   4.681   4.083   4.887
 5214SOL     OW27672   4.732   5.180   4.201
 5214SOL    HW127673   4.686   5.252   4.149
 5214SOL    HW227674   4.728   5.200   4.299
 5215SOL     OW27675   4.045   4.667   3.966
 5215SOL    HW127676   4.127   4.706   3.924
 5215SOL    HW227677   4.018   4.585   3.917
 5216SOL     OW27678   4.835   5.500   3.961
 5216SOL    HW127679   4.775   5.438   4.011
 5216SOL    HW227680   4.866   5.456   3.876
 5217SOL     OW27681   3.926   4.009   5.222
 5217SOL    HW127682   3.846   4.069   5.209
 5217SOL    HW227683   3.916   3.960   5.308
 5218SOL     OW27684   4.188   5.467   4.047
 5218SOL    HW127685   4.221   5.506   4.133
 5218SOL    HW227686   4.264   5.460   3.982
 5219SOL     OW27687   4.338   3.846   3.841
 5219SOL    HW127688   4.436   3.824   3.848
 5219SOL    HW227689   4.307   3.829   3.748
 5220SOL     OW27690   4.612   5.238   4.919
 5220SOL    HW127691   4.589   5.213   4.825
 5220SOL    HW227692   4.673   5.169   4.958
 5221SOL     OW27693   4.263   3.788   4.236
 5221SOL    HW127694   4.182   3.789   4.294
 5221SOL    HW227695   4.266   3.871   4.181
 5222SOL     OW27696   4.021   3.759   3.895
 5222SOL    HW127697   4.070   3.843   3.874
 5222SOL    HW227698   4.083   3.694   3.940
 5223SOL     OW27699   4.756   4.273   3.740
 5223SOL    HW127700   4.715   4.355   3.701
 5223SOL    HW227701   4.820   4.299   3.813
 5224SOL     OW27702   4.741   3.763   4.477
 5224SOL    HW127703   4.669   3.768   4.408
 5224SOL    HW227704   4.717   3.694   4.546
 5225SOL     OW27705   5.153   4.897   4.591
 5225SOL    HW127706   5.098   4.813   4.584
 5225SOL    HW227707   5.179   4.926   4.499
 5226SOL     OW27708   5.190   4.314   4.716
 5226SOL    HW127709   5.160   4.219   4.723
 5226SOL    HW227710   5.263   4.330   4.782
 5227SOL     OW27711   5.114   4.299   3.802
 5227SOL    HW127712   5.060   4.278   3.883
 5227SOL    HW227713   5.205   4.258   3.811
 5228SOL     OW27714   4.251   3.980   4.052
 5228SOL    HW127715   4.278   3.921   3.977
 5228SOL    HW227716   4.251   4.075   4.021
 5229SOL     OW27717   4.639   3.813   5.126
 5229SOL    HW127718   4.664   3.793   5.031
 5229SOL    HW227719   4.711   3.869   5.168
 5230SOL     OW27720   4.704   4.840   5.443
 5230SOL    HW127721   4.605   4.846   5.453
 5230SOL    HW227722   4.727   4.760   5.387
 5231SOL     OW27723   4.429   4.774   4.092
 5231SOL    HW127724   4.415   4.781   4.191
 5231SOL    HW227725   4.513   4.723   4.074
 5232SOL     OW27726   4.134   4.537   4.975
 5232SOL    HW127727   4.220   4.549   5.025
 5232SOL    HW227728   4.092   4.450   5.002
 5233SOL     OW27729   4.996   5.169   4.866
 5233SOL    HW127730   5.043   5.182   4.953
 5233SOL    HW227731   4.930   5.095   4.875
 5234SOL     OW27732   5.306   4.363   4.196
 5234SOL    HW127733   5.275   4.424   4.269
 5234SOL    HW227734   5.356   4.415   4.127
 5235SOL     OW27735   4.737   3.829   5.494
 5235SOL    HW127736   4.743   3.914   5.442
 5235SOL    HW227737   4.769   3.753   5.437
 5236SOL     OW27738   4.297   4.594   4.753
 5236SOL    HW127739   4.341   4.683   4.744
 5236SOL    HW227740   4.234   4.594   4.830
 5237SOL     OW27741   3.761   5.034   5.006
 5237SOL    HW127742   3.814   4.985   5.074
 5237SOL    HW227743   3.783   5.132   5.011
 5238SOL     OW27744   4.031   3.787   4.342
 5238SOL    HW127745   4.020   3.881   4.375
 5238SOL    HW227746   4.026   3.724   4.419
 5239SOL     OW27747   4.747   4.490   4.690
 5239SOL    HW127748   4.762   4.511   4.786
 5239SOL    HW227749   4.717   4.395   4.681
 5240SOL     OW27750   4.704   5.297   5.424
 5240SOL    HW127751   4.684   5.341   5.336
 5240SOL    HW227752   4.743   5.206   5.408
 5241SOL     OW27753   5.583   5.242   5.329
 5241SOL    HW127754   5.597   5.269   5.234
 5241SOL    HW227755   5.666   5.264   5.382
 5242SOL     OW27756   4.792   5.057   4.573
 5242SOL    HW127757   4.799   4.973   4.518
 5242SOL    HW227758   4.854   5.126   4.537
 5243SOL     OW27759   4.043   4.534   4.673
 5243SOL    HW127760   4.136   4.570   4.678
 5243SOL    HW227761   4.037   4.449   4.725
 5244SOL     OW27762   4.862   4.104   5.402
 5244SOL    HW127763   4.817   4.167   5.466
 5244SOL    HW227764   4.955   4.135   5.385
 5245SOL     OW27765   3.764   4.268   4.838
 5245SOL    HW127766   3.849   4.235   4.797
 5245SOL    HW227767   3.777   4.283   4.936
 5246SOL     OW27768   4.654   5.402   5.189
 5246SOL    HW127769   4.630   5.384   5.094
 5246SOL    HW227770   4.684   5.496   5.199
 5247SOL     OW27771   5.071   4.783   4.958
 5247SOL    HW127772   5.095   4.720   4.884
 5247SOL    HW227773   4.981   4.823   4.940
 5248SOL     OW27774   3.807   4.982   4.746
 5248SOL    HW127775   3.802   4.981   4.846
 5248SOL    HW227776   3.724   4.941   4.708
 5249SOL     OW27777   4.412   5.386   5.440
 5249SOL    HW127778   4.356   5.467   5.449
 5249SOL    HW227779   4.464   5.390   5.354
 5250SOL     OW27780   3.854   5.518   5.575
 5250SOL    HW127781   3.813   5.444   5.628
 5250SOL    HW227782   3.918   5.569   5.633
 5251SOL     OW27783   4.396   5.340   3.878
 5251SOL    HW127784   4.405   5.350   3.779
 5251SOL    HW227785   4.356   5.251   3.899
 5252SOL     OW27786   4.918   5.336   3.755
 5252SOL    HW127787   4.924   5.243   3.792
 5252SOL    HW227788   4.859   5.336   3.675
 5253SOL     OW27789   4.640   4.634   4.015
 5253SOL    HW127790   4.703   4.672   3.947
 5253SOL    HW227791   4.680   4.551   4.054
 5254SOL     OW27792   4.314   5.211   4.215
 5254SOL    HW127793   4.356   5.153   4.145
 5254SOL    HW227794   4.270   5.290   4.171
 5255SOL     OW27795   4.396   3.927   5.213
 5255SOL    HW127796   4.486   3.911   5.173
 5255SOL    HW227797   4.404   3.932   5.312
 5256SOL     OW27798   3.799   4.069   3.757
 5256SOL    HW127799   3.707   4.041   3.728
 5256SOL    HW227800   3.830   4.146   3.701
 5257SOL     OW27801   5.164   4.580   5.122
 5257SOL    HW127802   5.107   4.632   5.059
 5257SOL    HW227803   5.260   4.592   5.098
 5258SOL     OW27804   4.907   5.059   3.843
 5258SOL    HW127805   4.808   5.048   3.845
 5258SOL    HW227806   4.941   5.074   3.936
 5259SOL     OW27807   5.174   4.944   5.357
 5259SOL    HW127808   5.165   4.934   5.456
 5259SOL    HW227809   5.270   4.937   5.331
 5260SOL     OW27810   5.398   4.607   4.978
 5260SOL    HW127811   5.371   4.518   4.941
 5260SOL    HW227812   5.399   4.675   4.905
 5261SOL     OW27813   4.385   5.514   4.677
 5261SOL    HW127814   4.339   5.602   4.664
 5261SOL    HW227815   4.484   5.526   4.670
 5262SOL     OW27816   4.583   4.680   4.585
 5262SOL    HW127817   4.637   4.611   4.633
 5262SOL    HW227818   4.551   4.749   4.651
 5263SOL     OW27819   4.041   4.271   5.004
 5263SOL    HW127820   4.079   4.212   5.076
 5263SOL    HW227821   4.081   4.245   4.916
 5264SOL     OW27822   4.725   3.758   4.878
 5264SOL    HW127823   4.662   3.686   4.847
 5264SOL    HW227824   4.818   3.722   4.878
 5265SOL     OW27825   5.076   3.776   3.892
 5265SOL    HW127826   5.111   3.735   3.808
 5265SOL    HW227827   4.986   3.738   3.912
 5266SOL     OW27828   5.024   4.177   4.415
 5266SOL    HW127829   4.965   4.257   4.419
 5266SOL    HW227830   5.039   4.142   4.508
 5267SOL     OW27831   4.599   5.370   4.061
 5267SOL    HW127832   4.522   5.335   4.007
 5267SOL    HW227833   4.567   5.441   4.123
 5268SOL     OW27834   3.954   4.352   5.699
 5268SOL    HW127835   3.861   4.350   5.736
 5268SOL    HW227836   3.955   4.313   5.607
 5269SOL     OW27837   3.949   3.999   6.582
 5269SOL    HW127838   3.984   3.982   6.674
 5269SOL    HW227839   3.861   3.954   6.570
 5270SOL     OW27840   4.293   4.999   6.751
 5270SOL    HW127841   4.200   4.992   6.714
 5270SOL    HW227842   4.304   5.088   6.795
 5271SOL     OW27843   5.279   5.235   6.289
 5271SOL    HW127844   5.222   5.219   6.370
 5271SOL    HW227845   5.220   5.245   6.209
 5272SOL     OW27846   4.859   4.427   6.303
 5272SOL    HW127847   4.916   4.505   6.278
 5272SOL    HW227848   4.799   4.453   6.379
 5273SOL     OW27849   4.492   4.868   6.609
 5273SOL    HW127850   4.414   4.885   6.669
 5273SOL    HW227851   4.526   4.955   6.573
 5274SOL     OW27852   4.409   4.736   6.251
 5274SOL    HW127853   4.478   4.720   6.321
 5274SOL    HW227854   4.336   4.793   6.289
 5275SOL     OW27855   4.059   5.159   6.647
 5275SOL    HW127856   3.981   5.128   6.594
 5275SOL    HW227857   4.117   5.217   6.590
 5276SOL     OW27858   5.327   4.171   6.323
 5276SOL    HW127859   5.253   4.217   6.273
 5276SOL    HW227860   5.378   4.239   6.376
 5277SOL     OW27861   3.955   5.437   6.069
 5277SOL    HW127862   3.989   5.514   6.123
 5277SOL    HW227863   3.999   5.437   5.979
 5278SOL     OW27864   3.954   5.158   6.124
 5278SOL    HW127865   3.928   5.254   6.124
 5278SOL    HW227866   3.883   5.104   6.169
 5279SOL     OW27867   3.964   4.815   6.472
 5279SOL    HW127868   3.978   4.731   6.524
 5279SOL    HW227869   3.909   4.879   6.527
 5280SOL     OW27870   4.344   5.510   7.025
 5280SOL    HW127871   4.252   5.493   7.060
 5280SOL    HW227872   4.372   5.602   7.051
 5281SOL     OW27873   4.330   4.688   5.709
 5281SOL    HW127874   4.337   4.772   5.655
 5281SOL    HW227875   4.376   4.701   5.797
 5282SOL     OW27876   3.846   4.367   6.149
 5282SOL    HW127877   3.801   4.279   6.166
 5282SOL    HW227878   3.845   4.421   6.233
 5283SOL     OW27879   3.751   5.320   5.703
 5283SOL    HW127880   3.732   5.224   5.724
 5283SOL    HW227881   3.718   5.378   5.778
 5284SOL     OW27882   5.413   4.646   6.198
 5284SOL    HW127883   5.508   4.617   6.206
 5284SOL    HW227884   5.405   4.711   6.123
 5285SOL     OW27885   5.365   4.832   6.018
 5285SOL    HW127886   5.451   4.834   5.966
 5285SOL    HW227887   5.379   4.879   6.106
 5286SOL     OW27888   4.337   5.089   6.312
 5286SOL    HW127889   4.288   5.002   6.321
 5286SOL    HW227890   4.314   5.132   6.225
 5287SOL     OW27891   4.533   3.728   6.088
 5287SOL    HW127892   4.573   3.819   6.079
 5287SOL    HW227893   4.433   3.736   6.094
 5288SOL     OW27894   3.921   4.700   6.850
 5288SOL    HW127895   4.010   4.655   6.836
 5288SOL    HW227896   3.848   4.635   6.831
 5289SOL     OW27897   5.190   5.141   6.539
 5289SOL    HW127898   5.131   5.147   6.619
 5289SOL    HW227899   5.175   5.053   6.493
 5290SOL     OW27900   4.322   4.453   5.856
 5290SOL    HW127901   4.346   4.522   5.788
 5290SOL    HW227902   4.244   4.486   5.910
 5291SOL     OW27903   5.005   4.069   6.530
 5291SOL    HW127904   4.919   4.019   6.517
 5291SOL    HW227905   5.067   4.015   6.586
 5292SOL     OW27906   4.715   4.134   6.828
 5292SOL    HW127907   4.638   4.168   6.882
 5292SOL    HW227908   4.681   4.083   6.749
 5293SOL     OW27909   4.765   4.425   6.015
 5293SOL    HW127910   4.791   4.421   6.111
 5293SOL    HW227911   4.680   4.374   6.001
 5294SOL     OW27912   3.800   4.535   6.375
 5294SOL    HW127913   3.899   4.523   6.384
 5294SOL    HW227914   3.776   4.630   6.396
 5295SOL     OW27915   5.086   4.868   6.131
 5295SOL    HW127916   5.169   4.839   6.083
 5295SOL    HW227917   5.037   4.935   6.075
 5296SOL     OW27918   4.732   5.180   6.063
 5296SOL    HW127919   4.686   5.252   6.011
 5296SOL    HW227920   4.728   5.200   6.161
 5297SOL     OW27921   4.075   5.525   6.439
 5297SOL    HW127922   4.125   5.439   6.445
 5297SOL    HW227923   4.140   5.602   6.436
 5298SOL     OW27924   5.519   4.790   6.459
 5298SOL    HW127925   5.457   4.775   6.383
 5298SOL    HW227926   5.467   4.801   6.544
 5299SOL     OW27927   4.045   4.667   5.828
 5299SOL    HW127928   4.127   4.706   5.786
 5299SOL    HW227929   4.018   4.585   5.779
 5300SOL     OW27930   5.182   4.459   6.314
 5300SOL    HW127931   5.177   4.394   6.389
 5300SOL    HW227932   5.262   4.518   6.327
 5301SOL     OW27933   4.835   5.500   5.823
 5301SOL    HW127934   4.775   5.438   5.873
 5301SOL    HW227935   4.866   5.456   5.738
 5302SOL     OW27936   4.188   5.467   5.909
 5302SOL    HW127937   4.221   5.506   5.995
 5302SOL    HW227938   4.264   5.460   5.844
 5303SOL     OW27939   5.124   3.831   6.012
 5303SOL    HW127940   5.100   3.794   5.922
 5303SOL    HW227941   5.223   3.847   6.016
 5304SOL     OW27942   3.973   5.509   6.827
 5304SOL    HW127943   4.030   5.444   6.877
 5304SOL    HW227944   3.957   5.476   6.734
 5305SOL     OW27945   4.664   5.422   6.490
 5305SOL    HW127946   4.744   5.365   6.511
 5305SOL    HW227947   4.615   5.382   6.413
 5306SOL     OW27948   4.106   4.424   6.066
 5306SOL    HW127949   4.151   4.334   6.063
 5306SOL    HW227950   4.012   4.413   6.099
 5307SOL     OW27951   4.527   5.126   6.510
 5307SOL    HW127952   4.617   5.140   6.468
 5307SOL    HW227953   4.456   5.128   6.439
 5308SOL     OW27954   4.646   4.227   6.485
 5308SOL    HW127955   4.621   4.218   6.389
 5308SOL    HW227956   4.694   4.145   6.516
 5309SOL     OW27957   4.263   3.788   6.098
 5309SOL    HW127958   4.182   3.789   6.156
 5309SOL    HW227959   4.266   3.871   6.043
 5310SOL     OW27960   5.158   4.912   5.627
 5310SOL    HW127961   5.190   4.836   5.684
 5310SOL    HW227962   5.066   4.939   5.657
 5311SOL     OW27963   4.951   5.294   6.379
 5311SOL    HW127964   4.972   5.368   6.314
 5311SOL    HW227965   5.019   5.294   6.452
 5312SOL     OW27966   4.183   4.876   6.327
 5312SOL    HW127967   4.112   4.849   6.392
 5312SOL    HW227968   4.157   4.848   6.234
 5313SOL     OW27969   4.995   5.521   6.177
 5313SOL    HW127970   5.039   5.585   6.113
 5313SOL    HW227971   4.945   5.573   6.247
 5314SOL     OW27972   4.756   4.273   5.602
 5314SOL    HW127973   4.715   4.355   5.563
 5314SOL    HW227974   4.820   4.299   5.675
 5315SOL     OW27975   4.285   3.946   6.733
 5315SOL    HW127976   4.323   3.862   6.770
 5315SOL    HW227977   4.197   3.965   6.777
 5316SOL     OW27978   4.590   4.178   6.228
 5316SOL    HW127979   4.558   4.250   6.166
 5316SOL    HW227980   4.614   4.097   6.175
 5317SOL     OW27981   4.741   3.763   6.339
 5317SOL    HW127982   4.669   3.768   6.270
 5317SOL    HW227983   4.717   3.694   6.408
 5318SOL     OW27984   5.153   4.897   6.453
 5318SOL    HW127985   5.098   4.813   6.446
 5318SOL    HW227986   5.179   4.926   6.361
 5319SOL     OW27987   5.190   4.314   6.578
 5319SOL    HW127988   5.160   4.219   6.585
 5319SOL    HW227989   5.263   4.330   6.644
 5320SOL     OW27990   5.581   4.557   5.963
 5320SOL    HW127991   5.623   4.493   6.027
 5320SOL    HW227992   5.543   4.506   5.885
 5321SOL     OW27993   5.388   5.004   6.243
 5321SOL    HW127994   5.487   5.012   6.257
 5321SOL    HW227995   5.343   5.088   6.274
 5322SOL     OW27996   4.251   3.980   5.914
 5322SOL    HW127997   4.278   3.921   5.839
 5322SOL    HW227998   4.251   4.075   5.883
 5323SOL     OW27999   4.835   4.919   6.686
 5323SOL    HW128000   4.795   4.963   6.767
 5323SOL    HW228001   4.794   4.956   6.603
 5324SOL     OW28002   5.362   4.823   6.665
 5324SOL    HW128003   5.367   4.904   6.724
 5324SOL    HW228004   5.276   4.825   6.614
 5325SOL     OW28005   4.429   4.774   5.954
 5325SOL    HW128006   4.415   4.781   6.053
 5325SOL    HW228007   4.513   4.723   5.936
 5326SOL     OW28008   4.134   4.537   6.837
 5326SOL    HW128009   4.220   4.549   6.887
 5326SOL    HW228010   4.092   4.450   6.864
 5327SOL     OW28011   4.998   4.110   6.848
 5327SOL    HW128012   5.019   4.184   6.912
 5327SOL    HW228013   4.909   4.127   6.805
 5328SOL     OW28014   4.091   4.824   6.087
 5328SOL    HW128015   4.084   4.907   6.031
 5328SOL    HW228016   4.095   4.744   6.027
 5329SOL     OW28017   4.290   4.261   6.451
 5329SOL    HW128018   4.302   4.327   6.377
 5329SOL    HW228019   4.336   4.295   6.534
 5330SOL     OW28020   4.976   5.072   5.974
 5330SOL    HW128021   5.026   5.149   6.014
 5330SOL    HW228022   4.881   5.074   6.006
 5331SOL     OW28023   4.996   5.169   6.728
 5331SOL    HW128024   5.043   5.182   6.815
 5331SOL    HW228025   4.930   5.095   6.737
 5332SOL     OW28026   5.306   4.363   6.058
 5332SOL    HW128027   5.275   4.424   6.131
 5332SOL    HW228028   5.356   4.415   5.989
 5333SOL     OW28029   4.078   5.234   6.915
 5333SOL    HW128030   4.057   5.190   6.828
 5333SOL    HW228031   4.175   5.260   6.918
 5334SOL     OW28032   4.297   4.594   6.615
 5334SOL    HW128033   4.341   4.683   6.606
 5334SOL    HW228034   4.234   4.594   6.692
 5335SOL     OW28035   5.084   4.586   6.631
 5335SOL    HW128036   5.009   4.586   6.565
 5335SOL    HW228037   5.121   4.494   6.640
 5336SOL     OW28038   4.933   4.249   5.861
 5336SOL    HW128039   4.946   4.165   5.915
 5336SOL    HW228040   4.904   4.323   5.921
 5337SOL     OW28041   4.031   3.937   6.817
 5337SOL    HW128042   4.008   3.974   6.907
 5337SOL    HW228043   4.001   3.842   6.811
 5338SOL     OW28044   3.761   5.034   6.868
 5338SOL    HW128045   3.814   4.985   6.936
 5338SOL    HW228046   3.783   5.132   6.873
 5339SOL     OW28047   4.456   4.358   6.650
 5339SOL    HW128048   4.515   4.332   6.574
 5339SOL    HW228049   4.428   4.454   6.639
 5340SOL     OW28050   4.031   3.787   6.204
 5340SOL    HW128051   4.020   3.881   6.237
 5340SOL    HW228052   4.026   3.724   6.281
 5341SOL     OW28053   4.747   4.490   6.552
 5341SOL    HW128054   4.762   4.511   6.648
 5341SOL    HW228055   4.717   4.395   6.543
 5342SOL     OW28056   4.792   5.057   6.435
 5342SOL    HW128057   4.799   4.973   6.380
 5342SOL    HW228058   4.854   5.126   6.399
 5343SOL     OW28059   4.043   4.534   6.535
 5343SOL    HW128060   4.136   4.570   6.540
 5343SOL    HW228061   4.037   4.449   6.587
 5344SOL     OW28062   4.063   4.233   6.592
 5344SOL    HW128063   4.011   4.150   6.575
 5344SOL    HW228064   4.140   4.238   6.528
 5345SOL     OW28065   4.884   3.931   7.063
 5345SOL    HW128066   4.884   3.995   7.140
 5345SOL    HW228067   4.912   3.979   6.980
 5346SOL     OW28068   3.732   5.050   5.786
 5346SOL    HW128069   3.639   5.071   5.755
 5346SOL    HW228070   3.742   4.951   5.799
 5347SOL     OW28071   4.228   5.292   6.496
 5347SOL    HW128072   4.294   5.366   6.505
 5347SOL    HW228073   4.272   5.213   6.454
 5348SOL     OW28074   4.726   4.520   6.824
 5348SOL    HW128075   4.767   4.488   6.910
 5348SOL    HW228076   4.630   4.493   6.821
 5349SOL     OW28077   3.764   4.268   6.700
 5349SOL    HW128078   3.849   4.235   6.659
 5349SOL    HW228079   3.777   4.283   6.798
 5350SOL     OW28080   5.381   4.328   6.792
 5350SOL    HW128081   5.343   4.259   6.854
 5350SOL    HW228082   5.463   4.292   6.748
 5351SOL     OW28083   4.395   4.188   6.855
 5351SOL    HW128084   4.361   4.099   6.825
 5351SOL    HW228085   4.421   4.242   6.775
 5352SOL     OW28086   4.654   5.402   7.051
 5352SOL    HW128087   4.630   5.384   6.956
 5352SOL    HW228088   4.684   5.496   7.061
 5353SOL     OW28089   5.071   4.783   6.820
 5353SOL    HW128090   5.095   4.720   6.746
 5353SOL    HW228091   4.981   4.823   6.802
 5354SOL     OW28092   5.483   5.471   6.740
 5354SOL    HW128093   5.544   5.501   6.667
 5354SOL    HW228094   5.445   5.382   6.718
 5355SOL     OW28095   4.976   5.455   6.714
 5355SOL    HW128096   5.060   5.460   6.660
 5355SOL    HW228097   4.953   5.359   6.732
 5356SOL     OW28098   3.807   4.982   6.608
 5356SOL    HW128099   3.802   4.981   6.708
 5356SOL    HW228100   3.724   4.941   6.570
 5357SOL     OW28101   5.450   3.859   6.109
 5357SOL    HW128102   5.523   3.842   6.042
 5357SOL    HW228103   5.419   3.772   6.147
 5358SOL     OW28104   5.112   5.297   6.063
 5358SOL    HW128105   5.179   5.309   5.989
 5358SOL    HW228106   5.072   5.386   6.086
 5359SOL     OW28107   5.004   4.651   6.258
 5359SOL    HW128108   5.064   4.570   6.260
 5359SOL    HW228109   5.044   4.720   6.198
 5360SOL     OW28110   4.396   5.340   5.740
 5360SOL    HW128111   4.405   5.350   5.641
 5360SOL    HW228112   4.356   5.251   5.761
 5361SOL     OW28113   5.374   5.444   6.980
 5361SOL    HW128114   5.427   5.454   6.896
 5361SOL    HW228115   5.347   5.534   7.014
 5362SOL     OW28116   5.565   3.899   6.549
 5362SOL    HW128117   5.604   3.814   6.513
 5362SOL    HW228118   5.467   3.901   6.530
 5363SOL     OW28119   3.987   4.050   6.306
 5363SOL    HW128120   3.908   4.101   6.272
 5363SOL    HW228121   3.978   4.035   6.404
 5364SOL     OW28122   4.918   5.336   5.617
 5364SOL    HW128123   4.924   5.243   5.654
 5364SOL    HW228124   4.859   5.336   5.537
 5365SOL     OW28125   4.546   4.726   6.958
 5365SOL    HW128126   4.586   4.725   6.866
 5365SOL    HW228127   4.556   4.818   6.998
 5366SOL     OW28128   4.640   4.634   5.877
 5366SOL    HW128129   4.703   4.672   5.809
 5366SOL    HW228130   4.680   4.551   5.916
 5367SOL     OW28131   4.763   4.822   6.282
 5367SOL    HW128132   4.693   4.775   6.336
 5367SOL    HW228133   4.822   4.754   6.239
 5368SOL     OW28134   4.738   3.960   6.557
 5368SOL    HW128135   4.730   3.924   6.464
 5368SOL    HW228136   4.736   3.884   6.622
 5369SOL     OW28137   4.314   5.211   6.077
 5369SOL    HW128138   4.356   5.153   6.007
 5369SOL    HW228139   4.270   5.290   6.033
 5370SOL     OW28140   5.433   4.109   6.967
 5370SOL    HW128141   5.506   4.178   6.971
 5370SOL    HW228142   5.461   4.034   6.908
 5371SOL     OW28143   3.979   5.072   5.876
 5371SOL    HW128144   3.883   5.073   5.849
 5371SOL    HW228145   3.991   5.125   5.960
 5372SOL     OW28146   3.796   3.890   5.904
 5372SOL    HW128147   3.779   3.973   5.850
 5372SOL    HW228148   3.886   3.853   5.882
 5373SOL     OW28149   4.907   5.059   5.705
 5373SOL    HW128150   4.808   5.048   5.707
 5373SOL    HW228151   4.941   5.074   5.798
 5374SOL     OW28152   5.217   5.491   6.545
 5374SOL    HW128153   5.250   5.555   6.476
 5374SOL    HW228154   5.283   5.485   6.620
 5375SOL     OW28155   5.174   4.944   7.219
 5375SOL    HW128156   5.165   4.934   7.318
 5375SOL    HW228157   5.270   4.937   7.193
 5376SOL     OW28158   5.398   4.607   6.840
 5376SOL    HW128159   5.371   4.518   6.803
 5376SOL    HW228160   5.399   4.675   6.767
 5377SOL     OW28161   4.949   4.049   6.035
 5377SOL    HW128162   5.014   3.975   6.024
 5377SOL    HW228163   4.969   4.099   6.119
 5378SOL     OW28164   4.318   4.469   6.238
 5378SOL    HW128165   4.368   4.554   6.219
 5378SOL    HW228166   4.230   4.471   6.190
 5379SOL     OW28167   5.454   4.658   7.103
 5379SOL    HW128168   5.492   4.749   7.118
 5379SOL    HW228169   5.446   4.641   7.004
 5380SOL     OW28170   4.583   5.098   5.602
 5380SOL    HW128171   4.537   5.113   5.690
 5380SOL    HW228172   4.627   5.183   5.572
 5381SOL     OW28173   4.385   5.514   6.539
 5381SOL    HW128174   4.339   5.602   6.526
 5381SOL    HW228175   4.484   5.526   6.532
 5382SOL     OW28176   4.583   4.680   6.447
 5382SOL    HW128177   4.637   4.611   6.495
 5382SOL    HW228178   4.551   4.749   6.513
 5383SOL     OW28179   4.807   4.708   5.673
 5383SOL    HW128180   4.784   4.761   5.591
 5383SOL    HW228181   4.888   4.652   5.654
 5384SOL     OW28182   5.585   5.293   6.437
 5384SOL    HW128183   5.514   5.281   6.367
 5384SOL    HW228184   5.586   5.214   6.497
 5385SOL     OW28185   3.803   4.964   6.239
 5385SOL    HW128186   3.802   4.917   6.327
 5385SOL    HW228187   3.885   4.936   6.188
 5386SOL     OW28188   5.548   3.916   6.813
 5386SOL    HW128189   5.544   3.826   6.857
 5386SOL    HW228190   5.551   3.905   6.714
 5387SOL     OW28191   5.429   5.211   6.690
 5387SOL    HW128192   5.336   5.186   6.663
 5387SOL    HW228193   5.455   5.161   6.772
 5388SOL     OW28194   4.536   5.310   6.273
 5388SOL    HW128195   4.568   5.320   6.179
 5388SOL    HW228196   4.457   5.248   6.275
 5389SOL     OW28197   5.148   3.938   6.698
 5389SOL    HW128198   5.200   3.873   6.753
 5389SOL    HW228199   5.099   4.001   6.759
 5390SOL     OW28200   4.725   3.758   6.740
 5390SOL    HW128201   4.662   3.686   6.709
 5390SOL    HW228202   4.818   3.722   6.740
 5391SOL     OW28203   4.494   5.054   5.887
 5391SOL    HW128204   4.448   4.967   5.904
 5391SOL    HW228205   4.585   5.051   5.928
 5392SOL     OW28206   5.024   4.177   6.277
 5392SOL    HW128207   4.965   4.257   6.281
 5392SOL    HW228208   5.039   4.142   6.370
 5393SOL     OW28209   5.317   3.945   6.468
 5393SOL    HW128210   5.233   3.944   6.522
 5393SOL    HW228211   5.319   4.028   6.412
 5394SOL     OW28212   3.763   4.801   5.886
 5394SOL    HW128213   3.862   4.790   5.877
 5394SOL    HW228214   3.723   4.715   5.918
 5395SOL     OW28215   4.599   5.370   5.923
 5395SOL    HW128216   4.522   5.335   5.869
 5395SOL    HW228217   4.567   5.441   5.985
 5396SOL     OW28218   3.949   5.861   0.996
 5396SOL    HW128219   3.984   5.844   1.088
 5396SOL    HW228220   3.861   5.816   0.984
 5397SOL     OW28221   4.293   6.861   1.165
 5397SOL    HW128222   4.200   6.854   1.128
 5397SOL    HW228223   4.304   6.950   1.209
 5398SOL     OW28224   5.279   7.097   0.703
 5398SOL    HW128225   5.222   7.081   0.784
 5398SOL    HW228226   5.220   7.107   0.623
 5399SOL     OW28227   4.859   6.289   0.717
 5399SOL    HW128228   4.916   6.367   0.692
 5399SOL    HW228229   4.799   6.315   0.793
 5400SOL     OW28230   5.479   6.193   0.231
 5400SOL    HW128231   5.467   6.180   0.132
 5400SOL    HW228232   5.449   6.112   0.280
 5401SOL     OW28233   4.492   6.730   1.023
 5401SOL    HW128234   4.414   6.747   1.083
 5401SOL    HW228235   4.526   6.817   0.987
 5402SOL     OW28236   4.574   6.384   1.823
 5402SOL    HW128237   4.570   6.460   1.888
 5402SOL    HW228238   4.596   6.420   1.732
 5403SOL     OW28239   4.409   6.598   0.665
 5403SOL    HW128240   4.478   6.582   0.735
 5403SOL    HW228241   4.336   6.655   0.703
 5404SOL     OW28242   4.410   6.747   1.803
 5404SOL    HW128243   4.470   6.826   1.817
 5404SOL    HW228244   4.324   6.778   1.762
 5405SOL     OW28245   4.059   7.021   1.061
 5405SOL    HW128246   3.981   6.990   1.008
 5405SOL    HW228247   4.117   7.079   1.004
 5406SOL     OW28248   5.184   7.091   1.339
 5406SOL    HW128249   5.208   7.185   1.365
 5406SOL    HW228250   5.168   7.037   1.421
 5407SOL     OW28251   4.162   5.978   1.499
 5407SOL    HW128252   4.244   5.922   1.508
 5407SOL    HW228253   4.081   5.920   1.503
 5408SOL     OW28254   5.327   6.033   0.737
 5408SOL    HW128255   5.253   6.079   0.687
 5408SOL    HW228256   5.378   6.101   0.790
 5409SOL     OW28257   3.955   7.299   0.483
 5409SOL    HW128258   3.989   7.376   0.537
 5409SOL    HW228259   3.999   7.299   0.393
 5410SOL     OW28260   4.851   6.927   1.690
 5410SOL    HW128261   4.898   6.927   1.778
 5410SOL    HW228262   4.803   6.840   1.679
 5411SOL     OW28263   3.954   7.020   0.538
 5411SOL    HW128264   3.928   7.116   0.538
 5411SOL    HW228265   3.883   6.966   0.583
 5412SOL     OW28266   3.964   6.677   0.886
 5412SOL    HW128267   3.978   6.593   0.938
 5412SOL    HW228268   3.909   6.741   0.941
 5413SOL     OW28269   4.330   6.550   0.123
 5413SOL    HW128270   4.337   6.634   0.069
 5413SOL    HW228271   4.376   6.563   0.211
 5414SOL     OW28272   3.846   6.229   0.563
 5414SOL    HW128273   3.801   6.141   0.580
 5414SOL    HW228274   3.845   6.283   0.647
 5415SOL     OW28275   3.751   7.182   0.117
 5415SOL    HW128276   3.732   7.086   0.138
 5415SOL    HW228277   3.718   7.240   0.192
 5416SOL     OW28278   5.413   6.508   0.612
 5416SOL    HW128279   5.508   6.479   0.620
 5416SOL    HW228280   5.405   6.573   0.537
 5417SOL     OW28281   5.365   6.694   0.432
 5417SOL    HW128282   5.451   6.696   0.380
 5417SOL    HW228283   5.379   6.741   0.520
 5418SOL     OW28284   3.837   6.323   1.597
 5418SOL    HW128285   3.925   6.310   1.642
 5418SOL    HW228286   3.824   6.420   1.575
 5419SOL     OW28287   4.337   6.951   0.726
 5419SOL    HW128288   4.288   6.864   0.735
 5419SOL    HW228289   4.314   6.994   0.639
 5420SOL     OW28290   5.017   6.814   1.423
 5420SOL    HW128291   5.054   6.741   1.365
 5420SOL    HW228292   5.069   6.819   1.508
 5421SOL     OW28293   4.533   5.590   0.502
 5421SOL    HW128294   4.573   5.681   0.493
 5421SOL    HW228295   4.433   5.598   0.508
 5422SOL     OW28296   3.921   6.562   1.264
 5422SOL    HW128297   4.010   6.517   1.250
 5422SOL    HW228298   3.848   6.497   1.245
 5423SOL     OW28299   5.249   6.585   0.190
 5423SOL    HW128300   5.186   6.509   0.203
 5423SOL    HW228301   5.297   6.603   0.276
 5424SOL     OW28302   5.190   7.003   0.953
 5424SOL    HW128303   5.131   7.009   1.033
 5424SOL    HW228304   5.175   6.915   0.907
 5425SOL     OW28305   5.391   7.300   0.572
 5425SOL    HW128306   5.350   7.277   0.484
 5425SOL    HW228307   5.373   7.226   0.637
 5426SOL     OW28308   4.322   6.315   0.270
 5426SOL    HW128309   4.346   6.384   0.202
 5426SOL    HW228310   4.244   6.348   0.324
 5427SOL     OW28311   5.005   5.931   0.944
 5427SOL    HW128312   4.919   5.881   0.931
 5427SOL    HW228313   5.067   5.877   1.000
 5428SOL     OW28314   5.300   7.248   0.307
 5428SOL    HW128315   5.389   7.294   0.310
 5428SOL    HW228316   5.279   7.224   0.212
 5429SOL     OW28317   4.531   6.191   1.465
 5429SOL    HW128318   4.484   6.188   1.554
 5429SOL    HW228319   4.480   6.136   1.399
 5430SOL     OW28320   4.697   6.476   1.572
 5430SOL    HW128321   4.743   6.392   1.543
 5430SOL    HW228322   4.641   6.510   1.497
 5431SOL     OW28323   4.715   5.996   1.242
 5431SOL    HW128324   4.638   6.030   1.296
 5431SOL    HW228325   4.681   5.945   1.163
 5432SOL     OW28326   4.765   6.287   0.429
 5432SOL    HW128327   4.791   6.283   0.525
 5432SOL    HW228328   4.680   6.236   0.415
 5433SOL     OW28329   3.800   6.397   0.789
 5433SOL    HW128330   3.899   6.385   0.798
 5433SOL    HW228331   3.776   6.492   0.810
 5434SOL     OW28332   3.854   7.407   1.571
 5434SOL    HW128333   3.844   7.392   1.670
 5434SOL    HW228334   3.768   7.443   1.535
 5435SOL     OW28335   4.589   5.934   0.195
 5435SOL    HW128336   4.648   5.997   0.146
 5435SOL    HW228337   4.608   5.840   0.166
 5436SOL     OW28338   5.086   6.730   0.545
 5436SOL    HW128339   5.169   6.701   0.497
 5436SOL    HW228340   5.037   6.797   0.489
 5437SOL     OW28341   4.274   5.782   0.885
 5437SOL    HW128342   4.269   5.777   0.985
 5437SOL    HW228343   4.276   5.878   0.856
 5438SOL     OW28344   4.732   7.042   0.477
 5438SOL    HW128345   4.686   7.114   0.425
 5438SOL    HW228346   4.728   7.062   0.575
 5439SOL     OW28347   4.075   7.387   0.853
 5439SOL    HW128348   4.125   7.301   0.859
 5439SOL    HW228349   4.140   7.464   0.850
 5440SOL     OW28350   5.519   6.652   0.873
 5440SOL    HW128351   5.457   6.637   0.797
 5440SOL    HW228352   5.467   6.663   0.958
 5441SOL     OW28353   4.951   7.136   1.506
 5441SOL    HW128354   4.957   7.059   1.570
 5441SOL    HW228355   4.899   7.110   1.426
 5442SOL     OW28356   5.182   6.321   0.728
 5442SOL    HW128357   5.177   6.256   0.803
 5442SOL    HW228358   5.262   6.380   0.741
 5443SOL     OW28359   4.185   6.852   1.727
 5443SOL    HW128360   4.135   6.853   1.641
 5443SOL    HW228361   4.122   6.834   1.803
 5444SOL     OW28362   4.835   7.362   0.237
 5444SOL    HW128363   4.775   7.300   0.287
 5444SOL    HW228364   4.866   7.318   0.152
 5445SOL     OW28365   3.926   5.871   1.498
 5445SOL    HW128366   3.846   5.931   1.485
 5445SOL    HW228367   3.916   5.822   1.584
 5446SOL     OW28368   5.356   6.963   0.081
 5446SOL    HW128369   5.324   7.057   0.071
 5446SOL    HW228370   5.280   6.900   0.069
 5447SOL     OW28371   4.188   7.329   0.323
 5447SOL    HW128372   4.221   7.368   0.409
 5447SOL    HW228373   4.264   7.322   0.258
 5448SOL     OW28374   5.124   5.693   0.426
 5448SOL    HW128375   5.100   5.656   0.336
 5448SOL    HW228376   5.223   5.709   0.430
 5449SOL     OW28377   4.664   7.284   0.904
 5449SOL    HW128378   4.744   7.227   0.925
 5449SOL    HW228379   4.615   7.244   0.827
 5450SOL     OW28380   4.106   6.286   0.480
 5450SOL    HW128381   4.151   6.196   0.477
 5450SOL    HW228382   4.012   6.275   0.513
 5451SOL     OW28383   4.505   5.850   1.749
 5451SOL    HW128384   4.572   5.789   1.792
 5451SOL    HW228385   4.432   5.869   1.814
 5452SOL     OW28386   4.612   7.100   1.195
 5452SOL    HW128387   4.589   7.075   1.101
 5452SOL    HW228388   4.673   7.031   1.234
 5453SOL     OW28389   4.527   6.988   0.924
 5453SOL    HW128390   4.617   7.002   0.882
 5453SOL    HW228391   4.456   6.990   0.853
 5454SOL     OW28392   4.646   6.089   0.899
 5454SOL    HW128393   4.621   6.080   0.803
 5454SOL    HW228394   4.694   6.007   0.930
 5455SOL     OW28395   4.263   5.650   0.512
 5455SOL    HW128396   4.182   5.651   0.570
 5455SOL    HW228397   4.266   5.733   0.457
 5456SOL     OW28398   5.158   6.774   0.041
 5456SOL    HW128399   5.190   6.698   0.098
 5456SOL    HW228400   5.066   6.801   0.071
 5457SOL     OW28401   4.021   5.621   0.171
 5457SOL    HW128402   4.070   5.705   0.150
 5457SOL    HW228403   4.083   5.556   0.216
 5458SOL     OW28404   4.659   5.822   0.480
 5458SOL    HW128405   4.611   5.863   0.402
 5458SOL    HW228406   4.758   5.820   0.461
 5459SOL     OW28407   4.800   6.269   1.464
 5459SOL    HW128408   4.720   6.208   1.467
 5459SOL    HW228409   4.881   6.216   1.440
 5460SOL     OW28410   4.951   7.156   0.793
 5460SOL    HW128411   4.972   7.230   0.728
 5460SOL    HW228412   5.019   7.156   0.866
 5461SOL     OW28413   4.183   6.738   0.741
 5461SOL    HW128414   4.112   6.711   0.806
 5461SOL    HW228415   4.157   6.710   0.648
 5462SOL     OW28416   4.995   7.383   0.591
 5462SOL    HW128417   5.039   7.447   0.527
 5462SOL    HW228418   4.945   7.435   0.661
 5463SOL     OW28419   4.756   6.135   0.016
 5463SOL    HW128420   4.715   6.217  -0.023
 5463SOL    HW228421   4.820   6.161   0.089
 5464SOL     OW28422   3.802   6.142   1.386
 5464SOL    HW128423   3.894   6.141   1.345
 5464SOL    HW228424   3.796   6.216   1.453
 5465SOL     OW28425   4.285   5.808   1.147
 5465SOL    HW128426   4.323   5.724   1.184
 5465SOL    HW228427   4.197   5.827   1.191
 5466SOL     OW28428   4.590   6.040   0.642
 5466SOL    HW128429   4.558   6.112   0.580
 5466SOL    HW228430   4.614   5.959   0.589
 5467SOL     OW28431   4.741   5.625   0.753
 5467SOL    HW128432   4.669   5.630   0.684
 5467SOL    HW228433   4.717   5.556   0.822
 5468SOL     OW28434   5.153   6.759   0.867
 5468SOL    HW128435   5.098   6.675   0.860
 5468SOL    HW228436   5.179   6.788   0.775
 5469SOL     OW28437   5.190   6.176   0.992
 5469SOL    HW128438   5.160   6.081   0.999
 5469SOL    HW228439   5.263   6.192   1.058
 5470SOL     OW28440   5.581   6.419   0.377
 5470SOL    HW128441   5.623   6.355   0.441
 5470SOL    HW228442   5.543   6.368   0.299
 5471SOL     OW28443   4.212   6.971   0.174
 5471SOL    HW128444   4.125   6.956   0.221
 5471SOL    HW228445   4.195   6.997   0.079
 5472SOL     OW28446   5.388   6.866   0.657
 5472SOL    HW128447   5.487   6.874   0.671
 5472SOL    HW228448   5.343   6.950   0.688
 5473SOL     OW28449   5.114   6.161   0.078
 5473SOL    HW128450   5.060   6.140   0.159
 5473SOL    HW228451   5.205   6.120   0.087
 5474SOL     OW28452   4.251   5.842   0.328
 5474SOL    HW128453   4.278   5.783   0.253
 5474SOL    HW228454   4.251   5.937   0.297
 5475SOL     OW28455   5.478   6.809   1.588
 5475SOL    HW128456   5.569   6.770   1.575
 5475SOL    HW228457   5.486   6.905   1.612
 5476SOL     OW28458   4.788   6.933   1.340
 5476SOL    HW128459   4.708   6.910   1.395
 5476SOL    HW228460   4.871   6.907   1.389
 5477SOL     OW28461   4.835   6.781   1.100
 5477SOL    HW128462   4.795   6.825   1.181
 5477SOL    HW228463   4.794   6.818   1.017
 5478SOL     OW28464   5.362   6.685   1.079
 5478SOL    HW128465   5.367   6.766   1.138
 5478SOL    HW228466   5.276   6.687   1.028
 5479SOL     OW28467   4.639   5.675   1.402
 5479SOL    HW128468   4.664   5.655   1.307
 5479SOL    HW228469   4.711   5.731   1.444
 5480SOL     OW28470   4.704   6.702   1.719
 5480SOL    HW128471   4.605   6.708   1.729
 5480SOL    HW228472   4.727   6.622   1.663
 5481SOL     OW28473   4.429   6.636   0.368
 5481SOL    HW128474   4.415   6.643   0.467
 5481SOL    HW228475   4.513   6.585   0.350
 5482SOL     OW28476   4.134   6.399   1.251
 5482SOL    HW128477   4.220   6.411   1.301
 5482SOL    HW228478   4.092   6.312   1.278
 5483SOL     OW28479   4.998   5.972   1.262
 5483SOL    HW128480   5.019   6.046   1.326
 5483SOL    HW228481   4.909   5.989   1.219
 5484SOL     OW28482   3.788   7.150   1.331
 5484SOL    HW128483   3.742   7.232   1.297
 5484SOL    HW228484   3.886   7.169   1.340
 5485SOL     OW28485   4.091   6.686   0.501
 5485SOL    HW128486   4.084   6.769   0.445
 5485SOL    HW228487   4.095   6.606   0.441
 5486SOL     OW28488   4.290   6.123   0.865
 5486SOL    HW128489   4.302   6.189   0.791
 5486SOL    HW228490   4.336   6.157   0.948
 5487SOL     OW28491   4.976   6.934   0.388
 5487SOL    HW128492   5.026   7.011   0.428
 5487SOL    HW228493   4.881   6.936   0.420
 5488SOL     OW28494   4.996   7.031   1.142
 5488SOL    HW128495   5.043   7.044   1.229
 5488SOL    HW228496   4.930   6.957   1.151
 5489SOL     OW28497   5.306   6.225   0.472
 5489SOL    HW128498   5.275   6.286   0.545
 5489SOL    HW228499   5.356   6.277   0.403
 5490SOL     OW28500   4.126   6.337   1.598
 5490SOL    HW128501   4.194   6.392   1.551
 5490SOL    HW228502   4.166   6.249   1.625
 5491SOL     OW28503   5.311   6.365   1.670
 5491SOL    HW128504   5.219   6.403   1.665
 5491SOL    HW228505   5.371   6.412   1.605
 5492SOL     OW28506   4.737   5.691   1.770
 5492SOL    HW128507   4.743   5.776   1.718
 5492SOL    HW228508   4.769   5.615   1.713
 5493SOL     OW28509   4.297   6.456   1.029
 5493SOL    HW128510   4.341   6.545   1.020
 5493SOL    HW228511   4.234   6.456   1.106
 5494SOL     OW28512   5.084   6.448   1.045
 5494SOL    HW128513   5.009   6.448   0.979
 5494SOL    HW228514   5.121   6.356   1.054
 5495SOL     OW28515   4.933   6.111   0.275
 5495SOL    HW128516   4.946   6.027   0.329
 5495SOL    HW228517   4.904   6.185   0.335
 5496SOL     OW28518   4.031   5.799   1.231
 5496SOL    HW128519   4.008   5.836   1.321
 5496SOL    HW228520   4.001   5.704   1.225
 5497SOL     OW28521   3.761   6.896   1.282
 5497SOL    HW128522   3.814   6.847   1.350
 5497SOL    HW228523   3.783   6.994   1.287
 5498SOL     OW28524   4.456   6.220   1.064
 5498SOL    HW128525   4.515   6.194   0.988
 5498SOL    HW228526   4.428   6.316   1.053
 5499SOL     OW28527   5.346   5.953   0.374
 5499SOL    HW128528   5.348   5.877   0.438
 5499SOL    HW228529   5.298   6.030   0.414
 5500SOL     OW28530   4.747   6.352   0.966
 5500SOL    HW128531   4.762   6.373   1.062
 5500SOL    HW228532   4.717   6.257   0.957
 5501SOL     OW28533   5.264   5.860   0.125
 5501SOL    HW128534   5.203   5.785   0.148
 5501SOL    HW228535   5.286   5.912   0.208
 5502SOL     OW28536   5.027   6.424   0.042
 5502SOL    HW128537   5.061   6.331   0.057
 5502SOL    HW228538   5.045   6.451  -0.053
 5503SOL     OW28539   4.792   6.919   0.849
 5503SOL    HW128540   4.799   6.835   0.794
 5503SOL    HW228541   4.854   6.988   0.813
 5504SOL     OW28542   4.043   6.396   0.949
 5504SOL    HW128543   4.136   6.432   0.954
 5504SOL    HW228544   4.037   6.311   1.001
 5505SOL     OW28545   4.063   6.095   1.006
 5505SOL    HW128546   4.011   6.012   0.989
 5505SOL    HW228547   4.140   6.100   0.942
 5506SOL     OW28548   4.884   5.793   1.477
 5506SOL    HW128549   4.884   5.857   1.554
 5506SOL    HW228550   4.912   5.841   1.394
 5507SOL     OW28551   3.812   7.387   0.927
 5507SOL    HW128552   3.770   7.301   0.900
 5507SOL    HW228553   3.906   7.390   0.893
 5508SOL     OW28554   4.228   7.154   0.910
 5508SOL    HW128555   4.294   7.228   0.919
 5508SOL    HW228556   4.272   7.075   0.868
 5509SOL     OW28557   4.726   6.382   1.238
 5509SOL    HW128558   4.767   6.350   1.324
 5509SOL    HW228559   4.630   6.355   1.235
 5510SOL     OW28560   3.764   6.130   1.114
 5510SOL    HW128561   3.849   6.097   1.073
 5510SOL    HW228562   3.777   6.145   1.212
 5511SOL     OW28563   3.913   6.106   1.722
 5511SOL    HW128564   3.972   6.066   1.652
 5511SOL    HW228565   3.855   6.177   1.681
 5512SOL     OW28566   5.093   6.536   1.660
 5512SOL    HW128567   5.132   6.625   1.680
 5512SOL    HW228568   5.103   6.516   1.563
 5513SOL     OW28569   4.539   6.158   0.325
 5513SOL    HW128570   4.546   6.069   0.279
 5513SOL    HW228571   4.445   6.192   0.317
 5514SOL     OW28572   5.381   6.190   1.206
 5514SOL    HW128573   5.343   6.121   1.268
 5514SOL    HW228574   5.463   6.154   1.162
 5515SOL     OW28575   4.395   6.050   1.269
 5515SOL    HW128576   4.361   5.961   1.239
 5515SOL    HW228577   4.421   6.104   1.189
 5516SOL     OW28578   4.654   7.264   1.465
 5516SOL    HW128579   4.630   7.246   1.370
 5516SOL    HW228580   4.684   7.358   1.475
 5517SOL     OW28581   4.197   6.086   0.191
 5517SOL    HW128582   4.258   6.166   0.195
 5517SOL    HW228583   4.102   6.117   0.198
 5518SOL     OW28584   3.883   6.723   1.466
 5518SOL    HW128585   3.905   6.662   1.542
 5518SOL    HW228586   3.893   6.674   1.380
 5519SOL     OW28587   5.071   6.645   1.234
 5519SOL    HW128588   5.095   6.582   1.160
 5519SOL    HW228589   4.981   6.685   1.216
 5520SOL     OW28590   5.026   6.441   0.309
 5520SOL    HW128591   4.940   6.410   0.351
 5520SOL    HW228592   5.022   6.427   0.210
 5521SOL     OW28593   5.483   7.333   1.154
 5521SOL    HW128594   5.544   7.363   1.081
 5521SOL    HW228595   5.445   7.244   1.132
 5522SOL     OW28596   4.976   7.317   1.128
 5522SOL    HW128597   5.060   7.322   1.074
 5522SOL    HW228598   4.953   7.221   1.146
 5523SOL     OW28599   3.807   6.844   1.022
 5523SOL    HW128600   3.802   6.843   1.122
 5523SOL    HW228601   3.724   6.803   0.984
 5524SOL     OW28602   4.412   7.248   1.716
 5524SOL    HW128603   4.356   7.329   1.725
 5524SOL    HW228604   4.464   7.252   1.630
 5525SOL     OW28605   4.627   5.672   0.133
 5525SOL    HW128606   4.678   5.673   0.047
 5525SOL    HW228607   4.683   5.630   0.204
 5526SOL     OW28608   5.450   5.721   0.523
 5526SOL    HW128609   5.523   5.704   0.456
 5526SOL    HW228610   5.419   5.634   0.561
 5527SOL     OW28611   5.112   7.159   0.477
 5527SOL    HW128612   5.179   7.171   0.403
 5527SOL    HW228613   5.072   7.248   0.500
 5528SOL     OW28614   5.004   6.513   0.672
 5528SOL    HW128615   5.064   6.432   0.674
 5528SOL    HW228616   5.044   6.582   0.612
 5529SOL     OW28617   4.554   6.859   1.422
 5529SOL    HW128618   4.549   6.892   1.517
 5529SOL    HW228619   4.468   6.878   1.376
 5530SOL     OW28620   4.396   7.202   0.154
 5530SOL    HW128621   4.405   7.212   0.055
 5530SOL    HW228622   4.356   7.113   0.175
 5531SOL     OW28623   5.374   7.306   1.394
 5531SOL    HW128624   5.427   7.316   1.310
 5531SOL    HW228625   5.347   7.396   1.428
 5532SOL     OW28626   5.565   5.761   0.963
 5532SOL    HW128627   5.604   5.676   0.927
 5532SOL    HW228628   5.467   5.763   0.944
 5533SOL     OW28629   3.987   5.912   0.720
 5533SOL    HW128630   3.908   5.963   0.686
 5533SOL    HW228631   3.978   5.897   0.818
 5534SOL     OW28632   4.918   7.198   0.031
 5534SOL    HW128633   4.924   7.105   0.068
 5534SOL    HW228634   4.859   7.198  -0.049
 5535SOL     OW28635   4.546   6.588   1.372
 5535SOL    HW128636   4.586   6.587   1.280
 5535SOL    HW228637   4.556   6.680   1.412
 5536SOL     OW28638   4.640   6.496   0.291
 5536SOL    HW128639   4.703   6.534   0.223
 5536SOL    HW228640   4.680   6.413   0.330
 5537SOL     OW28641   5.228   7.193   0.044
 5537SOL    HW128642   5.136   7.230   0.051
 5537SOL    HW228643   5.266   7.213  -0.046
 5538SOL     OW28644   4.096   6.874   1.490
 5538SOL    HW128645   4.083   6.967   1.456
 5538SOL    HW228646   4.012   6.822   1.477
 5539SOL     OW28647   5.338   6.878   1.289
 5539SOL    HW128648   5.398   6.881   1.369
 5539SOL    HW228649   5.263   6.942   1.302
 5540SOL     OW28650   4.763   6.684   0.696
 5540SOL    HW128651   4.693   6.637   0.750
 5540SOL    HW228652   4.822   6.616   0.653
 5541SOL     OW28653   4.738   5.822   0.971
 5541SOL    HW128654   4.730   5.786   0.878
 5541SOL    HW228655   4.736   5.746   1.036
 5542SOL     OW28656   4.314   7.073   0.491
 5542SOL    HW128657   4.356   7.015   0.421
 5542SOL    HW228658   4.270   7.152   0.447
 5543SOL     OW28659   5.433   5.971   1.381
 5543SOL    HW128660   5.506   6.040   1.385
 5543SOL    HW228661   5.461   5.896   1.322
 5544SOL     OW28662   3.979   6.934   0.290
 5544SOL    HW128663   3.883   6.935   0.263
 5544SOL    HW228664   3.991   6.987   0.374
 5545SOL     OW28665   4.396   5.789   1.489
 5545SOL    HW128666   4.486   5.773   1.449
 5545SOL    HW228667   4.404   5.794   1.588
 5546SOL     OW28668   5.164   6.442   1.398
 5546SOL    HW128669   5.107   6.494   1.335
 5546SOL    HW228670   5.260   6.454   1.374
 5547SOL     OW28671   3.796   5.752   0.318
 5547SOL    HW128672   3.779   5.835   0.264
 5547SOL    HW228673   3.886   5.715   0.296
 5548SOL     OW28674   4.907   6.921   0.119
 5548SOL    HW128675   4.808   6.910   0.121
 5548SOL    HW228676   4.941   6.936   0.212
 5549SOL     OW28677   4.337   6.428   1.431
 5549SOL    HW128678   4.393   6.509   1.414
 5549SOL    HW228679   4.396   6.348   1.434
 5550SOL     OW28680   5.217   7.353   0.959
 5550SOL    HW128681   5.250   7.417   0.890
 5550SOL    HW228682   5.283   7.347   1.034
 5551SOL     OW28683   4.440   6.151   1.708
 5551SOL    HW128684   4.459   6.216   1.782
 5551SOL    HW228685   4.500   6.071   1.717
 5552SOL     OW28686   5.174   6.806   1.633
 5552SOL    HW128687   5.165   6.796   1.732
 5552SOL    HW228688   5.270   6.799   1.607
 5553SOL     OW28689   5.398   6.469   1.254
 5553SOL    HW128690   5.371   6.380   1.217
 5553SOL    HW228691   5.399   6.537   1.181
 5554SOL     OW28692   4.949   5.911   0.449
 5554SOL    HW128693   5.014   5.837   0.438
 5554SOL    HW228694   4.969   5.961   0.533
 5555SOL     OW28695   4.318   6.331   0.652
 5555SOL    HW128696   4.368   6.416   0.633
 5555SOL    HW228697   4.230   6.333   0.604
 5556SOL     OW28698   5.454   6.520   1.517
 5556SOL    HW128699   5.492   6.611   1.532
 5556SOL    HW228700   5.446   6.503   1.418
 5557SOL     OW28701   4.583   6.960   0.016
 5557SOL    HW128702   4.537   6.975   0.104
 5557SOL    HW228703   4.627   7.045  -0.014
 5558SOL     OW28704   4.385   7.376   0.953
 5558SOL    HW128705   4.339   7.464   0.940
 5558SOL    HW228706   4.484   7.388   0.946
 5559SOL     OW28707   4.583   6.542   0.861
 5559SOL    HW128708   4.637   6.473   0.909
 5559SOL    HW228709   4.551   6.611   0.927
 5560SOL     OW28710   4.807   6.570   0.087
 5560SOL    HW128711   4.784   6.623   0.005
 5560SOL    HW228712   4.888   6.514   0.068
 5561SOL     OW28713   5.585   7.155   0.851
 5561SOL    HW128714   5.514   7.143   0.781
 5561SOL    HW228715   5.586   7.076   0.911
 5562SOL     OW28716   3.945   6.900   1.844
 5562SOL    HW128717   3.880   6.827   1.823
 5562SOL    HW228718   3.949   6.914   1.942
 5563SOL     OW28719   3.803   6.826   0.653
 5563SOL    HW128720   3.802   6.779   0.741
 5563SOL    HW228721   3.885   6.798   0.602
 5564SOL     OW28722   4.396   6.977   1.624
 5564SOL    HW128723   4.318   6.927   1.662
 5564SOL    HW228724   4.393   7.072   1.655
 5565SOL     OW28725   5.548   5.778   1.227
 5565SOL    HW128726   5.544   5.688   1.271
 5565SOL    HW228727   5.551   5.767   1.128
 5566SOL     OW28728   4.152   6.010   0.520
 5566SOL    HW128729   4.182   5.938   0.458
 5566SOL    HW228730   4.113   5.970   0.603
 5567SOL     OW28731   5.429   7.073   1.104
 5567SOL    HW128732   5.336   7.048   1.077
 5567SOL    HW228733   5.455   7.023   1.186
 5568SOL     OW28734   4.041   6.133   1.280
 5568SOL    HW128735   4.079   6.074   1.352
 5568SOL    HW228736   4.081   6.107   1.192
 5569SOL     OW28737   4.536   7.172   0.687
 5569SOL    HW128738   4.568   7.182   0.593
 5569SOL    HW228739   4.457   7.110   0.689
 5570SOL     OW28740   5.148   5.800   1.112
 5570SOL    HW128741   5.200   5.735   1.167
 5570SOL    HW228742   5.099   5.863   1.173
 5571SOL     OW28743   4.725   5.620   1.154
 5571SOL    HW128744   4.662   5.548   1.123
 5571SOL    HW228745   4.818   5.584   1.154
 5572SOL     OW28746   4.494   6.916   0.301
 5572SOL    HW128747   4.448   6.829   0.318
 5572SOL    HW228748   4.585   6.913   0.342
 5573SOL     OW28749   4.342   7.153   1.284
 5573SOL    HW128750   4.337   7.235   1.341
 5573SOL    HW228751   4.431   7.150   1.239
 5574SOL     OW28752   5.076   5.638   0.168
 5574SOL    HW128753   5.111   5.597   0.084
 5574SOL    HW228754   4.986   5.600   0.188
 5575SOL     OW28755   5.024   6.039   0.691
 5575SOL    HW128756   4.965   6.119   0.695
 5575SOL    HW228757   5.039   6.004   0.784
 5576SOL     OW28758   5.317   5.807   0.882
 5576SOL    HW128759   5.233   5.806   0.936
 5576SOL    HW228760   5.319   5.890   0.826
 5577SOL     OW28761   3.763   6.663   0.300
 5577SOL    HW128762   3.862   6.652   0.291
 5577SOL    HW228763   3.723   6.577   0.332
 5578SOL     OW28764   4.599   7.232   0.337
 5578SOL    HW128765   4.522   7.197   0.283
 5578SOL    HW228766   4.567   7.303   0.399
 5579SOL     OW28767   3.954   6.214   1.975
 5579SOL    HW128768   3.861   6.212   2.012
 5579SOL    HW228769   3.955   6.175   1.883
 5580SOL     OW28770   3.949   5.861   2.858
 5580SOL    HW128771   3.984   5.844   2.950
 5580SOL    HW228772   3.861   5.816   2.846
 5581SOL     OW28773   4.574   6.384   3.685
 5581SOL    HW128774   4.570   6.460   3.750
 5581SOL    HW228775   4.596   6.420   3.594
 5582SOL     OW28776   4.410   6.747   3.665
 5582SOL    HW128777   4.470   6.826   3.679
 5582SOL    HW228778   4.324   6.778   3.624
 5583SOL     OW28779   4.851   6.927   3.552
 5583SOL    HW128780   4.898   6.927   3.640
 5583SOL    HW228781   4.803   6.840   3.541
 5584SOL     OW28782   3.954   7.020   2.400
 5584SOL    HW128783   3.928   7.116   2.400
 5584SOL    HW228784   3.883   6.966   2.445
 5585SOL     OW28785   3.964   6.677   2.748
 5585SOL    HW128786   3.978   6.593   2.800
 5585SOL    HW228787   3.909   6.741   2.803
 5586SOL     OW28788   4.344   7.372   3.301
 5586SOL    HW128789   4.252   7.355   3.336
 5586SOL    HW228790   4.372   7.464   3.327
 5587SOL     OW28791   4.330   6.550   1.985
 5587SOL    HW128792   4.337   6.634   1.931
 5587SOL    HW228793   4.376   6.563   2.073
 5588SOL     OW28794   3.846   6.229   2.425
 5588SOL    HW128795   3.801   6.141   2.442
 5588SOL    HW228796   3.845   6.283   2.509
 5589SOL     OW28797   5.413   6.508   2.474
 5589SOL    HW128798   5.508   6.479   2.482
 5589SOL    HW228799   5.405   6.573   2.399
 5590SOL     OW28800   5.365   6.694   2.294
 5590SOL    HW128801   5.451   6.696   2.242
 5590SOL    HW228802   5.379   6.741   2.382
 5591SOL     OW28803   3.837   6.323   3.459
 5591SOL    HW128804   3.925   6.310   3.504
 5591SOL    HW228805   3.824   6.420   3.437
 5592SOL     OW28806   4.337   6.951   2.588
 5592SOL    HW128807   4.288   6.864   2.597
 5592SOL    HW228808   4.314   6.994   2.501
 5593SOL     OW28809   5.017   6.814   3.285
 5593SOL    HW128810   5.054   6.741   3.227
 5593SOL    HW228811   5.069   6.819   3.370
 5594SOL     OW28812   3.921   6.562   3.126
 5594SOL    HW128813   4.010   6.517   3.112
 5594SOL    HW228814   3.848   6.497   3.107
 5595SOL     OW28815   5.249   6.585   2.052
 5595SOL    HW128816   5.186   6.509   2.065
 5595SOL    HW228817   5.297   6.603   2.138
 5596SOL     OW28818   5.190   7.003   2.815
 5596SOL    HW128819   5.131   7.009   2.895
 5596SOL    HW228820   5.175   6.915   2.769
 5597SOL     OW28821   4.322   6.315   2.132
 5597SOL    HW128822   4.346   6.384   2.064
 5597SOL    HW228823   4.244   6.348   2.186
 5598SOL     OW28824   5.005   5.931   2.806
 5598SOL    HW128825   4.919   5.881   2.793
 5598SOL    HW228826   5.067   5.877   2.862
 5599SOL     OW28827   4.531   6.191   3.327
 5599SOL    HW128828   4.484   6.188   3.416
 5599SOL    HW228829   4.480   6.136   3.261
 5600SOL     OW28830   4.589   5.934   2.057
 5600SOL    HW128831   4.648   5.997   2.008
 5600SOL    HW228832   4.608   5.840   2.028
 5601SOL     OW28833   4.732   7.042   2.339
 5601SOL    HW128834   4.686   7.114   2.287
 5601SOL    HW228835   4.728   7.062   2.437
 5602SOL     OW28836   4.075   7.387   2.715
 5602SOL    HW128837   4.125   7.301   2.721
 5602SOL    HW228838   4.140   7.464   2.712
 5603SOL     OW28839   4.951   7.136   3.368
 5603SOL    HW128840   4.957   7.059   3.432
 5603SOL    HW228841   4.899   7.110   3.288
 5604SOL     OW28842   4.835   7.362   2.099
 5604SOL    HW128843   4.775   7.300   2.149
 5604SOL    HW228844   4.866   7.318   2.014
 5605SOL     OW28845   3.926   5.871   3.360
 5605SOL    HW128846   3.846   5.931   3.347
 5605SOL    HW228847   3.916   5.822   3.446
 5606SOL     OW28848   5.356   6.963   1.943
 5606SOL    HW128849   5.324   7.057   1.933
 5606SOL    HW228850   5.280   6.900   1.931
 5607SOL     OW28851   5.124   5.693   2.288
 5607SOL    HW128852   5.100   5.656   2.198
 5607SOL    HW228853   5.223   5.709   2.292
 5608SOL     OW28854   4.664   7.284   2.766
 5608SOL    HW128855   4.744   7.227   2.787
 5608SOL    HW228856   4.615   7.244   2.689
 5609SOL     OW28857   4.106   6.286   2.342
 5609SOL    HW128858   4.151   6.196   2.339
 5609SOL    HW228859   4.012   6.275   2.375
 5610SOL     OW28860   5.271   5.808   3.591
 5610SOL    HW128861   5.266   5.845   3.683
 5610SOL    HW228862   5.199   5.739   3.579
 5611SOL     OW28863   4.505   5.850   3.611
 5611SOL    HW128864   4.572   5.789   3.654
 5611SOL    HW228865   4.432   5.869   3.676
 5612SOL     OW28866   4.612   7.100   3.057
 5612SOL    HW128867   4.589   7.075   2.963
 5612SOL    HW228868   4.673   7.031   3.096
 5613SOL     OW28869   5.075   6.176   3.295
 5613SOL    HW128870   5.103   6.133   3.380
 5613SOL    HW228871   5.100   6.272   3.296
 5614SOL     OW28872   4.646   6.089   2.761
 5614SOL    HW128873   4.621   6.080   2.665
 5614SOL    HW228874   4.694   6.007   2.792
 5615SOL     OW28875   5.158   6.774   1.903
 5615SOL    HW128876   5.190   6.698   1.960
 5615SOL    HW228877   5.066   6.801   1.933
 5616SOL     OW28878   4.021   5.621   2.033
 5616SOL    HW128879   4.070   5.705   2.012
 5616SOL    HW228880   4.083   5.556   2.078
 5617SOL     OW28881   4.800   6.269   3.326
 5617SOL    HW128882   4.720   6.208   3.329
 5617SOL    HW228883   4.881   6.216   3.302
 5618SOL     OW28884   4.756   6.135   1.878
 5618SOL    HW128885   4.715   6.217   1.839
 5618SOL    HW228886   4.820   6.161   1.951
 5619SOL     OW28887   3.802   6.142   3.248
 5619SOL    HW128888   3.894   6.141   3.207
 5619SOL    HW228889   3.796   6.216   3.315
 5620SOL     OW28890   4.285   5.808   3.009
 5620SOL    HW128891   4.323   5.724   3.046
 5620SOL    HW228892   4.197   5.827   3.053
 5621SOL     OW28893   4.590   6.040   2.504
 5621SOL    HW128894   4.558   6.112   2.442
 5621SOL    HW228895   4.614   5.959   2.451
 5622SOL     OW28896   5.153   6.759   2.729
 5622SOL    HW128897   5.098   6.675   2.722
 5622SOL    HW228898   5.179   6.788   2.637
 5623SOL     OW28899   5.190   6.176   2.854
 5623SOL    HW128900   5.160   6.081   2.861
 5623SOL    HW228901   5.263   6.192   2.920
 5624SOL     OW28902   4.251   5.842   2.190
 5624SOL    HW128903   4.278   5.783   2.115
 5624SOL    HW228904   4.251   5.937   2.159
 5625SOL     OW28905   5.362   6.685   2.941
 5625SOL    HW128906   5.367   6.766   3.000
 5625SOL    HW228907   5.276   6.687   2.890
 5626SOL     OW28908   4.639   5.675   3.264
 5626SOL    HW128909   4.664   5.655   3.169
 5626SOL    HW228910   4.711   5.731   3.306
 5627SOL     OW28911   4.429   6.636   2.230
 5627SOL    HW128912   4.415   6.643   2.329
 5627SOL    HW228913   4.513   6.585   2.212
 5628SOL     OW28914   4.134   6.399   3.113
 5628SOL    HW128915   4.220   6.411   3.163
 5628SOL    HW228916   4.092   6.312   3.140
 5629SOL     OW28917   5.306   6.225   2.334
 5629SOL    HW128918   5.275   6.286   2.407
 5629SOL    HW228919   5.356   6.277   2.265
 5630SOL     OW28920   4.126   6.337   3.460
 5630SOL    HW128921   4.194   6.392   3.413
 5630SOL    HW228922   4.166   6.249   3.487
 5631SOL     OW28923   4.933   6.111   2.137
 5631SOL    HW128924   4.946   6.027   2.191
 5631SOL    HW228925   4.904   6.185   2.197
 5632SOL     OW28926   4.031   5.799   3.093
 5632SOL    HW128927   4.008   5.836   3.183
 5632SOL    HW228928   4.001   5.704   3.087
 5633SOL     OW28929   4.747   6.352   2.828
 5633SOL    HW128930   4.762   6.373   2.924
 5633SOL    HW228931   4.717   6.257   2.819
 5634SOL     OW28932   5.583   7.104   3.467
 5634SOL    HW128933   5.597   7.131   3.372
 5634SOL    HW228934   5.666   7.126   3.520
 5635SOL     OW28935   4.074   6.484   3.666
 5635SOL    HW128936   4.150   6.528   3.714
 5635SOL    HW228937   4.109   6.437   3.584
 5636SOL     OW28938   3.812   7.387   2.789
 5636SOL    HW128939   3.770   7.301   2.762
 5636SOL    HW228940   3.906   7.390   2.755
 5637SOL     OW28941   5.093   6.536   3.522
 5637SOL    HW128942   5.132   6.625   3.542
 5637SOL    HW228943   5.103   6.516   3.425
 5638SOL     OW28944   4.539   6.158   2.187
 5638SOL    HW128945   4.546   6.069   2.141
 5638SOL    HW228946   4.445   6.192   2.179
 5639SOL     OW28947   5.381   6.190   3.068
 5639SOL    HW128948   5.343   6.121   3.130
 5639SOL    HW228949   5.463   6.154   3.024
 5640SOL     OW28950   4.395   6.050   3.131
 5640SOL    HW128951   4.361   5.961   3.101
 5640SOL    HW228952   4.421   6.104   3.051
 5641SOL     OW28953   4.197   6.086   2.053
 5641SOL    HW128954   4.258   6.166   2.057
 5641SOL    HW228955   4.102   6.117   2.060
 5642SOL     OW28956   5.026   6.441   2.171
 5642SOL    HW128957   4.940   6.410   2.213
 5642SOL    HW228958   5.022   6.427   2.072
 5643SOL     OW28959   4.412   7.248   3.578
 5643SOL    HW128960   4.356   7.329   3.587
 5643SOL    HW228961   4.464   7.252   3.492
 5644SOL     OW28962   5.450   5.721   2.385
 5644SOL    HW128963   5.523   5.704   2.318
 5644SOL    HW228964   5.419   5.634   2.423
 5645SOL     OW28965   4.396   7.202   2.016
 5645SOL    HW128966   4.405   7.212   1.917
 5645SOL    HW228967   4.356   7.113   2.037
 5646SOL     OW28968   3.987   5.912   2.582
 5646SOL    HW128969   3.908   5.963   2.548
 5646SOL    HW228970   3.978   5.897   2.680
 5647SOL     OW28971   4.546   6.588   3.234
 5647SOL    HW128972   4.586   6.587   3.142
 5647SOL    HW228973   4.556   6.680   3.274
 5648SOL     OW28974   5.228   7.193   1.906
 5648SOL    HW128975   5.136   7.230   1.913
 5648SOL    HW228976   5.266   7.213   1.816
 5649SOL     OW28977   4.096   6.874   3.352
 5649SOL    HW128978   4.083   6.967   3.318
 5649SOL    HW228979   4.012   6.822   3.339
 5650SOL     OW28980   5.338   6.878   3.151
 5650SOL    HW128981   5.398   6.881   3.231
 5650SOL    HW228982   5.263   6.942   3.164
 5651SOL     OW28983   4.738   5.822   2.833
 5651SOL    HW128984   4.730   5.786   2.740
 5651SOL    HW228985   4.736   5.746   2.898
 5652SOL     OW28986   4.314   7.073   2.353
 5652SOL    HW128987   4.356   7.015   2.283
 5652SOL    HW228988   4.270   7.152   2.309
 5653SOL     OW28989   5.433   5.971   3.243
 5653SOL    HW128990   5.506   6.040   3.247
 5653SOL    HW228991   5.461   5.896   3.184
 5654SOL     OW28992   4.907   6.921   1.981
 5654SOL    HW128993   4.808   6.910   1.983
 5654SOL    HW228994   4.941   6.936   2.074
 5655SOL     OW28995   4.440   6.151   3.570
 5655SOL    HW128996   4.459   6.216   3.644
 5655SOL    HW228997   4.500   6.071   3.579
 5656SOL     OW28998   5.454   6.520   3.379
 5656SOL    HW128999   5.492   6.611   3.394
 5656SOL    HW229000   5.446   6.503   3.280
 5657SOL     OW29001   4.583   6.960   1.878
 5657SOL    HW129002   4.537   6.975   1.966
 5657SOL    HW229003   4.627   7.045   1.848
 5658SOL     OW29004   5.585   7.155   2.713
 5658SOL    HW129005   5.514   7.143   2.643
 5658SOL    HW229006   5.586   7.076   2.773
 5659SOL     OW29007   5.548   5.778   3.089
 5659SOL    HW129008   5.544   5.688   3.133
 5659SOL    HW229009   5.551   5.767   2.990
 5660SOL     OW29010   4.152   6.010   2.382
 5660SOL    HW129011   4.182   5.938   2.320
 5660SOL    HW229012   4.113   5.970   2.465
 5661SOL     OW29013   5.429   7.073   2.966
 5661SOL    HW129014   5.336   7.048   2.939
 5661SOL    HW229015   5.455   7.023   3.048
 5662SOL     OW29016   4.041   6.133   3.142
 5662SOL    HW129017   4.079   6.074   3.214
 5662SOL    HW229018   4.081   6.107   3.054
 5663SOL     OW29019   4.494   6.916   2.163
 5663SOL    HW129020   4.448   6.829   2.180
 5663SOL    HW229021   4.585   6.913   2.204
 5664SOL     OW29022   4.293   6.861   4.889
 5664SOL    HW129023   4.200   6.854   4.852
 5664SOL    HW229024   4.304   6.950   4.933
 5665SOL     OW29025   4.859   6.289   4.441
 5665SOL    HW129026   4.916   6.367   4.416
 5665SOL    HW229027   4.799   6.315   4.517
 5666SOL     OW29028   5.479   6.193   3.955
 5666SOL    HW129029   5.467   6.180   3.856
 5666SOL    HW229030   5.449   6.112   4.004
 5667SOL     OW29031   4.574   6.384   5.547
 5667SOL    HW129032   4.570   6.460   5.612
 5667SOL    HW229033   4.596   6.420   5.456
 5668SOL     OW29034   4.409   6.598   4.389
 5668SOL    HW129035   4.478   6.582   4.459
 5668SOL    HW229036   4.336   6.655   4.427
 5669SOL     OW29037   4.410   6.747   5.527
 5669SOL    HW129038   4.470   6.826   5.541
 5669SOL    HW229039   4.324   6.778   5.486
 5670SOL     OW29040   4.059   7.021   4.785
 5670SOL    HW129041   3.981   6.990   4.732
 5670SOL    HW229042   4.117   7.079   4.728
 5671SOL     OW29043   3.955   7.299   4.207
 5671SOL    HW129044   3.989   7.376   4.261
 5671SOL    HW229045   3.999   7.299   4.117
 5672SOL     OW29046   5.318   5.700   5.204
 5672SOL    HW129047   5.300   5.767   5.132
 5672SOL    HW229048   5.315   5.746   5.293
 5673SOL     OW29049   5.413   6.508   4.336
 5673SOL    HW129050   5.508   6.479   4.344
 5673SOL    HW229051   5.405   6.573   4.261
 5674SOL     OW29052   5.017   6.814   5.147
 5674SOL    HW129053   5.054   6.741   5.089
 5674SOL    HW229054   5.069   6.819   5.232
 5675SOL     OW29055   4.533   5.590   4.226
 5675SOL    HW129056   4.573   5.681   4.217
 5675SOL    HW229057   4.433   5.598   4.232
 5676SOL     OW29058   4.911   7.378   5.340
 5676SOL    HW129059   4.935   7.438   5.264
 5676SOL    HW229060   4.918   7.283   5.310
 5677SOL     OW29061   5.118   6.055   5.398
 5677SOL    HW129062   5.098   6.098   5.486
 5677SOL    HW229063   5.196   5.993   5.407
 5678SOL     OW29064   3.854   7.407   5.295
 5678SOL    HW129065   3.844   7.392   5.394
 5678SOL    HW229066   3.768   7.443   5.259
 5679SOL     OW29067   5.519   6.652   4.597
 5679SOL    HW129068   5.457   6.637   4.521
 5679SOL    HW229069   5.467   6.663   4.682
 5680SOL     OW29070   4.951   7.136   5.230
 5680SOL    HW129071   4.957   7.059   5.294
 5680SOL    HW229072   4.899   7.110   5.150
 5681SOL     OW29073   5.182   6.321   4.452
 5681SOL    HW129074   5.177   6.256   4.527
 5681SOL    HW229075   5.262   6.380   4.465
 5682SOL     OW29076   4.185   6.852   5.451
 5682SOL    HW129077   4.135   6.853   5.365
 5682SOL    HW229078   4.122   6.834   5.527
 5683SOL     OW29079   3.926   5.871   5.222
 5683SOL    HW129080   3.846   5.931   5.209
 5683SOL    HW229081   3.916   5.822   5.308
 5684SOL     OW29082   5.271   5.808   5.453
 5684SOL    HW129083   5.266   5.845   5.545
 5684SOL    HW229084   5.199   5.739   5.441
 5685SOL     OW29085   5.075   6.176   5.157
 5685SOL    HW129086   5.103   6.133   5.242
 5685SOL    HW229087   5.100   6.272   5.158
 5686SOL     OW29088   4.995   7.383   4.315
 5686SOL    HW129089   5.039   7.447   4.251
 5686SOL    HW229090   4.945   7.435   4.385
 5687SOL     OW29091   5.190   6.176   4.716
 5687SOL    HW129092   5.160   6.081   4.723
 5687SOL    HW229093   5.263   6.192   4.782
 5688SOL     OW29094   5.114   6.161   3.802
 5688SOL    HW129095   5.060   6.140   3.883
 5688SOL    HW229096   5.205   6.120   3.811
 5689SOL     OW29097   4.788   6.933   5.064
 5689SOL    HW129098   4.708   6.910   5.119
 5689SOL    HW229099   4.871   6.907   5.113
 5690SOL     OW29100   4.835   6.781   4.824
 5690SOL    HW129101   4.795   6.825   4.905
 5690SOL    HW229102   4.794   6.818   4.741
 5691SOL     OW29103   4.704   6.702   5.443
 5691SOL    HW129104   4.605   6.708   5.453
 5691SOL    HW229105   4.727   6.622   5.387
 5692SOL     OW29106   4.290   6.123   4.589
 5692SOL    HW129107   4.302   6.189   4.515
 5692SOL    HW229108   4.336   6.157   4.672
 5693SOL     OW29109   4.078   7.096   5.053
 5693SOL    HW129110   4.057   7.052   4.966
 5693SOL    HW229111   4.175   7.122   5.056
 5694SOL     OW29112   5.311   6.365   5.394
 5694SOL    HW129113   5.219   6.403   5.389
 5694SOL    HW229114   5.371   6.412   5.329
 5695SOL     OW29115   4.737   5.691   5.494
 5695SOL    HW129116   4.743   5.776   5.442
 5695SOL    HW229117   4.769   5.615   5.437
 5696SOL     OW29118   4.228   5.636   5.464
 5696SOL    HW129119   4.186   5.579   5.394
 5696SOL    HW229120   4.162   5.705   5.496
 5697SOL     OW29121   4.933   6.111   3.999
 5697SOL    HW129122   4.946   6.027   4.053
 5697SOL    HW229123   4.904   6.185   4.059
 5698SOL     OW29124   5.452   6.521   5.578
 5698SOL    HW129125   5.406   6.514   5.489
 5698SOL    HW229126   5.390   6.565   5.644
 5699SOL     OW29127   4.704   7.159   5.424
 5699SOL    HW129128   4.684   7.203   5.336
 5699SOL    HW229129   4.743   7.068   5.408
 5700SOL     OW29130   4.074   6.484   5.528
 5700SOL    HW129131   4.150   6.528   5.576
 5700SOL    HW229132   4.109   6.437   5.446
 5701SOL     OW29133   5.027   6.424   3.766
 5701SOL    HW129134   5.061   6.331   3.781
 5701SOL    HW229135   5.045   6.451   3.671
 5702SOL     OW29136   4.063   6.095   4.730
 5702SOL    HW129137   4.011   6.012   4.713
 5702SOL    HW229138   4.140   6.100   4.666
 5703SOL     OW29139   4.862   5.966   5.402
 5703SOL    HW129140   4.817   6.029   5.466
 5703SOL    HW229141   4.955   5.997   5.385
 5704SOL     OW29142   4.884   5.793   5.201
 5704SOL    HW129143   4.884   5.857   5.278
 5704SOL    HW229144   4.912   5.841   5.118
 5705SOL     OW29145   3.732   6.912   3.924
 5705SOL    HW129146   3.639   6.933   3.893
 5705SOL    HW229147   3.742   6.813   3.937
 5706SOL     OW29148   3.764   6.130   4.838
 5706SOL    HW129149   3.849   6.097   4.797
 5706SOL    HW229150   3.777   6.145   4.936
 5707SOL     OW29151   5.093   6.536   5.384
 5707SOL    HW129152   5.132   6.625   5.404
 5707SOL    HW229153   5.103   6.516   5.287
 5708SOL     OW29154   3.976   7.150   5.468
 5708SOL    HW129155   3.946   7.207   5.544
 5708SOL    HW229156   3.969   7.053   5.494
 5709SOL     OW29157   4.654   7.264   5.189
 5709SOL    HW129158   4.630   7.246   5.094
 5709SOL    HW229159   4.684   7.358   5.199
 5710SOL     OW29160   3.883   6.723   5.190
 5710SOL    HW129161   3.905   6.662   5.266
 5710SOL    HW229162   3.893   6.674   5.104
 5711SOL     OW29163   3.807   6.844   4.746
 5711SOL    HW129164   3.802   6.843   4.846
 5711SOL    HW229165   3.724   6.803   4.708
 5712SOL     OW29166   5.112   7.159   4.201
 5712SOL    HW129167   5.179   7.171   4.127
 5712SOL    HW229168   5.072   7.248   4.224
 5713SOL     OW29169   3.854   7.380   5.575
 5713SOL    HW129170   3.813   7.306   5.628
 5713SOL    HW229171   3.918   7.431   5.633
 5714SOL     OW29172   4.096   6.874   5.214
 5714SOL    HW129173   4.083   6.967   5.180
 5714SOL    HW229174   4.012   6.822   5.201
 5715SOL     OW29175   4.763   6.684   4.420
 5715SOL    HW129176   4.693   6.637   4.474
 5715SOL    HW229177   4.822   6.616   4.377
 5716SOL     OW29178   3.829   6.599   5.450
 5716SOL    HW129179   3.752   6.566   5.504
 5716SOL    HW229180   3.914   6.569   5.492
 5717SOL     OW29181   5.174   6.806   5.357
 5717SOL    HW129182   5.165   6.796   5.456
 5717SOL    HW229183   5.270   6.799   5.331
 5718SOL     OW29184   4.114   7.327   5.284
 5718SOL    HW129185   4.023   7.368   5.282
 5718SOL    HW229186   4.107   7.233   5.316
 5719SOL     OW29187   4.949   5.911   4.173
 5719SOL    HW129188   5.014   5.837   4.162
 5719SOL    HW229189   4.969   5.961   4.257
 5720SOL     OW29190   4.318   6.331   4.376
 5720SOL    HW129191   4.368   6.416   4.357
 5720SOL    HW229192   4.230   6.333   4.328
 5721SOL     OW29193   5.454   6.520   5.241
 5721SOL    HW129194   5.492   6.611   5.256
 5721SOL    HW229195   5.446   6.503   5.142
 5722SOL     OW29196   3.945   6.900   5.568
 5722SOL    HW129197   3.880   6.827   5.547
 5722SOL    HW229198   3.949   6.914   5.666
 5723SOL     OW29199   3.803   6.826   4.377
 5723SOL    HW129200   3.802   6.779   4.465
 5723SOL    HW229201   3.885   6.798   4.326
 5724SOL     OW29202   4.536   7.172   4.411
 5724SOL    HW129203   4.568   7.182   4.317
 5724SOL    HW229204   4.457   7.110   4.413
 5725SOL     OW29205   5.148   5.800   4.836
 5725SOL    HW129206   5.200   5.735   4.891
 5725SOL    HW229207   5.099   5.863   4.897
 5726SOL     OW29208   4.494   6.916   4.025
 5726SOL    HW129209   4.448   6.829   4.042
 5726SOL    HW229210   4.585   6.913   4.066
 5727SOL     OW29211   3.954   6.214   5.699
 5727SOL    HW129212   3.861   6.212   5.736
 5727SOL    HW229213   3.955   6.175   5.607
 5728SOL     OW29214   3.949   5.861   6.582
 5728SOL    HW129215   3.984   5.844   6.674
 5728SOL    HW229216   3.861   5.816   6.570
 5729SOL     OW29217   4.293   6.861   6.751
 5729SOL    HW129218   4.200   6.854   6.714
 5729SOL    HW229219   4.304   6.950   6.795
 5730SOL     OW29220   5.279   7.097   6.289
 5730SOL    HW129221   5.222   7.081   6.370
 5730SOL    HW229222   5.220   7.107   6.209
 5731SOL     OW29223   4.859   6.289   6.303
 5731SOL    HW129224   4.916   6.367   6.278
 5731SOL    HW229225   4.799   6.315   6.379
 5732SOL     OW29226   5.479   6.193   5.817
 5732SOL    HW129227   5.467   6.180   5.718
 5732SOL    HW229228   5.449   6.112   5.866
 5733SOL     OW29229   4.492   6.730   6.609
 5733SOL    HW129230   4.414   6.747   6.669
 5733SOL    HW229231   4.526   6.817   6.573
 5734SOL     OW29232   4.409   6.598   6.251
 5734SOL    HW129233   4.478   6.582   6.321
 5734SOL    HW229234   4.336   6.655   6.289
 5735SOL     OW29235   4.059   7.021   6.647
 5735SOL    HW129236   3.981   6.990   6.594
 5735SOL    HW229237   4.117   7.079   6.590
 5736SOL     OW29238   5.327   6.033   6.323
 5736SOL    HW129239   5.253   6.079   6.273
 5736SOL    HW229240   5.378   6.101   6.376
 5737SOL     OW29241   3.955   7.299   6.069
 5737SOL    HW129242   3.989   7.376   6.123
 5737SOL    HW229243   3.999   7.299   5.979
 5738SOL     OW29244   3.954   7.020   6.124
 5738SOL    HW129245   3.928   7.116   6.124
 5738SOL    HW229246   3.883   6.966   6.169
 5739SOL     OW29247   3.964   6.677   6.472
 5739SOL    HW129248   3.978   6.593   6.524
 5739SOL    HW229249   3.909   6.741   6.527
 5740SOL     OW29250   4.330   6.550   5.709
 5740SOL    HW129251   4.337   6.634   5.655
 5740SOL    HW229252   4.376   6.563   5.797
 5741SOL     OW29253   3.846   6.229   6.149
 5741SOL    HW129254   3.801   6.141   6.166
 5741SOL    HW229255   3.845   6.283   6.233
 5742SOL     OW29256   5.566   7.353   5.945
 5742SOL    HW129257   5.620   7.324   6.025
 5742SOL    HW229258   5.596   7.443   5.916
 5743SOL     OW29259   3.751   7.182   5.703
 5743SOL    HW129260   3.732   7.086   5.724
 5743SOL    HW229261   3.718   7.240   5.778
 5744SOL     OW29262   5.413   6.508   6.198
 5744SOL    HW129263   5.508   6.479   6.206
 5744SOL    HW229264   5.405   6.573   6.123
 5745SOL     OW29265   4.337   6.951   6.312
 5745SOL    HW129266   4.288   6.864   6.321
 5745SOL    HW229267   4.314   6.994   6.225
 5746SOL     OW29268   4.533   5.590   6.088
 5746SOL    HW129269   4.573   5.681   6.079
 5746SOL    HW229270   4.433   5.598   6.094
 5747SOL     OW29271   5.249   6.585   5.776
 5747SOL    HW129272   5.186   6.509   5.789
 5747SOL    HW229273   5.297   6.603   5.862
 5748SOL     OW29274   5.190   7.003   6.539
 5748SOL    HW129275   5.131   7.009   6.619
 5748SOL    HW229276   5.175   6.915   6.493
 5749SOL     OW29277   5.391   7.300   6.158
 5749SOL    HW129278   5.350   7.277   6.070
 5749SOL    HW229279   5.373   7.226   6.223
 5750SOL     OW29280   4.322   6.315   5.856
 5750SOL    HW129281   4.346   6.384   5.788
 5750SOL    HW229282   4.244   6.348   5.910
 5751SOL     OW29283   5.005   5.931   6.530
 5751SOL    HW129284   4.919   5.881   6.517
 5751SOL    HW229285   5.067   5.877   6.586
 5752SOL     OW29286   5.300   7.248   5.893
 5752SOL    HW129287   5.389   7.294   5.896
 5752SOL    HW229288   5.279   7.224   5.798
 5753SOL     OW29289   4.715   5.996   6.828
 5753SOL    HW129290   4.638   6.030   6.882
 5753SOL    HW229291   4.681   5.945   6.749
 5754SOL     OW29292   4.765   6.287   6.015
 5754SOL    HW129293   4.791   6.283   6.111
 5754SOL    HW229294   4.680   6.236   6.001
 5755SOL     OW29295   3.800   6.397   6.375
 5755SOL    HW129296   3.899   6.385   6.384
 5755SOL    HW229297   3.776   6.492   6.396
 5756SOL     OW29298   4.274   5.782   6.471
 5756SOL    HW129299   4.269   5.777   6.571
 5756SOL    HW229300   4.276   5.878   6.442
 5757SOL     OW29301   4.075   7.387   6.439
 5757SOL    HW129302   4.125   7.301   6.445
 5757SOL    HW229303   4.140   7.464   6.436
 5758SOL     OW29304   4.045   6.529   5.828
 5758SOL    HW129305   4.127   6.568   5.786
 5758SOL    HW229306   4.018   6.447   5.779
 5759SOL     OW29307   5.182   6.321   6.314
 5759SOL    HW129308   5.177   6.256   6.389
 5759SOL    HW229309   5.262   6.380   6.327
 5760SOL     OW29310   4.835   7.362   5.823
 5760SOL    HW129311   4.775   7.300   5.873
 5760SOL    HW229312   4.866   7.318   5.738
 5761SOL     OW29313   5.356   6.963   5.667
 5761SOL    HW129314   5.324   7.057   5.657
 5761SOL    HW229315   5.280   6.900   5.655
 5762SOL     OW29316   3.973   7.371   6.827
 5762SOL    HW129317   4.030   7.306   6.877
 5762SOL    HW229318   3.957   7.338   6.734
 5763SOL     OW29319   4.664   7.284   6.490
 5763SOL    HW129320   4.744   7.227   6.511
 5763SOL    HW229321   4.615   7.244   6.413
 5764SOL     OW29322   4.106   6.286   6.066
 5764SOL    HW129323   4.151   6.196   6.063
 5764SOL    HW229324   4.012   6.275   6.099
 5765SOL     OW29325   4.527   6.988   6.510
 5765SOL    HW129326   4.617   7.002   6.468
 5765SOL    HW229327   4.456   6.990   6.439
 5766SOL     OW29328   4.646   6.089   6.485
 5766SOL    HW129329   4.621   6.080   6.389
 5766SOL    HW229330   4.694   6.007   6.516
 5767SOL     OW29331   4.263   5.650   6.098
 5767SOL    HW129332   4.182   5.651   6.156
 5767SOL    HW229333   4.266   5.733   6.043
 5768SOL     OW29334   4.021   5.621   5.757
 5768SOL    HW129335   4.070   5.705   5.736
 5768SOL    HW229336   4.083   5.556   5.802
 5769SOL     OW29337   4.659   5.822   6.066
 5769SOL    HW129338   4.611   5.863   5.988
 5769SOL    HW229339   4.758   5.820   6.047
 5770SOL     OW29340   4.183   6.738   6.327
 5770SOL    HW129341   4.112   6.711   6.392
 5770SOL    HW229342   4.157   6.710   6.234
 5771SOL     OW29343   4.995   7.383   6.177
 5771SOL    HW129344   5.039   7.447   6.113
 5771SOL    HW229345   4.945   7.435   6.247
 5772SOL     OW29346   4.756   6.135   5.602
 5772SOL    HW129347   4.715   6.217   5.563
 5772SOL    HW229348   4.820   6.161   5.675
 5773SOL     OW29349   4.285   5.808   6.733
 5773SOL    HW129350   4.323   5.724   6.770
 5773SOL    HW229351   4.197   5.827   6.777
 5774SOL     OW29352   4.590   6.040   6.228
 5774SOL    HW129353   4.558   6.112   6.166
 5774SOL    HW229354   4.614   5.959   6.175
 5775SOL     OW29355   4.741   5.625   6.339
 5775SOL    HW129356   4.669   5.630   6.270
 5775SOL    HW229357   4.717   5.556   6.408
 5776SOL     OW29358   5.153   6.759   6.453
 5776SOL    HW129359   5.098   6.675   6.446
 5776SOL    HW229360   5.179   6.788   6.361
 5777SOL     OW29361   5.190   6.176   6.578
 5777SOL    HW129362   5.160   6.081   6.585
 5777SOL    HW229363   5.263   6.192   6.644
 5778SOL     OW29364   5.581   6.419   5.963
 5778SOL    HW129365   5.623   6.355   6.027
 5778SOL    HW229366   5.543   6.368   5.885
 5779SOL     OW29367   4.212   6.971   5.760
 5779SOL    HW129368   4.125   6.956   5.807
 5779SOL    HW229369   4.195   6.997   5.665
 5780SOL     OW29370   5.114   6.161   5.664
 5780SOL    HW129371   5.060   6.140   5.745
 5780SOL    HW229372   5.205   6.120   5.673
 5781SOL     OW29373   4.251   5.842   5.914
 5781SOL    HW129374   4.278   5.783   5.839
 5781SOL    HW229375   4.251   5.937   5.883
 5782SOL     OW29376   4.835   6.781   6.686
 5782SOL    HW129377   4.795   6.825   6.767
 5782SOL    HW229378   4.794   6.818   6.603
 5783SOL     OW29379   5.362   6.685   6.665
 5783SOL    HW129380   5.367   6.766   6.724
 5783SOL    HW229381   5.276   6.687   6.614
 5784SOL     OW29382   4.429   6.636   5.954
 5784SOL    HW129383   4.415   6.643   6.053
 5784SOL    HW229384   4.513   6.585   5.936
 5785SOL     OW29385   4.998   5.972   6.848
 5785SOL    HW129386   5.019   6.046   6.912
 5785SOL    HW229387   4.909   5.989   6.805
 5786SOL     OW29388   4.091   6.686   6.087
 5786SOL    HW129389   4.084   6.769   6.031
 5786SOL    HW229390   4.095   6.606   6.027
 5787SOL     OW29391   4.290   6.123   6.451
 5787SOL    HW129392   4.302   6.189   6.377
 5787SOL    HW229393   4.336   6.157   6.534
 5788SOL     OW29394   4.996   7.031   6.728
 5788SOL    HW129395   5.043   7.044   6.815
 5788SOL    HW229396   4.930   6.957   6.737
 5789SOL     OW29397   5.306   6.225   6.058
 5789SOL    HW129398   5.275   6.286   6.131
 5789SOL    HW229399   5.356   6.277   5.989
 5790SOL     OW29400   4.078   7.096   6.915
 5790SOL    HW129401   4.057   7.052   6.828
 5790SOL    HW229402   4.175   7.122   6.918
 5791SOL     OW29403   4.297   6.456   6.615
 5791SOL    HW129404   4.341   6.545   6.606
 5791SOL    HW229405   4.234   6.456   6.692
 5792SOL     OW29406   5.084   6.448   6.631
 5792SOL    HW129407   5.009   6.448   6.565
 5792SOL    HW229408   5.121   6.356   6.640
 5793SOL     OW29409   4.933   6.111   5.861
 5793SOL    HW129410   4.946   6.027   5.915
 5793SOL    HW229411   4.904   6.185   5.921
 5794SOL     OW29412   4.031   5.799   6.817
 5794SOL    HW129413   4.008   5.836   6.907
 5794SOL    HW229414   4.001   5.704   6.811
 5795SOL     OW29415   3.761   6.896   6.868
 5795SOL    HW129416   3.814   6.847   6.936
 5795SOL    HW229417   3.783   6.994   6.873
 5796SOL     OW29418   4.456   6.220   6.650
 5796SOL    HW129419   4.515   6.194   6.574
 5796SOL    HW229420   4.428   6.316   6.639
 5797SOL     OW29421   4.747   6.352   6.552
 5797SOL    HW129422   4.762   6.373   6.648
 5797SOL    HW229423   4.717   6.257   6.543
 5798SOL     OW29424   5.027   6.424   5.628
 5798SOL    HW129425   5.061   6.331   5.643
 5798SOL    HW229426   5.045   6.451   5.533
 5799SOL     OW29427   4.043   6.396   6.535
 5799SOL    HW129428   4.136   6.432   6.540
 5799SOL    HW229429   4.037   6.311   6.587
 5800SOL     OW29430   4.884   5.793   7.063
 5800SOL    HW129431   4.884   5.857   7.140
 5800SOL    HW229432   4.912   5.841   6.980
 5801SOL     OW29433   3.732   6.912   5.786
 5801SOL    HW129434   3.639   6.933   5.755
 5801SOL    HW229435   3.742   6.813   5.799
 5802SOL     OW29436   3.812   7.387   6.513
 5802SOL    HW129437   3.770   7.301   6.486
 5802SOL    HW229438   3.906   7.390   6.479
 5803SOL     OW29439   4.228   7.154   6.496
 5803SOL    HW129440   4.294   7.228   6.505
 5803SOL    HW229441   4.272   7.075   6.454
 5804SOL     OW29442   4.726   6.382   6.824
 5804SOL    HW129443   4.767   6.350   6.910
 5804SOL    HW229444   4.630   6.355   6.821
 5805SOL     OW29445   4.539   6.158   5.911
 5805SOL    HW129446   4.546   6.069   5.865
 5805SOL    HW229447   4.445   6.192   5.903
 5806SOL     OW29448   5.381   6.190   6.792
 5806SOL    HW129449   5.343   6.121   6.854
 5806SOL    HW229450   5.463   6.154   6.748
 5807SOL     OW29451   4.395   6.050   6.855
 5807SOL    HW129452   4.361   5.961   6.825
 5807SOL    HW229453   4.421   6.104   6.775
 5808SOL     OW29454   4.654   7.264   7.051
 5808SOL    HW129455   4.630   7.246   6.956
 5808SOL    HW229456   4.684   7.358   7.061
 5809SOL     OW29457   4.197   6.086   5.777
 5809SOL    HW129458   4.258   6.166   5.781
 5809SOL    HW229459   4.102   6.117   5.784
 5810SOL     OW29460   5.071   6.645   6.820
 5810SOL    HW129461   5.095   6.582   6.746
 5810SOL    HW229462   4.981   6.685   6.802
 5811SOL     OW29463   5.026   6.441   5.895
 5811SOL    HW129464   4.940   6.410   5.937
 5811SOL    HW229465   5.022   6.427   5.796
 5812SOL     OW29466   5.483   7.333   6.740
 5812SOL    HW129467   5.544   7.363   6.667
 5812SOL    HW229468   5.445   7.244   6.718
 5813SOL     OW29469   4.976   7.317   6.714
 5813SOL    HW129470   5.060   7.322   6.660
 5813SOL    HW229471   4.953   7.221   6.732
 5814SOL     OW29472   3.807   6.844   6.608
 5814SOL    HW129473   3.802   6.843   6.708
 5814SOL    HW229474   3.724   6.803   6.570
 5815SOL     OW29475   5.112   7.159   6.063
 5815SOL    HW129476   5.179   7.171   5.989
 5815SOL    HW229477   5.072   7.248   6.086
 5816SOL     OW29478   5.374   7.306   6.980
 5816SOL    HW129479   5.427   7.316   6.896
 5816SOL    HW229480   5.347   7.396   7.014
 5817SOL     OW29481   5.565   5.761   6.549
 5817SOL    HW129482   5.604   5.676   6.513
 5817SOL    HW229483   5.467   5.763   6.530
 5818SOL     OW29484   4.918   7.198   5.617
 5818SOL    HW129485   4.924   7.105   5.654
 5818SOL    HW229486   4.859   7.198   5.537
 5819SOL     OW29487   4.546   6.588   6.958
 5819SOL    HW129488   4.586   6.587   6.866
 5819SOL    HW229489   4.556   6.680   6.998
 5820SOL     OW29490   4.640   6.496   5.877
 5820SOL    HW129491   4.703   6.534   5.809
 5820SOL    HW229492   4.680   6.413   5.916
 5821SOL     OW29493   4.738   5.822   6.557
 5821SOL    HW129494   4.730   5.786   6.464
 5821SOL    HW229495   4.736   5.746   6.622
 5822SOL     OW29496   5.433   5.971   6.967
 5822SOL    HW129497   5.506   6.040   6.971
 5822SOL    HW229498   5.461   5.896   6.908
 5823SOL     OW29499   3.979   6.934   5.876
 5823SOL    HW129500   3.883   6.935   5.849
 5823SOL    HW229501   3.991   6.987   5.960
 5824SOL     OW29502   3.799   5.931   5.619
 5824SOL    HW129503   3.707   5.903   5.590
 5824SOL    HW229504   3.830   6.008   5.563
 5825SOL     OW29505   3.796   5.752   5.904
 5825SOL    HW129506   3.779   5.835   5.850
 5825SOL    HW229507   3.886   5.715   5.882
 5826SOL     OW29508   5.217   7.353   6.545
 5826SOL    HW129509   5.250   7.417   6.476
 5826SOL    HW229510   5.283   7.347   6.620
 5827SOL     OW29511   5.174   6.806   7.219
 5827SOL    HW129512   5.165   6.796   7.318
 5827SOL    HW229513   5.270   6.799   7.193
 5828SOL     OW29514   5.398   6.469   6.840
 5828SOL    HW129515   5.371   6.380   6.803
 5828SOL    HW229516   5.399   6.537   6.767
 5829SOL     OW29517   4.949   5.911   6.035
 5829SOL    HW129518   5.014   5.837   6.024
 5829SOL    HW229519   4.969   5.961   6.119
 5830SOL     OW29520   4.318   6.331   6.238
 5830SOL    HW129521   4.368   6.416   6.219
 5830SOL    HW229522   4.230   6.333   6.190
 5831SOL     OW29523   5.454   6.520   7.103
 5831SOL    HW129524   5.492   6.611   7.118
 5831SOL    HW229525   5.446   6.503   7.004
 5832SOL     OW29526   4.583   6.542   6.447
 5832SOL    HW129527   4.637   6.473   6.495
 5832SOL    HW229528   4.551   6.611   6.513
 5833SOL     OW29529   4.807   6.570   5.673
 5833SOL    HW129530   4.784   6.623   5.591
 5833SOL    HW229531   4.888   6.514   5.654
 5834SOL     OW29532   5.585   7.155   6.437
 5834SOL    HW129533   5.514   7.143   6.367
 5834SOL    HW229534   5.586   7.076   6.497
 5835SOL     OW29535   3.803   6.826   6.239
 5835SOL    HW129536   3.802   6.779   6.327
 5835SOL    HW229537   3.885   6.798   6.188
 5836SOL     OW29538   5.548   5.778   6.813
 5836SOL    HW129539   5.544   5.688   6.857
 5836SOL    HW229540   5.551   5.767   6.714
 5837SOL     OW29541   4.152   6.010   6.106
 5837SOL    HW129542   4.182   5.938   6.044
 5837SOL    HW229543   4.113   5.970   6.189
 5838SOL     OW29544   5.429   7.073   6.690
 5838SOL    HW129545   5.336   7.048   6.663
 5838SOL    HW229546   5.455   7.023   6.772
 5839SOL     OW29547   4.536   7.172   6.273
 5839SOL    HW129548   4.568   7.182   6.179
 5839SOL    HW229549   4.457   7.110   6.275
 5840SOL     OW29550   5.148   5.800   6.698
 5840SOL    HW129551   5.200   5.735   6.753
 5840SOL    HW229552   5.099   5.863   6.759
 5841SOL     OW29553   4.725   5.620   6.740
 5841SOL    HW129554   4.662   5.548   6.709
 5841SOL    HW229555   4.818   5.584   6.740
 5842SOL     OW29556   5.076   5.638   5.754
 5842SOL    HW129557   5.111   5.597   5.670
 5842SOL    HW229558   4.986   5.600   5.774
 5843SOL     OW29559   5.024   6.039   6.277
 5843SOL    HW129560   4.965   6.119   6.281
 5843SOL    HW229561   5.039   6.004   6.370
 5844SOL     OW29562   5.317   5.807   6.468
 5844SOL    HW129563   5.233   5.806   6.522
 5844SOL    HW229564   5.319   5.890   6.412
 5845SOL     OW29565   3.763   6.663   5.886
 5845SOL    HW129566   3.862   6.652   5.877
 5845SOL    HW229567   3.723   6.577   5.918
 5846SOL     OW29568   4.599   7.232   5.923
 5846SOL    HW129569   4.522   7.197   5.869
 5846SOL    HW229570   4.567   7.303   5.985
 5847SOL     OW29571   3.954   8.076   0.113
 5847SOL    HW129572   3.861   8.074   0.150
 5847SOL    HW229573   3.955   8.037   0.021
 5848SOL     OW29574   3.949   7.723   0.996
 5848SOL    HW129575   3.984   7.706   1.088
 5848SOL    HW229576   3.861   7.678   0.984
 5849SOL     OW29577   3.743   7.816   0.647
 5849SOL    HW129578   3.661   7.859   0.686
 5849SOL    HW229579   3.715   7.743   0.584
 5850SOL     OW29580   5.479   8.055   0.231
 5850SOL    HW129581   5.467   8.042   0.132
 5850SOL    HW229582   5.449   7.974   0.280
 5851SOL     OW29583   4.492   8.592   1.023
 5851SOL    HW129584   4.414   8.609   1.083
 5851SOL    HW229585   4.526   8.679   0.987
 5852SOL     OW29586   4.409   8.460   0.665
 5852SOL    HW129587   4.478   8.444   0.735
 5852SOL    HW229588   4.336   8.517   0.703
 5853SOL     OW29589   3.964   8.539   0.886
 5853SOL    HW129590   3.978   8.455   0.938
 5853SOL    HW229591   3.909   8.603   0.941
 5854SOL     OW29592   5.318   7.562   1.480
 5854SOL    HW129593   5.300   7.629   1.408
 5854SOL    HW229594   5.315   7.608   1.569
 5855SOL     OW29595   3.846   8.091   0.563
 5855SOL    HW129596   3.801   8.003   0.580
 5855SOL    HW229597   3.845   8.145   0.647
 5856SOL     OW29598   4.533   7.452   0.502
 5856SOL    HW129599   4.573   7.543   0.493
 5856SOL    HW229600   4.433   7.460   0.508
 5857SOL     OW29601   3.921   8.424   1.264
 5857SOL    HW129602   4.010   8.379   1.250
 5857SOL    HW229603   3.848   8.359   1.245
 5858SOL     OW29604   5.249   8.447   0.190
 5858SOL    HW129605   5.186   8.371   0.203
 5858SOL    HW229606   5.297   8.465   0.276
 5859SOL     OW29607   4.322   8.177   0.270
 5859SOL    HW129608   4.346   8.246   0.202
 5859SOL    HW229609   4.244   8.210   0.324
 5860SOL     OW29610   4.531   8.053   1.465
 5860SOL    HW129611   4.484   8.050   1.554
 5860SOL    HW229612   4.480   7.998   1.399
 5861SOL     OW29613   5.118   7.917   1.674
 5861SOL    HW129614   5.098   7.960   1.762
 5861SOL    HW229615   5.196   7.855   1.683
 5862SOL     OW29616   4.715   7.858   1.242
 5862SOL    HW129617   4.638   7.892   1.296
 5862SOL    HW229618   4.681   7.807   1.163
 5863SOL     OW29619   4.765   8.149   0.429
 5863SOL    HW129620   4.791   8.145   0.525
 5863SOL    HW229621   4.680   8.098   0.415
 5864SOL     OW29622   3.800   8.259   0.789
 5864SOL    HW129623   3.899   8.247   0.798
 5864SOL    HW229624   3.776   8.354   0.810
 5865SOL     OW29625   4.589   7.796   0.195
 5865SOL    HW129626   4.648   7.859   0.146
 5865SOL    HW229627   4.608   7.702   0.166
 5866SOL     OW29628   5.443   8.033   1.831
 5866SOL    HW129629   5.417   8.122   1.795
 5866SOL    HW229630   5.441   7.965   1.758
 5867SOL     OW29631   4.274   7.644   0.885
 5867SOL    HW129632   4.269   7.639   0.985
 5867SOL    HW229633   4.276   7.740   0.856
 5868SOL     OW29634   3.926   7.733   1.498
 5868SOL    HW129635   3.846   7.793   1.485
 5868SOL    HW229636   3.916   7.684   1.584
 5869SOL     OW29637   5.124   7.555   0.426
 5869SOL    HW129638   5.100   7.518   0.336
 5869SOL    HW229639   5.223   7.571   0.430
 5870SOL     OW29640   4.106   8.148   0.480
 5870SOL    HW129641   4.151   8.058   0.477
 5870SOL    HW229642   4.012   8.137   0.513
 5871SOL     OW29643   4.338   7.570   0.117
 5871SOL    HW129644   4.436   7.548   0.124
 5871SOL    HW229645   4.307   7.553   0.024
 5872SOL     OW29646   5.075   8.038   1.433
 5872SOL    HW129647   5.103   7.995   1.518
 5872SOL    HW229648   5.100   8.134   1.434
 5873SOL     OW29649   4.263   7.512   0.512
 5873SOL    HW129650   4.182   7.513   0.570
 5873SOL    HW229651   4.266   7.595   0.457
 5874SOL     OW29652   4.021   7.483   0.171
 5874SOL    HW129653   4.070   7.567   0.150
 5874SOL    HW229654   4.083   7.418   0.216
 5875SOL     OW29655   4.659   7.684   0.480
 5875SOL    HW129656   4.611   7.725   0.402
 5875SOL    HW229657   4.758   7.682   0.461
 5876SOL     OW29658   4.800   8.131   1.464
 5876SOL    HW129659   4.720   8.070   1.467
 5876SOL    HW229660   4.881   8.078   1.440
 5877SOL     OW29661   4.756   7.997   0.016
 5877SOL    HW129662   4.715   8.079  -0.023
 5877SOL    HW229663   4.820   8.023   0.089
 5878SOL     OW29664   3.802   8.004   1.386
 5878SOL    HW129665   3.894   8.003   1.345
 5878SOL    HW229666   3.796   8.078   1.453
 5879SOL     OW29667   4.741   7.487   0.753
 5879SOL    HW129668   4.669   7.492   0.684
 5879SOL    HW229669   4.717   7.418   0.822
 5880SOL     OW29670   5.581   8.281   0.377
 5880SOL    HW129671   5.623   8.217   0.441
 5880SOL    HW229672   5.543   8.230   0.299
 5881SOL     OW29673   5.114   8.023   0.078
 5881SOL    HW129674   5.060   8.002   0.159
 5881SOL    HW229675   5.205   7.982   0.087
 5882SOL     OW29676   4.251   7.704   0.328
 5882SOL    HW129677   4.278   7.645   0.253
 5882SOL    HW229678   4.251   7.799   0.297
 5883SOL     OW29679   4.639   7.537   1.402
 5883SOL    HW129680   4.664   7.517   1.307
 5883SOL    HW229681   4.711   7.593   1.444
 5884SOL     OW29682   4.134   8.261   1.251
 5884SOL    HW129683   4.220   8.273   1.301
 5884SOL    HW229684   4.092   8.174   1.278
 5885SOL     OW29685   4.998   7.834   1.262
 5885SOL    HW129686   5.019   7.908   1.326
 5885SOL    HW229687   4.909   7.851   1.219
 5886SOL     OW29688   4.290   7.985   0.865
 5886SOL    HW129689   4.302   8.051   0.791
 5886SOL    HW229690   4.336   8.019   0.948
 5887SOL     OW29691   5.311   8.227   1.670
 5887SOL    HW129692   5.219   8.265   1.665
 5887SOL    HW229693   5.371   8.274   1.605
 5888SOL     OW29694   4.297   8.318   1.029
 5888SOL    HW129695   4.341   8.407   1.020
 5888SOL    HW229696   4.234   8.318   1.106
 5889SOL     OW29697   4.933   7.973   0.275
 5889SOL    HW129698   4.946   7.889   0.329
 5889SOL    HW229699   4.904   8.047   0.335
 5890SOL     OW29700   4.456   8.082   1.064
 5890SOL    HW129701   4.515   8.056   0.988
 5890SOL    HW229702   4.428   8.178   1.053
 5891SOL     OW29703   5.452   8.383   1.854
 5891SOL    HW129704   5.406   8.376   1.765
 5891SOL    HW229705   5.390   8.427   1.920
 5892SOL     OW29706   4.031   7.511   0.618
 5892SOL    HW129707   4.020   7.605   0.651
 5892SOL    HW229708   4.026   7.448   0.695
 5893SOL     OW29709   5.346   7.815   0.374
 5893SOL    HW129710   5.348   7.739   0.438
 5893SOL    HW229711   5.298   7.892   0.414
 5894SOL     OW29712   4.747   8.214   0.966
 5894SOL    HW129713   4.762   8.235   1.062
 5894SOL    HW229714   4.717   8.119   0.957
 5895SOL     OW29715   4.074   8.346   1.804
 5895SOL    HW129716   4.150   8.390   1.852
 5895SOL    HW229717   4.109   8.299   1.722
 5896SOL     OW29718   5.264   7.722   0.125
 5896SOL    HW129719   5.203   7.647   0.148
 5896SOL    HW229720   5.286   7.774   0.208
 5897SOL     OW29721   5.027   8.286   0.042
 5897SOL    HW129722   5.061   8.193   0.057
 5897SOL    HW229723   5.045   8.313  -0.053
 5898SOL     OW29724   4.043   8.258   0.949
 5898SOL    HW129725   4.136   8.294   0.954
 5898SOL    HW229726   4.037   8.173   1.001
 5899SOL     OW29727   4.063   7.957   1.006
 5899SOL    HW129728   4.011   7.874   0.989
 5899SOL    HW229729   4.140   7.962   0.942
 5900SOL     OW29730   4.884   7.655   1.477
 5900SOL    HW129731   4.884   7.719   1.554
 5900SOL    HW229732   4.912   7.703   1.394
 5901SOL     OW29733   4.726   8.244   1.238
 5901SOL    HW129734   4.767   8.212   1.324
 5901SOL    HW229735   4.630   8.217   1.235
 5902SOL     OW29736   3.764   7.992   1.114
 5902SOL    HW129737   3.849   7.959   1.073
 5902SOL    HW229738   3.777   8.007   1.212
 5903SOL     OW29739   5.093   8.398   1.660
 5903SOL    HW129740   5.132   8.487   1.680
 5903SOL    HW229741   5.103   8.378   1.563
 5904SOL     OW29742   4.539   8.020   0.325
 5904SOL    HW129743   4.546   7.931   0.279
 5904SOL    HW229744   4.445   8.054   0.317
 5905SOL     OW29745   5.381   8.052   1.206
 5905SOL    HW129746   5.343   7.983   1.268
 5905SOL    HW229747   5.463   8.016   1.162
 5906SOL     OW29748   4.197   7.948   0.191
 5906SOL    HW129749   4.258   8.028   0.195
 5906SOL    HW229750   4.102   7.979   0.198
 5907SOL     OW29751   3.883   8.585   1.466
 5907SOL    HW129752   3.905   8.524   1.542
 5907SOL    HW229753   3.893   8.536   1.380
 5908SOL     OW29754   5.071   8.507   1.234
 5908SOL    HW129755   5.095   8.444   1.160
 5908SOL    HW229756   4.981   8.547   1.216
 5909SOL     OW29757   5.026   8.303   0.309
 5909SOL    HW129758   4.940   8.272   0.351
 5909SOL    HW229759   5.022   8.289   0.210
 5910SOL     OW29760   4.627   7.534   0.133
 5910SOL    HW129761   4.678   7.535   0.047
 5910SOL    HW229762   4.683   7.492   0.204
 5911SOL     OW29763   5.450   7.583   0.523
 5911SOL    HW129764   5.523   7.566   0.456
 5911SOL    HW229765   5.419   7.496   0.561
 5912SOL     OW29766   5.565   7.623   0.963
 5912SOL    HW129767   5.604   7.538   0.927
 5912SOL    HW229768   5.467   7.625   0.944
 5913SOL     OW29769   3.987   7.774   0.720
 5913SOL    HW129770   3.908   7.825   0.686
 5913SOL    HW229771   3.978   7.759   0.818
 5914SOL     OW29772   4.640   8.358   0.291
 5914SOL    HW129773   4.703   8.396   0.223
 5914SOL    HW229774   4.680   8.275   0.330
 5915SOL     OW29775   4.738   7.684   0.971
 5915SOL    HW129776   4.730   7.648   0.878
 5915SOL    HW229777   4.736   7.608   1.036
 5916SOL     OW29778   5.433   7.833   1.381
 5916SOL    HW129779   5.506   7.902   1.385
 5916SOL    HW229780   5.461   7.758   1.322
 5917SOL     OW29781   5.164   8.304   1.398
 5917SOL    HW129782   5.107   8.356   1.335
 5917SOL    HW229783   5.260   8.316   1.374
 5918SOL     OW29784   3.796   7.614   0.318
 5918SOL    HW129785   3.779   7.697   0.264
 5918SOL    HW229786   3.886   7.577   0.296
 5919SOL     OW29787   4.337   8.290   1.431
 5919SOL    HW129788   4.393   8.371   1.414
 5919SOL    HW229789   4.396   8.210   1.434
 5920SOL     OW29790   5.398   8.331   1.254
 5920SOL    HW129791   5.371   8.242   1.217
 5920SOL    HW229792   5.399   8.399   1.181
 5921SOL     OW29793   4.949   7.773   0.449
 5921SOL    HW129794   5.014   7.699   0.438
 5921SOL    HW229795   4.969   7.823   0.533
 5922SOL     OW29796   4.318   8.193   0.652
 5922SOL    HW129797   4.368   8.278   0.633
 5922SOL    HW229798   4.230   8.195   0.604
 5923SOL     OW29799   5.501   7.790   1.642
 5923SOL    HW129800   5.484   7.821   1.548
 5923SOL    HW229801   5.417   7.753   1.680
 5924SOL     OW29802   5.454   8.382   1.517
 5924SOL    HW129803   5.492   8.473   1.532
 5924SOL    HW229804   5.446   8.365   1.418
 5925SOL     OW29805   4.807   8.432   0.087
 5925SOL    HW129806   4.784   8.485   0.005
 5925SOL    HW229807   4.888   8.376   0.068
 5926SOL     OW29808   5.548   7.640   1.227
 5926SOL    HW129809   5.544   7.550   1.271
 5926SOL    HW229810   5.551   7.629   1.128
 5927SOL     OW29811   4.152   7.872   0.520
 5927SOL    HW129812   4.182   7.800   0.458
 5927SOL    HW229813   4.113   7.832   0.603
 5928SOL     OW29814   5.148   7.662   1.112
 5928SOL    HW129815   5.200   7.597   1.167
 5928SOL    HW229816   5.099   7.725   1.173
 5929SOL     OW29817   4.725   7.482   1.154
 5929SOL    HW129818   4.662   7.410   1.123
 5929SOL    HW229819   4.818   7.446   1.154
 5930SOL     OW29820   5.076   7.500   0.168
 5930SOL    HW129821   5.111   7.459   0.084
 5930SOL    HW229822   4.986   7.462   0.188
 5931SOL     OW29823   5.317   7.669   0.882
 5931SOL    HW129824   5.233   7.668   0.936
 5931SOL    HW229825   5.319   7.752   0.826
 5932SOL     OW29826   3.763   8.525   0.300
 5932SOL    HW129827   3.862   8.514   0.291
 5932SOL    HW229828   3.723   8.439   0.332
 5933SOL     OW29829   3.949   7.723   2.858
 5933SOL    HW129830   3.984   7.706   2.950
 5933SOL    HW229831   3.861   7.678   2.846
 5934SOL     OW29832   4.409   8.460   2.527
 5934SOL    HW129833   4.478   8.444   2.597
 5934SOL    HW229834   4.336   8.517   2.565
 5935SOL     OW29835   5.249   8.447   2.052
 5935SOL    HW129836   5.186   8.371   2.065
 5935SOL    HW229837   5.297   8.465   2.138
 5936SOL     OW29838   4.041   7.699   3.663
 5936SOL    HW129839   4.112   7.770   3.669
 5936SOL    HW229840   3.953   7.738   3.691
 5937SOL     OW29841   4.322   8.177   2.132
 5937SOL    HW129842   4.346   8.246   2.064
 5937SOL    HW229843   4.244   8.210   2.186
 5938SOL     OW29844   5.005   7.793   2.806
 5938SOL    HW129845   4.919   7.743   2.793
 5938SOL    HW229846   5.067   7.739   2.862
 5939SOL     OW29847   4.697   8.338   3.434
 5939SOL    HW129848   4.743   8.254   3.405
 5939SOL    HW229849   4.641   8.372   3.359
 5940SOL     OW29850   3.926   7.733   3.360
 5940SOL    HW129851   3.846   7.793   3.347
 5940SOL    HW229852   3.916   7.684   3.446
 5941SOL     OW29853   4.106   8.148   2.342
 5941SOL    HW129854   4.151   8.058   2.339
 5941SOL    HW229855   4.012   8.137   2.375
 5942SOL     OW29856   4.021   7.483   2.033
 5942SOL    HW129857   4.070   7.567   2.012
 5942SOL    HW229858   4.083   7.418   2.078
 5943SOL     OW29859   4.800   8.131   3.326
 5943SOL    HW129860   4.720   8.070   3.329
 5943SOL    HW229861   4.881   8.078   3.302
 5944SOL     OW29862   3.802   8.004   3.248
 5944SOL    HW129863   3.894   8.003   3.207
 5944SOL    HW229864   3.796   8.078   3.315
 5945SOL     OW29865   4.590   7.902   2.504
 5945SOL    HW129866   4.558   7.974   2.442
 5945SOL    HW229867   4.614   7.821   2.451
 5946SOL     OW29868   4.741   7.487   2.615
 5946SOL    HW129869   4.669   7.492   2.546
 5946SOL    HW229870   4.717   7.418   2.684
 5947SOL     OW29871   5.581   8.281   2.239
 5947SOL    HW129872   5.623   8.217   2.303
 5947SOL    HW229873   5.543   8.230   2.161
 5948SOL     OW29874   5.362   8.547   2.941
 5948SOL    HW129875   5.367   8.628   3.000
 5948SOL    HW229876   5.276   8.549   2.890
 5949SOL     OW29877   4.998   7.834   3.124
 5949SOL    HW129878   5.019   7.908   3.188
 5949SOL    HW229879   4.909   7.851   3.081
 5950SOL     OW29880   5.306   8.087   2.334
 5950SOL    HW129881   5.275   8.148   2.407
 5950SOL    HW229882   5.356   8.139   2.265
 5951SOL     OW29883   4.126   8.199   3.460
 5951SOL    HW129884   4.194   8.254   3.413
 5951SOL    HW229885   4.166   8.111   3.487
 5952SOL     OW29886   4.737   7.553   3.632
 5952SOL    HW129887   4.743   7.638   3.580
 5952SOL    HW229888   4.769   7.477   3.575
 5953SOL     OW29889   4.297   8.318   2.891
 5953SOL    HW129890   4.341   8.407   2.882
 5953SOL    HW229891   4.234   8.318   2.968
 5954SOL     OW29892   5.084   8.310   2.907
 5954SOL    HW129893   5.009   8.310   2.841
 5954SOL    HW229894   5.121   8.218   2.916
 5955SOL     OW29895   4.933   7.973   2.137
 5955SOL    HW129896   4.946   7.889   2.191
 5955SOL    HW229897   4.904   8.047   2.197
 5956SOL     OW29898   4.031   7.661   3.093
 5956SOL    HW129899   4.008   7.698   3.183
 5956SOL    HW229900   4.001   7.566   3.087
 5957SOL     OW29901   5.452   8.383   3.716
 5957SOL    HW129902   5.406   8.376   3.627
 5957SOL    HW229903   5.390   8.427   3.782
 5958SOL     OW29904   4.074   8.346   3.666
 5958SOL    HW129905   4.150   8.390   3.714
 5958SOL    HW229906   4.109   8.299   3.584
 5959SOL     OW29907   4.043   8.258   2.811
 5959SOL    HW129908   4.136   8.294   2.816
 5959SOL    HW229909   4.037   8.173   2.863
 5960SOL     OW29910   4.884   7.655   3.339
 5960SOL    HW129911   4.884   7.719   3.416
 5960SOL    HW229912   4.912   7.703   3.256
 5961SOL     OW29913   4.726   8.244   3.100
 5961SOL    HW129914   4.767   8.212   3.186
 5961SOL    HW229915   4.630   8.217   3.097
 5962SOL     OW29916   3.913   7.968   3.584
 5962SOL    HW129917   3.972   7.928   3.514
 5962SOL    HW229918   3.855   8.039   3.543
 5963SOL     OW29919   5.093   8.398   3.522
 5963SOL    HW129920   5.132   8.487   3.542
 5963SOL    HW229921   5.103   8.378   3.425
 5964SOL     OW29922   4.539   8.020   2.187
 5964SOL    HW129923   4.546   7.931   2.141
 5964SOL    HW229924   4.445   8.054   2.179
 5965SOL     OW29925   3.883   8.585   3.328
 5965SOL    HW129926   3.905   8.524   3.404
 5965SOL    HW229927   3.893   8.536   3.242
 5966SOL     OW29928   5.026   8.303   2.171
 5966SOL    HW129929   4.940   8.272   2.213
 5966SOL    HW229930   5.022   8.289   2.072
 5967SOL     OW29931   3.829   8.461   3.588
 5967SOL    HW129932   3.752   8.428   3.642
 5967SOL    HW229933   3.914   8.431   3.630
 5968SOL     OW29934   4.396   7.651   3.351
 5968SOL    HW129935   4.486   7.635   3.311
 5968SOL    HW229936   4.404   7.656   3.450
 5969SOL     OW29937   4.318   8.193   2.514
 5969SOL    HW129938   4.368   8.278   2.495
 5969SOL    HW229939   4.230   8.195   2.466
 5970SOL     OW29940   5.548   7.640   3.089
 5970SOL    HW129941   5.544   7.550   3.133
 5970SOL    HW229942   5.551   7.629   2.990
 5971SOL     OW29943   4.152   7.872   2.382
 5971SOL    HW129944   4.182   7.800   2.320
 5971SOL    HW229945   4.113   7.832   2.465
 5972SOL     OW29946   5.148   7.662   2.974
 5972SOL    HW129947   5.200   7.597   3.029
 5972SOL    HW229948   5.099   7.725   3.035
 5973SOL     OW29949   5.024   7.901   2.553
 5973SOL    HW129950   4.965   7.981   2.557
 5973SOL    HW229951   5.039   7.866   2.646
 5974SOL     OW29952   5.317   7.669   2.744
 5974SOL    HW129953   5.233   7.668   2.798
 5974SOL    HW229954   5.319   7.752   2.688
 5975SOL     OW29955   3.949   7.723   4.720
 5975SOL    HW129956   3.984   7.706   4.812
 5975SOL    HW229957   3.861   7.678   4.708
 5976SOL     OW29958   4.859   8.151   4.441
 5976SOL    HW129959   4.916   8.229   4.416
 5976SOL    HW229960   4.799   8.177   4.517
 5977SOL     OW29961   4.531   8.053   5.189
 5977SOL    HW129962   4.484   8.050   5.278
 5977SOL    HW229963   4.480   7.998   5.123
 5978SOL     OW29964   5.118   7.917   5.398
 5978SOL    HW129965   5.098   7.960   5.486
 5978SOL    HW229966   5.196   7.855   5.407
 5979SOL     OW29967   4.715   7.858   4.966
 5979SOL    HW129968   4.638   7.892   5.020
 5979SOL    HW229969   4.681   7.807   4.887
 5980SOL     OW29970   4.765   8.149   4.153
 5980SOL    HW129971   4.791   8.145   4.249
 5980SOL    HW229972   4.680   8.098   4.139
 5981SOL     OW29973   3.926   7.733   5.222
 5981SOL    HW129974   3.846   7.793   5.209
 5981SOL    HW229975   3.916   7.684   5.308
 5982SOL     OW29976   5.124   7.555   4.150
 5982SOL    HW129977   5.100   7.518   4.060
 5982SOL    HW229978   5.223   7.571   4.154
 5983SOL     OW29979   5.271   7.670   5.453
 5983SOL    HW129980   5.266   7.707   5.545
 5983SOL    HW229981   5.199   7.601   5.441
 5984SOL     OW29982   4.505   7.712   5.473
 5984SOL    HW129983   4.572   7.651   5.516
 5984SOL    HW229984   4.432   7.731   5.538
 5985SOL     OW29985   5.075   8.038   5.157
 5985SOL    HW129986   5.103   7.995   5.242
 5985SOL    HW229987   5.100   8.134   5.158
 5986SOL     OW29988   4.800   8.131   5.188
 5986SOL    HW129989   4.720   8.070   5.191
 5986SOL    HW229990   4.881   8.078   5.164
 5987SOL     OW29991   4.639   7.537   5.126
 5987SOL    HW129992   4.664   7.517   5.031
 5987SOL    HW229993   4.711   7.593   5.168
 5988SOL     OW29994   4.126   8.199   5.322
 5988SOL    HW129995   4.194   8.254   5.275
 5988SOL    HW229996   4.166   8.111   5.349
 5989SOL     OW29997   4.737   7.553   5.494
 5989SOL    HW129998   4.743   7.638   5.442
 5989SOL    HW229999   4.769   7.477   5.437
 5990SOL     OW30000   4.228   7.498   5.464
 5990SOL    HW130001   4.186   7.441   5.394
 5990SOL    HW230002   4.162   7.567   5.496
 5991SOL     OW30003   5.084   8.310   4.769
 5991SOL    HW130004   5.009   8.310   4.703
 5991SOL    HW230005   5.121   8.218   4.778
 5992SOL     OW30006   4.031   7.661   4.955
 5992SOL    HW130007   4.008   7.698   5.045
 5992SOL    HW230008   4.001   7.566   4.949
 5993SOL     OW30009   5.452   8.383   5.578
 5993SOL    HW130010   5.406   8.376   5.489
 5993SOL    HW230011   5.390   8.427   5.644
 5994SOL     OW30012   4.031   7.511   4.342
 5994SOL    HW130013   4.020   7.605   4.375
 5994SOL    HW230014   4.026   7.448   4.419
 5995SOL     OW30015   4.074   8.346   5.528
 5995SOL    HW130016   4.150   8.390   5.576
 5995SOL    HW230017   4.109   8.299   5.446
 5996SOL     OW30018   5.027   8.286   3.766
 5996SOL    HW130019   5.061   8.193   3.781
 5996SOL    HW230020   5.045   8.313   3.671
 5997SOL     OW30021   4.862   7.828   5.402
 5997SOL    HW130022   4.817   7.891   5.466
 5997SOL    HW230023   4.955   7.859   5.385
 5998SOL     OW30024   4.884   7.655   5.201
 5998SOL    HW130025   4.884   7.719   5.278
 5998SOL    HW230026   4.912   7.703   5.118
 5999SOL     OW30027   3.764   7.992   4.838
 5999SOL    HW130028   3.849   7.959   4.797
 5999SOL    HW230029   3.777   8.007   4.936
 6000SOL     OW30030   5.093   8.398   5.384
 6000SOL    HW130031   5.132   8.487   5.404
 6000SOL    HW230032   5.103   8.378   5.287
 6001SOL     OW30033   4.395   7.912   4.993
 6001SOL    HW130034   4.361   7.823   4.963
 6001SOL    HW230035   4.421   7.966   4.913
 6002SOL     OW30036   5.004   8.375   4.396
 6002SOL    HW130037   5.064   8.294   4.398
 6002SOL    HW230038   5.044   8.444   4.336
 6003SOL     OW30039   4.640   8.358   4.015
 6003SOL    HW130040   4.703   8.396   3.947
 6003SOL    HW230041   4.680   8.275   4.054
 6004SOL     OW30042   3.829   8.461   5.450
 6004SOL    HW130043   3.752   8.428   5.504
 6004SOL    HW230044   3.914   8.431   5.492
 6005SOL     OW30045   4.396   7.651   5.213
 6005SOL    HW130046   4.486   7.635   5.173
 6005SOL    HW230047   4.404   7.656   5.312
 6006SOL     OW30048   4.337   8.290   5.155
 6006SOL    HW130049   4.393   8.371   5.138
 6006SOL    HW230050   4.396   8.210   5.158
 6007SOL     OW30051   4.440   8.013   5.432
 6007SOL    HW130052   4.459   8.078   5.506
 6007SOL    HW230053   4.500   7.933   5.441
 6008SOL     OW30054   3.954   8.076   5.699
 6008SOL    HW130055   3.861   8.074   5.736
 6008SOL    HW230056   3.955   8.037   5.607
 6009SOL     OW30057   3.949   7.723   6.582
 6009SOL    HW130058   3.984   7.706   6.674
 6009SOL    HW230059   3.861   7.678   6.570
 6010SOL     OW30060   3.743   7.816   6.233
 6010SOL    HW130061   3.661   7.859   6.272
 6010SOL    HW230062   3.715   7.743   6.170
 6011SOL     OW30063   4.859   8.151   6.303
 6011SOL    HW130064   4.916   8.229   6.278
 6011SOL    HW230065   4.799   8.177   6.379
 6012SOL     OW30066   5.479   8.055   5.817
 6012SOL    HW130067   5.467   8.042   5.718
 6012SOL    HW230068   5.449   7.974   5.866
 6013SOL     OW30069   4.492   8.592   6.609
 6013SOL    HW130070   4.414   8.609   6.669
 6013SOL    HW230071   4.526   8.679   6.573
 6014SOL     OW30072   4.409   8.460   6.251
 6014SOL    HW130073   4.478   8.444   6.321
 6014SOL    HW230074   4.336   8.517   6.289
 6015SOL     OW30075   5.327   7.895   6.323
 6015SOL    HW130076   5.253   7.941   6.273
 6015SOL    HW230077   5.378   7.963   6.376
 6016SOL     OW30078   3.964   8.539   6.472
 6016SOL    HW130079   3.978   8.455   6.524
 6016SOL    HW230080   3.909   8.603   6.527
 6017SOL     OW30081   3.921   8.424   6.850
 6017SOL    HW130082   4.010   8.379   6.836
 6017SOL    HW230083   3.848   8.359   6.831
 6018SOL     OW30084   5.249   8.447   5.776
 6018SOL    HW130085   5.186   8.371   5.789
 6018SOL    HW230086   5.297   8.465   5.862
 6019SOL     OW30087   4.322   8.177   5.856
 6019SOL    HW130088   4.346   8.246   5.788
 6019SOL    HW230089   4.244   8.210   5.910
 6020SOL     OW30090   5.005   7.793   6.530
 6020SOL    HW130091   4.919   7.743   6.517
 6020SOL    HW230092   5.067   7.739   6.586
 6021SOL     OW30093   4.715   7.858   6.828
 6021SOL    HW130094   4.638   7.892   6.882
 6021SOL    HW230095   4.681   7.807   6.749
 6022SOL     OW30096   4.765   8.149   6.015
 6022SOL    HW130097   4.791   8.145   6.111
 6022SOL    HW230098   4.680   8.098   6.001
 6023SOL     OW30099   3.800   8.259   6.375
 6023SOL    HW130100   3.899   8.247   6.384
 6023SOL    HW230101   3.776   8.354   6.396
 6024SOL     OW30102   4.589   7.796   5.781
 6024SOL    HW130103   4.648   7.859   5.732
 6024SOL    HW230104   4.608   7.702   5.752
 6025SOL     OW30105   5.182   8.183   6.314
 6025SOL    HW130106   5.177   8.118   6.389
 6025SOL    HW230107   5.262   8.242   6.327
 6026SOL     OW30108   5.124   7.555   6.012
 6026SOL    HW130109   5.100   7.518   5.922
 6026SOL    HW230110   5.223   7.571   6.016
 6027SOL     OW30111   4.338   7.570   5.703
 6027SOL    HW130112   4.436   7.548   5.710
 6027SOL    HW230113   4.307   7.553   5.610
 6028SOL     OW30114   4.646   7.951   6.485
 6028SOL    HW130115   4.621   7.942   6.389
 6028SOL    HW230116   4.694   7.869   6.516
 6029SOL     OW30117   4.756   7.997   5.602
 6029SOL    HW130118   4.715   8.079   5.563
 6029SOL    HW230119   4.820   8.023   5.675
 6030SOL     OW30120   4.285   7.670   6.733
 6030SOL    HW130121   4.323   7.586   6.770
 6030SOL    HW230122   4.197   7.689   6.777
 6031SOL     OW30123   4.741   7.487   6.339
 6031SOL    HW130124   4.669   7.492   6.270
 6031SOL    HW230125   4.717   7.418   6.408
 6032SOL     OW30126   5.190   8.038   6.578
 6032SOL    HW130127   5.160   7.943   6.585
 6032SOL    HW230128   5.263   8.054   6.644
 6033SOL     OW30129   5.581   8.281   5.963
 6033SOL    HW130130   5.623   8.217   6.027
 6033SOL    HW230131   5.543   8.230   5.885
 6034SOL     OW30132   5.114   8.023   5.664
 6034SOL    HW130133   5.060   8.002   5.745
 6034SOL    HW230134   5.205   7.982   5.673
 6035SOL     OW30135   5.362   8.547   6.665
 6035SOL    HW130136   5.367   8.628   6.724
 6035SOL    HW230137   5.276   8.549   6.614
 6036SOL     OW30138   4.134   8.261   6.837
 6036SOL    HW130139   4.220   8.273   6.887
 6036SOL    HW230140   4.092   8.174   6.864
 6037SOL     OW30141   4.998   7.834   6.848
 6037SOL    HW130142   5.019   7.908   6.912
 6037SOL    HW230143   4.909   7.851   6.805
 6038SOL     OW30144   4.290   7.985   6.451
 6038SOL    HW130145   4.302   8.051   6.377
 6038SOL    HW230146   4.336   8.019   6.534
 6039SOL     OW30147   5.306   8.087   6.058
 6039SOL    HW130148   5.275   8.148   6.131
 6039SOL    HW230149   5.356   8.139   5.989
 6040SOL     OW30150   4.297   8.318   6.615
 6040SOL    HW130151   4.341   8.407   6.606
 6040SOL    HW230152   4.234   8.318   6.692
 6041SOL     OW30153   5.084   8.310   6.631
 6041SOL    HW130154   5.009   8.310   6.565
 6041SOL    HW230155   5.121   8.218   6.640
 6042SOL     OW30156   4.933   7.973   5.861
 6042SOL    HW130157   4.946   7.889   5.915
 6042SOL    HW230158   4.904   8.047   5.921
 6043SOL     OW30159   4.031   7.661   6.817
 6043SOL    HW130160   4.008   7.698   6.907
 6043SOL    HW230161   4.001   7.566   6.811
 6044SOL     OW30162   4.456   8.082   6.650
 6044SOL    HW130163   4.515   8.056   6.574
 6044SOL    HW230164   4.428   8.178   6.639
 6045SOL     OW30165   4.031   7.511   6.204
 6045SOL    HW130166   4.020   7.605   6.237
 6045SOL    HW230167   4.026   7.448   6.281
 6046SOL     OW30168   5.346   7.815   5.960
 6046SOL    HW130169   5.348   7.739   6.024
 6046SOL    HW230170   5.298   7.892   6.000
 6047SOL     OW30171   4.747   8.214   6.552
 6047SOL    HW130172   4.762   8.235   6.648
 6047SOL    HW230173   4.717   8.119   6.543
 6048SOL     OW30174   5.264   7.722   5.711
 6048SOL    HW130175   5.203   7.647   5.734
 6048SOL    HW230176   5.286   7.774   5.794
 6049SOL     OW30177   5.027   8.286   5.628
 6049SOL    HW130178   5.061   8.193   5.643
 6049SOL    HW230179   5.045   8.313   5.533
 6050SOL     OW30180   4.043   8.258   6.535
 6050SOL    HW130181   4.136   8.294   6.540
 6050SOL    HW230182   4.037   8.173   6.587
 6051SOL     OW30183   4.063   7.957   6.592
 6051SOL    HW130184   4.011   7.874   6.575
 6051SOL    HW230185   4.140   7.962   6.528
 6052SOL     OW30186   4.884   7.655   7.063
 6052SOL    HW130187   4.884   7.719   7.140
 6052SOL    HW230188   4.912   7.703   6.980
 6053SOL     OW30189   4.726   8.244   6.824
 6053SOL    HW130190   4.767   8.212   6.910
 6053SOL    HW230191   4.630   8.217   6.821
 6054SOL     OW30192   3.764   7.992   6.700
 6054SOL    HW130193   3.849   7.959   6.659
 6054SOL    HW230194   3.777   8.007   6.798
 6055SOL     OW30195   5.381   8.052   6.792
 6055SOL    HW130196   5.343   7.983   6.854
 6055SOL    HW230197   5.463   8.016   6.748
 6056SOL     OW30198   4.395   7.912   6.855
 6056SOL    HW130199   4.361   7.823   6.825
 6056SOL    HW230200   4.421   7.966   6.775
 6057SOL     OW30201   5.071   8.507   6.820
 6057SOL    HW130202   5.095   8.444   6.746
 6057SOL    HW230203   4.981   8.547   6.802
 6058SOL     OW30204   5.026   8.303   5.895
 6058SOL    HW130205   4.940   8.272   5.937
 6058SOL    HW230206   5.022   8.289   5.796
 6059SOL     OW30207   5.450   7.583   6.109
 6059SOL    HW130208   5.523   7.566   6.042
 6059SOL    HW230209   5.419   7.496   6.147
 6060SOL     OW30210   5.004   8.375   6.258
 6060SOL    HW130211   5.064   8.294   6.260
 6060SOL    HW230212   5.044   8.444   6.198
 6061SOL     OW30213   5.565   7.623   6.549
 6061SOL    HW130214   5.604   7.538   6.513
 6061SOL    HW230215   5.467   7.625   6.530
 6062SOL     OW30216   3.987   7.774   6.306
 6062SOL    HW130217   3.908   7.825   6.272
 6062SOL    HW230218   3.978   7.759   6.404
 6063SOL     OW30219   4.640   8.358   5.877
 6063SOL    HW130220   4.703   8.396   5.809
 6063SOL    HW230221   4.680   8.275   5.916
 6064SOL     OW30222   4.738   7.684   6.557
 6064SOL    HW130223   4.730   7.648   6.464
 6064SOL    HW230224   4.736   7.608   6.622
 6065SOL     OW30225   5.433   7.833   6.967
 6065SOL    HW130226   5.506   7.902   6.971
 6065SOL    HW230227   5.461   7.758   6.908
 6066SOL     OW30228   3.796   7.614   5.904
 6066SOL    HW130229   3.779   7.697   5.850
 6066SOL    HW230230   3.886   7.577   5.882
 6067SOL     OW30231   5.398   8.331   6.840
 6067SOL    HW130232   5.371   8.242   6.803
 6067SOL    HW230233   5.399   8.399   6.767
 6068SOL     OW30234   4.949   7.773   6.035
 6068SOL    HW130235   5.014   7.699   6.024
 6068SOL    HW230236   4.969   7.823   6.119
 6069SOL     OW30237   5.454   8.382   7.103
 6069SOL    HW130238   5.492   8.473   7.118
 6069SOL    HW230239   5.446   8.365   7.004
 6070SOL     OW30240   5.548   7.640   6.813
 6070SOL    HW130241   5.544   7.550   6.857
 6070SOL    HW230242   5.551   7.629   6.714
 6071SOL     OW30243   5.148   7.662   6.698
 6071SOL    HW130244   5.200   7.597   6.753
 6071SOL    HW230245   5.099   7.725   6.759
 6072SOL     OW30246   4.725   7.482   6.740
 6072SOL    HW130247   4.662   7.410   6.709
 6072SOL    HW230248   4.818   7.446   6.740
 6073SOL     OW30249   5.024   7.901   6.277
 6073SOL    HW130250   4.965   7.981   6.281
 6073SOL    HW230251   5.039   7.866   6.370
 6074SOL     OW30252   5.317   7.669   6.468
 6074SOL    HW130253   5.233   7.668   6.522
 6074SOL    HW230254   5.319   7.752   6.412
 6075SOL     OW30255   5.816   0.628   0.113
 6075SOL    HW130256   5.723   0.626   0.150
 6075SOL    HW230257   5.817   0.589   0.021
 6076SOL     OW30258   5.811   0.275   0.996
 6076SOL    HW130259   5.846   0.258   1.088
 6076SOL    HW230260   5.723   0.230   0.984
 6077SOL     OW30261   5.605   0.368   0.647
 6077SOL    HW130262   5.523   0.411   0.686
 6077SOL    HW230263   5.577   0.295   0.584
 6078SOL     OW30264   6.155   1.275   1.165
 6078SOL    HW130265   6.062   1.268   1.128
 6078SOL    HW230266   6.166   1.364   1.209
 6079SOL     OW30267   7.141   1.511   0.703
 6079SOL    HW130268   7.084   1.495   0.784
 6079SOL    HW230269   7.082   1.521   0.623
 6080SOL     OW30270   6.721   0.703   0.717
 6080SOL    HW130271   6.778   0.781   0.692
 6080SOL    HW230272   6.661   0.729   0.793
 6081SOL     OW30273   7.341   0.607   0.231
 6081SOL    HW130274   7.329   0.594   0.132
 6081SOL    HW230275   7.311   0.526   0.280
 6082SOL     OW30276   6.354   1.144   1.023
 6082SOL    HW130277   6.276   1.161   1.083
 6082SOL    HW230278   6.388   1.231   0.987
 6083SOL     OW30279   6.436   0.798   1.823
 6083SOL    HW130280   6.432   0.874   1.888
 6083SOL    HW230281   6.458   0.834   1.732
 6084SOL     OW30282   6.271   1.012   0.665
 6084SOL    HW130283   6.340   0.996   0.735
 6084SOL    HW230284   6.198   1.069   0.703
 6085SOL     OW30285   5.921   1.435   1.061
 6085SOL    HW130286   5.843   1.404   1.008
 6085SOL    HW230287   5.979   1.493   1.004
 6086SOL     OW30288   7.046   1.505   1.339
 6086SOL    HW130289   7.070   1.599   1.365
 6086SOL    HW230290   7.030   1.451   1.421
 6087SOL     OW30291   7.189   0.447   0.737
 6087SOL    HW130292   7.115   0.493   0.687
 6087SOL    HW230293   7.240   0.515   0.790
 6088SOL     OW30294   5.817   1.713   0.483
 6088SOL    HW130295   5.851   1.790   0.537
 6088SOL    HW230296   5.861   1.713   0.393
 6089SOL     OW30297   6.713   1.341   1.690
 6089SOL    HW130298   6.760   1.341   1.778
 6089SOL    HW230299   6.665   1.254   1.679
 6090SOL     OW30300   5.816   1.434   0.538
 6090SOL    HW130301   5.790   1.530   0.538
 6090SOL    HW230302   5.745   1.380   0.583
 6091SOL     OW30303   5.826   1.091   0.886
 6091SOL    HW130304   5.840   1.007   0.938
 6091SOL    HW230305   5.771   1.155   0.941
 6092SOL     OW30306   6.206   1.786   1.439
 6092SOL    HW130307   6.114   1.769   1.474
 6092SOL    HW230308   6.234   1.878   1.465
 6093SOL     OW30309   6.192   0.964   0.123
 6093SOL    HW130310   6.199   1.048   0.069
 6093SOL    HW230311   6.238   0.977   0.211
 6094SOL     OW30312   7.180   0.114   1.480
 6094SOL    HW130313   7.162   0.181   1.408
 6094SOL    HW230314   7.177   0.160   1.569
 6095SOL     OW30315   5.708   0.643   0.563
 6095SOL    HW130316   5.663   0.555   0.580
 6095SOL    HW230317   5.707   0.697   0.647
 6096SOL     OW30318   7.428   1.767   0.359
 6096SOL    HW130319   7.482   1.738   0.439
 6096SOL    HW230320   7.458   1.857   0.330
 6097SOL     OW30321   5.613   1.596   0.117
 6097SOL    HW130322   5.594   1.500   0.138
 6097SOL    HW230323   5.580   1.654   0.192
 6098SOL     OW30324   7.275   0.922   0.612
 6098SOL    HW130325   7.370   0.893   0.620
 6098SOL    HW230326   7.267   0.987   0.537
 6099SOL     OW30327   7.227   1.108   0.432
 6099SOL    HW130328   7.313   1.110   0.380
 6099SOL    HW230329   7.241   1.155   0.520
 6100SOL     OW30330   5.699   0.737   1.597
 6100SOL    HW130331   5.787   0.724   1.642
 6100SOL    HW230332   5.686   0.834   1.575
 6101SOL     OW30333   6.199   1.365   0.726
 6101SOL    HW130334   6.150   1.278   0.735
 6101SOL    HW230335   6.176   1.408   0.639
 6102SOL     OW30336   6.879   1.228   1.423
 6102SOL    HW130337   6.916   1.155   1.365
 6102SOL    HW230338   6.931   1.233   1.508
 6103SOL     OW30339   6.395   0.004   0.502
 6103SOL    HW130340   6.435   0.095   0.493
 6103SOL    HW230341   6.295   0.012   0.508
 6104SOL     OW30342   5.783   0.976   1.264
 6104SOL    HW130343   5.872   0.931   1.250
 6104SOL    HW230344   5.710   0.911   1.245
 6105SOL     OW30345   7.111   0.999   0.190
 6105SOL    HW130346   7.048   0.923   0.203
 6105SOL    HW230347   7.159   1.017   0.276
 6106SOL     OW30348   6.773   1.792   1.616
 6106SOL    HW130349   6.797   1.852   1.540
 6106SOL    HW230350   6.780   1.697   1.586
 6107SOL     OW30351   5.903   0.251   1.801
 6107SOL    HW130352   5.974   0.322   1.807
 6107SOL    HW230353   5.815   0.290   1.829
 6108SOL     OW30354   7.253   1.714   0.572
 6108SOL    HW130355   7.212   1.691   0.484
 6108SOL    HW230356   7.235   1.640   0.637
 6109SOL     OW30357   6.184   0.729   0.270
 6109SOL    HW130358   6.208   0.798   0.202
 6109SOL    HW230359   6.106   0.762   0.324
 6110SOL     OW30360   6.867   0.345   0.944
 6110SOL    HW130361   6.781   0.295   0.931
 6110SOL    HW230362   6.929   0.291   1.000
 6111SOL     OW30363   7.162   1.662   0.307
 6111SOL    HW130364   7.251   1.708   0.310
 6111SOL    HW230365   7.141   1.638   0.212
 6112SOL     OW30366   6.393   0.605   1.465
 6112SOL    HW130367   6.346   0.602   1.554
 6112SOL    HW230368   6.342   0.550   1.399
 6113SOL     OW30369   6.559   0.890   1.572
 6113SOL    HW130370   6.605   0.806   1.543
 6113SOL    HW230371   6.503   0.924   1.497
 6114SOL     OW30372   6.577   0.410   1.242
 6114SOL    HW130373   6.500   0.444   1.296
 6114SOL    HW230374   6.543   0.359   1.163
 6115SOL     OW30375   6.627   0.701   0.429
 6115SOL    HW130376   6.653   0.697   0.525
 6115SOL    HW230377   6.542   0.650   0.415
 6116SOL     OW30378   5.662   0.811   0.789
 6116SOL    HW130379   5.761   0.799   0.798
 6116SOL    HW230380   5.638   0.906   0.810
 6117SOL     OW30381   6.451   0.348   0.195
 6117SOL    HW130382   6.510   0.411   0.146
 6117SOL    HW230383   6.470   0.254   0.166
 6118SOL     OW30384   6.948   1.144   0.545
 6118SOL    HW130385   7.031   1.115   0.497
 6118SOL    HW230386   6.899   1.211   0.489
 6119SOL     OW30387   6.136   0.196   0.885
 6119SOL    HW130388   6.131   0.191   0.985
 6119SOL    HW230389   6.138   0.292   0.856
 6120SOL     OW30390   6.594   1.456   0.477
 6120SOL    HW130391   6.548   1.528   0.425
 6120SOL    HW230392   6.590   1.476   0.575
 6121SOL     OW30393   5.937   1.801   0.853
 6121SOL    HW130394   5.987   1.715   0.859
 6121SOL    HW230395   6.002   1.878   0.850
 6122SOL     OW30396   6.813   1.550   1.506
 6122SOL    HW130397   6.819   1.473   1.570
 6122SOL    HW230398   6.761   1.524   1.426
 6123SOL     OW30399   5.907   0.943   0.242
 6123SOL    HW130400   5.989   0.982   0.200
 6123SOL    HW230401   5.880   0.861   0.193
 6124SOL     OW30402   6.047   1.266   1.727
 6124SOL    HW130403   5.997   1.267   1.641
 6124SOL    HW230404   5.984   1.248   1.803
 6125SOL     OW30405   6.697   1.776   0.237
 6125SOL    HW130406   6.637   1.714   0.287
 6125SOL    HW230407   6.728   1.732   0.152
 6126SOL     OW30408   5.788   0.285   1.498
 6126SOL    HW130409   5.708   0.345   1.485
 6126SOL    HW230410   5.778   0.236   1.584
 6127SOL     OW30411   7.218   1.377   0.081
 6127SOL    HW130412   7.186   1.471   0.071
 6127SOL    HW230413   7.142   1.314   0.069
 6128SOL     OW30414   6.050   1.743   0.323
 6128SOL    HW130415   6.083   1.782   0.409
 6128SOL    HW230416   6.126   1.736   0.258
 6129SOL     OW30417   6.986   0.107   0.426
 6129SOL    HW130418   6.962   0.070   0.336
 6129SOL    HW230419   7.085   0.123   0.430
 6130SOL     OW30420   6.526   1.698   0.904
 6130SOL    HW130421   6.606   1.641   0.925
 6130SOL    HW230422   6.477   1.658   0.827
 6131SOL     OW30423   5.968   0.700   0.480
 6131SOL    HW130424   6.013   0.610   0.477
 6131SOL    HW230425   5.874   0.689   0.513
 6132SOL     OW30426   7.133   0.222   1.729
 6132SOL    HW130427   7.128   0.259   1.821
 6132SOL    HW230428   7.061   0.153   1.717
 6133SOL     OW30429   6.200   0.122   0.117
 6133SOL    HW130430   6.298   0.100   0.124
 6133SOL    HW230431   6.169   0.105   0.024
 6134SOL     OW30432   6.474   1.514   1.195
 6134SOL    HW130433   6.451   1.489   1.101
 6134SOL    HW230434   6.535   1.445   1.234
 6135SOL     OW30435   6.389   1.402   0.924
 6135SOL    HW130436   6.479   1.416   0.882
 6135SOL    HW230437   6.318   1.404   0.853
 6136SOL     OW30438   6.508   0.503   0.899
 6136SOL    HW130439   6.483   0.494   0.803
 6136SOL    HW230440   6.556   0.421   0.930
 6137SOL     OW30441   6.125   0.064   0.512
 6137SOL    HW130442   6.044   0.065   0.570
 6137SOL    HW230443   6.128   0.147   0.457
 6138SOL     OW30444   7.020   1.188   0.041
 6138SOL    HW130445   7.052   1.112   0.098
 6138SOL    HW230446   6.928   1.215   0.071
 6139SOL     OW30447   5.883   0.035   0.171
 6139SOL    HW130448   5.932   0.119   0.150
 6139SOL    HW230449   5.945  -0.030   0.216
 6140SOL     OW30450   6.521   0.236   0.480
 6140SOL    HW130451   6.473   0.277   0.402
 6140SOL    HW230452   6.620   0.234   0.461
 6141SOL     OW30453   6.662   0.683   1.464
 6141SOL    HW130454   6.582   0.622   1.467
 6141SOL    HW230455   6.743   0.630   1.440
 6142SOL     OW30456   6.813   1.570   0.793
 6142SOL    HW130457   6.834   1.644   0.728
 6142SOL    HW230458   6.881   1.570   0.866
 6143SOL     OW30459   6.045   1.152   0.741
 6143SOL    HW130460   5.974   1.125   0.806
 6143SOL    HW230461   6.019   1.124   0.648
 6144SOL     OW30462   6.857   1.797   0.591
 6144SOL    HW130463   6.901   1.861   0.527
 6144SOL    HW230464   6.807   1.849   0.661
 6145SOL     OW30465   6.618   0.549   0.016
 6145SOL    HW130466   6.577   0.631  -0.023
 6145SOL    HW230467   6.682   0.575   0.089
 6146SOL     OW30468   5.664   0.556   1.386
 6146SOL    HW130469   5.756   0.555   1.345
 6146SOL    HW230470   5.658   0.630   1.453
 6147SOL     OW30471   6.147   0.222   1.147
 6147SOL    HW130472   6.185   0.138   1.184
 6147SOL    HW230473   6.059   0.241   1.191
 6148SOL     OW30474   6.452   0.454   0.642
 6148SOL    HW130475   6.420   0.526   0.580
 6148SOL    HW230476   6.476   0.373   0.589
 6149SOL     OW30477   6.603   0.039   0.753
 6149SOL    HW130478   6.531   0.044   0.684
 6149SOL    HW230479   6.579  -0.030   0.822
 6150SOL     OW30480   7.443   0.833   0.377
 6150SOL    HW130481   7.485   0.769   0.441
 6150SOL    HW230482   7.405   0.782   0.299
 6151SOL     OW30483   6.074   1.385   0.174
 6151SOL    HW130484   5.987   1.370   0.221
 6151SOL    HW230485   6.057   1.411   0.079
 6152SOL     OW30486   7.250   1.280   0.657
 6152SOL    HW130487   7.349   1.288   0.671
 6152SOL    HW230488   7.205   1.364   0.688
 6153SOL     OW30489   6.976   0.575   0.078
 6153SOL    HW130490   6.922   0.554   0.159
 6153SOL    HW230491   7.067   0.534   0.087
 6154SOL     OW30492   6.113   0.256   0.328
 6154SOL    HW130493   6.140   0.197   0.253
 6154SOL    HW230494   6.113   0.351   0.297
 6155SOL     OW30495   6.650   1.347   1.340
 6155SOL    HW130496   6.570   1.324   1.395
 6155SOL    HW230497   6.733   1.321   1.389
 6156SOL     OW30498   7.178   1.629   1.625
 6156SOL    HW130499   7.205   1.663   1.535
 6156SOL    HW230500   7.257   1.591   1.671
 6157SOL     OW30501   6.697   1.195   1.100
 6157SOL    HW130502   6.657   1.239   1.181
 6157SOL    HW230503   6.656   1.232   1.017
 6158SOL     OW30504   6.501   0.089   1.402
 6158SOL    HW130505   6.526   0.069   1.307
 6158SOL    HW230506   6.573   0.145   1.444
 6159SOL     OW30507   6.566   1.116   1.719
 6159SOL    HW130508   6.467   1.122   1.729
 6159SOL    HW230509   6.589   1.036   1.663
 6160SOL     OW30510   6.291   1.050   0.368
 6160SOL    HW130511   6.277   1.057   0.467
 6160SOL    HW230512   6.375   0.999   0.350
 6161SOL     OW30513   5.996   0.813   1.251
 6161SOL    HW130514   6.082   0.825   1.301
 6161SOL    HW230515   5.954   0.726   1.278
 6162SOL     OW30516   5.953   1.100   0.501
 6162SOL    HW130517   5.946   1.183   0.445
 6162SOL    HW230518   5.957   1.020   0.441
 6163SOL     OW30519   6.152   0.537   0.865
 6163SOL    HW130520   6.164   0.603   0.791
 6163SOL    HW230521   6.198   0.571   0.948
 6164SOL     OW30522   6.838   1.348   0.388
 6164SOL    HW130523   6.888   1.425   0.428
 6164SOL    HW230524   6.743   1.350   0.420
 6165SOL     OW30525   6.858   1.445   1.142
 6165SOL    HW130526   6.905   1.458   1.229
 6165SOL    HW230527   6.792   1.371   1.151
 6166SOL     OW30528   7.168   0.639   0.472
 6166SOL    HW130529   7.137   0.700   0.545
 6166SOL    HW230530   7.218   0.691   0.403
 6167SOL     OW30531   5.940   1.510   1.329
 6167SOL    HW130532   5.919   1.466   1.242
 6167SOL    HW230533   6.037   1.536   1.332
 6168SOL     OW30534   5.988   0.751   1.598
 6168SOL    HW130535   6.056   0.806   1.551
 6168SOL    HW230536   6.028   0.663   1.625
 6169SOL     OW30537   6.090   0.050   1.740
 6169SOL    HW130538   6.048  -0.007   1.670
 6169SOL    HW230539   6.024   0.119   1.772
 6170SOL     OW30540   6.159   0.870   1.029
 6170SOL    HW130541   6.203   0.959   1.020
 6170SOL    HW230542   6.096   0.870   1.106
 6171SOL     OW30543   6.795   0.525   0.275
 6171SOL    HW130544   6.808   0.441   0.329
 6171SOL    HW230545   6.766   0.599   0.335
 6172SOL     OW30546   5.893   0.213   1.231
 6172SOL    HW130547   5.870   0.250   1.321
 6172SOL    HW230548   5.863   0.118   1.225
 6173SOL     OW30549   5.623   1.310   1.282
 6173SOL    HW130550   5.676   1.261   1.350
 6173SOL    HW230551   5.645   1.408   1.287
 6174SOL     OW30552   6.318   0.634   1.064
 6174SOL    HW130553   6.377   0.608   0.988
 6174SOL    HW230554   6.290   0.730   1.053
 6175SOL     OW30555   5.893   0.063   0.618
 6175SOL    HW130556   5.882   0.157   0.651
 6175SOL    HW230557   5.888   0.000   0.695
 6176SOL     OW30558   7.208   0.367   0.374
 6176SOL    HW130559   7.210   0.291   0.438
 6176SOL    HW230560   7.160   0.444   0.414
 6177SOL     OW30561   6.609   0.766   0.966
 6177SOL    HW130562   6.624   0.787   1.062
 6177SOL    HW230563   6.579   0.671   0.957
 6178SOL     OW30564   6.566   1.573   1.700
 6178SOL    HW130565   6.546   1.617   1.612
 6178SOL    HW230566   6.605   1.482   1.684
 6179SOL     OW30567   7.126   0.274   0.125
 6179SOL    HW130568   7.065   0.199   0.148
 6179SOL    HW230569   7.148   0.326   0.208
 6180SOL     OW30570   6.889   0.838   0.042
 6180SOL    HW130571   6.923   0.745   0.057
 6180SOL    HW230572   6.907   0.865  -0.053
 6181SOL     OW30573   6.654   1.333   0.849
 6181SOL    HW130574   6.661   1.249   0.794
 6181SOL    HW230575   6.716   1.402   0.813
 6182SOL     OW30576   5.905   0.810   0.949
 6182SOL    HW130577   5.998   0.846   0.954
 6182SOL    HW230578   5.899   0.725   1.001
 6183SOL     OW30579   5.925   0.509   1.006
 6183SOL    HW130580   5.873   0.426   0.989
 6183SOL    HW230581   6.002   0.514   0.942
 6184SOL     OW30582   5.674   1.801   0.927
 6184SOL    HW130583   5.632   1.715   0.900
 6184SOL    HW230584   5.768   1.804   0.893
 6185SOL     OW30585   6.090   1.568   0.910
 6185SOL    HW130586   6.156   1.642   0.919
 6185SOL    HW230587   6.134   1.489   0.868
 6186SOL     OW30588   6.588   0.796   1.238
 6186SOL    HW130589   6.629   0.764   1.324
 6186SOL    HW230590   6.492   0.769   1.235
 6187SOL     OW30591   5.626   0.544   1.114
 6187SOL    HW130592   5.711   0.511   1.073
 6187SOL    HW230593   5.639   0.559   1.212
 6188SOL     OW30594   6.955   0.950   1.660
 6188SOL    HW130595   6.994   1.039   1.680
 6188SOL    HW230596   6.965   0.930   1.563
 6189SOL     OW30597   6.401   0.572   0.325
 6189SOL    HW130598   6.408   0.483   0.279
 6189SOL    HW230599   6.307   0.606   0.317
 6190SOL     OW30600   5.838   1.564   1.744
 6190SOL    HW130601   5.808   1.621   1.820
 6190SOL    HW230602   5.831   1.467   1.770
 6191SOL     OW30603   6.257   0.464   1.269
 6191SOL    HW130604   6.223   0.375   1.239
 6191SOL    HW230605   6.283   0.518   1.189
 6192SOL     OW30606   6.516   1.678   1.465
 6192SOL    HW130607   6.492   1.660   1.370
 6192SOL    HW230608   6.546   1.772   1.475
 6193SOL     OW30609   6.059   0.500   0.191
 6193SOL    HW130610   6.120   0.580   0.195
 6193SOL    HW230611   5.964   0.531   0.198
 6194SOL     OW30612   5.745   1.137   1.466
 6194SOL    HW130613   5.767   1.076   1.542
 6194SOL    HW230614   5.755   1.088   1.380
 6195SOL     OW30615   6.933   1.059   1.234
 6195SOL    HW130616   6.957   0.996   1.160
 6195SOL    HW230617   6.843   1.099   1.216
 6196SOL     OW30618   6.888   0.855   0.309
 6196SOL    HW130619   6.802   0.824   0.351
 6196SOL    HW230620   6.884   0.841   0.210
 6197SOL     OW30621   7.345   1.747   1.154
 6197SOL    HW130622   7.406   1.777   1.081
 6197SOL    HW230623   7.307   1.658   1.132
 6198SOL     OW30624   6.838   1.731   1.128
 6198SOL    HW130625   6.922   1.736   1.074
 6198SOL    HW230626   6.815   1.635   1.146
 6199SOL     OW30627   5.669   1.258   1.022
 6199SOL    HW130628   5.664   1.257   1.122
 6199SOL    HW230629   5.586   1.217   0.984
 6200SOL     OW30630   6.274   1.662   1.716
 6200SOL    HW130631   6.218   1.743   1.725
 6200SOL    HW230632   6.326   1.666   1.630
 6201SOL     OW30633   6.489   0.086   0.133
 6201SOL    HW130634   6.540   0.087   0.047
 6201SOL    HW230635   6.545   0.044   0.204
 6202SOL     OW30636   7.312   0.135   0.523
 6202SOL    HW130637   7.385   0.118   0.456
 6202SOL    HW230638   7.281   0.048   0.561
 6203SOL     OW30639   6.974   1.573   0.477
 6203SOL    HW130640   7.041   1.585   0.403
 6203SOL    HW230641   6.934   1.662   0.500
 6204SOL     OW30642   5.716   1.794   1.851
 6204SOL    HW130643   5.675   1.720   1.904
 6204SOL    HW230644   5.780   1.845   1.909
 6205SOL     OW30645   6.866   0.927   0.672
 6205SOL    HW130646   6.926   0.846   0.674
 6205SOL    HW230647   6.906   0.996   0.612
 6206SOL     OW30648   6.416   1.273   1.422
 6206SOL    HW130649   6.411   1.306   1.517
 6206SOL    HW230650   6.330   1.292   1.376
 6207SOL     OW30651   6.258   1.616   0.154
 6207SOL    HW130652   6.267   1.626   0.055
 6207SOL    HW230653   6.218   1.527   0.175
 6208SOL     OW30654   7.427   0.175   0.963
 6208SOL    HW130655   7.466   0.090   0.927
 6208SOL    HW230656   7.329   0.177   0.944
 6209SOL     OW30657   5.849   0.326   0.720
 6209SOL    HW130658   5.770   0.377   0.686
 6209SOL    HW230659   5.840   0.311   0.818
 6210SOL     OW30660   6.780   1.612   0.031
 6210SOL    HW130661   6.786   1.519   0.068
 6210SOL    HW230662   6.721   1.612  -0.049
 6211SOL     OW30663   6.408   1.002   1.372
 6211SOL    HW130664   6.448   1.001   1.280
 6211SOL    HW230665   6.418   1.094   1.412
 6212SOL     OW30666   6.502   0.910   0.291
 6212SOL    HW130667   6.565   0.948   0.223
 6212SOL    HW230668   6.542   0.827   0.330
 6213SOL     OW30669   7.090   1.607   0.044
 6213SOL    HW130670   6.998   1.644   0.051
 6213SOL    HW230671   7.128   1.627  -0.046
 6214SOL     OW30672   5.958   1.288   1.490
 6214SOL    HW130673   5.945   1.381   1.456
 6214SOL    HW230674   5.874   1.236   1.477
 6215SOL     OW30675   7.200   1.292   1.289
 6215SOL    HW130676   7.260   1.295   1.369
 6215SOL    HW230677   7.125   1.356   1.302
 6216SOL     OW30678   6.625   1.098   0.696
 6216SOL    HW130679   6.555   1.051   0.750
 6216SOL    HW230680   6.684   1.030   0.653
 6217SOL     OW30681   6.600   0.236   0.971
 6217SOL    HW130682   6.592   0.200   0.878
 6217SOL    HW230683   6.598   0.160   1.036
 6218SOL     OW30684   6.176   1.487   0.491
 6218SOL    HW130685   6.218   1.429   0.421
 6218SOL    HW230686   6.132   1.566   0.447
 6219SOL     OW30687   7.295   0.385   1.381
 6219SOL    HW130688   7.368   0.454   1.385
 6219SOL    HW230689   7.323   0.310   1.322
 6220SOL     OW30690   5.841   1.348   0.290
 6220SOL    HW130691   5.745   1.349   0.263
 6220SOL    HW230692   5.853   1.401   0.374
 6221SOL     OW30693   5.691   1.013   1.726
 6221SOL    HW130694   5.614   0.980   1.780
 6221SOL    HW230695   5.776   0.983   1.768
 6222SOL     OW30696   7.026   0.856   1.398
 6222SOL    HW130697   6.969   0.908   1.335
 6222SOL    HW230698   7.122   0.868   1.374
 6223SOL     OW30699   6.769   1.335   0.119
 6223SOL    HW130700   6.670   1.324   0.121
 6223SOL    HW230701   6.803   1.350   0.212
 6224SOL     OW30702   6.199   0.842   1.431
 6224SOL    HW130703   6.255   0.923   1.414
 6224SOL    HW230704   6.258   0.762   1.434
 6225SOL     OW30705   7.079   1.767   0.959
 6225SOL    HW130706   7.112   1.831   0.890
 6225SOL    HW230707   7.145   1.761   1.034
 6226SOL     OW30708   6.302   0.565   1.708
 6226SOL    HW130709   6.321   0.630   1.782
 6226SOL    HW230710   6.362   0.485   1.717
 6227SOL     OW30711   7.036   1.220   1.633
 6227SOL    HW130712   7.027   1.210   1.732
 6227SOL    HW230713   7.132   1.213   1.607
 6228SOL     OW30714   5.976   1.741   1.560
 6228SOL    HW130715   5.885   1.782   1.558
 6228SOL    HW230716   5.969   1.647   1.592
 6229SOL     OW30717   6.811   0.325   0.449
 6229SOL    HW130718   6.876   0.251   0.438
 6229SOL    HW230719   6.831   0.375   0.533
 6230SOL     OW30720   6.180   0.745   0.652
 6230SOL    HW130721   6.230   0.830   0.633
 6230SOL    HW230722   6.092   0.747   0.604
 6231SOL     OW30723   7.316   0.934   1.517
 6231SOL    HW130724   7.354   1.025   1.532
 6231SOL    HW230725   7.308   0.917   1.418
 6232SOL     OW30726   6.445   1.374   0.016
 6232SOL    HW130727   6.399   1.389   0.104
 6232SOL    HW230728   6.489   1.459  -0.014
 6233SOL     OW30729   6.247   1.790   0.953
 6233SOL    HW130730   6.201   1.878   0.940
 6233SOL    HW230731   6.346   1.802   0.946
 6234SOL     OW30732   6.445   0.956   0.861
 6234SOL    HW130733   6.499   0.887   0.909
 6234SOL    HW230734   6.413   1.025   0.927
 6235SOL     OW30735   6.669   0.984   0.087
 6235SOL    HW130736   6.646   1.037   0.005
 6235SOL    HW230737   6.750   0.928   0.068
 6236SOL     OW30738   7.447   1.569   0.851
 6236SOL    HW130739   7.376   1.557   0.781
 6236SOL    HW230740   7.448   1.490   0.911
 6237SOL     OW30741   5.665   1.240   0.653
 6237SOL    HW130742   5.664   1.193   0.741
 6237SOL    HW230743   5.747   1.212   0.602
 6238SOL     OW30744   7.410   0.192   1.227
 6238SOL    HW130745   7.406   0.102   1.271
 6238SOL    HW230746   7.413   0.181   1.128
 6239SOL     OW30747   6.014   0.424   0.520
 6239SOL    HW130748   6.044   0.352   0.458
 6239SOL    HW230749   5.975   0.384   0.603
 6240SOL     OW30750   7.291   1.487   1.104
 6240SOL    HW130751   7.198   1.462   1.077
 6240SOL    HW230752   7.317   1.437   1.186
 6241SOL     OW30753   5.903   0.547   1.280
 6241SOL    HW130754   5.941   0.488   1.352
 6241SOL    HW230755   5.943   0.521   1.192
 6242SOL     OW30756   6.398   1.586   0.687
 6242SOL    HW130757   6.430   1.596   0.593
 6242SOL    HW230758   6.319   1.524   0.689
 6243SOL     OW30759   7.010   0.214   1.112
 6243SOL    HW130760   7.062   0.149   1.167
 6243SOL    HW230761   6.961   0.277   1.173
 6244SOL     OW30762   6.587   0.034   1.154
 6244SOL    HW130763   6.524  -0.038   1.123
 6244SOL    HW230764   6.680  -0.002   1.154
 6245SOL     OW30765   6.356   1.330   0.301
 6245SOL    HW130766   6.310   1.243   0.318
 6245SOL    HW230767   6.447   1.327   0.342
 6246SOL     OW30768   6.204   1.567   1.284
 6246SOL    HW130769   6.199   1.649   1.341
 6246SOL    HW230770   6.293   1.564   1.239
 6247SOL     OW30771   6.938   0.052   0.168
 6247SOL    HW130772   6.973   0.011   0.084
 6247SOL    HW230773   6.848   0.014   0.188
 6248SOL     OW30774   6.886   0.453   0.691
 6248SOL    HW130775   6.827   0.533   0.695
 6248SOL    HW230776   6.901   0.418   0.784
 6249SOL     OW30777   7.179   0.221   0.882
 6249SOL    HW130778   7.095   0.220   0.936
 6249SOL    HW230779   7.181   0.304   0.826
 6250SOL     OW30780   5.625   1.077   0.300
 6250SOL    HW130781   5.724   1.066   0.291
 6250SOL    HW230782   5.585   0.991   0.332
 6251SOL     OW30783   6.461   1.646   0.337
 6251SOL    HW130784   6.384   1.611   0.283
 6251SOL    HW230785   6.429   1.717   0.399
 6252SOL     OW30786   5.816   0.628   1.975
 6252SOL    HW130787   5.723   0.626   2.012
 6252SOL    HW230788   5.817   0.589   1.883
 6253SOL     OW30789   5.811   0.275   2.858
 6253SOL    HW130790   5.846   0.258   2.950
 6253SOL    HW230791   5.723   0.230   2.846
 6254SOL     OW30792   6.155   1.275   3.027
 6254SOL    HW130793   6.062   1.268   2.990
 6254SOL    HW230794   6.166   1.364   3.071
 6255SOL     OW30795   6.271   1.012   2.527
 6255SOL    HW130796   6.340   0.996   2.597
 6255SOL    HW230797   6.198   1.069   2.565
 6256SOL     OW30798   5.921   1.435   2.923
 6256SOL    HW130799   5.843   1.404   2.870
 6256SOL    HW230800   5.979   1.493   2.866
 6257SOL     OW30801   5.817   1.713   2.345
 6257SOL    HW130802   5.851   1.790   2.399
 6257SOL    HW230803   5.861   1.713   2.255
 6258SOL     OW30804   5.708   0.643   2.425
 6258SOL    HW130805   5.663   0.555   2.442
 6258SOL    HW230806   5.707   0.697   2.509
 6259SOL     OW30807   6.199   1.365   2.588
 6259SOL    HW130808   6.150   1.278   2.597
 6259SOL    HW230809   6.176   1.408   2.501
 6260SOL     OW30810   6.184   0.729   2.132
 6260SOL    HW130811   6.208   0.798   2.064
 6260SOL    HW230812   6.106   0.762   2.186
 6261SOL     OW30813   6.867   0.345   2.806
 6261SOL    HW130814   6.781   0.295   2.793
 6261SOL    HW230815   6.929   0.291   2.862
 6262SOL     OW30816   6.559   0.890   3.434
 6262SOL    HW130817   6.605   0.806   3.405
 6262SOL    HW230818   6.503   0.924   3.359
 6263SOL     OW30819   6.594   1.456   2.339
 6263SOL    HW130820   6.548   1.528   2.287
 6263SOL    HW230821   6.590   1.476   2.437
 6264SOL     OW30822   6.813   1.550   3.368
 6264SOL    HW130823   6.819   1.473   3.432
 6264SOL    HW230824   6.761   1.524   3.288
 6265SOL     OW30825   6.047   1.266   3.589
 6265SOL    HW130826   5.997   1.267   3.503
 6265SOL    HW230827   5.984   1.248   3.665
 6266SOL     OW30828   6.697   1.776   2.099
 6266SOL    HW130829   6.637   1.714   2.149
 6266SOL    HW230830   6.728   1.732   2.014
 6267SOL     OW30831   5.788   0.285   3.360
 6267SOL    HW130832   5.708   0.345   3.347
 6267SOL    HW230833   5.778   0.236   3.446
 6268SOL     OW30834   6.050   1.743   2.185
 6268SOL    HW130835   6.083   1.782   2.271
 6268SOL    HW230836   6.126   1.736   2.120
 6269SOL     OW30837   6.526   1.698   2.766
 6269SOL    HW130838   6.606   1.641   2.787
 6269SOL    HW230839   6.477   1.658   2.689
 6270SOL     OW30840   5.968   0.700   2.342
 6270SOL    HW130841   6.013   0.610   2.339
 6270SOL    HW230842   5.874   0.689   2.375
 6271SOL     OW30843   7.133   0.222   3.591
 6271SOL    HW130844   7.128   0.259   3.683
 6271SOL    HW230845   7.061   0.153   3.579
 6272SOL     OW30846   6.367   0.264   3.611
 6272SOL    HW130847   6.434   0.203   3.654
 6272SOL    HW230848   6.294   0.283   3.676
 6273SOL     OW30849   6.474   1.514   3.057
 6273SOL    HW130850   6.451   1.489   2.963
 6273SOL    HW230851   6.535   1.445   3.096
 6274SOL     OW30852   5.883   0.035   2.033
 6274SOL    HW130853   5.932   0.119   2.012
 6274SOL    HW230854   5.945  -0.030   2.078
 6275SOL     OW30855   6.813   1.570   2.655
 6275SOL    HW130856   6.834   1.644   2.590
 6275SOL    HW230857   6.881   1.570   2.728
 6276SOL     OW30858   6.045   1.152   2.603
 6276SOL    HW130859   5.974   1.125   2.668
 6276SOL    HW230860   6.019   1.124   2.510
 6277SOL     OW30861   7.340   1.223   3.450
 6277SOL    HW130862   7.431   1.184   3.437
 6277SOL    HW230863   7.348   1.319   3.474
 6278SOL     OW30864   7.178   1.629   3.487
 6278SOL    HW130865   7.205   1.663   3.397
 6278SOL    HW230866   7.257   1.591   3.533
 6279SOL     OW30867   7.224   1.099   2.941
 6279SOL    HW130868   7.229   1.180   3.000
 6279SOL    HW230869   7.138   1.101   2.890
 6280SOL     OW30870   6.566   1.116   3.581
 6280SOL    HW130871   6.467   1.122   3.591
 6280SOL    HW230872   6.589   1.036   3.525
 6281SOL     OW30873   5.996   0.813   3.113
 6281SOL    HW130874   6.082   0.825   3.163
 6281SOL    HW230875   5.954   0.726   3.140
 6282SOL     OW30876   6.838   1.348   2.250
 6282SOL    HW130877   6.888   1.425   2.290
 6282SOL    HW230878   6.743   1.350   2.282
 6283SOL     OW30879   7.173   0.779   3.532
 6283SOL    HW130880   7.081   0.817   3.527
 6283SOL    HW230881   7.233   0.826   3.467
 6284SOL     OW30882   5.893   0.213   3.093
 6284SOL    HW130883   5.870   0.250   3.183
 6284SOL    HW230884   5.863   0.118   3.087
 6285SOL     OW30885   7.208   0.367   2.236
 6285SOL    HW130886   7.210   0.291   2.300
 6285SOL    HW230887   7.160   0.444   2.276
 6286SOL     OW30888   7.445   1.518   3.467
 6286SOL    HW130889   7.459   1.545   3.372
 6286SOL    HW230890   7.528   1.540   3.520
 6287SOL     OW30891   5.936   0.898   3.666
 6287SOL    HW130892   6.012   0.942   3.714
 6287SOL    HW230893   5.971   0.851   3.584
 6288SOL     OW30894   7.126   0.274   1.987
 6288SOL    HW130895   7.065   0.199   2.010
 6288SOL    HW230896   7.148   0.326   2.070
 6289SOL     OW30897   5.594   1.326   2.062
 6289SOL    HW130898   5.501   1.347   2.031
 6289SOL    HW230899   5.604   1.227   2.075
 6290SOL     OW30900   6.516   1.678   3.327
 6290SOL    HW130901   6.492   1.660   3.232
 6290SOL    HW230902   6.546   1.772   3.337
 6291SOL     OW30903   6.059   0.500   2.053
 6291SOL    HW130904   6.120   0.580   2.057
 6291SOL    HW230905   5.964   0.531   2.060
 6292SOL     OW30906   6.888   0.855   2.171
 6292SOL    HW130907   6.802   0.824   2.213
 6292SOL    HW230908   6.884   0.841   2.072
 6293SOL     OW30909   7.345   1.747   3.016
 6293SOL    HW130910   7.406   1.777   2.943
 6293SOL    HW230911   7.307   1.658   2.994
 6294SOL     OW30912   5.669   1.258   2.884
 6294SOL    HW130913   5.664   1.257   2.984
 6294SOL    HW230914   5.586   1.217   2.846
 6295SOL     OW30915   6.274   1.662   3.578
 6295SOL    HW130916   6.218   1.743   3.587
 6295SOL    HW230917   6.326   1.666   3.492
 6296SOL     OW30918   5.716   1.794   3.713
 6296SOL    HW130919   5.675   1.720   3.766
 6296SOL    HW230920   5.780   1.845   3.771
 6297SOL     OW30921   6.416   1.273   3.284
 6297SOL    HW130922   6.411   1.306   3.379
 6297SOL    HW230923   6.330   1.292   3.238
 6298SOL     OW30924   6.258   1.616   2.016
 6298SOL    HW130925   6.267   1.626   1.917
 6298SOL    HW230926   6.218   1.527   2.037
 6299SOL     OW30927   7.236   1.720   3.256
 6299SOL    HW130928   7.289   1.730   3.172
 6299SOL    HW230929   7.209   1.810   3.290
 6300SOL     OW30930   5.849   0.326   2.582
 6300SOL    HW130931   5.770   0.377   2.548
 6300SOL    HW230932   5.840   0.311   2.680
 6301SOL     OW30933   6.780   1.612   1.893
 6301SOL    HW130934   6.786   1.519   1.930
 6301SOL    HW230935   6.721   1.612   1.813
 6302SOL     OW30936   6.408   1.002   3.234
 6302SOL    HW130937   6.448   1.001   3.142
 6302SOL    HW230938   6.418   1.094   3.274
 6303SOL     OW30939   6.176   1.487   2.353
 6303SOL    HW130940   6.218   1.429   2.283
 6303SOL    HW230941   6.132   1.566   2.309
 6304SOL     OW30942   5.841   1.348   2.152
 6304SOL    HW130943   5.745   1.349   2.125
 6304SOL    HW230944   5.853   1.401   2.236
 6305SOL     OW30945   5.658   0.166   2.180
 6305SOL    HW130946   5.641   0.249   2.126
 6305SOL    HW230947   5.748   0.129   2.158
 6306SOL     OW30948   6.769   1.335   1.981
 6306SOL    HW130949   6.670   1.324   1.983
 6306SOL    HW230950   6.803   1.350   2.074
 6307SOL     OW30951   6.302   0.565   3.570
 6307SOL    HW130952   6.321   0.630   3.644
 6307SOL    HW230953   6.362   0.485   3.579
 6308SOL     OW30954   5.976   1.741   3.422
 6308SOL    HW130955   5.885   1.782   3.420
 6308SOL    HW230956   5.969   1.647   3.454
 6309SOL     OW30957   7.260   0.883   3.116
 6309SOL    HW130958   7.233   0.794   3.079
 6309SOL    HW230959   7.261   0.951   3.043
 6310SOL     OW30960   6.180   0.745   2.514
 6310SOL    HW130961   6.230   0.830   2.495
 6310SOL    HW230962   6.092   0.747   2.466
 6311SOL     OW30963   7.363   0.342   3.504
 6311SOL    HW130964   7.346   0.373   3.410
 6311SOL    HW230965   7.279   0.305   3.542
 6312SOL     OW30966   6.445   0.956   2.723
 6312SOL    HW130967   6.499   0.887   2.771
 6312SOL    HW230968   6.413   1.025   2.789
 6313SOL     OW30969   6.669   0.984   1.949
 6313SOL    HW130970   6.646   1.037   1.867
 6313SOL    HW230971   6.750   0.928   1.930
 6314SOL     OW30972   7.447   1.569   2.713
 6314SOL    HW130973   7.376   1.557   2.643
 6314SOL    HW230974   7.448   1.490   2.773
 6315SOL     OW30975   5.665   1.240   2.515
 6315SOL    HW130976   5.664   1.193   2.603
 6315SOL    HW230977   5.747   1.212   2.464
 6316SOL     OW30978   6.258   1.391   3.486
 6316SOL    HW130979   6.180   1.341   3.524
 6316SOL    HW230980   6.255   1.486   3.517
 6317SOL     OW30981   7.010   0.214   2.974
 6317SOL    HW130982   7.062   0.149   3.029
 6317SOL    HW230983   6.961   0.277   3.035
 6318SOL     OW30984   6.356   1.330   2.163
 6318SOL    HW130985   6.310   1.243   2.180
 6318SOL    HW230986   6.447   1.327   2.204
 6319SOL     OW30987   7.179   0.221   2.744
 6319SOL    HW130988   7.095   0.220   2.798
 6319SOL    HW230989   7.181   0.304   2.688
 6320SOL     OW30990   5.816   0.628   3.837
 6320SOL    HW130991   5.723   0.626   3.874
 6320SOL    HW230992   5.817   0.589   3.745
 6321SOL     OW30993   6.354   1.144   4.747
 6321SOL    HW130994   6.276   1.161   4.807
 6321SOL    HW230995   6.388   1.231   4.711
 6322SOL     OW30996   6.272   1.161   5.527
 6322SOL    HW130997   6.332   1.240   5.541
 6322SOL    HW230998   6.186   1.192   5.486
 6323SOL     OW30999   6.192   0.964   3.847
 6323SOL    HW131000   6.199   1.048   3.793
 6323SOL    HW231001   6.238   0.977   3.935
 6324SOL     OW31002   5.613   1.596   3.841
 6324SOL    HW131003   5.594   1.500   3.862
 6324SOL    HW231004   5.580   1.654   3.916
 6325SOL     OW31005   7.275   0.922   4.336
 6325SOL    HW131006   7.370   0.893   4.344
 6325SOL    HW231007   7.267   0.987   4.261
 6326SOL     OW31008   5.903   0.251   5.525
 6326SOL    HW131009   5.974   0.322   5.531
 6326SOL    HW231010   5.815   0.290   5.553
 6327SOL     OW31011   7.253   1.714   4.296
 6327SOL    HW131012   7.212   1.691   4.208
 6327SOL    HW231013   7.235   1.640   4.361
 6328SOL     OW31014   7.162   1.662   4.031
 6328SOL    HW131015   7.251   1.708   4.034
 6328SOL    HW231016   7.141   1.638   3.936
 6329SOL     OW31017   5.662   0.811   4.513
 6329SOL    HW131018   5.761   0.799   4.522
 6329SOL    HW231019   5.638   0.906   4.534
 6330SOL     OW31020   6.451   0.348   3.919
 6330SOL    HW131021   6.510   0.411   3.870
 6330SOL    HW231022   6.470   0.254   3.890
 6331SOL     OW31023   6.813   1.550   5.230
 6331SOL    HW131024   6.819   1.473   5.294
 6331SOL    HW231025   6.761   1.524   5.150
 6332SOL     OW31026   5.907   0.943   3.966
 6332SOL    HW131027   5.989   0.982   3.924
 6332SOL    HW231028   5.880   0.861   3.917
 6333SOL     OW31029   6.697   1.776   3.961
 6333SOL    HW131030   6.637   1.714   4.011
 6333SOL    HW231031   6.728   1.732   3.876
 6334SOL     OW31032   6.050   1.743   4.047
 6334SOL    HW131033   6.083   1.782   4.133
 6334SOL    HW231034   6.126   1.736   3.982
 6335SOL     OW31035   6.526   1.698   4.628
 6335SOL    HW131036   6.606   1.641   4.649
 6335SOL    HW231037   6.477   1.658   4.551
 6336SOL     OW31038   6.367   0.264   5.473
 6336SOL    HW131039   6.434   0.203   5.516
 6336SOL    HW231040   6.294   0.283   5.538
 6337SOL     OW31041   6.389   1.402   4.648
 6337SOL    HW131042   6.479   1.416   4.606
 6337SOL    HW231043   6.318   1.404   4.577
 6338SOL     OW31044   6.125   0.064   4.236
 6338SOL    HW131045   6.044   0.065   4.294
 6338SOL    HW231046   6.128   0.147   4.181
 6339SOL     OW31047   6.521   0.236   4.204
 6339SOL    HW131048   6.473   0.277   4.126
 6339SOL    HW231049   6.620   0.234   4.185
 6340SOL     OW31050   6.045   1.152   4.465
 6340SOL    HW131051   5.974   1.125   4.530
 6340SOL    HW231052   6.019   1.124   4.372
 6341SOL     OW31053   6.618   0.549   3.740
 6341SOL    HW131054   6.577   0.631   3.701
 6341SOL    HW231055   6.682   0.575   3.813
 6342SOL     OW31056   6.147   0.222   4.871
 6342SOL    HW131057   6.185   0.138   4.908
 6342SOL    HW231058   6.059   0.241   4.915
 6343SOL     OW31059   7.443   0.833   4.101
 6343SOL    HW131060   7.485   0.769   4.165
 6343SOL    HW231061   7.405   0.782   4.023
 6344SOL     OW31062   6.152   0.537   4.589
 6344SOL    HW131063   6.164   0.603   4.515
 6344SOL    HW231064   6.198   0.571   4.672
 6345SOL     OW31065   6.838   1.348   4.112
 6345SOL    HW131066   6.888   1.425   4.152
 6345SOL    HW231067   6.743   1.350   4.144
 6346SOL     OW31068   5.940   1.510   5.053
 6346SOL    HW131069   5.919   1.466   4.966
 6346SOL    HW231070   6.037   1.536   5.056
 6347SOL     OW31071   7.173   0.779   5.394
 6347SOL    HW131072   7.081   0.817   5.389
 6347SOL    HW231073   7.233   0.826   5.329
 6348SOL     OW31074   6.599   0.105   5.494
 6348SOL    HW131075   6.605   0.190   5.442
 6348SOL    HW231076   6.631   0.029   5.437
 6349SOL     OW31077   6.090   0.050   5.464
 6349SOL    HW131078   6.048  -0.007   5.394
 6349SOL    HW231079   6.024   0.119   5.496
 6350SOL     OW31080   7.314   0.935   5.578
 6350SOL    HW131081   7.268   0.928   5.489
 6350SOL    HW231082   7.252   0.979   5.644
 6351SOL     OW31083   7.208   0.367   4.098
 6351SOL    HW131084   7.210   0.291   4.162
 6351SOL    HW231085   7.160   0.444   4.138
 6352SOL     OW31086   6.609   0.766   4.690
 6352SOL    HW131087   6.624   0.787   4.786
 6352SOL    HW231088   6.579   0.671   4.681
 6353SOL     OW31089   5.936   0.898   5.528
 6353SOL    HW131090   6.012   0.942   5.576
 6353SOL    HW231091   5.971   0.851   5.446
 6354SOL     OW31092   7.126   0.274   3.849
 6354SOL    HW131093   7.065   0.199   3.872
 6354SOL    HW231094   7.148   0.326   3.932
 6355SOL     OW31095   6.889   0.838   3.766
 6355SOL    HW131096   6.923   0.745   3.781
 6355SOL    HW231097   6.907   0.865   3.671
 6356SOL     OW31098   5.905   0.810   4.673
 6356SOL    HW131099   5.998   0.846   4.678
 6356SOL    HW231100   5.899   0.725   4.725
 6357SOL     OW31101   5.925   0.509   4.730
 6357SOL    HW131102   5.873   0.426   4.713
 6357SOL    HW231103   6.002   0.514   4.666
 6358SOL     OW31104   6.724   0.380   5.402
 6358SOL    HW131105   6.679   0.443   5.466
 6358SOL    HW231106   6.817   0.411   5.385
 6359SOL     OW31107   5.594   1.326   3.924
 6359SOL    HW131108   5.501   1.347   3.893
 6359SOL    HW231109   5.604   1.227   3.937
 6360SOL     OW31110   5.626   0.544   4.838
 6360SOL    HW131111   5.711   0.511   4.797
 6360SOL    HW231112   5.639   0.559   4.936
 6361SOL     OW31113   5.775   0.520   5.446
 6361SOL    HW131114   5.834   0.480   5.376
 6361SOL    HW231115   5.717   0.591   5.405
 6362SOL     OW31116   6.401   0.572   4.049
 6362SOL    HW131117   6.408   0.483   4.003
 6362SOL    HW231118   6.307   0.606   4.041
 6363SOL     OW31119   6.257   0.464   4.993
 6363SOL    HW131120   6.223   0.375   4.963
 6363SOL    HW231121   6.283   0.518   4.913
 6364SOL     OW31122   6.933   1.059   4.958
 6364SOL    HW131123   6.957   0.996   4.884
 6364SOL    HW231124   6.843   1.099   4.940
 6365SOL     OW31125   6.838   1.731   4.852
 6365SOL    HW131126   6.922   1.736   4.798
 6365SOL    HW231127   6.815   1.635   4.870
 6366SOL     OW31128   7.312   0.135   4.247
 6366SOL    HW131129   7.385   0.118   4.180
 6366SOL    HW231130   7.281   0.048   4.285
 6367SOL     OW31131   5.716   1.794   5.575
 6367SOL    HW131132   5.675   1.720   5.628
 6367SOL    HW231133   5.780   1.845   5.633
 6368SOL     OW31134   6.866   0.927   4.396
 6368SOL    HW131135   6.926   0.846   4.398
 6368SOL    HW231136   6.906   0.996   4.336
 6369SOL     OW31137   6.258   1.616   3.878
 6369SOL    HW131138   6.267   1.626   3.779
 6369SOL    HW231139   6.218   1.527   3.899
 6370SOL     OW31140   7.236   1.720   5.118
 6370SOL    HW131141   7.289   1.730   5.034
 6370SOL    HW231142   7.209   1.810   5.152
 6371SOL     OW31143   7.427   0.175   4.687
 6371SOL    HW131144   7.466   0.090   4.651
 6371SOL    HW231145   7.329   0.177   4.668
 6372SOL     OW31146   6.600   0.236   4.695
 6372SOL    HW131147   6.592   0.200   4.602
 6372SOL    HW231148   6.598   0.160   4.760
 6373SOL     OW31149   5.976   1.741   5.284
 6373SOL    HW131150   5.885   1.782   5.282
 6373SOL    HW231151   5.969   1.647   5.316
 6374SOL     OW31152   6.180   0.745   4.376
 6374SOL    HW131153   6.230   0.830   4.357
 6374SOL    HW231154   6.092   0.747   4.328
 6375SOL     OW31155   6.445   0.956   4.585
 6375SOL    HW131156   6.499   0.887   4.633
 6375SOL    HW231157   6.413   1.025   4.651
 6376SOL     OW31158   5.665   1.240   4.377
 6376SOL    HW131159   5.664   1.193   4.465
 6376SOL    HW231160   5.747   1.212   4.326
 6377SOL     OW31161   7.410   0.192   4.951
 6377SOL    HW131162   7.406   0.102   4.995
 6377SOL    HW231163   7.413   0.181   4.852
 6378SOL     OW31164   5.903   0.547   5.004
 6378SOL    HW131165   5.941   0.488   5.076
 6378SOL    HW231166   5.943   0.521   4.916
 6379SOL     OW31167   6.587   0.034   4.878
 6379SOL    HW131168   6.524  -0.038   4.847
 6379SOL    HW231169   6.680  -0.002   4.878
 6380SOL     OW31170   6.938   0.052   3.892
 6380SOL    HW131171   6.973   0.011   3.808
 6380SOL    HW231172   6.848   0.014   3.912
 6381SOL     OW31173   7.179   0.221   4.606
 6381SOL    HW131174   7.095   0.220   4.660
 6381SOL    HW231175   7.181   0.304   4.550
 6382SOL     OW31176   5.816   0.628   5.699
 6382SOL    HW131177   5.723   0.626   5.736
 6382SOL    HW231178   5.817   0.589   5.607
 6383SOL     OW31179   5.811   0.275   6.582
 6383SOL    HW131180   5.846   0.258   6.674
 6383SOL    HW231181   5.723   0.230   6.570
 6384SOL     OW31182   5.605   0.368   6.233
 6384SOL    HW131183   5.523   0.411   6.272
 6384SOL    HW231184   5.577   0.295   6.170
 6385SOL     OW31185   6.155   1.275   6.751
 6385SOL    HW131186   6.062   1.268   6.714
 6385SOL    HW231187   6.166   1.364   6.795
 6386SOL     OW31188   7.141   1.511   6.289
 6386SOL    HW131189   7.084   1.495   6.370
 6386SOL    HW231190   7.082   1.521   6.209
 6387SOL     OW31191   6.721   0.703   6.303
 6387SOL    HW131192   6.778   0.781   6.278
 6387SOL    HW231193   6.661   0.729   6.379
 6388SOL     OW31194   7.341   0.607   5.817
 6388SOL    HW131195   7.329   0.594   5.718
 6388SOL    HW231196   7.311   0.526   5.866
 6389SOL     OW31197   6.354   1.144   6.609
 6389SOL    HW131198   6.276   1.161   6.669
 6389SOL    HW231199   6.388   1.231   6.573
 6390SOL     OW31200   6.271   1.012   6.251
 6390SOL    HW131201   6.340   0.996   6.321
 6390SOL    HW231202   6.198   1.069   6.289
 6391SOL     OW31203   5.921   1.435   6.647
 6391SOL    HW131204   5.843   1.404   6.594
 6391SOL    HW231205   5.979   1.493   6.590
 6392SOL     OW31206   7.189   0.447   6.323
 6392SOL    HW131207   7.115   0.493   6.273
 6392SOL    HW231208   7.240   0.515   6.376
 6393SOL     OW31209   5.816   1.434   6.124
 6393SOL    HW131210   5.790   1.530   6.124
 6393SOL    HW231211   5.745   1.380   6.169
 6394SOL     OW31212   5.826   1.091   6.472
 6394SOL    HW131213   5.840   1.007   6.524
 6394SOL    HW231214   5.771   1.155   6.527
 6395SOL     OW31215   6.206   1.786   7.025
 6395SOL    HW131216   6.114   1.769   7.060
 6395SOL    HW231217   6.234   1.878   7.051
 6396SOL     OW31218   6.192   0.964   5.709
 6396SOL    HW131219   6.199   1.048   5.655
 6396SOL    HW231220   6.238   0.977   5.797
 6397SOL     OW31221   5.708   0.643   6.149
 6397SOL    HW131222   5.663   0.555   6.166
 6397SOL    HW231223   5.707   0.697   6.233
 6398SOL     OW31224   7.428   1.767   5.945
 6398SOL    HW131225   7.482   1.738   6.025
 6398SOL    HW231226   7.458   1.857   5.916
 6399SOL     OW31227   7.275   0.922   6.198
 6399SOL    HW131228   7.370   0.893   6.206
 6399SOL    HW231229   7.267   0.987   6.123
 6400SOL     OW31230   7.227   1.108   6.018
 6400SOL    HW131231   7.313   1.110   5.966
 6400SOL    HW231232   7.241   1.155   6.106
 6401SOL     OW31233   6.199   1.365   6.312
 6401SOL    HW131234   6.150   1.278   6.321
 6401SOL    HW231235   6.176   1.408   6.225
 6402SOL     OW31236   6.395   0.004   6.088
 6402SOL    HW131237   6.435   0.095   6.079
 6402SOL    HW231238   6.295   0.012   6.094
 6403SOL     OW31239   5.783   0.976   6.850
 6403SOL    HW131240   5.872   0.931   6.836
 6403SOL    HW231241   5.710   0.911   6.831
 6404SOL     OW31242   7.111   0.999   5.776
 6404SOL    HW131243   7.048   0.923   5.789
 6404SOL    HW231244   7.159   1.017   5.862
 6405SOL     OW31245   7.052   1.417   6.539
 6405SOL    HW131246   6.993   1.423   6.619
 6405SOL    HW231247   7.037   1.329   6.493
 6406SOL     OW31248   7.253   1.714   6.158
 6406SOL    HW131249   7.212   1.691   6.070
 6406SOL    HW231250   7.235   1.640   6.223
 6407SOL     OW31251   6.184   0.729   5.856
 6407SOL    HW131252   6.208   0.798   5.788
 6407SOL    HW231253   6.106   0.762   5.910
 6408SOL     OW31254   6.867   0.345   6.530
 6408SOL    HW131255   6.781   0.295   6.517
 6408SOL    HW231256   6.929   0.291   6.586
 6409SOL     OW31257   6.577   0.410   6.828
 6409SOL    HW131258   6.500   0.444   6.882
 6409SOL    HW231259   6.543   0.359   6.749
 6410SOL     OW31260   6.627   0.701   6.015
 6410SOL    HW131261   6.653   0.697   6.111
 6410SOL    HW231262   6.542   0.650   6.001
 6411SOL     OW31263   5.662   0.811   6.375
 6411SOL    HW131264   5.761   0.799   6.384
 6411SOL    HW231265   5.638   0.906   6.396
 6412SOL     OW31266   6.948   1.144   6.131
 6412SOL    HW131267   7.031   1.115   6.083
 6412SOL    HW231268   6.899   1.211   6.075
 6413SOL     OW31269   6.136   0.196   6.471
 6413SOL    HW131270   6.131   0.191   6.571
 6413SOL    HW231271   6.138   0.292   6.442
 6414SOL     OW31272   6.594   1.456   6.063
 6414SOL    HW131273   6.548   1.528   6.011
 6414SOL    HW231274   6.590   1.476   6.161
 6415SOL     OW31275   5.937   1.801   6.439
 6415SOL    HW131276   5.987   1.715   6.445
 6415SOL    HW231277   6.002   1.878   6.436
 6416SOL     OW31278   7.381   1.066   6.459
 6416SOL    HW131279   7.319   1.051   6.383
 6416SOL    HW231280   7.329   1.077   6.544
 6417SOL     OW31281   5.907   0.943   5.828
 6417SOL    HW131282   5.989   0.982   5.786
 6417SOL    HW231283   5.880   0.861   5.779
 6418SOL     OW31284   7.044   0.735   6.314
 6418SOL    HW131285   7.039   0.670   6.389
 6418SOL    HW231286   7.124   0.794   6.327
 6419SOL     OW31287   5.788   0.285   7.084
 6419SOL    HW131288   5.708   0.345   7.071
 6419SOL    HW231289   5.778   0.236   7.170
 6420SOL     OW31290   7.218   1.377   5.667
 6420SOL    HW131291   7.186   1.471   5.657
 6420SOL    HW231292   7.142   1.314   5.655
 6421SOL     OW31293   6.050   1.743   5.909
 6421SOL    HW131294   6.083   1.782   5.995
 6421SOL    HW231295   6.126   1.736   5.844
 6422SOL     OW31296   6.986   0.107   6.012
 6422SOL    HW131297   6.962   0.070   5.922
 6422SOL    HW231298   7.085   0.123   6.016
 6423SOL     OW31299   5.835   1.785   6.827
 6423SOL    HW131300   5.892   1.720   6.877
 6423SOL    HW231301   5.819   1.752   6.734
 6424SOL     OW31302   6.526   1.698   6.490
 6424SOL    HW131303   6.606   1.641   6.511
 6424SOL    HW231304   6.477   1.658   6.413
 6425SOL     OW31305   5.968   0.700   6.066
 6425SOL    HW131306   6.013   0.610   6.063
 6425SOL    HW231307   5.874   0.689   6.099
 6426SOL     OW31308   6.200   0.122   5.703
 6426SOL    HW131309   6.298   0.100   5.710
 6426SOL    HW231310   6.169   0.105   5.610
 6427SOL     OW31311   6.389   1.402   6.510
 6427SOL    HW131312   6.479   1.416   6.468
 6427SOL    HW231313   6.318   1.404   6.439
 6428SOL     OW31314   6.508   0.503   6.485
 6428SOL    HW131315   6.483   0.494   6.389
 6428SOL    HW231316   6.556   0.421   6.516
 6429SOL     OW31317   6.125   0.064   6.098
 6429SOL    HW131318   6.044   0.065   6.156
 6429SOL    HW231319   6.128   0.147   6.043
 6430SOL     OW31320   5.883   0.035   5.757
 6430SOL    HW131321   5.932   0.119   5.736
 6430SOL    HW231322   5.945  -0.030   5.802
 6431SOL     OW31323   6.813   1.570   6.379
 6431SOL    HW131324   6.834   1.644   6.314
 6431SOL    HW231325   6.881   1.570   6.452
 6432SOL     OW31326   6.045   1.152   6.327
 6432SOL    HW131327   5.974   1.125   6.392
 6432SOL    HW231328   6.019   1.124   6.234
 6433SOL     OW31329   6.618   0.549   5.602
 6433SOL    HW131330   6.577   0.631   5.563
 6433SOL    HW231331   6.682   0.575   5.675
 6434SOL     OW31332   6.147   0.222   6.733
 6434SOL    HW131333   6.185   0.138   6.770
 6434SOL    HW231334   6.059   0.241   6.777
 6435SOL     OW31335   6.452   0.454   6.228
 6435SOL    HW131336   6.420   0.526   6.166
 6435SOL    HW231337   6.476   0.373   6.175
 6436SOL     OW31338   6.603   0.039   6.339
 6436SOL    HW131339   6.531   0.044   6.270
 6436SOL    HW231340   6.579  -0.030   6.408
 6437SOL     OW31341   7.015   1.173   6.453
 6437SOL    HW131342   6.960   1.089   6.446
 6437SOL    HW231343   7.041   1.202   6.361
 6438SOL     OW31344   7.052   0.590   6.578
 6438SOL    HW131345   7.022   0.495   6.585
 6438SOL    HW231346   7.125   0.606   6.644
 6439SOL     OW31347   7.443   0.833   5.963
 6439SOL    HW131348   7.485   0.769   6.027
 6439SOL    HW231349   7.405   0.782   5.885
 6440SOL     OW31350   6.074   1.385   5.760
 6440SOL    HW131351   5.987   1.370   5.807
 6440SOL    HW231352   6.057   1.411   5.665
 6441SOL     OW31353   7.250   1.280   6.243
 6441SOL    HW131354   7.349   1.288   6.257
 6441SOL    HW231355   7.205   1.364   6.274
 6442SOL     OW31356   6.976   0.575   5.664
 6442SOL    HW131357   6.922   0.554   5.745
 6442SOL    HW231358   7.067   0.534   5.673
 6443SOL     OW31359   6.113   0.256   5.914
 6443SOL    HW131360   6.140   0.197   5.839
 6443SOL    HW231361   6.113   0.351   5.883
 6444SOL     OW31362   6.697   1.195   6.686
 6444SOL    HW131363   6.657   1.239   6.767
 6444SOL    HW231364   6.656   1.232   6.603
 6445SOL     OW31365   7.224   1.099   6.665
 6445SOL    HW131366   7.229   1.180   6.724
 6445SOL    HW231367   7.138   1.101   6.614
 6446SOL     OW31368   6.291   1.050   5.954
 6446SOL    HW131369   6.277   1.057   6.053
 6446SOL    HW231370   6.375   0.999   5.936
 6447SOL     OW31371   5.996   0.813   6.837
 6447SOL    HW131372   6.082   0.825   6.887
 6447SOL    HW231373   5.954   0.726   6.864
 6448SOL     OW31374   6.860   0.386   6.848
 6448SOL    HW131375   6.881   0.460   6.912
 6448SOL    HW231376   6.771   0.403   6.805
 6449SOL     OW31377   5.953   1.100   6.087
 6449SOL    HW131378   5.946   1.183   6.031
 6449SOL    HW231379   5.957   1.020   6.027
 6450SOL     OW31380   6.152   0.537   6.451
 6450SOL    HW131381   6.164   0.603   6.377
 6450SOL    HW231382   6.198   0.571   6.534
 6451SOL     OW31383   6.858   1.445   6.728
 6451SOL    HW131384   6.905   1.458   6.815
 6451SOL    HW231385   6.792   1.371   6.737
 6452SOL     OW31386   7.168   0.639   6.058
 6452SOL    HW131387   7.137   0.700   6.131
 6452SOL    HW231388   7.218   0.691   5.989
 6453SOL     OW31389   5.940   1.510   6.915
 6453SOL    HW131390   5.919   1.466   6.828
 6453SOL    HW231391   6.037   1.536   6.918
 6454SOL     OW31392   6.159   0.870   6.615
 6454SOL    HW131393   6.203   0.959   6.606
 6454SOL    HW231394   6.096   0.870   6.692
 6455SOL     OW31395   6.946   0.862   6.631
 6455SOL    HW131396   6.871   0.862   6.565
 6455SOL    HW231397   6.983   0.770   6.640
 6456SOL     OW31398   6.795   0.525   5.861
 6456SOL    HW131399   6.808   0.441   5.915
 6456SOL    HW231400   6.766   0.599   5.921
 6457SOL     OW31401   5.893   0.213   6.817
 6457SOL    HW131402   5.870   0.250   6.907
 6457SOL    HW231403   5.863   0.118   6.811
 6458SOL     OW31404   5.623   1.310   6.868
 6458SOL    HW131405   5.676   1.261   6.936
 6458SOL    HW231406   5.645   1.408   6.873
 6459SOL     OW31407   6.318   0.634   6.650
 6459SOL    HW131408   6.377   0.608   6.574
 6459SOL    HW231409   6.290   0.730   6.639
 6460SOL     OW31410   5.893   0.063   6.204
 6460SOL    HW131411   5.882   0.157   6.237
 6460SOL    HW231412   5.888   0.000   6.281
 6461SOL     OW31413   7.208   0.367   5.960
 6461SOL    HW131414   7.210   0.291   6.024
 6461SOL    HW231415   7.160   0.444   6.000
 6462SOL     OW31416   6.609   0.766   6.552
 6462SOL    HW131417   6.624   0.787   6.648
 6462SOL    HW231418   6.579   0.671   6.543
 6463SOL     OW31419   7.126   0.274   5.711
 6463SOL    HW131420   7.065   0.199   5.734
 6463SOL    HW231421   7.148   0.326   5.794
 6464SOL     OW31422   6.654   1.333   6.435
 6464SOL    HW131423   6.661   1.249   6.380
 6464SOL    HW231424   6.716   1.402   6.399
 6465SOL     OW31425   5.905   0.810   6.535
 6465SOL    HW131426   5.998   0.846   6.540
 6465SOL    HW231427   5.899   0.725   6.587
 6466SOL     OW31428   5.925   0.509   6.592
 6466SOL    HW131429   5.873   0.426   6.575
 6466SOL    HW231430   6.002   0.514   6.528
 6467SOL     OW31431   6.746   0.207   7.063
 6467SOL    HW131432   6.746   0.271   7.140
 6467SOL    HW231433   6.774   0.255   6.980
 6468SOL     OW31434   5.594   1.326   5.786
 6468SOL    HW131435   5.501   1.347   5.755
 6468SOL    HW231436   5.604   1.227   5.799
 6469SOL     OW31437   5.674   1.801   6.513
 6469SOL    HW131438   5.632   1.715   6.486
 6469SOL    HW231439   5.768   1.804   6.479
 6470SOL     OW31440   6.090   1.568   6.496
 6470SOL    HW131441   6.156   1.642   6.505
 6470SOL    HW231442   6.134   1.489   6.454
 6471SOL     OW31443   6.588   0.796   6.824
 6471SOL    HW131444   6.629   0.764   6.910
 6471SOL    HW231445   6.492   0.769   6.821
 6472SOL     OW31446   5.626   0.544   6.700
 6472SOL    HW131447   5.711   0.511   6.659
 6472SOL    HW231448   5.639   0.559   6.798
 6473SOL     OW31449   7.243   0.604   6.792
 6473SOL    HW131450   7.205   0.535   6.854
 6473SOL    HW231451   7.325   0.568   6.748
 6474SOL     OW31452   6.257   0.464   6.855
 6474SOL    HW131453   6.223   0.375   6.825
 6474SOL    HW231454   6.283   0.518   6.775
 6475SOL     OW31455   6.516   1.678   7.051
 6475SOL    HW131456   6.492   1.660   6.956
 6475SOL    HW231457   6.546   1.772   7.061
 6476SOL     OW31458   6.059   0.500   5.777
 6476SOL    HW131459   6.120   0.580   5.781
 6476SOL    HW231460   5.964   0.531   5.784
 6477SOL     OW31461   6.933   1.059   6.820
 6477SOL    HW131462   6.957   0.996   6.746
 6477SOL    HW231463   6.843   1.099   6.802
 6478SOL     OW31464   6.888   0.855   5.895
 6478SOL    HW131465   6.802   0.824   5.937
 6478SOL    HW231466   6.884   0.841   5.796
 6479SOL     OW31467   7.345   1.747   6.740
 6479SOL    HW131468   7.406   1.777   6.667
 6479SOL    HW231469   7.307   1.658   6.718
 6480SOL     OW31470   6.838   1.731   6.714
 6480SOL    HW131471   6.922   1.736   6.660
 6480SOL    HW231472   6.815   1.635   6.732
 6481SOL     OW31473   5.669   1.258   6.608
 6481SOL    HW131474   5.664   1.257   6.708
 6481SOL    HW231475   5.586   1.217   6.570
 6482SOL     OW31476   7.312   0.135   6.109
 6482SOL    HW131477   7.385   0.118   6.042
 6482SOL    HW231478   7.281   0.048   6.147
 6483SOL     OW31479   6.866   0.927   6.258
 6483SOL    HW131480   6.926   0.846   6.260
 6483SOL    HW231481   6.906   0.996   6.198
 6484SOL     OW31482   6.258   1.616   5.740
 6484SOL    HW131483   6.267   1.626   5.641
 6484SOL    HW231484   6.218   1.527   5.761
 6485SOL     OW31485   7.236   1.720   6.980
 6485SOL    HW131486   7.289   1.730   6.896
 6485SOL    HW231487   7.209   1.810   7.014
 6486SOL     OW31488   7.427   0.175   6.549
 6486SOL    HW131489   7.466   0.090   6.513
 6486SOL    HW231490   7.329   0.177   6.530
 6487SOL     OW31491   5.849   0.326   6.306
 6487SOL    HW131492   5.770   0.377   6.272
 6487SOL    HW231493   5.840   0.311   6.404
 6488SOL     OW31494   6.780   1.612   5.617
 6488SOL    HW131495   6.786   1.519   5.654
 6488SOL    HW231496   6.721   1.612   5.537
 6489SOL     OW31497   6.408   1.002   6.958
 6489SOL    HW131498   6.448   1.001   6.866
 6489SOL    HW231499   6.418   1.094   6.998
 6490SOL     OW31500   7.090   1.607   5.630
 6490SOL    HW131501   6.998   1.644   5.637
 6490SOL    HW231502   7.128   1.627   5.540
 6491SOL     OW31503   6.625   1.098   6.282
 6491SOL    HW131504   6.555   1.051   6.336
 6491SOL    HW231505   6.684   1.030   6.239
 6492SOL     OW31506   6.600   0.236   6.557
 6492SOL    HW131507   6.592   0.200   6.464
 6492SOL    HW231508   6.598   0.160   6.622
 6493SOL     OW31509   7.295   0.385   6.967
 6493SOL    HW131510   7.368   0.454   6.971
 6493SOL    HW231511   7.323   0.310   6.908
 6494SOL     OW31512   5.841   1.348   5.876
 6494SOL    HW131513   5.745   1.349   5.849
 6494SOL    HW231514   5.853   1.401   5.960
 6495SOL     OW31515   5.661   0.345   5.619
 6495SOL    HW131516   5.569   0.317   5.590
 6495SOL    HW231517   5.692   0.422   5.563
 6496SOL     OW31518   5.658   0.166   5.904
 6496SOL    HW131519   5.641   0.249   5.850
 6496SOL    HW231520   5.748   0.129   5.882
 6497SOL     OW31521   7.079   1.767   6.545
 6497SOL    HW131522   7.112   1.831   6.476
 6497SOL    HW231523   7.145   1.761   6.620
 6498SOL     OW31524   7.036   1.220   7.219
 6498SOL    HW131525   7.027   1.210   7.318
 6498SOL    HW231526   7.132   1.213   7.193
 6499SOL     OW31527   7.260   0.883   6.840
 6499SOL    HW131528   7.233   0.794   6.803
 6499SOL    HW231529   7.261   0.951   6.767
 6500SOL     OW31530   6.811   0.325   6.035
 6500SOL    HW131531   6.876   0.251   6.024
 6500SOL    HW231532   6.831   0.375   6.119
 6501SOL     OW31533   6.180   0.745   6.238
 6501SOL    HW131534   6.230   0.830   6.219
 6501SOL    HW231535   6.092   0.747   6.190
 6502SOL     OW31536   7.316   0.934   7.103
 6502SOL    HW131537   7.354   1.025   7.118
 6502SOL    HW231538   7.308   0.917   7.004
 6503SOL     OW31539   6.247   1.790   6.539
 6503SOL    HW131540   6.201   1.878   6.526
 6503SOL    HW231541   6.346   1.802   6.532
 6504SOL     OW31542   6.445   0.956   6.447
 6504SOL    HW131543   6.499   0.887   6.495
 6504SOL    HW231544   6.413   1.025   6.513
 6505SOL     OW31545   7.447   1.569   6.437
 6505SOL    HW131546   7.376   1.557   6.367
 6505SOL    HW231547   7.448   1.490   6.497
 6506SOL     OW31548   5.665   1.240   6.239
 6506SOL    HW131549   5.664   1.193   6.327
 6506SOL    HW231550   5.747   1.212   6.188
 6507SOL     OW31551   7.410   0.192   6.813
 6507SOL    HW131552   7.406   0.102   6.857
 6507SOL    HW231553   7.413   0.181   6.714
 6508SOL     OW31554   6.014   0.424   6.106
 6508SOL    HW131555   6.044   0.352   6.044
 6508SOL    HW231556   5.975   0.384   6.189
 6509SOL     OW31557   7.291   1.487   6.690
 6509SOL    HW131558   7.198   1.462   6.663
 6509SOL    HW231559   7.317   1.437   6.772
 6510SOL     OW31560   6.398   1.586   6.273
 6510SOL    HW131561   6.430   1.596   6.179
 6510SOL    HW231562   6.319   1.524   6.275
 6511SOL     OW31563   7.010   0.214   6.698
 6511SOL    HW131564   7.062   0.149   6.753
 6511SOL    HW231565   6.961   0.277   6.759
 6512SOL     OW31566   6.587   0.034   6.740
 6512SOL    HW131567   6.524  -0.038   6.709
 6512SOL    HW231568   6.680  -0.002   6.740
 6513SOL     OW31569   6.938   0.052   5.754
 6513SOL    HW131570   6.973   0.011   5.670
 6513SOL    HW231571   6.848   0.014   5.774
 6514SOL     OW31572   6.886   0.453   6.277
 6514SOL    HW131573   6.827   0.533   6.281
 6514SOL    HW231574   6.901   0.418   6.370
 6515SOL     OW31575   7.179   0.221   6.468
 6515SOL    HW131576   7.095   0.220   6.522
 6515SOL    HW231577   7.181   0.304   6.412
 6516SOL     OW31578   5.625   1.077   5.886
 6516SOL    HW131579   5.724   1.066   5.877
 6516SOL    HW231580   5.585   0.991   5.918
 6517SOL     OW31581   6.461   1.646   5.923
 6517SOL    HW131582   6.384   1.611   5.869
 6517SOL    HW231583   6.429   1.717   5.985
 6518SOL     OW31584   5.816   2.490   0.113
 6518SOL    HW131585   5.723   2.488   0.150
 6518SOL    HW231586   5.817   2.451   0.021
 6519SOL     OW31587   5.811   2.137   0.996
 6519SOL    HW131588   5.846   2.120   1.088
 6519SOL    HW231589   5.723   2.092   0.984
 6520SOL     OW31590   5.605   2.230   0.647
 6520SOL    HW131591   5.523   2.273   0.686
 6520SOL    HW231592   5.577   2.157   0.584
 6521SOL     OW31593   6.155   3.137   1.165
 6521SOL    HW131594   6.062   3.130   1.128
 6521SOL    HW231595   6.166   3.226   1.209
 6522SOL     OW31596   7.141   3.373   0.703
 6522SOL    HW131597   7.084   3.357   0.784
 6522SOL    HW231598   7.082   3.383   0.623
 6523SOL     OW31599   6.721   2.565   0.717
 6523SOL    HW131600   6.778   2.643   0.692
 6523SOL    HW231601   6.661   2.591   0.793
 6524SOL     OW31602   7.341   2.469   0.231
 6524SOL    HW131603   7.329   2.456   0.132
 6524SOL    HW231604   7.311   2.388   0.280
 6525SOL     OW31605   6.354   3.006   1.023
 6525SOL    HW131606   6.276   3.023   1.083
 6525SOL    HW231607   6.388   3.093   0.987
 6526SOL     OW31608   6.271   2.874   0.665
 6526SOL    HW131609   6.340   2.858   0.735
 6526SOL    HW231610   6.198   2.931   0.703
 6527SOL     OW31611   5.921   3.297   1.061
 6527SOL    HW131612   5.843   3.266   1.008
 6527SOL    HW231613   5.979   3.355   1.004
 6528SOL     OW31614   7.046   3.367   1.339
 6528SOL    HW131615   7.070   3.461   1.365
 6528SOL    HW231616   7.030   3.313   1.421
 6529SOL     OW31617   6.024   2.254   1.499
 6529SOL    HW131618   6.106   2.198   1.508
 6529SOL    HW231619   5.943   2.196   1.503
 6530SOL     OW31620   7.189   2.309   0.737
 6530SOL    HW131621   7.115   2.355   0.687
 6530SOL    HW231622   7.240   2.377   0.790
 6531SOL     OW31623   5.817   3.575   0.483
 6531SOL    HW131624   5.851   3.652   0.537
 6531SOL    HW231625   5.861   3.575   0.393
 6532SOL     OW31626   5.816   3.296   0.538
 6532SOL    HW131627   5.790   3.392   0.538
 6532SOL    HW231628   5.745   3.242   0.583
 6533SOL     OW31629   5.826   2.953   0.886
 6533SOL    HW131630   5.840   2.869   0.938
 6533SOL    HW231631   5.771   3.017   0.941
 6534SOL     OW31632   6.192   2.826   0.123
 6534SOL    HW131633   6.199   2.910   0.069
 6534SOL    HW231634   6.238   2.839   0.211
 6535SOL     OW31635   7.428   3.629   0.359
 6535SOL    HW131636   7.482   3.600   0.439
 6535SOL    HW231637   7.458   3.719   0.330
 6536SOL     OW31638   5.613   3.458   0.117
 6536SOL    HW131639   5.594   3.362   0.138
 6536SOL    HW231640   5.580   3.516   0.192
 6537SOL     OW31641   7.275   2.784   0.612
 6537SOL    HW131642   7.370   2.755   0.620
 6537SOL    HW231643   7.267   2.849   0.537
 6538SOL     OW31644   7.227   2.970   0.432
 6538SOL    HW131645   7.313   2.972   0.380
 6538SOL    HW231646   7.241   3.017   0.520
 6539SOL     OW31647   5.699   2.599   1.597
 6539SOL    HW131648   5.787   2.586   1.642
 6539SOL    HW231649   5.686   2.696   1.575
 6540SOL     OW31650   6.199   3.227   0.726
 6540SOL    HW131651   6.150   3.140   0.735
 6540SOL    HW231652   6.176   3.270   0.639
 6541SOL     OW31653   6.395   1.866   0.502
 6541SOL    HW131654   6.435   1.957   0.493
 6541SOL    HW231655   6.295   1.874   0.508
 6542SOL     OW31656   7.111   2.861   0.190
 6542SOL    HW131657   7.048   2.785   0.203
 6542SOL    HW231658   7.159   2.879   0.276
 6543SOL     OW31659   6.773   3.654   1.616
 6543SOL    HW131660   6.797   3.714   1.540
 6543SOL    HW231661   6.780   3.559   1.586
 6544SOL     OW31662   5.903   2.113   1.801
 6544SOL    HW131663   5.974   2.184   1.807
 6544SOL    HW231664   5.815   2.152   1.829
 6545SOL     OW31665   7.052   3.279   0.953
 6545SOL    HW131666   6.993   3.285   1.033
 6545SOL    HW231667   7.037   3.191   0.907
 6546SOL     OW31668   7.253   3.576   0.572
 6546SOL    HW131669   7.212   3.553   0.484
 6546SOL    HW231670   7.235   3.502   0.637
 6547SOL     OW31671   6.184   2.591   0.270
 6547SOL    HW131672   6.208   2.660   0.202
 6547SOL    HW231673   6.106   2.624   0.324
 6548SOL     OW31674   6.867   2.207   0.944
 6548SOL    HW131675   6.781   2.157   0.931
 6548SOL    HW231676   6.929   2.153   1.000
 6549SOL     OW31677   7.162   3.524   0.307
 6549SOL    HW131678   7.251   3.570   0.310
 6549SOL    HW231679   7.141   3.500   0.212
 6550SOL     OW31680   6.393   2.467   1.465
 6550SOL    HW131681   6.346   2.464   1.554
 6550SOL    HW231682   6.342   2.412   1.399
 6551SOL     OW31683   6.980   2.331   1.674
 6551SOL    HW131684   6.960   2.374   1.762
 6551SOL    HW231685   7.058   2.269   1.683
 6552SOL     OW31686   6.559   2.752   1.572
 6552SOL    HW131687   6.605   2.668   1.543
 6552SOL    HW231688   6.503   2.786   1.497
 6553SOL     OW31689   6.577   2.272   1.242
 6553SOL    HW131690   6.500   2.306   1.296
 6553SOL    HW231691   6.543   2.221   1.163
 6554SOL     OW31692   6.627   2.563   0.429
 6554SOL    HW131693   6.653   2.559   0.525
 6554SOL    HW231694   6.542   2.512   0.415
 6555SOL     OW31695   6.451   2.210   0.195
 6555SOL    HW131696   6.510   2.273   0.146
 6555SOL    HW231697   6.470   2.116   0.166
 6556SOL     OW31698   6.948   3.006   0.545
 6556SOL    HW131699   7.031   2.977   0.497
 6556SOL    HW231700   6.899   3.073   0.489
 6557SOL     OW31701   6.136   2.058   0.885
 6557SOL    HW131702   6.131   2.053   0.985
 6557SOL    HW231703   6.138   2.154   0.856
 6558SOL     OW31704   6.594   3.318   0.477
 6558SOL    HW131705   6.548   3.390   0.425
 6558SOL    HW231706   6.590   3.338   0.575
 6559SOL     OW31707   5.937   3.663   0.853
 6559SOL    HW131708   5.987   3.577   0.859
 6559SOL    HW231709   6.002   3.740   0.850
 6560SOL     OW31710   7.381   2.928   0.873
 6560SOL    HW131711   7.319   2.913   0.797
 6560SOL    HW231712   7.329   2.939   0.958
 6561SOL     OW31713   6.813   3.412   1.506
 6561SOL    HW131714   6.819   3.335   1.570
 6561SOL    HW231715   6.761   3.386   1.426
 6562SOL     OW31716   5.907   2.805   0.242
 6562SOL    HW131717   5.989   2.844   0.200
 6562SOL    HW231718   5.880   2.723   0.193
 6563SOL     OW31719   7.044   2.597   0.728
 6563SOL    HW131720   7.039   2.532   0.803
 6563SOL    HW231721   7.124   2.656   0.741
 6564SOL     OW31722   5.788   2.147   1.498
 6564SOL    HW131723   5.708   2.207   1.485
 6564SOL    HW231724   5.778   2.098   1.584
 6565SOL     OW31725   7.218   3.239   0.081
 6565SOL    HW131726   7.186   3.333   0.071
 6565SOL    HW231727   7.142   3.176   0.069
 6566SOL     OW31728   6.050   3.605   0.323
 6566SOL    HW131729   6.083   3.644   0.409
 6566SOL    HW231730   6.126   3.598   0.258
 6567SOL     OW31731   6.986   1.969   0.426
 6567SOL    HW131732   6.962   1.932   0.336
 6567SOL    HW231733   7.085   1.985   0.430
 6568SOL     OW31734   5.835   3.647   1.241
 6568SOL    HW131735   5.892   3.582   1.291
 6568SOL    HW231736   5.819   3.614   1.148
 6569SOL     OW31737   6.526   3.560   0.904
 6569SOL    HW131738   6.606   3.503   0.925
 6569SOL    HW231739   6.477   3.520   0.827
 6570SOL     OW31740   7.133   2.084   1.729
 6570SOL    HW131741   7.128   2.121   1.821
 6570SOL    HW231742   7.061   2.015   1.717
 6571SOL     OW31743   6.474   3.376   1.195
 6571SOL    HW131744   6.451   3.351   1.101
 6571SOL    HW231745   6.535   3.307   1.234
 6572SOL     OW31746   6.937   2.452   1.433
 6572SOL    HW131747   6.965   2.409   1.518
 6572SOL    HW231748   6.962   2.548   1.434
 6573SOL     OW31749   6.389   3.264   0.924
 6573SOL    HW131750   6.479   3.278   0.882
 6573SOL    HW231751   6.318   3.266   0.853
 6574SOL     OW31752   6.508   2.365   0.899
 6574SOL    HW131753   6.483   2.356   0.803
 6574SOL    HW231754   6.556   2.283   0.930
 6575SOL     OW31755   6.125   1.926   0.512
 6575SOL    HW131756   6.044   1.927   0.570
 6575SOL    HW231757   6.128   2.009   0.457
 6576SOL     OW31758   7.020   3.050   0.041
 6576SOL    HW131759   7.052   2.974   0.098
 6576SOL    HW231760   6.928   3.077   0.071
 6577SOL     OW31761   5.883   1.897   0.171
 6577SOL    HW131762   5.932   1.981   0.150
 6577SOL    HW231763   5.945   1.832   0.216
 6578SOL     OW31764   6.521   2.098   0.480
 6578SOL    HW131765   6.473   2.139   0.402
 6578SOL    HW231766   6.620   2.096   0.461
 6579SOL     OW31767   6.662   2.545   1.464
 6579SOL    HW131768   6.582   2.484   1.467
 6579SOL    HW231769   6.743   2.492   1.440
 6580SOL     OW31770   6.813   3.432   0.793
 6580SOL    HW131771   6.834   3.506   0.728
 6580SOL    HW231772   6.881   3.432   0.866
 6581SOL     OW31773   6.857   3.659   0.591
 6581SOL    HW131774   6.901   3.723   0.527
 6581SOL    HW231775   6.807   3.711   0.661
 6582SOL     OW31776   6.618   2.411   0.016
 6582SOL    HW131777   6.577   2.493  -0.023
 6582SOL    HW231778   6.682   2.437   0.089
 6583SOL     OW31779   5.664   2.418   1.386
 6583SOL    HW131780   5.756   2.417   1.345
 6583SOL    HW231781   5.658   2.492   1.453
 6584SOL     OW31782   6.147   2.084   1.147
 6584SOL    HW131783   6.185   2.000   1.184
 6584SOL    HW231784   6.059   2.103   1.191
 6585SOL     OW31785   6.452   2.316   0.642
 6585SOL    HW131786   6.420   2.388   0.580
 6585SOL    HW231787   6.476   2.235   0.589
 6586SOL     OW31788   6.603   1.901   0.753
 6586SOL    HW131789   6.531   1.906   0.684
 6586SOL    HW231790   6.579   1.832   0.822
 6587SOL     OW31791   7.015   3.035   0.867
 6587SOL    HW131792   6.960   2.951   0.860
 6587SOL    HW231793   7.041   3.064   0.775
 6588SOL     OW31794   7.052   2.452   0.992
 6588SOL    HW131795   7.022   2.357   0.999
 6588SOL    HW231796   7.125   2.468   1.058
 6589SOL     OW31797   7.443   2.695   0.377
 6589SOL    HW131798   7.485   2.631   0.441
 6589SOL    HW231799   7.405   2.644   0.299
 6590SOL     OW31800   6.074   3.247   0.174
 6590SOL    HW131801   5.987   3.232   0.221
 6590SOL    HW231802   6.057   3.273   0.079
 6591SOL     OW31803   7.250   3.142   0.657
 6591SOL    HW131804   7.349   3.150   0.671
 6591SOL    HW231805   7.205   3.226   0.688
 6592SOL     OW31806   6.976   2.437   0.078
 6592SOL    HW131807   6.922   2.416   0.159
 6592SOL    HW231808   7.067   2.396   0.087
 6593SOL     OW31809   6.113   2.118   0.328
 6593SOL    HW131810   6.140   2.059   0.253
 6593SOL    HW231811   6.113   2.213   0.297
 6594SOL     OW31812   6.697   3.057   1.100
 6594SOL    HW131813   6.657   3.101   1.181
 6594SOL    HW231814   6.656   3.094   1.017
 6595SOL     OW31815   7.224   2.961   1.079
 6595SOL    HW131816   7.229   3.042   1.138
 6595SOL    HW231817   7.138   2.963   1.028
 6596SOL     OW31818   6.501   1.951   1.402
 6596SOL    HW131819   6.526   1.931   1.307
 6596SOL    HW231820   6.573   2.007   1.444
 6597SOL     OW31821   6.566   2.978   1.719
 6597SOL    HW131822   6.467   2.984   1.729
 6597SOL    HW231823   6.589   2.898   1.663
 6598SOL     OW31824   6.291   2.912   0.368
 6598SOL    HW131825   6.277   2.919   0.467
 6598SOL    HW231826   6.375   2.861   0.350
 6599SOL     OW31827   6.860   2.248   1.262
 6599SOL    HW131828   6.881   2.322   1.326
 6599SOL    HW231829   6.771   2.265   1.219
 6600SOL     OW31830   5.650   3.426   1.331
 6600SOL    HW131831   5.604   3.508   1.297
 6600SOL    HW231832   5.748   3.445   1.340
 6601SOL     OW31833   6.152   2.399   0.865
 6601SOL    HW131834   6.164   2.465   0.791
 6601SOL    HW231835   6.198   2.433   0.948
 6602SOL     OW31836   6.838   3.210   0.388
 6602SOL    HW131837   6.888   3.287   0.428
 6602SOL    HW231838   6.743   3.212   0.420
 6603SOL     OW31839   6.858   3.307   1.142
 6603SOL    HW131840   6.905   3.320   1.229
 6603SOL    HW231841   6.792   3.233   1.151
 6604SOL     OW31842   7.168   2.501   0.472
 6604SOL    HW131843   7.137   2.562   0.545
 6604SOL    HW231844   7.218   2.553   0.403
 6605SOL     OW31845   5.940   3.372   1.329
 6605SOL    HW131846   5.919   3.328   1.242
 6605SOL    HW231847   6.037   3.398   1.332
 6606SOL     OW31848   6.599   1.967   1.770
 6606SOL    HW131849   6.605   2.052   1.718
 6606SOL    HW231850   6.631   1.891   1.713
 6607SOL     OW31851   6.090   1.912   1.740
 6607SOL    HW131852   6.048   1.855   1.670
 6607SOL    HW231853   6.024   1.981   1.772
 6608SOL     OW31854   6.159   2.732   1.029
 6608SOL    HW131855   6.203   2.821   1.020
 6608SOL    HW231856   6.096   2.732   1.106
 6609SOL     OW31857   6.946   2.724   1.045
 6609SOL    HW131858   6.871   2.724   0.979
 6609SOL    HW231859   6.983   2.632   1.054
 6610SOL     OW31860   6.795   2.387   0.275
 6610SOL    HW131861   6.808   2.303   0.329
 6610SOL    HW231862   6.766   2.461   0.335
 6611SOL     OW31863   5.623   3.172   1.282
 6611SOL    HW131864   5.676   3.123   1.350
 6611SOL    HW231865   5.645   3.270   1.287
 6612SOL     OW31866   6.318   2.496   1.064
 6612SOL    HW131867   6.377   2.470   0.988
 6612SOL    HW231868   6.290   2.592   1.053
 6613SOL     OW31869   5.893   1.925   0.618
 6613SOL    HW131870   5.882   2.019   0.651
 6613SOL    HW231871   5.888   1.862   0.695
 6614SOL     OW31872   7.208   2.229   0.374
 6614SOL    HW131873   7.210   2.153   0.438
 6614SOL    HW231874   7.160   2.306   0.414
 6615SOL     OW31875   6.609   2.628   0.966
 6615SOL    HW131876   6.624   2.649   1.062
 6615SOL    HW231877   6.579   2.533   0.957
 6616SOL     OW31878   6.566   3.435   1.700
 6616SOL    HW131879   6.546   3.479   1.612
 6616SOL    HW231880   6.605   3.344   1.684
 6617SOL     OW31881   7.126   2.136   0.125
 6617SOL    HW131882   7.065   2.061   0.148
 6617SOL    HW231883   7.148   2.188   0.208
 6618SOL     OW31884   6.889   2.700   0.042
 6618SOL    HW131885   6.923   2.607   0.057
 6618SOL    HW231886   6.907   2.727  -0.053
 6619SOL     OW31887   6.654   3.195   0.849
 6619SOL    HW131888   6.661   3.111   0.794
 6619SOL    HW231889   6.716   3.264   0.813
 6620SOL     OW31890   5.905   2.672   0.949
 6620SOL    HW131891   5.998   2.708   0.954
 6620SOL    HW231892   5.899   2.587   1.001
 6621SOL     OW31893   5.925   2.371   1.006
 6621SOL    HW131894   5.873   2.288   0.989
 6621SOL    HW231895   6.002   2.376   0.942
 6622SOL     OW31896   6.746   2.069   1.477
 6622SOL    HW131897   6.746   2.133   1.554
 6622SOL    HW231898   6.774   2.117   1.394
 6623SOL     OW31899   5.674   3.663   0.927
 6623SOL    HW131900   5.632   3.577   0.900
 6623SOL    HW231901   5.768   3.666   0.893
 6624SOL     OW31902   6.090   3.430   0.910
 6624SOL    HW131903   6.156   3.504   0.919
 6624SOL    HW231904   6.134   3.351   0.868
 6625SOL     OW31905   6.588   2.658   1.238
 6625SOL    HW131906   6.629   2.626   1.324
 6625SOL    HW231907   6.492   2.631   1.235
 6626SOL     OW31908   5.626   2.406   1.114
 6626SOL    HW131909   5.711   2.373   1.073
 6626SOL    HW231910   5.639   2.421   1.212
 6627SOL     OW31911   5.775   2.382   1.722
 6627SOL    HW131912   5.834   2.342   1.652
 6627SOL    HW231913   5.717   2.453   1.681
 6628SOL     OW31914   6.401   2.434   0.325
 6628SOL    HW131915   6.408   2.345   0.279
 6628SOL    HW231916   6.307   2.468   0.317
 6629SOL     OW31917   7.243   2.466   1.206
 6629SOL    HW131918   7.205   2.397   1.268
 6629SOL    HW231919   7.325   2.430   1.162
 6630SOL     OW31920   5.838   3.426   1.744
 6630SOL    HW131921   5.808   3.483   1.820
 6630SOL    HW231922   5.831   3.329   1.770
 6631SOL     OW31923   6.257   2.326   1.269
 6631SOL    HW131924   6.223   2.237   1.239
 6631SOL    HW231925   6.283   2.380   1.189
 6632SOL     OW31926   6.059   2.362   0.191
 6632SOL    HW131927   6.120   2.442   0.195
 6632SOL    HW231928   5.964   2.393   0.198
 6633SOL     OW31929   5.745   2.999   1.466
 6633SOL    HW131930   5.767   2.938   1.542
 6633SOL    HW231931   5.755   2.950   1.380
 6634SOL     OW31932   6.933   2.921   1.234
 6634SOL    HW131933   6.957   2.858   1.160
 6634SOL    HW231934   6.843   2.961   1.216
 6635SOL     OW31935   6.888   2.717   0.309
 6635SOL    HW131936   6.802   2.686   0.351
 6635SOL    HW231937   6.884   2.703   0.210
 6636SOL     OW31938   7.345   3.609   1.154
 6636SOL    HW131939   7.406   3.639   1.081
 6636SOL    HW231940   7.307   3.520   1.132
 6637SOL     OW31941   6.838   3.593   1.128
 6637SOL    HW131942   6.922   3.598   1.074
 6637SOL    HW231943   6.815   3.497   1.146
 6638SOL     OW31944   6.489   1.948   0.133
 6638SOL    HW131945   6.540   1.949   0.047
 6638SOL    HW231946   6.545   1.906   0.204
 6639SOL     OW31947   7.312   1.997   0.523
 6639SOL    HW131948   7.385   1.980   0.456
 6639SOL    HW231949   7.281   1.910   0.561
 6640SOL     OW31950   6.974   3.435   0.477
 6640SOL    HW131951   7.041   3.447   0.403
 6640SOL    HW231952   6.934   3.524   0.500
 6641SOL     OW31953   6.866   2.789   0.672
 6641SOL    HW131954   6.926   2.708   0.674
 6641SOL    HW231955   6.906   2.858   0.612
 6642SOL     OW31956   6.416   3.135   1.422
 6642SOL    HW131957   6.411   3.168   1.517
 6642SOL    HW231958   6.330   3.154   1.376
 6643SOL     OW31959   6.258   3.478   0.154
 6643SOL    HW131960   6.267   3.488   0.055
 6643SOL    HW231961   6.218   3.389   0.175
 6644SOL     OW31962   7.236   3.582   1.394
 6644SOL    HW131963   7.289   3.592   1.310
 6644SOL    HW231964   7.209   3.672   1.428
 6645SOL     OW31965   7.427   2.037   0.963
 6645SOL    HW131966   7.466   1.952   0.927
 6645SOL    HW231967   7.329   2.039   0.944
 6646SOL     OW31968   5.849   2.188   0.720
 6646SOL    HW131969   5.770   2.239   0.686
 6646SOL    HW231970   5.840   2.173   0.818
 6647SOL     OW31971   6.408   2.864   1.372
 6647SOL    HW131972   6.448   2.863   1.280
 6647SOL    HW231973   6.418   2.956   1.412
 6648SOL     OW31974   6.502   2.772   0.291
 6648SOL    HW131975   6.565   2.810   0.223
 6648SOL    HW231976   6.542   2.689   0.330
 6649SOL     OW31977   5.958   3.150   1.490
 6649SOL    HW131978   5.945   3.243   1.456
 6649SOL    HW231979   5.874   3.098   1.477
 6650SOL     OW31980   7.200   3.154   1.289
 6650SOL    HW131981   7.260   3.157   1.369
 6650SOL    HW231982   7.125   3.218   1.302
 6651SOL     OW31983   6.625   2.960   0.696
 6651SOL    HW131984   6.555   2.913   0.750
 6651SOL    HW231985   6.684   2.892   0.653
 6652SOL     OW31986   6.600   2.098   0.971
 6652SOL    HW131987   6.592   2.062   0.878
 6652SOL    HW231988   6.598   2.022   1.036
 6653SOL     OW31989   6.176   3.349   0.491
 6653SOL    HW131990   6.218   3.291   0.421
 6653SOL    HW231991   6.132   3.428   0.447
 6654SOL     OW31992   5.841   3.210   0.290
 6654SOL    HW131993   5.745   3.211   0.263
 6654SOL    HW231994   5.853   3.263   0.374
 6655SOL     OW31995   6.258   2.065   1.489
 6655SOL    HW131996   6.348   2.049   1.449
 6655SOL    HW231997   6.266   2.070   1.588
 6656SOL     OW31998   7.026   2.718   1.398
 6656SOL    HW131999   6.969   2.770   1.335
 6656SOL    HW232000   7.122   2.730   1.374
 6657SOL     OW32001   5.658   2.028   0.318
 6657SOL    HW132002   5.641   2.111   0.264
 6657SOL    HW232003   5.748   1.991   0.296
 6658SOL     OW32004   6.769   3.197   0.119
 6658SOL    HW132005   6.670   3.186   0.121
 6658SOL    HW232006   6.803   3.212   0.212
 6659SOL     OW32007   7.079   3.629   0.959
 6659SOL    HW132008   7.112   3.693   0.890
 6659SOL    HW232009   7.145   3.623   1.034
 6660SOL     OW32010   7.260   2.745   1.254
 6660SOL    HW132011   7.233   2.656   1.217
 6660SOL    HW232012   7.261   2.813   1.181
 6661SOL     OW32013   6.811   2.187   0.449
 6661SOL    HW132014   6.876   2.113   0.438
 6661SOL    HW232015   6.831   2.237   0.533
 6662SOL     OW32016   6.180   2.607   0.652
 6662SOL    HW132017   6.230   2.692   0.633
 6662SOL    HW232018   6.092   2.609   0.604
 6663SOL     OW32019   6.445   3.236   0.016
 6663SOL    HW132020   6.399   3.251   0.104
 6663SOL    HW232021   6.489   3.321  -0.014
 6664SOL     OW32022   6.247   3.652   0.953
 6664SOL    HW132023   6.201   3.740   0.940
 6664SOL    HW232024   6.346   3.664   0.946
 6665SOL     OW32025   6.445   2.818   0.861
 6665SOL    HW132026   6.499   2.749   0.909
 6665SOL    HW232027   6.413   2.887   0.927
 6666SOL     OW32028   6.669   2.846   0.087
 6666SOL    HW132029   6.646   2.899   0.005
 6666SOL    HW232030   6.750   2.790   0.068
 6667SOL     OW32031   7.447   3.431   0.851
 6667SOL    HW132032   7.376   3.419   0.781
 6667SOL    HW232033   7.448   3.352   0.911
 6668SOL     OW32034   6.014   2.286   0.520
 6668SOL    HW132035   6.044   2.214   0.458
 6668SOL    HW232036   5.975   2.246   0.603
 6669SOL     OW32037   7.291   3.349   1.104
 6669SOL    HW132038   7.198   3.324   1.077
 6669SOL    HW232039   7.317   3.299   1.186
 6670SOL     OW32040   5.903   2.409   1.280
 6670SOL    HW132041   5.941   2.350   1.352
 6670SOL    HW232042   5.943   2.383   1.192
 6671SOL     OW32043   6.398   3.448   0.687
 6671SOL    HW132044   6.430   3.458   0.593
 6671SOL    HW232045   6.319   3.386   0.689
 6672SOL     OW32046   7.010   2.076   1.112
 6672SOL    HW132047   7.062   2.011   1.167
 6672SOL    HW232048   6.961   2.139   1.173
 6673SOL     OW32049   6.587   1.896   1.154
 6673SOL    HW132050   6.524   1.824   1.123
 6673SOL    HW232051   6.680   1.860   1.154
 6674SOL     OW32052   6.356   3.192   0.301
 6674SOL    HW132053   6.310   3.105   0.318
 6674SOL    HW232054   6.447   3.189   0.342
 6675SOL     OW32055   6.204   3.429   1.284
 6675SOL    HW132056   6.199   3.511   1.341
 6675SOL    HW232057   6.293   3.426   1.239
 6676SOL     OW32058   6.938   1.914   0.168
 6676SOL    HW132059   6.973   1.873   0.084
 6676SOL    HW232060   6.848   1.876   0.188
 6677SOL     OW32061   6.886   2.315   0.691
 6677SOL    HW132062   6.827   2.395   0.695
 6677SOL    HW232063   6.901   2.280   0.784
 6678SOL     OW32064   7.179   2.083   0.882
 6678SOL    HW132065   7.095   2.082   0.936
 6678SOL    HW232066   7.181   2.166   0.826
 6679SOL     OW32067   6.461   3.508   0.337
 6679SOL    HW132068   6.384   3.473   0.283
 6679SOL    HW232069   6.429   3.579   0.399
 6680SOL     OW32070   5.816   2.490   1.975
 6680SOL    HW132071   5.723   2.488   2.012
 6680SOL    HW232072   5.817   2.451   1.883
 6681SOL     OW32073   6.155   3.137   3.027
 6681SOL    HW132074   6.062   3.130   2.990
 6681SOL    HW232075   6.166   3.226   3.071
 6682SOL     OW32076   6.721   2.565   2.579
 6682SOL    HW132077   6.778   2.643   2.554
 6682SOL    HW232078   6.661   2.591   2.655
 6683SOL     OW32079   6.271   2.874   2.527
 6683SOL    HW132080   6.340   2.858   2.597
 6683SOL    HW232081   6.198   2.931   2.565
 6684SOL     OW32082   6.272   3.023   3.665
 6684SOL    HW132083   6.332   3.102   3.679
 6684SOL    HW232084   6.186   3.054   3.624
 6685SOL     OW32085   7.046   3.367   3.201
 6685SOL    HW132086   7.070   3.461   3.227
 6685SOL    HW232087   7.030   3.313   3.283
 6686SOL     OW32088   7.189   2.309   2.599
 6686SOL    HW132089   7.115   2.355   2.549
 6686SOL    HW232090   7.240   2.377   2.652
 6687SOL     OW32091   6.713   3.203   3.552
 6687SOL    HW132092   6.760   3.203   3.640
 6687SOL    HW232093   6.665   3.116   3.541
 6688SOL     OW32094   5.816   3.296   2.400
 6688SOL    HW132095   5.790   3.392   2.400
 6688SOL    HW232096   5.745   3.242   2.445
 6689SOL     OW32097   7.180   1.976   3.342
 6689SOL    HW132098   7.162   2.043   3.270
 6689SOL    HW232099   7.177   2.022   3.431
 6690SOL     OW32100   7.275   2.784   2.474
 6690SOL    HW132101   7.370   2.755   2.482
 6690SOL    HW232102   7.267   2.849   2.399
 6691SOL     OW32103   5.699   2.599   3.459
 6691SOL    HW132104   5.787   2.586   3.504
 6691SOL    HW232105   5.686   2.696   3.437
 6692SOL     OW32106   6.199   3.227   2.588
 6692SOL    HW132107   6.150   3.140   2.597
 6692SOL    HW232108   6.176   3.270   2.501
 6693SOL     OW32109   5.783   2.838   3.126
 6693SOL    HW132110   5.872   2.793   3.112
 6693SOL    HW232111   5.710   2.773   3.107
 6694SOL     OW32112   6.773   3.654   3.478
 6694SOL    HW132113   6.797   3.714   3.402
 6694SOL    HW232114   6.780   3.559   3.448
 6695SOL     OW32115   5.903   2.113   3.663
 6695SOL    HW132116   5.974   2.184   3.669
 6695SOL    HW232117   5.815   2.152   3.691
 6696SOL     OW32118   6.393   2.467   3.327
 6696SOL    HW132119   6.346   2.464   3.416
 6696SOL    HW232120   6.342   2.412   3.261
 6697SOL     OW32121   6.627   2.563   2.291
 6697SOL    HW132122   6.653   2.559   2.387
 6697SOL    HW232123   6.542   2.512   2.277
 6698SOL     OW32124   5.716   3.683   3.433
 6698SOL    HW132125   5.706   3.668   3.532
 6698SOL    HW232126   5.630   3.719   3.397
 6699SOL     OW32127   7.381   2.928   2.735
 6699SOL    HW132128   7.319   2.913   2.659
 6699SOL    HW232129   7.329   2.939   2.820
 6700SOL     OW32130   5.788   2.147   3.360
 6700SOL    HW132131   5.708   2.207   3.347
 6700SOL    HW232132   5.778   2.098   3.446
 6701SOL     OW32133   6.050   3.605   2.185
 6701SOL    HW132134   6.083   3.644   2.271
 6701SOL    HW232135   6.126   3.598   2.120
 6702SOL     OW32136   7.133   2.084   3.591
 6702SOL    HW132137   7.128   2.121   3.683
 6702SOL    HW232138   7.061   2.015   3.579
 6703SOL     OW32139   6.367   2.126   3.611
 6703SOL    HW132140   6.434   2.065   3.654
 6703SOL    HW232141   6.294   2.145   3.676
 6704SOL     OW32142   7.250   3.142   2.519
 6704SOL    HW132143   7.349   3.150   2.533
 6704SOL    HW232144   7.205   3.226   2.550
 6705SOL     OW32145   6.976   2.437   1.940
 6705SOL    HW132146   6.922   2.416   2.021
 6705SOL    HW232147   7.067   2.396   1.949
 6706SOL     OW32148   7.178   3.491   3.487
 6706SOL    HW132149   7.205   3.525   3.397
 6706SOL    HW232150   7.257   3.453   3.533
 6707SOL     OW32151   6.697   3.057   2.962
 6707SOL    HW132152   6.657   3.101   3.043
 6707SOL    HW232153   6.656   3.094   2.879
 6708SOL     OW32154   6.501   1.951   3.264
 6708SOL    HW132155   6.526   1.931   3.169
 6708SOL    HW232156   6.573   2.007   3.306
 6709SOL     OW32157   6.566   2.978   3.581
 6709SOL    HW132158   6.467   2.984   3.591
 6709SOL    HW232159   6.589   2.898   3.525
 6710SOL     OW32160   5.996   2.675   3.113
 6710SOL    HW132161   6.082   2.687   3.163
 6710SOL    HW232162   5.954   2.588   3.140
 6711SOL     OW32163   5.988   2.613   3.460
 6711SOL    HW132164   6.056   2.668   3.413
 6711SOL    HW232165   6.028   2.525   3.487
 6712SOL     OW32166   6.090   1.912   3.602
 6712SOL    HW132167   6.048   1.855   3.532
 6712SOL    HW232168   6.024   1.981   3.634
 6713SOL     OW32169   6.795   2.387   2.137
 6713SOL    HW132170   6.808   2.303   2.191
 6713SOL    HW232171   6.766   2.461   2.197
 6714SOL     OW32172   5.893   2.075   3.093
 6714SOL    HW132173   5.870   2.112   3.183
 6714SOL    HW232174   5.863   1.980   3.087
 6715SOL     OW32175   5.623   3.172   3.144
 6715SOL    HW132176   5.676   3.123   3.212
 6715SOL    HW232177   5.645   3.270   3.149
 6716SOL     OW32178   7.126   2.136   1.987
 6716SOL    HW132179   7.065   2.061   2.010
 6716SOL    HW232180   7.148   2.188   2.070
 6717SOL     OW32181   6.889   2.700   1.904
 6717SOL    HW132182   6.923   2.607   1.919
 6717SOL    HW232183   6.907   2.727   1.809
 6718SOL     OW32184   5.905   2.672   2.811
 6718SOL    HW132185   5.998   2.708   2.816
 6718SOL    HW232186   5.899   2.587   2.863
 6719SOL     OW32187   5.775   2.382   3.584
 6719SOL    HW132188   5.834   2.342   3.514
 6719SOL    HW232189   5.717   2.453   3.543
 6720SOL     OW32190   6.955   2.812   3.522
 6720SOL    HW132191   6.994   2.901   3.542
 6720SOL    HW232192   6.965   2.792   3.425
 6721SOL     OW32193   5.838   3.426   3.606
 6721SOL    HW132194   5.808   3.483   3.682
 6721SOL    HW232195   5.831   3.329   3.632
 6722SOL     OW32196   6.257   2.326   3.131
 6722SOL    HW132197   6.223   2.237   3.101
 6722SOL    HW232198   6.283   2.380   3.051
 6723SOL     OW32199   5.745   2.999   3.328
 6723SOL    HW132200   5.767   2.938   3.404
 6723SOL    HW232201   5.755   2.950   3.242
 6724SOL     OW32202   6.933   2.921   3.096
 6724SOL    HW132203   6.957   2.858   3.022
 6724SOL    HW232204   6.843   2.961   3.078
 6725SOL     OW32205   7.345   3.609   3.016
 6725SOL    HW132206   7.406   3.639   2.943
 6725SOL    HW232207   7.307   3.520   2.994
 6726SOL     OW32208   5.849   2.188   2.582
 6726SOL    HW132209   5.770   2.239   2.548
 6726SOL    HW232210   5.840   2.173   2.680
 6727SOL     OW32211   6.408   2.864   3.234
 6727SOL    HW132212   6.448   2.863   3.142
 6727SOL    HW232213   6.418   2.956   3.274
 6728SOL     OW32214   6.600   2.098   2.833
 6728SOL    HW132215   6.592   2.062   2.740
 6728SOL    HW232216   6.598   2.022   2.898
 6729SOL     OW32217   7.295   2.247   3.243
 6729SOL    HW132218   7.368   2.316   3.247
 6729SOL    HW232219   7.323   2.172   3.184
 6730SOL     OW32220   5.661   2.207   1.895
 6730SOL    HW132221   5.569   2.179   1.866
 6730SOL    HW232222   5.692   2.284   1.839
 6731SOL     OW32223   7.079   3.629   2.821
 6731SOL    HW132224   7.112   3.693   2.752
 6731SOL    HW232225   7.145   3.623   2.896
 6732SOL     OW32226   7.036   3.082   3.495
 6732SOL    HW132227   7.027   3.072   3.594
 6732SOL    HW232228   7.132   3.075   3.469
 6733SOL     OW32229   5.976   3.603   3.422
 6733SOL    HW132230   5.885   3.644   3.420
 6733SOL    HW232231   5.969   3.509   3.454
 6734SOL     OW32232   6.811   2.187   2.311
 6734SOL    HW132233   6.876   2.113   2.300
 6734SOL    HW232234   6.831   2.237   2.395
 6735SOL     OW32235   6.669   2.846   1.949
 6735SOL    HW132236   6.646   2.899   1.867
 6735SOL    HW232237   6.750   2.790   1.930
 6736SOL     OW32238   6.258   3.253   3.486
 6736SOL    HW132239   6.180   3.203   3.524
 6736SOL    HW232240   6.255   3.348   3.517
 6737SOL     OW32241   6.014   2.286   2.382
 6737SOL    HW132242   6.044   2.214   2.320
 6737SOL    HW232243   5.975   2.246   2.465
 6738SOL     OW32244   5.903   2.409   3.142
 6738SOL    HW132245   5.941   2.350   3.214
 6738SOL    HW232246   5.943   2.383   3.054
 6739SOL     OW32247   6.204   3.429   3.146
 6739SOL    HW132248   6.199   3.511   3.203
 6739SOL    HW232249   6.293   3.426   3.101
 6740SOL     OW32250   6.938   1.914   2.030
 6740SOL    HW132251   6.973   1.873   1.946
 6740SOL    HW232252   6.848   1.876   2.050
 6741SOL     OW32253   7.179   2.083   2.744
 6741SOL    HW132254   7.095   2.082   2.798
 6741SOL    HW232255   7.181   2.166   2.688
 6742SOL     OW32256   5.605   2.230   4.371
 6742SOL    HW132257   5.523   2.273   4.410
 6742SOL    HW232258   5.577   2.157   4.308
 6743SOL     OW32259   6.155   3.137   4.889
 6743SOL    HW132260   6.062   3.130   4.852
 6743SOL    HW232261   6.166   3.226   4.933
 6744SOL     OW32262   6.436   2.660   5.547
 6744SOL    HW132263   6.432   2.736   5.612
 6744SOL    HW232264   6.458   2.696   5.456
 6745SOL     OW32265   5.817   3.575   4.207
 6745SOL    HW132266   5.851   3.652   4.261
 6745SOL    HW232267   5.861   3.575   4.117
 6746SOL     OW32268   7.180   1.976   5.204
 6746SOL    HW132269   7.162   2.043   5.132
 6746SOL    HW232270   7.177   2.022   5.293
 6747SOL     OW32271   7.428   3.629   4.083
 6747SOL    HW132272   7.482   3.600   4.163
 6747SOL    HW232273   7.458   3.719   4.054
 6748SOL     OW32274   5.613   3.458   3.841
 6748SOL    HW132275   5.594   3.362   3.862
 6748SOL    HW232276   5.580   3.516   3.916
 6749SOL     OW32277   6.395   1.866   4.226
 6749SOL    HW132278   6.435   1.957   4.217
 6749SOL    HW232279   6.295   1.874   4.232
 6750SOL     OW32280   7.111   2.861   3.914
 6750SOL    HW132281   7.048   2.785   3.927
 6750SOL    HW232282   7.159   2.879   4.000
 6751SOL     OW32283   5.903   2.113   5.525
 6751SOL    HW132284   5.974   2.184   5.531
 6751SOL    HW232285   5.815   2.152   5.553
 6752SOL     OW32286   7.052   3.279   4.677
 6752SOL    HW132287   6.993   3.285   4.757
 6752SOL    HW232288   7.037   3.191   4.631
 6753SOL     OW32289   6.559   2.752   5.296
 6753SOL    HW132290   6.605   2.668   5.267
 6753SOL    HW232291   6.503   2.786   5.221
 6754SOL     OW32292   6.948   3.006   4.269
 6754SOL    HW132293   7.031   2.977   4.221
 6754SOL    HW232294   6.899   3.073   4.213
 6755SOL     OW32295   6.136   2.058   4.609
 6755SOL    HW132296   6.131   2.053   4.709
 6755SOL    HW232297   6.138   2.154   4.580
 6756SOL     OW32298   5.937   3.663   4.577
 6756SOL    HW132299   5.987   3.577   4.583
 6756SOL    HW232300   6.002   3.740   4.574
 6757SOL     OW32301   6.813   3.412   5.230
 6757SOL    HW132302   6.819   3.335   5.294
 6757SOL    HW232303   6.761   3.386   5.150
 6758SOL     OW32304   5.907   2.805   3.966
 6758SOL    HW132305   5.989   2.844   3.924
 6758SOL    HW232306   5.880   2.723   3.917
 6759SOL     OW32307   6.047   3.128   5.451
 6759SOL    HW132308   5.997   3.129   5.365
 6759SOL    HW232309   5.984   3.110   5.527
 6760SOL     OW32310   7.218   3.239   3.805
 6760SOL    HW132311   7.186   3.333   3.795
 6760SOL    HW232312   7.142   3.176   3.793
 6761SOL     OW32313   6.526   3.560   4.628
 6761SOL    HW132314   6.606   3.503   4.649
 6761SOL    HW232315   6.477   3.520   4.551
 6762SOL     OW32316   6.200   1.984   3.841
 6762SOL    HW132317   6.298   1.962   3.848
 6762SOL    HW232318   6.169   1.967   3.748
 6763SOL     OW32319   6.367   2.126   5.473
 6763SOL    HW132320   6.434   2.065   5.516
 6763SOL    HW232321   6.294   2.145   5.538
 6764SOL     OW32322   6.474   3.376   4.919
 6764SOL    HW132323   6.451   3.351   4.825
 6764SOL    HW232324   6.535   3.307   4.958
 6765SOL     OW32325   6.389   3.264   4.648
 6765SOL    HW132326   6.479   3.278   4.606
 6765SOL    HW232327   6.318   3.266   4.577
 6766SOL     OW32328   6.508   2.365   4.623
 6766SOL    HW132329   6.483   2.356   4.527
 6766SOL    HW232330   6.556   2.283   4.654
 6767SOL     OW32331   7.020   3.050   3.765
 6767SOL    HW132332   7.052   2.974   3.822
 6767SOL    HW232333   6.928   3.077   3.795
 6768SOL     OW32334   6.045   3.014   4.465
 6768SOL    HW132335   5.974   2.987   4.530
 6768SOL    HW232336   6.019   2.986   4.372
 6769SOL     OW32337   6.857   3.659   4.315
 6769SOL    HW132338   6.901   3.723   4.251
 6769SOL    HW232339   6.807   3.711   4.385
 6770SOL     OW32340   5.664   2.418   5.110
 6770SOL    HW132341   5.756   2.417   5.069
 6770SOL    HW232342   5.658   2.492   5.177
 6771SOL     OW32343   6.452   2.316   4.366
 6771SOL    HW132344   6.420   2.388   4.304
 6771SOL    HW232345   6.476   2.235   4.313
 6772SOL     OW32346   6.074   3.247   3.898
 6772SOL    HW132347   5.987   3.232   3.945
 6772SOL    HW232348   6.057   3.273   3.803
 6773SOL     OW32349   6.113   2.118   4.052
 6773SOL    HW132350   6.140   2.059   3.977
 6773SOL    HW232351   6.113   2.213   4.021
 6774SOL     OW32352   6.697   3.057   4.824
 6774SOL    HW132353   6.657   3.101   4.905
 6774SOL    HW232354   6.656   3.094   4.741
 6775SOL     OW32355   7.224   2.961   4.803
 6775SOL    HW132356   7.229   3.042   4.862
 6775SOL    HW232357   7.138   2.963   4.752
 6776SOL     OW32358   6.566   2.978   5.443
 6776SOL    HW132359   6.467   2.984   5.453
 6776SOL    HW232360   6.589   2.898   5.387
 6777SOL     OW32361   6.291   2.912   4.092
 6777SOL    HW132362   6.277   2.919   4.191
 6777SOL    HW232363   6.375   2.861   4.074
 6778SOL     OW32364   5.953   2.962   4.225
 6778SOL    HW132365   5.946   3.045   4.169
 6778SOL    HW232366   5.957   2.882   4.165
 6779SOL     OW32367   6.838   3.210   4.112
 6779SOL    HW132368   6.888   3.287   4.152
 6779SOL    HW232369   6.743   3.212   4.144
 6780SOL     OW32370   5.988   2.613   5.322
 6780SOL    HW132371   6.056   2.668   5.275
 6780SOL    HW232372   6.028   2.525   5.349
 6781SOL     OW32373   6.599   1.967   5.494
 6781SOL    HW132374   6.605   2.052   5.442
 6781SOL    HW232375   6.631   1.891   5.437
 6782SOL     OW32376   6.795   2.387   3.999
 6782SOL    HW132377   6.808   2.303   4.053
 6782SOL    HW232378   6.766   2.461   4.059
 6783SOL     OW32379   5.893   2.075   4.955
 6783SOL    HW132380   5.870   2.112   5.045
 6783SOL    HW232381   5.863   1.980   4.949
 6784SOL     OW32382   7.208   2.229   4.098
 6784SOL    HW132383   7.210   2.153   4.162
 6784SOL    HW232384   7.160   2.306   4.138
 6785SOL     OW32385   6.609   2.628   4.690
 6785SOL    HW132386   6.624   2.649   4.786
 6785SOL    HW232387   6.579   2.533   4.681
 6786SOL     OW32388   6.566   3.435   5.424
 6786SOL    HW132389   6.546   3.479   5.336
 6786SOL    HW232390   6.605   3.344   5.408
 6787SOL     OW32391   5.936   2.760   5.528
 6787SOL    HW132392   6.012   2.804   5.576
 6787SOL    HW232393   5.971   2.713   5.446
 6788SOL     OW32394   7.126   2.136   3.849
 6788SOL    HW132395   7.065   2.061   3.872
 6788SOL    HW232396   7.148   2.188   3.932
 6789SOL     OW32397   5.925   2.371   4.730
 6789SOL    HW132398   5.873   2.288   4.713
 6789SOL    HW232399   6.002   2.376   4.666
 6790SOL     OW32400   6.401   2.434   4.049
 6790SOL    HW132401   6.408   2.345   4.003
 6790SOL    HW232402   6.307   2.468   4.041
 6791SOL     OW32403   6.888   2.717   4.033
 6791SOL    HW132404   6.802   2.686   4.075
 6791SOL    HW232405   6.884   2.703   3.934
 6792SOL     OW32406   6.866   2.789   4.396
 6792SOL    HW132407   6.926   2.708   4.398
 6792SOL    HW232408   6.906   2.858   4.336
 6793SOL     OW32409   6.416   3.135   5.146
 6793SOL    HW132410   6.411   3.168   5.241
 6793SOL    HW232411   6.330   3.154   5.100
 6794SOL     OW32412   7.236   3.582   5.118
 6794SOL    HW132413   7.289   3.592   5.034
 6794SOL    HW232414   7.209   3.672   5.152
 6795SOL     OW32415   6.780   3.474   3.755
 6795SOL    HW132416   6.786   3.381   3.792
 6795SOL    HW232417   6.721   3.474   3.675
 6796SOL     OW32418   6.502   2.772   4.015
 6796SOL    HW132419   6.565   2.810   3.947
 6796SOL    HW232420   6.542   2.689   4.054
 6797SOL     OW32421   5.958   3.150   5.214
 6797SOL    HW132422   5.945   3.243   5.180
 6797SOL    HW232423   5.874   3.098   5.201
 6798SOL     OW32424   6.625   2.960   4.420
 6798SOL    HW132425   6.555   2.913   4.474
 6798SOL    HW232426   6.684   2.892   4.377
 6799SOL     OW32427   6.176   3.349   4.215
 6799SOL    HW132428   6.218   3.291   4.145
 6799SOL    HW232429   6.132   3.428   4.171
 6800SOL     OW32430   7.295   2.247   5.105
 6800SOL    HW132431   7.368   2.316   5.109
 6800SOL    HW232432   7.323   2.172   5.046
 6801SOL     OW32433   5.691   2.875   5.450
 6801SOL    HW132434   5.614   2.842   5.504
 6801SOL    HW232435   5.776   2.845   5.492
 6802SOL     OW32436   5.658   2.028   4.042
 6802SOL    HW132437   5.641   2.111   3.988
 6802SOL    HW232438   5.748   1.991   4.020
 6803SOL     OW32439   6.769   3.197   3.843
 6803SOL    HW132440   6.670   3.186   3.845
 6803SOL    HW232441   6.803   3.212   3.936
 6804SOL     OW32442   6.302   2.427   5.432
 6804SOL    HW132443   6.321   2.492   5.506
 6804SOL    HW232444   6.362   2.347   5.441
 6805SOL     OW32445   7.036   3.082   5.357
 6805SOL    HW132446   7.027   3.072   5.456
 6805SOL    HW232447   7.132   3.075   5.331
 6806SOL     OW32448   6.811   2.187   4.173
 6806SOL    HW132449   6.876   2.113   4.162
 6806SOL    HW232450   6.831   2.237   4.257
 6807SOL     OW32451   6.445   3.236   3.740
 6807SOL    HW132452   6.399   3.251   3.828
 6807SOL    HW232453   6.489   3.321   3.710
 6808SOL     OW32454   5.903   2.409   5.004
 6808SOL    HW132455   5.941   2.350   5.076
 6808SOL    HW232456   5.943   2.383   4.916
 6809SOL     OW32457   6.398   3.448   4.411
 6809SOL    HW132458   6.430   3.458   4.317
 6809SOL    HW232459   6.319   3.386   4.413
 6810SOL     OW32460   7.010   2.076   4.836
 6810SOL    HW132461   7.062   2.011   4.891
 6810SOL    HW232462   6.961   2.139   4.897
 6811SOL     OW32463   6.356   3.192   4.025
 6811SOL    HW132464   6.310   3.105   4.042
 6811SOL    HW232465   6.447   3.189   4.066
 6812SOL     OW32466   5.625   2.939   4.024
 6812SOL    HW132467   5.724   2.928   4.015
 6812SOL    HW232468   5.585   2.853   4.056
 6813SOL     OW32469   6.461   3.508   4.061
 6813SOL    HW132470   6.384   3.473   4.007
 6813SOL    HW232471   6.429   3.579   4.123
 6814SOL     OW32472   5.816   2.490   5.699
 6814SOL    HW132473   5.723   2.488   5.736
 6814SOL    HW232474   5.817   2.451   5.607
 6815SOL     OW32475   5.811   2.137   6.582
 6815SOL    HW132476   5.846   2.120   6.674
 6815SOL    HW232477   5.723   2.092   6.570
 6816SOL     OW32478   5.605   2.230   6.233
 6816SOL    HW132479   5.523   2.273   6.272
 6816SOL    HW232480   5.577   2.157   6.170
 6817SOL     OW32481   6.155   3.137   6.751
 6817SOL    HW132482   6.062   3.130   6.714
 6817SOL    HW232483   6.166   3.226   6.795
 6818SOL     OW32484   7.141   3.373   6.289
 6818SOL    HW132485   7.084   3.357   6.370
 6818SOL    HW232486   7.082   3.383   6.209
 6819SOL     OW32487   6.721   2.565   6.303
 6819SOL    HW132488   6.778   2.643   6.278
 6819SOL    HW232489   6.661   2.591   6.379
 6820SOL     OW32490   6.354   3.006   6.609
 6820SOL    HW132491   6.276   3.023   6.669
 6820SOL    HW232492   6.388   3.093   6.573
 6821SOL     OW32493   6.271   2.874   6.251
 6821SOL    HW132494   6.340   2.858   6.321
 6821SOL    HW232495   6.198   2.931   6.289
 6822SOL     OW32496   5.921   3.297   6.647
 6822SOL    HW132497   5.843   3.266   6.594
 6822SOL    HW232498   5.979   3.355   6.590
 6823SOL     OW32499   7.189   2.309   6.323
 6823SOL    HW132500   7.115   2.355   6.273
 6823SOL    HW232501   7.240   2.377   6.376
 6824SOL     OW32502   5.826   2.953   6.472
 6824SOL    HW132503   5.840   2.869   6.524
 6824SOL    HW232504   5.771   3.017   6.527
 6825SOL     OW32505   6.206   3.648   7.025
 6825SOL    HW132506   6.114   3.631   7.060
 6825SOL    HW232507   6.234   3.740   7.051
 6826SOL     OW32508   6.192   2.826   5.709
 6826SOL    HW132509   6.199   2.910   5.655
 6826SOL    HW232510   6.238   2.839   5.797
 6827SOL     OW32511   5.708   2.505   6.149
 6827SOL    HW132512   5.663   2.417   6.166
 6827SOL    HW232513   5.707   2.559   6.233
 6828SOL     OW32514   7.275   2.784   6.198
 6828SOL    HW132515   7.370   2.755   6.206
 6828SOL    HW232516   7.267   2.849   6.123
 6829SOL     OW32517   6.199   3.227   6.312
 6829SOL    HW132518   6.150   3.140   6.321
 6829SOL    HW232519   6.176   3.270   6.225
 6830SOL     OW32520   6.395   1.866   6.088
 6830SOL    HW132521   6.435   1.957   6.079
 6830SOL    HW232522   6.295   1.874   6.094
 6831SOL     OW32523   5.783   2.838   6.850
 6831SOL    HW132524   5.872   2.793   6.836
 6831SOL    HW232525   5.710   2.773   6.831
 6832SOL     OW32526   7.052   3.279   6.539
 6832SOL    HW132527   6.993   3.285   6.619
 6832SOL    HW232528   7.037   3.191   6.493
 6833SOL     OW32529   7.253   3.576   6.158
 6833SOL    HW132530   7.212   3.553   6.070
 6833SOL    HW232531   7.235   3.502   6.223
 6834SOL     OW32532   6.184   2.591   5.856
 6834SOL    HW132533   6.208   2.660   5.788
 6834SOL    HW232534   6.106   2.624   5.910
 6835SOL     OW32535   6.867   2.207   6.530
 6835SOL    HW132536   6.781   2.157   6.517
 6835SOL    HW232537   6.929   2.153   6.586
 6836SOL     OW32538   6.577   2.272   6.828
 6836SOL    HW132539   6.500   2.306   6.882
 6836SOL    HW232540   6.543   2.221   6.749
 6837SOL     OW32541   5.662   2.673   6.375
 6837SOL    HW132542   5.761   2.661   6.384
 6837SOL    HW232543   5.638   2.768   6.396
 6838SOL     OW32544   6.451   2.210   5.781
 6838SOL    HW132545   6.510   2.273   5.732
 6838SOL    HW232546   6.470   2.116   5.752
 6839SOL     OW32547   6.948   3.006   6.131
 6839SOL    HW132548   7.031   2.977   6.083
 6839SOL    HW232549   6.899   3.073   6.075
 6840SOL     OW32550   6.136   2.058   6.471
 6840SOL    HW132551   6.131   2.053   6.571
 6840SOL    HW232552   6.138   2.154   6.442
 6841SOL     OW32553   6.594   3.318   6.063
 6841SOL    HW132554   6.548   3.390   6.011
 6841SOL    HW232555   6.590   3.338   6.161
 6842SOL     OW32556   5.937   3.663   6.439
 6842SOL    HW132557   5.987   3.577   6.445
 6842SOL    HW232558   6.002   3.740   6.436
 6843SOL     OW32559   7.381   2.928   6.459
 6843SOL    HW132560   7.319   2.913   6.383
 6843SOL    HW232561   7.329   2.939   6.544
 6844SOL     OW32562   5.907   2.805   5.828
 6844SOL    HW132563   5.989   2.844   5.786
 6844SOL    HW232564   5.880   2.723   5.779
 6845SOL     OW32565   7.044   2.597   6.314
 6845SOL    HW132566   7.039   2.532   6.389
 6845SOL    HW232567   7.124   2.656   6.327
 6846SOL     OW32568   5.835   3.647   6.827
 6846SOL    HW132569   5.892   3.582   6.877
 6846SOL    HW232570   5.819   3.614   6.734
 6847SOL     OW32571   6.526   3.560   6.490
 6847SOL    HW132572   6.606   3.503   6.511
 6847SOL    HW232573   6.477   3.520   6.413
 6848SOL     OW32574   5.968   2.562   6.066
 6848SOL    HW132575   6.013   2.472   6.063
 6848SOL    HW232576   5.874   2.551   6.099
 6849SOL     OW32577   6.200   1.984   5.703
 6849SOL    HW132578   6.298   1.962   5.710
 6849SOL    HW232579   6.169   1.967   5.610
 6850SOL     OW32580   6.389   3.264   6.510
 6850SOL    HW132581   6.479   3.278   6.468
 6850SOL    HW232582   6.318   3.266   6.439
 6851SOL     OW32583   6.508   2.365   6.485
 6851SOL    HW132584   6.483   2.356   6.389
 6851SOL    HW232585   6.556   2.283   6.516
 6852SOL     OW32586   6.125   1.926   6.098
 6852SOL    HW132587   6.044   1.927   6.156
 6852SOL    HW232588   6.128   2.009   6.043
 6853SOL     OW32589   7.020   3.050   5.627
 6853SOL    HW132590   7.052   2.974   5.684
 6853SOL    HW232591   6.928   3.077   5.657
 6854SOL     OW32592   5.883   1.897   5.757
 6854SOL    HW132593   5.932   1.981   5.736
 6854SOL    HW232594   5.945   1.832   5.802
 6855SOL     OW32595   6.521   2.098   6.066
 6855SOL    HW132596   6.473   2.139   5.988
 6855SOL    HW232597   6.620   2.096   6.047
 6856SOL     OW32598   6.813   3.432   6.379
 6856SOL    HW132599   6.834   3.506   6.314
 6856SOL    HW232600   6.881   3.432   6.452
 6857SOL     OW32601   6.045   3.014   6.327
 6857SOL    HW132602   5.974   2.987   6.392
 6857SOL    HW232603   6.019   2.986   6.234
 6858SOL     OW32604   6.857   3.659   6.177
 6858SOL    HW132605   6.901   3.723   6.113
 6858SOL    HW232606   6.807   3.711   6.247
 6859SOL     OW32607   6.147   2.084   6.733
 6859SOL    HW132608   6.185   2.000   6.770
 6859SOL    HW232609   6.059   2.103   6.777
 6860SOL     OW32610   6.452   2.316   6.228
 6860SOL    HW132611   6.420   2.388   6.166
 6860SOL    HW232612   6.476   2.235   6.175
 6861SOL     OW32613   6.603   1.901   6.339
 6861SOL    HW132614   6.531   1.906   6.270
 6861SOL    HW232615   6.579   1.832   6.408
 6862SOL     OW32616   7.015   3.035   6.453
 6862SOL    HW132617   6.960   2.951   6.446
 6862SOL    HW232618   7.041   3.064   6.361
 6863SOL     OW32619   7.052   2.452   6.578
 6863SOL    HW132620   7.022   2.357   6.585
 6863SOL    HW232621   7.125   2.468   6.644
 6864SOL     OW32622   7.250   3.142   6.243
 6864SOL    HW132623   7.349   3.150   6.257
 6864SOL    HW232624   7.205   3.226   6.274
 6865SOL     OW32625   6.113   2.118   5.914
 6865SOL    HW132626   6.140   2.059   5.839
 6865SOL    HW232627   6.113   2.213   5.883
 6866SOL     OW32628   6.697   3.057   6.686
 6866SOL    HW132629   6.657   3.101   6.767
 6866SOL    HW232630   6.656   3.094   6.603
 6867SOL     OW32631   7.224   2.961   6.665
 6867SOL    HW132632   7.229   3.042   6.724
 6867SOL    HW232633   7.138   2.963   6.614
 6868SOL     OW32634   6.291   2.912   5.954
 6868SOL    HW132635   6.277   2.919   6.053
 6868SOL    HW232636   6.375   2.861   5.936
 6869SOL     OW32637   5.996   2.675   6.837
 6869SOL    HW132638   6.082   2.687   6.887
 6869SOL    HW232639   5.954   2.588   6.864
 6870SOL     OW32640   6.860   2.248   6.848
 6870SOL    HW132641   6.881   2.322   6.912
 6870SOL    HW232642   6.771   2.265   6.805
 6871SOL     OW32643   6.152   2.399   6.451
 6871SOL    HW132644   6.164   2.465   6.377
 6871SOL    HW232645   6.198   2.433   6.534
 6872SOL     OW32646   6.838   3.210   5.974
 6872SOL    HW132647   6.888   3.287   6.014
 6872SOL    HW232648   6.743   3.212   6.006
 6873SOL     OW32649   6.858   3.307   6.728
 6873SOL    HW132650   6.905   3.320   6.815
 6873SOL    HW232651   6.792   3.233   6.737
 6874SOL     OW32652   5.940   3.372   6.915
 6874SOL    HW132653   5.919   3.328   6.828
 6874SOL    HW232654   6.037   3.398   6.918
 6875SOL     OW32655   6.159   2.732   6.615
 6875SOL    HW132656   6.203   2.821   6.606
 6875SOL    HW232657   6.096   2.732   6.692
 6876SOL     OW32658   6.946   2.724   6.631
 6876SOL    HW132659   6.871   2.724   6.565
 6876SOL    HW232660   6.983   2.632   6.640
 6877SOL     OW32661   5.893   2.075   6.817
 6877SOL    HW132662   5.870   2.112   6.907
 6877SOL    HW232663   5.863   1.980   6.811
 6878SOL     OW32664   5.623   3.172   6.868
 6878SOL    HW132665   5.676   3.123   6.936
 6878SOL    HW232666   5.645   3.270   6.873
 6879SOL     OW32667   6.318   2.496   6.650
 6879SOL    HW132668   6.377   2.470   6.574
 6879SOL    HW232669   6.290   2.592   6.639
 6880SOL     OW32670   6.609   2.628   6.552
 6880SOL    HW132671   6.624   2.649   6.648
 6880SOL    HW232672   6.579   2.533   6.543
 6881SOL     OW32673   6.654   3.195   6.435
 6881SOL    HW132674   6.661   3.111   6.380
 6881SOL    HW232675   6.716   3.264   6.399
 6882SOL     OW32676   5.905   2.672   6.535
 6882SOL    HW132677   5.998   2.708   6.540
 6882SOL    HW232678   5.899   2.587   6.587
 6883SOL     OW32679   5.925   2.371   6.592
 6883SOL    HW132680   5.873   2.288   6.575
 6883SOL    HW232681   6.002   2.376   6.528
 6884SOL     OW32682   6.746   2.069   7.063
 6884SOL    HW132683   6.746   2.133   7.140
 6884SOL    HW232684   6.774   2.117   6.980
 6885SOL     OW32685   5.674   3.663   6.513
 6885SOL    HW132686   5.632   3.577   6.486
 6885SOL    HW232687   5.768   3.666   6.479
 6886SOL     OW32688   6.090   3.430   6.496
 6886SOL    HW132689   6.156   3.504   6.505
 6886SOL    HW232690   6.134   3.351   6.454
 6887SOL     OW32691   6.588   2.658   6.824
 6887SOL    HW132692   6.629   2.626   6.910
 6887SOL    HW232693   6.492   2.631   6.821
 6888SOL     OW32694   5.626   2.406   6.700
 6888SOL    HW132695   5.711   2.373   6.659
 6888SOL    HW232696   5.639   2.421   6.798
 6889SOL     OW32697   6.401   2.434   5.911
 6889SOL    HW132698   6.408   2.345   5.865
 6889SOL    HW232699   6.307   2.468   5.903
 6890SOL     OW32700   7.243   2.466   6.792
 6890SOL    HW132701   7.205   2.397   6.854
 6890SOL    HW232702   7.325   2.430   6.748
 6891SOL     OW32703   6.257   2.326   6.855
 6891SOL    HW132704   6.223   2.237   6.825
 6891SOL    HW232705   6.283   2.380   6.775
 6892SOL     OW32706   6.516   3.540   7.051
 6892SOL    HW132707   6.492   3.522   6.956
 6892SOL    HW232708   6.546   3.634   7.061
 6893SOL     OW32709   6.059   2.362   5.777
 6893SOL    HW132710   6.120   2.442   5.781
 6893SOL    HW232711   5.964   2.393   5.784
 6894SOL     OW32712   6.933   2.921   6.820
 6894SOL    HW132713   6.957   2.858   6.746
 6894SOL    HW232714   6.843   2.961   6.802
 6895SOL     OW32715   7.345   3.609   6.740
 6895SOL    HW132716   7.406   3.639   6.667
 6895SOL    HW232717   7.307   3.520   6.718
 6896SOL     OW32718   7.312   1.997   6.109
 6896SOL    HW132719   7.385   1.980   6.042
 6896SOL    HW232720   7.281   1.910   6.147
 6897SOL     OW32721   6.974   3.435   6.063
 6897SOL    HW132722   7.041   3.447   5.989
 6897SOL    HW232723   6.934   3.524   6.086
 6898SOL     OW32724   6.866   2.789   6.258
 6898SOL    HW132725   6.926   2.708   6.260
 6898SOL    HW232726   6.906   2.858   6.198
 6899SOL     OW32727   7.236   3.582   6.980
 6899SOL    HW132728   7.289   3.592   6.896
 6899SOL    HW232729   7.209   3.672   7.014
 6900SOL     OW32730   7.427   2.037   6.549
 6900SOL    HW132731   7.466   1.952   6.513
 6900SOL    HW232732   7.329   2.039   6.530
 6901SOL     OW32733   5.849   2.188   6.306
 6901SOL    HW132734   5.770   2.239   6.272
 6901SOL    HW232735   5.840   2.173   6.404
 6902SOL     OW32736   6.408   2.864   6.958
 6902SOL    HW132737   6.448   2.863   6.866
 6902SOL    HW232738   6.418   2.956   6.998
 6903SOL     OW32739   6.502   2.772   5.877
 6903SOL    HW132740   6.565   2.810   5.809
 6903SOL    HW232741   6.542   2.689   5.916
 6904SOL     OW32742   7.090   3.469   5.630
 6904SOL    HW132743   6.998   3.506   5.637
 6904SOL    HW232744   7.128   3.489   5.540
 6905SOL     OW32745   6.625   2.960   6.282
 6905SOL    HW132746   6.555   2.913   6.336
 6905SOL    HW232747   6.684   2.892   6.239
 6906SOL     OW32748   6.600   2.098   6.557
 6906SOL    HW132749   6.592   2.062   6.464
 6906SOL    HW232750   6.598   2.022   6.622
 6907SOL     OW32751   7.295   2.247   6.967
 6907SOL    HW132752   7.368   2.316   6.971
 6907SOL    HW232753   7.323   2.172   6.908
 6908SOL     OW32754   6.769   3.197   5.705
 6908SOL    HW132755   6.670   3.186   5.707
 6908SOL    HW232756   6.803   3.212   5.798
 6909SOL     OW32757   7.036   3.082   7.219
 6909SOL    HW132758   7.027   3.072   7.318
 6909SOL    HW232759   7.132   3.075   7.193
 6910SOL     OW32760   7.260   2.745   6.840
 6910SOL    HW132761   7.233   2.656   6.803
 6910SOL    HW232762   7.261   2.813   6.767
 6911SOL     OW32763   6.180   2.607   6.238
 6911SOL    HW132764   6.230   2.692   6.219
 6911SOL    HW232765   6.092   2.609   6.190
 6912SOL     OW32766   7.316   2.796   7.103
 6912SOL    HW132767   7.354   2.887   7.118
 6912SOL    HW232768   7.308   2.779   7.004
 6913SOL     OW32769   6.247   3.652   6.539
 6913SOL    HW132770   6.201   3.740   6.526
 6913SOL    HW232771   6.346   3.664   6.532
 6914SOL     OW32772   6.445   2.818   6.447
 6914SOL    HW132773   6.499   2.749   6.495
 6914SOL    HW232774   6.413   2.887   6.513
 6915SOL     OW32775   6.669   2.846   5.673
 6915SOL    HW132776   6.646   2.899   5.591
 6915SOL    HW232777   6.750   2.790   5.654
 6916SOL     OW32778   7.447   3.431   6.437
 6916SOL    HW132779   7.376   3.419   6.367
 6916SOL    HW232780   7.448   3.352   6.497
 6917SOL     OW32781   5.665   3.102   6.239
 6917SOL    HW132782   5.664   3.055   6.327
 6917SOL    HW232783   5.747   3.074   6.188
 6918SOL     OW32784   7.410   2.054   6.813
 6918SOL    HW132785   7.406   1.964   6.857
 6918SOL    HW232786   7.413   2.043   6.714
 6919SOL     OW32787   6.014   2.286   6.106
 6919SOL    HW132788   6.044   2.214   6.044
 6919SOL    HW232789   5.975   2.246   6.189
 6920SOL     OW32790   7.291   3.349   6.690
 6920SOL    HW132791   7.198   3.324   6.663
 6920SOL    HW232792   7.317   3.299   6.772
 6921SOL     OW32793   6.398   3.448   6.273
 6921SOL    HW132794   6.430   3.458   6.179
 6921SOL    HW232795   6.319   3.386   6.275
 6922SOL     OW32796   7.010   2.076   6.698
 6922SOL    HW132797   7.062   2.011   6.753
 6922SOL    HW232798   6.961   2.139   6.759
 6923SOL     OW32799   6.587   1.896   6.740
 6923SOL    HW132800   6.524   1.824   6.709
 6923SOL    HW232801   6.680   1.860   6.740
 6924SOL     OW32802   6.356   3.192   5.887
 6924SOL    HW132803   6.310   3.105   5.904
 6924SOL    HW232804   6.447   3.189   5.928
 6925SOL     OW32805   6.886   2.315   6.277
 6925SOL    HW132806   6.827   2.395   6.281
 6925SOL    HW232807   6.901   2.280   6.370
 6926SOL     OW32808   7.179   2.083   6.468
 6926SOL    HW132809   7.095   2.082   6.522
 6926SOL    HW232810   7.181   2.166   6.412
 6927SOL     OW32811   5.625   2.939   5.886
 6927SOL    HW132812   5.724   2.928   5.877
 6927SOL    HW232813   5.585   2.853   5.918
 6928SOL     OW32814   6.461   3.508   5.923
 6928SOL    HW132815   6.384   3.473   5.869
 6928SOL    HW232816   6.429   3.579   5.985
 6929SOL     OW32817   5.816   4.352   0.113
 6929SOL    HW132818   5.723   4.350   0.150
 6929SOL    HW232819   5.817   4.313   0.021
 6930SOL     OW32820   5.811   3.999   0.996
 6930SOL    HW132821   5.846   3.982   1.088
 6930SOL    HW232822   5.723   3.954   0.984
 6931SOL     OW32823   5.605   4.092   0.647
 6931SOL    HW132824   5.523   4.135   0.686
 6931SOL    HW232825   5.577   4.019   0.584
 6932SOL     OW32826   6.721   4.427   0.717
 6932SOL    HW132827   6.778   4.505   0.692
 6932SOL    HW232828   6.661   4.453   0.793
 6933SOL     OW32829   7.341   4.331   0.231
 6933SOL    HW132830   7.329   4.318   0.132
 6933SOL    HW232831   7.311   4.250   0.280
 6934SOL     OW32832   6.354   4.868   1.023
 6934SOL    HW132833   6.276   4.885   1.083
 6934SOL    HW232834   6.388   4.955   0.987
 6935SOL     OW32835   6.271   4.736   0.665
 6935SOL    HW132836   6.340   4.720   0.735
 6935SOL    HW232837   6.198   4.793   0.703
 6936SOL     OW32838   5.921   5.159   1.061
 6936SOL    HW132839   5.843   5.128   1.008
 6936SOL    HW232840   5.979   5.217   1.004
 6937SOL     OW32841   7.046   5.229   1.339
 6937SOL    HW132842   7.070   5.323   1.365
 6937SOL    HW232843   7.030   5.175   1.421
 6938SOL     OW32844   6.024   4.116   1.499
 6938SOL    HW132845   6.106   4.060   1.508
 6938SOL    HW232846   5.943   4.058   1.503
 6939SOL     OW32847   7.189   4.171   0.737
 6939SOL    HW132848   7.115   4.217   0.687
 6939SOL    HW232849   7.240   4.239   0.790
 6940SOL     OW32850   5.817   5.437   0.483
 6940SOL    HW132851   5.851   5.514   0.537
 6940SOL    HW232852   5.861   5.437   0.393
 6941SOL     OW32853   5.816   5.158   0.538
 6941SOL    HW132854   5.790   5.254   0.538
 6941SOL    HW232855   5.745   5.104   0.583
 6942SOL     OW32856   5.826   4.815   0.886
 6942SOL    HW132857   5.840   4.731   0.938
 6942SOL    HW232858   5.771   4.879   0.941
 6943SOL     OW32859   6.206   5.510   1.439
 6943SOL    HW132860   6.114   5.493   1.474
 6943SOL    HW232861   6.234   5.602   1.465
 6944SOL     OW32862   6.192   4.688   0.123
 6944SOL    HW132863   6.199   4.772   0.069
 6944SOL    HW232864   6.238   4.701   0.211
 6945SOL     OW32865   7.180   3.838   1.480
 6945SOL    HW132866   7.162   3.905   1.408
 6945SOL    HW232867   7.177   3.884   1.569
 6946SOL     OW32868   5.708   4.367   0.563
 6946SOL    HW132869   5.663   4.279   0.580
 6946SOL    HW232870   5.707   4.421   0.647
 6947SOL     OW32871   5.613   5.320   0.117
 6947SOL    HW132872   5.594   5.224   0.138
 6947SOL    HW232873   5.580   5.378   0.192
 6948SOL     OW32874   7.275   4.646   0.612
 6948SOL    HW132875   7.370   4.617   0.620
 6948SOL    HW232876   7.267   4.711   0.537
 6949SOL     OW32877   6.199   5.089   0.726
 6949SOL    HW132878   6.150   5.002   0.735
 6949SOL    HW232879   6.176   5.132   0.639
 6950SOL     OW32880   6.395   3.728   0.502
 6950SOL    HW132881   6.435   3.819   0.493
 6950SOL    HW232882   6.295   3.736   0.508
 6951SOL     OW32883   5.783   4.700   1.264
 6951SOL    HW132884   5.872   4.655   1.250
 6951SOL    HW232885   5.710   4.635   1.245
 6952SOL     OW32886   7.111   4.723   0.190
 6952SOL    HW132887   7.048   4.647   0.203
 6952SOL    HW232888   7.159   4.741   0.276
 6953SOL     OW32889   7.052   5.141   0.953
 6953SOL    HW132890   6.993   5.147   1.033
 6953SOL    HW232891   7.037   5.053   0.907
 6954SOL     OW32892   7.253   5.438   0.572
 6954SOL    HW132893   7.212   5.415   0.484
 6954SOL    HW232894   7.235   5.364   0.637
 6955SOL     OW32895   6.184   4.453   0.270
 6955SOL    HW132896   6.208   4.522   0.202
 6955SOL    HW232897   6.106   4.486   0.324
 6956SOL     OW32898   6.867   4.069   0.944
 6956SOL    HW132899   6.781   4.019   0.931
 6956SOL    HW232900   6.929   4.015   1.000
 6957SOL     OW32901   6.393   4.329   1.465
 6957SOL    HW132902   6.346   4.326   1.554
 6957SOL    HW232903   6.342   4.274   1.399
 6958SOL     OW32904   6.980   4.193   1.674
 6958SOL    HW132905   6.960   4.236   1.762
 6958SOL    HW232906   7.058   4.131   1.683
 6959SOL     OW32907   6.559   4.614   1.572
 6959SOL    HW132908   6.605   4.530   1.543
 6959SOL    HW232909   6.503   4.648   1.497
 6960SOL     OW32910   6.577   4.134   1.242
 6960SOL    HW132911   6.500   4.168   1.296
 6960SOL    HW232912   6.543   4.083   1.163
 6961SOL     OW32913   6.627   4.425   0.429
 6961SOL    HW132914   6.653   4.421   0.525
 6961SOL    HW232915   6.542   4.374   0.415
 6962SOL     OW32916   5.662   4.535   0.789
 6962SOL    HW132917   5.761   4.523   0.798
 6962SOL    HW232918   5.638   4.630   0.810
 6963SOL     OW32919   6.451   4.072   0.195
 6963SOL    HW132920   6.510   4.135   0.146
 6963SOL    HW232921   6.470   3.978   0.166
 6964SOL     OW32922   7.305   4.309   1.831
 6964SOL    HW132923   7.279   4.398   1.795
 6964SOL    HW232924   7.303   4.241   1.758
 6965SOL     OW32925   6.948   4.868   0.545
 6965SOL    HW132926   7.031   4.839   0.497
 6965SOL    HW232927   6.899   4.935   0.489
 6966SOL     OW32928   6.136   3.920   0.885
 6966SOL    HW132929   6.131   3.915   0.985
 6966SOL    HW232930   6.138   4.016   0.856
 6967SOL     OW32931   6.594   5.180   0.477
 6967SOL    HW132932   6.548   5.252   0.425
 6967SOL    HW232933   6.590   5.200   0.575
 6968SOL     OW32934   5.937   5.525   0.853
 6968SOL    HW132935   5.987   5.439   0.859
 6968SOL    HW232936   6.002   5.602   0.850
 6969SOL     OW32937   5.907   4.667   0.242
 6969SOL    HW132938   5.989   4.706   0.200
 6969SOL    HW232939   5.880   4.585   0.193
 6970SOL     OW32940   7.044   4.459   0.728
 6970SOL    HW132941   7.039   4.394   0.803
 6970SOL    HW232942   7.124   4.518   0.741
 6971SOL     OW32943   6.047   4.990   1.727
 6971SOL    HW132944   5.997   4.991   1.641
 6971SOL    HW232945   5.984   4.972   1.803
 6972SOL     OW32946   6.697   5.500   0.237
 6972SOL    HW132947   6.637   5.438   0.287
 6972SOL    HW232948   6.728   5.456   0.152
 6973SOL     OW32949   6.050   5.467   0.323
 6973SOL    HW132950   6.083   5.506   0.409
 6973SOL    HW232951   6.126   5.460   0.258
 6974SOL     OW32952   6.986   3.831   0.426
 6974SOL    HW132953   6.962   3.794   0.336
 6974SOL    HW232954   7.085   3.847   0.430
 6975SOL     OW32955   5.835   5.509   1.241
 6975SOL    HW132956   5.892   5.444   1.291
 6975SOL    HW232957   5.819   5.476   1.148
 6976SOL     OW32958   6.526   5.422   0.904
 6976SOL    HW132959   6.606   5.365   0.925
 6976SOL    HW232960   6.477   5.382   0.827
 6977SOL     OW32961   5.968   4.424   0.480
 6977SOL    HW132962   6.013   4.334   0.477
 6977SOL    HW232963   5.874   4.413   0.513
 6978SOL     OW32964   7.133   3.946   1.729
 6978SOL    HW132965   7.128   3.983   1.821
 6978SOL    HW232966   7.061   3.877   1.717
 6979SOL     OW32967   6.367   3.988   1.749
 6979SOL    HW132968   6.434   3.927   1.792
 6979SOL    HW232969   6.294   4.007   1.814
 6980SOL     OW32970   6.937   4.314   1.433
 6980SOL    HW132971   6.965   4.271   1.518
 6980SOL    HW232972   6.962   4.410   1.434
 6981SOL     OW32973   6.389   5.126   0.924
 6981SOL    HW132974   6.479   5.140   0.882
 6981SOL    HW232975   6.318   5.128   0.853
 6982SOL     OW32976   6.508   4.227   0.899
 6982SOL    HW132977   6.483   4.218   0.803
 6982SOL    HW232978   6.556   4.145   0.930
 6983SOL     OW32979   6.125   3.788   0.512
 6983SOL    HW132980   6.044   3.789   0.570
 6983SOL    HW232981   6.128   3.871   0.457
 6984SOL     OW32982   7.020   4.912   0.041
 6984SOL    HW132983   7.052   4.836   0.098
 6984SOL    HW232984   6.928   4.939   0.071
 6985SOL     OW32985   5.883   3.759   0.171
 6985SOL    HW132986   5.932   3.843   0.150
 6985SOL    HW232987   5.945   3.694   0.216
 6986SOL     OW32988   6.521   3.960   0.480
 6986SOL    HW132989   6.473   4.001   0.402
 6986SOL    HW232990   6.620   3.958   0.461
 6987SOL     OW32991   6.662   4.407   1.464
 6987SOL    HW132992   6.582   4.346   1.467
 6987SOL    HW232993   6.743   4.354   1.440
 6988SOL     OW32994   6.813   5.294   0.793
 6988SOL    HW132995   6.834   5.368   0.728
 6988SOL    HW232996   6.881   5.294   0.866
 6989SOL     OW32997   6.045   4.876   0.741
 6989SOL    HW132998   5.974   4.849   0.806
 6989SOL    HW232999   6.019   4.848   0.648
 6990SOL     OW33000   6.857   5.521   0.591
 6990SOL    HW133001   6.901   5.585   0.527
 6990SOL    HW233002   6.807   5.573   0.661
 6991SOL     OW33003   6.618   4.273   0.016
 6991SOL    HW133004   6.577   4.355  -0.023
 6991SOL    HW233005   6.682   4.299   0.089
 6992SOL     OW33006   5.664   4.280   1.386
 6992SOL    HW133007   5.756   4.279   1.345
 6992SOL    HW233008   5.658   4.354   1.453
 6993SOL     OW33009   6.147   3.946   1.147
 6993SOL    HW133010   6.185   3.862   1.184
 6993SOL    HW233011   6.059   3.965   1.191
 6994SOL     OW33012   6.452   4.178   0.642
 6994SOL    HW133013   6.420   4.250   0.580
 6994SOL    HW233014   6.476   4.097   0.589
 6995SOL     OW33015   6.603   3.763   0.753
 6995SOL    HW133016   6.531   3.768   0.684
 6995SOL    HW233017   6.579   3.694   0.822
 6996SOL     OW33018   7.015   4.897   0.867
 6996SOL    HW133019   6.960   4.813   0.860
 6996SOL    HW233020   7.041   4.926   0.775
 6997SOL     OW33021   7.052   4.314   0.992
 6997SOL    HW133022   7.022   4.219   0.999
 6997SOL    HW233023   7.125   4.330   1.058
 6998SOL     OW33024   6.976   4.299   0.078
 6998SOL    HW133025   6.922   4.278   0.159
 6998SOL    HW233026   7.067   4.258   0.087
 6999SOL     OW33027   6.113   3.980   0.328
 6999SOL    HW133028   6.140   3.921   0.253
 6999SOL    HW233029   6.113   4.075   0.297
 7000SOL     OW33030   7.178   5.353   1.625
 7000SOL    HW133031   7.205   5.387   1.535
 7000SOL    HW233032   7.257   5.315   1.671
 7001SOL     OW33033   7.224   4.823   1.079
 7001SOL    HW133034   7.229   4.904   1.138
 7001SOL    HW233035   7.138   4.825   1.028
 7002SOL     OW33036   6.566   4.840   1.719
 7002SOL    HW133037   6.467   4.846   1.729
 7002SOL    HW233038   6.589   4.760   1.663
 7003SOL     OW33039   6.291   4.774   0.368
 7003SOL    HW133040   6.277   4.781   0.467
 7003SOL    HW233041   6.375   4.723   0.350
 7004SOL     OW33042   5.996   4.537   1.251
 7004SOL    HW133043   6.082   4.549   1.301
 7004SOL    HW233044   5.954   4.450   1.278
 7005SOL     OW33045   6.860   4.110   1.262
 7005SOL    HW133046   6.881   4.184   1.326
 7005SOL    HW233047   6.771   4.127   1.219
 7006SOL     OW33048   5.650   5.288   1.331
 7006SOL    HW133049   5.604   5.370   1.297
 7006SOL    HW233050   5.748   5.307   1.340
 7007SOL     OW33051   5.953   4.824   0.501
 7007SOL    HW133052   5.946   4.907   0.445
 7007SOL    HW233053   5.957   4.744   0.441
 7008SOL     OW33054   6.152   4.261   0.865
 7008SOL    HW133055   6.164   4.327   0.791
 7008SOL    HW233056   6.198   4.295   0.948
 7009SOL     OW33057   6.838   5.072   0.388
 7009SOL    HW133058   6.888   5.149   0.428
 7009SOL    HW233059   6.743   5.074   0.420
 7010SOL     OW33060   7.168   4.363   0.472
 7010SOL    HW133061   7.137   4.424   0.545
 7010SOL    HW233062   7.218   4.415   0.403
 7011SOL     OW33063   5.940   5.234   1.329
 7011SOL    HW133064   5.919   5.190   1.242
 7011SOL    HW233065   6.037   5.260   1.332
 7012SOL     OW33066   6.159   4.594   1.029
 7012SOL    HW133067   6.203   4.683   1.020
 7012SOL    HW233068   6.096   4.594   1.106
 7013SOL     OW33069   6.946   4.586   1.045
 7013SOL    HW133070   6.871   4.586   0.979
 7013SOL    HW233071   6.983   4.494   1.054
 7014SOL     OW33072   6.795   4.249   0.275
 7014SOL    HW133073   6.808   4.165   0.329
 7014SOL    HW233074   6.766   4.323   0.335
 7015SOL     OW33075   5.893   3.937   1.231
 7015SOL    HW133076   5.870   3.974   1.321
 7015SOL    HW233077   5.863   3.842   1.225
 7016SOL     OW33078   5.623   5.034   1.282
 7016SOL    HW133079   5.676   4.985   1.350
 7016SOL    HW233080   5.645   5.132   1.287
 7017SOL     OW33081   6.318   4.358   1.064
 7017SOL    HW133082   6.377   4.332   0.988
 7017SOL    HW233083   6.290   4.454   1.053
 7018SOL     OW33084   5.893   3.787   0.618
 7018SOL    HW133085   5.882   3.881   0.651
 7018SOL    HW233086   5.888   3.724   0.695
 7019SOL     OW33087   7.208   4.091   0.374
 7019SOL    HW133088   7.210   4.015   0.438
 7019SOL    HW233089   7.160   4.168   0.414
 7020SOL     OW33090   6.609   4.490   0.966
 7020SOL    HW133091   6.624   4.511   1.062
 7020SOL    HW233092   6.579   4.395   0.957
 7021SOL     OW33093   6.889   4.562   0.042
 7021SOL    HW133094   6.923   4.469   0.057
 7021SOL    HW233095   6.907   4.589  -0.053
 7022SOL     OW33096   5.905   4.534   0.949
 7022SOL    HW133097   5.998   4.570   0.954
 7022SOL    HW233098   5.899   4.449   1.001
 7023SOL     OW33099   5.925   4.233   1.006
 7023SOL    HW133100   5.873   4.150   0.989
 7023SOL    HW233101   6.002   4.238   0.942
 7024SOL     OW33102   6.746   3.931   1.477
 7024SOL    HW133103   6.746   3.995   1.554
 7024SOL    HW233104   6.774   3.979   1.394
 7025SOL     OW33105   5.674   5.525   0.927
 7025SOL    HW133106   5.632   5.439   0.900
 7025SOL    HW233107   5.768   5.528   0.893
 7026SOL     OW33108   6.090   5.292   0.910
 7026SOL    HW133109   6.156   5.366   0.919
 7026SOL    HW233110   6.134   5.213   0.868
 7027SOL     OW33111   6.588   4.520   1.238
 7027SOL    HW133112   6.629   4.488   1.324
 7027SOL    HW233113   6.492   4.493   1.235
 7028SOL     OW33114   5.626   4.268   1.114
 7028SOL    HW133115   5.711   4.235   1.073
 7028SOL    HW233116   5.639   4.283   1.212
 7029SOL     OW33117   5.775   4.244   1.722
 7029SOL    HW133118   5.834   4.204   1.652
 7029SOL    HW233119   5.717   4.315   1.681
 7030SOL     OW33120   6.401   4.296   0.325
 7030SOL    HW133121   6.408   4.207   0.279
 7030SOL    HW233122   6.307   4.330   0.317
 7031SOL     OW33123   7.243   4.328   1.206
 7031SOL    HW133124   7.205   4.259   1.268
 7031SOL    HW233125   7.325   4.292   1.162
 7032SOL     OW33126   6.257   4.188   1.269
 7032SOL    HW133127   6.223   4.099   1.239
 7032SOL    HW233128   6.283   4.242   1.189
 7033SOL     OW33129   6.059   4.224   0.191
 7033SOL    HW133130   6.120   4.304   0.195
 7033SOL    HW233131   5.964   4.255   0.198
 7034SOL     OW33132   5.745   4.861   1.466
 7034SOL    HW133133   5.767   4.800   1.542
 7034SOL    HW233134   5.755   4.812   1.380
 7035SOL     OW33135   6.888   4.579   0.309
 7035SOL    HW133136   6.802   4.548   0.351
 7035SOL    HW233137   6.884   4.565   0.210
 7036SOL     OW33138   7.345   5.471   1.154
 7036SOL    HW133139   7.406   5.501   1.081
 7036SOL    HW233140   7.307   5.382   1.132
 7037SOL     OW33141   6.838   5.455   1.128
 7037SOL    HW133142   6.922   5.460   1.074
 7037SOL    HW233143   6.815   5.359   1.146
 7038SOL     OW33144   5.669   4.982   1.022
 7038SOL    HW133145   5.664   4.981   1.122
 7038SOL    HW233146   5.586   4.941   0.984
 7039SOL     OW33147   6.274   5.386   1.716
 7039SOL    HW133148   6.218   5.467   1.725
 7039SOL    HW233149   6.326   5.390   1.630
 7040SOL     OW33150   6.489   3.810   0.133
 7040SOL    HW133151   6.540   3.811   0.047
 7040SOL    HW233152   6.545   3.768   0.204
 7041SOL     OW33153   7.312   3.859   0.523
 7041SOL    HW133154   7.385   3.842   0.456
 7041SOL    HW233155   7.281   3.772   0.561
 7042SOL     OW33156   6.866   4.651   0.672
 7042SOL    HW133157   6.926   4.570   0.674
 7042SOL    HW233158   6.906   4.720   0.612
 7043SOL     OW33159   7.236   5.444   1.394
 7043SOL    HW133160   7.289   5.454   1.310
 7043SOL    HW233161   7.209   5.534   1.428
 7044SOL     OW33162   7.427   3.899   0.963
 7044SOL    HW133163   7.466   3.814   0.927
 7044SOL    HW233164   7.329   3.901   0.944
 7045SOL     OW33165   5.849   4.050   0.720
 7045SOL    HW133166   5.770   4.101   0.686
 7045SOL    HW233167   5.840   4.035   0.818
 7046SOL     OW33168   6.780   5.336   0.031
 7046SOL    HW133169   6.786   5.243   0.068
 7046SOL    HW233170   6.721   5.336  -0.049
 7047SOL     OW33171   6.408   4.726   1.372
 7047SOL    HW133172   6.448   4.725   1.280
 7047SOL    HW233173   6.418   4.818   1.412
 7048SOL     OW33174   6.502   4.634   0.291
 7048SOL    HW133175   6.565   4.672   0.223
 7048SOL    HW233176   6.542   4.551   0.330
 7049SOL     OW33177   7.090   5.331   0.044
 7049SOL    HW133178   6.998   5.368   0.051
 7049SOL    HW233179   7.128   5.351  -0.046
 7050SOL     OW33180   7.200   5.016   1.289
 7050SOL    HW133181   7.260   5.019   1.369
 7050SOL    HW233182   7.125   5.080   1.302
 7051SOL     OW33183   6.625   4.822   0.696
 7051SOL    HW133184   6.555   4.775   0.750
 7051SOL    HW233185   6.684   4.754   0.653
 7052SOL     OW33186   6.600   3.960   0.971
 7052SOL    HW133187   6.592   3.924   0.878
 7052SOL    HW233188   6.598   3.884   1.036
 7053SOL     OW33189   6.176   5.211   0.491
 7053SOL    HW133190   6.218   5.153   0.421
 7053SOL    HW233191   6.132   5.290   0.447
 7054SOL     OW33192   7.295   4.109   1.381
 7054SOL    HW133193   7.368   4.178   1.385
 7054SOL    HW233194   7.323   4.034   1.322
 7055SOL     OW33195   7.026   4.580   1.398
 7055SOL    HW133196   6.969   4.632   1.335
 7055SOL    HW233197   7.122   4.592   1.374
 7056SOL     OW33198   5.658   3.890   0.318
 7056SOL    HW133199   5.641   3.973   0.264
 7056SOL    HW233200   5.748   3.853   0.296
 7057SOL     OW33201   6.769   5.059   0.119
 7057SOL    HW133202   6.670   5.048   0.121
 7057SOL    HW233203   6.803   5.074   0.212
 7058SOL     OW33204   6.199   4.566   1.431
 7058SOL    HW133205   6.255   4.647   1.414
 7058SOL    HW233206   6.258   4.486   1.434
 7059SOL     OW33207   7.079   5.491   0.959
 7059SOL    HW133208   7.112   5.555   0.890
 7059SOL    HW233209   7.145   5.485   1.034
 7060SOL     OW33210   5.976   5.465   1.560
 7060SOL    HW133211   5.885   5.506   1.558
 7060SOL    HW233212   5.969   5.371   1.592
 7061SOL     OW33213   6.811   4.049   0.449
 7061SOL    HW133214   6.876   3.975   0.438
 7061SOL    HW233215   6.831   4.099   0.533
 7062SOL     OW33216   6.180   4.469   0.652
 7062SOL    HW133217   6.230   4.554   0.633
 7062SOL    HW233218   6.092   4.471   0.604
 7063SOL     OW33219   7.363   4.066   1.642
 7063SOL    HW133220   7.346   4.097   1.548
 7063SOL    HW233221   7.279   4.029   1.680
 7064SOL     OW33222   6.247   5.514   0.953
 7064SOL    HW133223   6.201   5.602   0.940
 7064SOL    HW233224   6.346   5.526   0.946
 7065SOL     OW33225   6.445   4.680   0.861
 7065SOL    HW133226   6.499   4.611   0.909
 7065SOL    HW233227   6.413   4.749   0.927
 7066SOL     OW33228   6.669   4.708   0.087
 7066SOL    HW133229   6.646   4.761   0.005
 7066SOL    HW233230   6.750   4.652   0.068
 7067SOL     OW33231   5.807   5.038   1.844
 7067SOL    HW133232   5.742   4.965   1.823
 7067SOL    HW233233   5.811   5.052   1.942
 7068SOL     OW33234   5.665   4.964   0.653
 7068SOL    HW133235   5.664   4.917   0.741
 7068SOL    HW233236   5.747   4.936   0.602
 7069SOL     OW33237   6.258   5.115   1.624
 7069SOL    HW133238   6.180   5.065   1.662
 7069SOL    HW233239   6.255   5.210   1.655
 7070SOL     OW33240   7.410   3.916   1.227
 7070SOL    HW133241   7.406   3.826   1.271
 7070SOL    HW233242   7.413   3.905   1.128
 7071SOL     OW33243   6.014   4.148   0.520
 7071SOL    HW133244   6.044   4.076   0.458
 7071SOL    HW233245   5.975   4.108   0.603
 7072SOL     OW33246   7.291   5.211   1.104
 7072SOL    HW133247   7.198   5.186   1.077
 7072SOL    HW233248   7.317   5.161   1.186
 7073SOL     OW33249   5.903   4.271   1.280
 7073SOL    HW133250   5.941   4.212   1.352
 7073SOL    HW233251   5.943   4.245   1.192
 7074SOL     OW33252   6.398   5.310   0.687
 7074SOL    HW133253   6.430   5.320   0.593
 7074SOL    HW233254   6.319   5.248   0.689
 7075SOL     OW33255   7.010   3.938   1.112
 7075SOL    HW133256   7.062   3.873   1.167
 7075SOL    HW233257   6.961   4.001   1.173
 7076SOL     OW33258   6.587   3.758   1.154
 7076SOL    HW133259   6.524   3.686   1.123
 7076SOL    HW233260   6.680   3.722   1.154
 7077SOL     OW33261   6.356   5.054   0.301
 7077SOL    HW133262   6.310   4.967   0.318
 7077SOL    HW233263   6.447   5.051   0.342
 7078SOL     OW33264   6.204   5.291   1.284
 7078SOL    HW133265   6.199   5.373   1.341
 7078SOL    HW233266   6.293   5.288   1.239
 7079SOL     OW33267   6.886   4.177   0.691
 7079SOL    HW133268   6.827   4.257   0.695
 7079SOL    HW233269   6.901   4.142   0.784
 7080SOL     OW33270   7.179   3.945   0.882
 7080SOL    HW133271   7.095   3.944   0.936
 7080SOL    HW233272   7.181   4.028   0.826
 7081SOL     OW33273   5.625   4.801   0.300
 7081SOL    HW133274   5.724   4.790   0.291
 7081SOL    HW233275   5.585   4.715   0.332
 7082SOL     OW33276   6.461   5.370   0.337
 7082SOL    HW133277   6.384   5.335   0.283
 7082SOL    HW233278   6.429   5.441   0.399
 7083SOL     OW33279   6.155   4.999   3.027
 7083SOL    HW133280   6.062   4.992   2.990
 7083SOL    HW233281   6.166   5.088   3.071
 7084SOL     OW33282   6.721   4.427   2.579
 7084SOL    HW133283   6.778   4.505   2.554
 7084SOL    HW233284   6.661   4.453   2.655
 7085SOL     OW33285   7.341   4.331   2.093
 7085SOL    HW133286   7.329   4.318   1.994
 7085SOL    HW233287   7.311   4.250   2.142
 7086SOL     OW33288   6.354   4.868   2.885
 7086SOL    HW133289   6.276   4.885   2.945
 7086SOL    HW233290   6.388   4.955   2.849
 7087SOL     OW33291   5.921   5.159   2.923
 7087SOL    HW133292   5.843   5.128   2.870
 7087SOL    HW233293   5.979   5.217   2.866
 7088SOL     OW33294   7.189   4.171   2.599
 7088SOL    HW133295   7.115   4.217   2.549
 7088SOL    HW233296   7.240   4.239   2.652
 7089SOL     OW33297   6.713   5.065   3.552
 7089SOL    HW133298   6.760   5.065   3.640
 7089SOL    HW233299   6.665   4.978   3.541
 7090SOL     OW33300   7.428   5.491   2.221
 7090SOL    HW133301   7.482   5.462   2.301
 7090SOL    HW233302   7.458   5.581   2.192
 7091SOL     OW33303   7.275   4.646   2.474
 7091SOL    HW133304   7.370   4.617   2.482
 7091SOL    HW233305   7.267   4.711   2.399
 7092SOL     OW33306   6.879   4.952   3.285
 7092SOL    HW133307   6.916   4.879   3.227
 7092SOL    HW233308   6.931   4.957   3.370
 7093SOL     OW33309   7.111   4.723   2.052
 7093SOL    HW133310   7.048   4.647   2.065
 7093SOL    HW233311   7.159   4.741   2.138
 7094SOL     OW33312   5.903   3.975   3.663
 7094SOL    HW133313   5.974   4.046   3.669
 7094SOL    HW233314   5.815   4.014   3.691
 7095SOL     OW33315   7.052   5.141   2.815
 7095SOL    HW133316   6.993   5.147   2.895
 7095SOL    HW233317   7.037   5.053   2.769
 7096SOL     OW33318   6.980   4.193   3.536
 7096SOL    HW133319   6.960   4.236   3.624
 7096SOL    HW233320   7.058   4.131   3.545
 7097SOL     OW33321   6.559   4.614   3.434
 7097SOL    HW133322   6.605   4.530   3.405
 7097SOL    HW233323   6.503   4.648   3.359
 7098SOL     OW33324   6.813   5.274   3.368
 7098SOL    HW133325   6.819   5.197   3.432
 7098SOL    HW233326   6.761   5.248   3.288
 7099SOL     OW33327   6.047   4.990   3.589
 7099SOL    HW133328   5.997   4.991   3.503
 7099SOL    HW233329   5.984   4.972   3.665
 7100SOL     OW33330   5.835   5.509   3.103
 7100SOL    HW133331   5.892   5.444   3.153
 7100SOL    HW233332   5.819   5.476   3.010
 7101SOL     OW33333   7.133   3.946   3.591
 7101SOL    HW133334   7.128   3.983   3.683
 7101SOL    HW233335   7.061   3.877   3.579
 7102SOL     OW33336   6.367   3.988   3.611
 7102SOL    HW133337   6.434   3.927   3.654
 7102SOL    HW233338   6.294   4.007   3.676
 7103SOL     OW33339   6.937   4.314   3.295
 7103SOL    HW133340   6.965   4.271   3.380
 7103SOL    HW233341   6.962   4.410   3.296
 7104SOL     OW33342   6.521   3.960   2.342
 7104SOL    HW133343   6.473   4.001   2.264
 7104SOL    HW233344   6.620   3.958   2.323
 7105SOL     OW33345   6.813   5.294   2.655
 7105SOL    HW133346   6.834   5.368   2.590
 7105SOL    HW233347   6.881   5.294   2.728
 7106SOL     OW33348   6.147   3.946   3.009
 7106SOL    HW133349   6.185   3.862   3.046
 7106SOL    HW233350   6.059   3.965   3.053
 7107SOL     OW33351   6.452   4.178   2.504
 7107SOL    HW133352   6.420   4.250   2.442
 7107SOL    HW233353   6.476   4.097   2.451
 7108SOL     OW33354   6.603   3.763   2.615
 7108SOL    HW133355   6.531   3.768   2.546
 7108SOL    HW233356   6.579   3.694   2.684
 7109SOL     OW33357   6.976   4.299   1.940
 7109SOL    HW133358   6.922   4.278   2.021
 7109SOL    HW233359   7.067   4.258   1.949
 7110SOL     OW33360   7.340   4.947   3.450
 7110SOL    HW133361   7.431   4.908   3.437
 7110SOL    HW233362   7.348   5.043   3.474
 7111SOL     OW33363   6.650   5.071   3.202
 7111SOL    HW133364   6.570   5.048   3.257
 7111SOL    HW233365   6.733   5.045   3.251
 7112SOL     OW33366   7.178   5.353   3.487
 7112SOL    HW133367   7.205   5.387   3.397
 7112SOL    HW233368   7.257   5.315   3.533
 7113SOL     OW33369   6.501   3.813   3.264
 7113SOL    HW133370   6.526   3.793   3.169
 7113SOL    HW233371   6.573   3.869   3.306
 7114SOL     OW33372   6.838   5.072   2.250
 7114SOL    HW133373   6.888   5.149   2.290
 7114SOL    HW233374   6.743   5.074   2.282
 7115SOL     OW33375   6.858   5.169   3.004
 7115SOL    HW133376   6.905   5.182   3.091
 7115SOL    HW233377   6.792   5.095   3.013
 7116SOL     OW33378   5.988   4.475   3.460
 7116SOL    HW133379   6.056   4.530   3.413
 7116SOL    HW233380   6.028   4.387   3.487
 7117SOL     OW33381   6.599   3.829   3.632
 7117SOL    HW133382   6.605   3.914   3.580
 7117SOL    HW233383   6.631   3.753   3.575
 7118SOL     OW33384   6.090   3.774   3.602
 7118SOL    HW133385   6.048   3.717   3.532
 7118SOL    HW233386   6.024   3.843   3.634
 7119SOL     OW33387   6.946   4.586   2.907
 7119SOL    HW133388   6.871   4.586   2.841
 7119SOL    HW233389   6.983   4.494   2.916
 7120SOL     OW33390   5.936   4.622   3.666
 7120SOL    HW133391   6.012   4.666   3.714
 7120SOL    HW233392   5.971   4.575   3.584
 7121SOL     OW33393   6.724   4.104   3.540
 7121SOL    HW133394   6.679   4.167   3.604
 7121SOL    HW233395   6.817   4.135   3.523
 7122SOL     OW33396   6.746   3.931   3.339
 7122SOL    HW133397   6.746   3.995   3.416
 7122SOL    HW233398   6.774   3.979   3.256
 7123SOL     OW33399   5.775   4.244   3.584
 7123SOL    HW133400   5.834   4.204   3.514
 7123SOL    HW233401   5.717   4.315   3.543
 7124SOL     OW33402   6.933   4.783   3.096
 7124SOL    HW133403   6.957   4.720   3.022
 7124SOL    HW233404   6.843   4.823   3.078
 7125SOL     OW33405   6.888   4.579   2.171
 7125SOL    HW133406   6.802   4.548   2.213
 7125SOL    HW233407   6.884   4.565   2.072
 7126SOL     OW33408   6.838   5.455   2.990
 7126SOL    HW133409   6.922   5.460   2.936
 7126SOL    HW233410   6.815   5.359   3.008
 7127SOL     OW33411   6.274   5.386   3.578
 7127SOL    HW133412   6.218   5.467   3.587
 7127SOL    HW233413   6.326   5.390   3.492
 7128SOL     OW33414   5.716   5.518   3.713
 7128SOL    HW133415   5.675   5.444   3.766
 7128SOL    HW233416   5.780   5.569   3.771
 7129SOL     OW33417   6.866   4.651   2.534
 7129SOL    HW133418   6.926   4.570   2.536
 7129SOL    HW233419   6.906   4.720   2.474
 7130SOL     OW33420   6.258   5.340   2.016
 7130SOL    HW133421   6.267   5.350   1.917
 7130SOL    HW233422   6.218   5.251   2.037
 7131SOL     OW33423   7.236   5.444   3.256
 7131SOL    HW133424   7.289   5.454   3.172
 7131SOL    HW233425   7.209   5.534   3.290
 7132SOL     OW33426   6.408   4.726   3.234
 7132SOL    HW133427   6.448   4.725   3.142
 7132SOL    HW233428   6.418   4.818   3.274
 7133SOL     OW33429   5.958   5.012   3.352
 7133SOL    HW133430   5.945   5.105   3.318
 7133SOL    HW233431   5.874   4.960   3.339
 7134SOL     OW33432   7.200   5.016   3.151
 7134SOL    HW133433   7.260   5.019   3.231
 7134SOL    HW233434   7.125   5.080   3.164
 7135SOL     OW33435   5.691   4.737   3.588
 7135SOL    HW133436   5.614   4.704   3.642
 7135SOL    HW233437   5.776   4.707   3.630
 7136SOL     OW33438   7.026   4.580   3.260
 7136SOL    HW133439   6.969   4.632   3.197
 7136SOL    HW233440   7.122   4.592   3.236
 7137SOL     OW33441   7.079   5.491   2.821
 7137SOL    HW133442   7.112   5.555   2.752
 7137SOL    HW233443   7.145   5.485   2.896
 7138SOL     OW33444   5.976   5.465   3.422
 7138SOL    HW133445   5.885   5.506   3.420
 7138SOL    HW233446   5.969   5.371   3.454
 7139SOL     OW33447   7.260   4.607   3.116
 7139SOL    HW133448   7.233   4.518   3.079
 7139SOL    HW233449   7.261   4.675   3.043
 7140SOL     OW33450   6.180   4.469   2.514
 7140SOL    HW133451   6.230   4.554   2.495
 7140SOL    HW233452   6.092   4.471   2.466
 7141SOL     OW33453   6.247   5.514   2.815
 7141SOL    HW133454   6.201   5.602   2.802
 7141SOL    HW233455   6.346   5.526   2.808
 7142SOL     OW33456   5.665   4.964   2.515
 7142SOL    HW133457   5.664   4.917   2.603
 7142SOL    HW233458   5.747   4.936   2.464
 7143SOL     OW33459   6.258   5.115   3.486
 7143SOL    HW133460   6.180   5.065   3.524
 7143SOL    HW233461   6.255   5.210   3.517
 7144SOL     OW33462   5.903   4.271   3.142
 7144SOL    HW133463   5.941   4.212   3.214
 7144SOL    HW233464   5.943   4.245   3.054
 7145SOL     OW33465   6.587   3.758   3.016
 7145SOL    HW133466   6.524   3.686   2.985
 7145SOL    HW233467   6.680   3.722   3.016
 7146SOL     OW33468   5.625   4.801   2.162
 7146SOL    HW133469   5.724   4.790   2.153
 7146SOL    HW233470   5.585   4.715   2.194
 7147SOL     OW33471   5.811   3.999   4.720
 7147SOL    HW133472   5.846   3.982   4.812
 7147SOL    HW233473   5.723   3.954   4.708
 7148SOL     OW33474   5.605   4.092   4.371
 7148SOL    HW133475   5.523   4.135   4.410
 7148SOL    HW233476   5.577   4.019   4.308
 7149SOL     OW33477   6.272   4.885   5.527
 7149SOL    HW133478   6.332   4.964   5.541
 7149SOL    HW233479   6.186   4.916   5.486
 7150SOL     OW33480   7.046   5.229   5.063
 7150SOL    HW133481   7.070   5.323   5.089
 7150SOL    HW233482   7.030   5.175   5.145
 7151SOL     OW33483   5.817   5.437   4.207
 7151SOL    HW133484   5.851   5.514   4.261
 7151SOL    HW233485   5.861   5.437   4.117
 7152SOL     OW33486   6.192   4.688   3.847
 7152SOL    HW133487   6.199   4.772   3.793
 7152SOL    HW233488   6.238   4.701   3.935
 7153SOL     OW33489   7.428   5.491   4.083
 7153SOL    HW133490   7.482   5.462   4.163
 7153SOL    HW233491   7.458   5.581   4.054
 7154SOL     OW33492   7.111   4.723   3.914
 7154SOL    HW133493   7.048   4.647   3.927
 7154SOL    HW233494   7.159   4.741   4.000
 7155SOL     OW33495   6.773   5.516   5.340
 7155SOL    HW133496   6.797   5.576   5.264
 7155SOL    HW233497   6.780   5.421   5.310
 7156SOL     OW33498   5.903   3.975   5.525
 7156SOL    HW133499   5.974   4.046   5.531
 7156SOL    HW233500   5.815   4.014   5.553
 7157SOL     OW33501   7.052   5.141   4.677
 7157SOL    HW133502   6.993   5.147   4.757
 7157SOL    HW233503   7.037   5.053   4.631
 7158SOL     OW33504   6.184   4.453   3.994
 7158SOL    HW133505   6.208   4.522   3.926
 7158SOL    HW233506   6.106   4.486   4.048
 7159SOL     OW33507   7.162   5.386   4.031
 7159SOL    HW133508   7.251   5.432   4.034
 7159SOL    HW233509   7.141   5.362   3.936
 7160SOL     OW33510   6.980   4.193   5.398
 7160SOL    HW133511   6.960   4.236   5.486
 7160SOL    HW233512   7.058   4.131   5.407
 7161SOL     OW33513   6.577   4.134   4.966
 7161SOL    HW133514   6.500   4.168   5.020
 7161SOL    HW233515   6.543   4.083   4.887
 7162SOL     OW33516   6.813   5.274   5.230
 7162SOL    HW133517   6.819   5.197   5.294
 7162SOL    HW233518   6.761   5.248   5.150
 7163SOL     OW33519   7.044   4.459   4.452
 7163SOL    HW133520   7.039   4.394   4.527
 7163SOL    HW233521   7.124   4.518   4.465
 7164SOL     OW33522   5.788   4.009   5.222
 7164SOL    HW133523   5.708   4.069   5.209
 7164SOL    HW233524   5.778   3.960   5.308
 7165SOL     OW33525   6.986   3.831   4.150
 7165SOL    HW133526   6.962   3.794   4.060
 7165SOL    HW233527   7.085   3.847   4.154
 7166SOL     OW33528   5.835   5.509   4.965
 7166SOL    HW133529   5.892   5.444   5.015
 7166SOL    HW233530   5.819   5.476   4.872
 7167SOL     OW33531   5.968   4.424   4.204
 7167SOL    HW133532   6.013   4.334   4.201
 7167SOL    HW233533   5.874   4.413   4.237
 7168SOL     OW33534   7.133   3.946   5.453
 7168SOL    HW133535   7.128   3.983   5.545
 7168SOL    HW233536   7.061   3.877   5.441
 7169SOL     OW33537   6.474   5.238   4.919
 7169SOL    HW133538   6.451   5.213   4.825
 7169SOL    HW233539   6.535   5.169   4.958
 7170SOL     OW33540   6.389   5.126   4.648
 7170SOL    HW133541   6.479   5.140   4.606
 7170SOL    HW233542   6.318   5.128   4.577
 7171SOL     OW33543   6.508   4.227   4.623
 7171SOL    HW133544   6.483   4.218   4.527
 7171SOL    HW233545   6.556   4.145   4.654
 7172SOL     OW33546   6.857   5.521   4.315
 7172SOL    HW133547   6.901   5.585   4.251
 7172SOL    HW233548   6.807   5.573   4.385
 7173SOL     OW33549   6.618   4.273   3.740
 7173SOL    HW133550   6.577   4.355   3.701
 7173SOL    HW233551   6.682   4.299   3.813
 7174SOL     OW33552   5.664   4.280   5.110
 7174SOL    HW133553   5.756   4.279   5.069
 7174SOL    HW233554   5.658   4.354   5.177
 7175SOL     OW33555   6.074   5.109   3.898
 7175SOL    HW133556   5.987   5.094   3.945
 7175SOL    HW233557   6.057   5.135   3.803
 7176SOL     OW33558   7.250   5.004   4.381
 7176SOL    HW133559   7.349   5.012   4.395
 7176SOL    HW233560   7.205   5.088   4.412
 7177SOL     OW33561   6.113   3.980   4.052
 7177SOL    HW133562   6.140   3.921   3.977
 7177SOL    HW233563   6.113   4.075   4.021
 7178SOL     OW33564   7.178   5.353   5.349
 7178SOL    HW133565   7.205   5.387   5.259
 7178SOL    HW233566   7.257   5.315   5.395
 7179SOL     OW33567   6.291   4.774   4.092
 7179SOL    HW133568   6.277   4.781   4.191
 7179SOL    HW233569   6.375   4.723   4.074
 7180SOL     OW33570   5.996   4.537   4.975
 7180SOL    HW133571   6.082   4.549   5.025
 7180SOL    HW233572   5.954   4.450   5.002
 7181SOL     OW33573   6.860   4.110   4.986
 7181SOL    HW133574   6.881   4.184   5.050
 7181SOL    HW233575   6.771   4.127   4.943
 7182SOL     OW33576   6.152   4.261   4.589
 7182SOL    HW133577   6.164   4.327   4.515
 7182SOL    HW233578   6.198   4.295   4.672
 7183SOL     OW33579   6.599   3.829   5.494
 7183SOL    HW133580   6.605   3.914   5.442
 7183SOL    HW233581   6.631   3.753   5.437
 7184SOL     OW33582   6.090   3.774   5.464
 7184SOL    HW133583   6.048   3.717   5.394
 7184SOL    HW233584   6.024   3.843   5.496
 7185SOL     OW33585   6.159   4.594   4.753
 7185SOL    HW133586   6.203   4.683   4.744
 7185SOL    HW233587   6.096   4.594   4.830
 7186SOL     OW33588   5.893   3.937   4.955
 7186SOL    HW133589   5.870   3.974   5.045
 7186SOL    HW233590   5.863   3.842   4.949
 7187SOL     OW33591   5.623   5.034   5.006
 7187SOL    HW133592   5.676   4.985   5.074
 7187SOL    HW233593   5.645   5.132   5.011
 7188SOL     OW33594   6.318   4.358   4.788
 7188SOL    HW133595   6.377   4.332   4.712
 7188SOL    HW233596   6.290   4.454   4.777
 7189SOL     OW33597   7.314   4.659   5.578
 7189SOL    HW133598   7.268   4.652   5.489
 7189SOL    HW233599   7.252   4.703   5.644
 7190SOL     OW33600   5.893   3.787   4.342
 7190SOL    HW133601   5.882   3.881   4.375
 7190SOL    HW233602   5.888   3.724   4.419
 7191SOL     OW33603   7.208   4.091   4.098
 7191SOL    HW133604   7.210   4.015   4.162
 7191SOL    HW233605   7.160   4.168   4.138
 7192SOL     OW33606   6.566   5.297   5.424
 7192SOL    HW133607   6.546   5.341   5.336
 7192SOL    HW233608   6.605   5.206   5.408
 7193SOL     OW33609   7.445   5.242   5.329
 7193SOL    HW133610   7.459   5.269   5.234
 7193SOL    HW233611   7.528   5.264   5.382
 7194SOL     OW33612   5.936   4.622   5.528
 7194SOL    HW133613   6.012   4.666   5.576
 7194SOL    HW233614   5.971   4.575   5.446
 7195SOL     OW33615   7.126   3.998   3.849
 7195SOL    HW133616   7.065   3.923   3.872
 7195SOL    HW233617   7.148   4.050   3.932
 7196SOL     OW33618   6.724   4.104   5.402
 7196SOL    HW133619   6.679   4.167   5.466
 7196SOL    HW233620   6.817   4.135   5.385
 7197SOL     OW33621   6.746   3.931   5.201
 7197SOL    HW133622   6.746   3.995   5.278
 7197SOL    HW233623   6.774   3.979   5.118
 7198SOL     OW33624   5.674   5.525   4.651
 7198SOL    HW133625   5.632   5.439   4.624
 7198SOL    HW233626   5.768   5.528   4.617
 7199SOL     OW33627   6.588   4.520   4.962
 7199SOL    HW133628   6.629   4.488   5.048
 7199SOL    HW233629   6.492   4.493   4.959
 7200SOL     OW33630   6.955   4.674   5.384
 7200SOL    HW133631   6.994   4.763   5.404
 7200SOL    HW233632   6.965   4.654   5.287
 7201SOL     OW33633   5.838   5.288   5.468
 7201SOL    HW133634   5.808   5.345   5.544
 7201SOL    HW233635   5.831   5.191   5.494
 7202SOL     OW33636   6.257   4.188   4.993
 7202SOL    HW133637   6.223   4.099   4.963
 7202SOL    HW233638   6.283   4.242   4.913
 7203SOL     OW33639   6.274   5.386   5.440
 7203SOL    HW133640   6.218   5.467   5.449
 7203SOL    HW233641   6.326   5.390   5.354
 7204SOL     OW33642   6.866   4.651   4.396
 7204SOL    HW133643   6.926   4.570   4.398
 7204SOL    HW233644   6.906   4.720   4.336
 7205SOL     OW33645   6.258   5.340   3.878
 7205SOL    HW133646   6.267   5.350   3.779
 7205SOL    HW233647   6.218   5.251   3.899
 7206SOL     OW33648   7.236   5.444   5.118
 7206SOL    HW133649   7.289   5.454   5.034
 7206SOL    HW233650   7.209   5.534   5.152
 7207SOL     OW33651   6.408   4.726   5.096
 7207SOL    HW133652   6.448   4.725   5.004
 7207SOL    HW233653   6.418   4.818   5.136
 7208SOL     OW33654   6.502   4.634   4.015
 7208SOL    HW133655   6.565   4.672   3.947
 7208SOL    HW233656   6.542   4.551   4.054
 7209SOL     OW33657   7.090   5.331   3.768
 7209SOL    HW133658   6.998   5.368   3.775
 7209SOL    HW233659   7.128   5.351   3.678
 7210SOL     OW33660   5.958   5.012   5.214
 7210SOL    HW133661   5.945   5.105   5.180
 7210SOL    HW233662   5.874   4.960   5.201
 7211SOL     OW33663   7.200   5.016   5.013
 7211SOL    HW133664   7.260   5.019   5.093
 7211SOL    HW233665   7.125   5.080   5.026
 7212SOL     OW33666   6.176   5.211   4.215
 7212SOL    HW133667   6.218   5.153   4.145
 7212SOL    HW233668   6.132   5.290   4.171
 7213SOL     OW33669   7.295   4.109   5.105
 7213SOL    HW133670   7.368   4.178   5.109
 7213SOL    HW233671   7.323   4.034   5.046
 7214SOL     OW33672   5.661   4.069   3.757
 7214SOL    HW133673   5.569   4.041   3.728
 7214SOL    HW233674   5.692   4.146   3.701
 7215SOL     OW33675   7.026   4.580   5.122
 7215SOL    HW133676   6.969   4.632   5.059
 7215SOL    HW233677   7.122   4.592   5.098
 7216SOL     OW33678   5.658   3.890   4.042
 7216SOL    HW133679   5.641   3.973   3.988
 7216SOL    HW233680   5.748   3.853   4.020
 7217SOL     OW33681   6.302   4.289   5.432
 7217SOL    HW133682   6.321   4.354   5.506
 7217SOL    HW233683   6.362   4.209   5.441
 7218SOL     OW33684   7.036   4.944   5.357
 7218SOL    HW133685   7.027   4.934   5.456
 7218SOL    HW233686   7.132   4.937   5.331
 7219SOL     OW33687   5.976   5.465   5.284
 7219SOL    HW133688   5.885   5.506   5.282
 7219SOL    HW233689   5.969   5.371   5.316
 7220SOL     OW33690   7.363   4.066   5.366
 7220SOL    HW133691   7.346   4.097   5.272
 7220SOL    HW233692   7.279   4.029   5.404
 7221SOL     OW33693   6.247   5.514   4.677
 7221SOL    HW133694   6.201   5.602   4.664
 7221SOL    HW233695   6.346   5.526   4.670
 7222SOL     OW33696   6.258   5.115   5.348
 7222SOL    HW133697   6.180   5.065   5.386
 7222SOL    HW233698   6.255   5.210   5.379
 7223SOL     OW33699   6.014   4.148   4.244
 7223SOL    HW133700   6.044   4.076   4.182
 7223SOL    HW233701   5.975   4.108   4.327
 7224SOL     OW33702   7.291   5.211   4.828
 7224SOL    HW133703   7.198   5.186   4.801
 7224SOL    HW233704   7.317   5.161   4.910
 7225SOL     OW33705   7.010   3.938   4.836
 7225SOL    HW133706   7.062   3.873   4.891
 7225SOL    HW233707   6.961   4.001   4.897
 7226SOL     OW33708   6.587   3.758   4.878
 7226SOL    HW133709   6.524   3.686   4.847
 7226SOL    HW233710   6.680   3.722   4.878
 7227SOL     OW33711   6.938   3.776   3.892
 7227SOL    HW133712   6.973   3.735   3.808
 7227SOL    HW233713   6.848   3.738   3.912
 7228SOL     OW33714   6.886   4.177   4.415
 7228SOL    HW133715   6.827   4.257   4.419
 7228SOL    HW233716   6.901   4.142   4.508
 7229SOL     OW33717   7.179   3.945   4.606
 7229SOL    HW133718   7.095   3.944   4.660
 7229SOL    HW233719   7.181   4.028   4.550
 7230SOL     OW33720   5.811   3.999   6.582
 7230SOL    HW133721   5.846   3.982   6.674
 7230SOL    HW233722   5.723   3.954   6.570
 7231SOL     OW33723   7.141   5.235   6.289
 7231SOL    HW133724   7.084   5.219   6.370
 7231SOL    HW233725   7.082   5.245   6.209
 7232SOL     OW33726   6.721   4.427   6.303
 7232SOL    HW133727   6.778   4.505   6.278
 7232SOL    HW233728   6.661   4.453   6.379
 7233SOL     OW33729   6.271   4.736   6.251
 7233SOL    HW133730   6.340   4.720   6.321
 7233SOL    HW233731   6.198   4.793   6.289
 7234SOL     OW33732   7.189   4.171   6.323
 7234SOL    HW133733   7.115   4.217   6.273
 7234SOL    HW233734   7.240   4.239   6.376
 7235SOL     OW33735   5.817   5.437   6.069
 7235SOL    HW133736   5.851   5.514   6.123
 7235SOL    HW233737   5.861   5.437   5.979
 7236SOL     OW33738   5.826   4.815   6.472
 7236SOL    HW133739   5.840   4.731   6.524
 7236SOL    HW233740   5.771   4.879   6.527
 7237SOL     OW33741   6.206   5.510   7.025
 7237SOL    HW133742   6.114   5.493   7.060
 7237SOL    HW233743   6.234   5.602   7.051
 7238SOL     OW33744   6.192   4.688   5.709
 7238SOL    HW133745   6.199   4.772   5.655
 7238SOL    HW233746   6.238   4.701   5.797
 7239SOL     OW33747   5.708   4.367   6.149
 7239SOL    HW133748   5.663   4.279   6.166
 7239SOL    HW233749   5.707   4.421   6.233
 7240SOL     OW33750   7.428   5.491   5.945
 7240SOL    HW133751   7.482   5.462   6.025
 7240SOL    HW233752   7.458   5.581   5.916
 7241SOL     OW33753   7.227   4.832   6.018
 7241SOL    HW133754   7.313   4.834   5.966
 7241SOL    HW233755   7.241   4.879   6.106
 7242SOL     OW33756   6.199   5.089   6.312
 7242SOL    HW133757   6.150   5.002   6.321
 7242SOL    HW233758   6.176   5.132   6.225
 7243SOL     OW33759   6.395   3.728   6.088
 7243SOL    HW133760   6.435   3.819   6.079
 7243SOL    HW233761   6.295   3.736   6.094
 7244SOL     OW33762   5.783   4.700   6.850
 7244SOL    HW133763   5.872   4.655   6.836
 7244SOL    HW233764   5.710   4.635   6.831
 7245SOL     OW33765   7.111   4.723   5.776
 7245SOL    HW133766   7.048   4.647   5.789
 7245SOL    HW233767   7.159   4.741   5.862
 7246SOL     OW33768   7.052   5.141   6.539
 7246SOL    HW133769   6.993   5.147   6.619
 7246SOL    HW233770   7.037   5.053   6.493
 7247SOL     OW33771   7.253   5.438   6.158
 7247SOL    HW133772   7.212   5.415   6.070
 7247SOL    HW233773   7.235   5.364   6.223
 7248SOL     OW33774   6.184   4.453   5.856
 7248SOL    HW133775   6.208   4.522   5.788
 7248SOL    HW233776   6.106   4.486   5.910
 7249SOL     OW33777   6.867   4.069   6.530
 7249SOL    HW133778   6.781   4.019   6.517
 7249SOL    HW233779   6.929   4.015   6.586
 7250SOL     OW33780   7.162   5.386   5.893
 7250SOL    HW133781   7.251   5.432   5.896
 7250SOL    HW233782   7.141   5.362   5.798
 7251SOL     OW33783   6.577   4.134   6.828
 7251SOL    HW133784   6.500   4.168   6.882
 7251SOL    HW233785   6.543   4.083   6.749
 7252SOL     OW33786   6.627   4.425   6.015
 7252SOL    HW133787   6.653   4.421   6.111
 7252SOL    HW233788   6.542   4.374   6.001
 7253SOL     OW33789   5.662   4.535   6.375
 7253SOL    HW133790   5.761   4.523   6.384
 7253SOL    HW233791   5.638   4.630   6.396
 7254SOL     OW33792   6.451   4.072   5.781
 7254SOL    HW133793   6.510   4.135   5.732
 7254SOL    HW233794   6.470   3.978   5.752
 7255SOL     OW33795   6.948   4.868   6.131
 7255SOL    HW133796   7.031   4.839   6.083
 7255SOL    HW233797   6.899   4.935   6.075
 7256SOL     OW33798   6.136   3.920   6.471
 7256SOL    HW133799   6.131   3.915   6.571
 7256SOL    HW233800   6.138   4.016   6.442
 7257SOL     OW33801   6.594   5.180   6.063
 7257SOL    HW133802   6.548   5.252   6.011
 7257SOL    HW233803   6.590   5.200   6.161
 7258SOL     OW33804   5.937   5.525   6.439
 7258SOL    HW133805   5.987   5.439   6.445
 7258SOL    HW233806   6.002   5.602   6.436
 7259SOL     OW33807   7.381   4.790   6.459
 7259SOL    HW133808   7.319   4.775   6.383
 7259SOL    HW233809   7.329   4.801   6.544
 7260SOL     OW33810   5.907   4.667   5.828
 7260SOL    HW133811   5.989   4.706   5.786
 7260SOL    HW233812   5.880   4.585   5.779
 7261SOL     OW33813   6.697   5.500   5.823
 7261SOL    HW133814   6.637   5.438   5.873
 7261SOL    HW233815   6.728   5.456   5.738
 7262SOL     OW33816   7.218   5.101   5.667
 7262SOL    HW133817   7.186   5.195   5.657
 7262SOL    HW233818   7.142   5.038   5.655
 7263SOL     OW33819   6.050   5.467   5.909
 7263SOL    HW133820   6.083   5.506   5.995
 7263SOL    HW233821   6.126   5.460   5.844
 7264SOL     OW33822   6.986   3.831   6.012
 7264SOL    HW133823   6.962   3.794   5.922
 7264SOL    HW233824   7.085   3.847   6.016
 7265SOL     OW33825   5.835   5.509   6.827
 7265SOL    HW133826   5.892   5.444   6.877
 7265SOL    HW233827   5.819   5.476   6.734
 7266SOL     OW33828   6.526   5.422   6.490
 7266SOL    HW133829   6.606   5.365   6.511
 7266SOL    HW233830   6.477   5.382   6.413
 7267SOL     OW33831   5.968   4.424   6.066
 7267SOL    HW133832   6.013   4.334   6.063
 7267SOL    HW233833   5.874   4.413   6.099
 7268SOL     OW33834   6.508   4.227   6.485
 7268SOL    HW133835   6.483   4.218   6.389
 7268SOL    HW233836   6.556   4.145   6.516
 7269SOL     OW33837   7.020   4.912   5.627
 7269SOL    HW133838   7.052   4.836   5.684
 7269SOL    HW233839   6.928   4.939   5.657
 7270SOL     OW33840   6.521   3.960   6.066
 7270SOL    HW133841   6.473   4.001   5.988
 7270SOL    HW233842   6.620   3.958   6.047
 7271SOL     OW33843   6.813   5.294   6.379
 7271SOL    HW133844   6.834   5.368   6.314
 7271SOL    HW233845   6.881   5.294   6.452
 7272SOL     OW33846   6.045   4.876   6.327
 7272SOL    HW133847   5.974   4.849   6.392
 7272SOL    HW233848   6.019   4.848   6.234
 7273SOL     OW33849   6.857   5.521   6.177
 7273SOL    HW133850   6.901   5.585   6.113
 7273SOL    HW233851   6.807   5.573   6.247
 7274SOL     OW33852   6.618   4.273   5.602
 7274SOL    HW133853   6.577   4.355   5.563
 7274SOL    HW233854   6.682   4.299   5.675
 7275SOL     OW33855   6.147   3.946   6.733
 7275SOL    HW133856   6.185   3.862   6.770
 7275SOL    HW233857   6.059   3.965   6.777
 7276SOL     OW33858   6.452   4.178   6.228
 7276SOL    HW133859   6.420   4.250   6.166
 7276SOL    HW233860   6.476   4.097   6.175
 7277SOL     OW33861   6.603   3.763   6.339
 7277SOL    HW133862   6.531   3.768   6.270
 7277SOL    HW233863   6.579   3.694   6.408
 7278SOL     OW33864   7.015   4.897   6.453
 7278SOL    HW133865   6.960   4.813   6.446
 7278SOL    HW233866   7.041   4.926   6.361
 7279SOL     OW33867   7.052   4.314   6.578
 7279SOL    HW133868   7.022   4.219   6.585
 7279SOL    HW233869   7.125   4.330   6.644
 7280SOL     OW33870   7.443   4.557   5.963
 7280SOL    HW133871   7.485   4.493   6.027
 7280SOL    HW233872   7.405   4.506   5.885
 7281SOL     OW33873   6.074   5.109   5.760
 7281SOL    HW133874   5.987   5.094   5.807
 7281SOL    HW233875   6.057   5.135   5.665
 7282SOL     OW33876   7.250   5.004   6.243
 7282SOL    HW133877   7.349   5.012   6.257
 7282SOL    HW233878   7.205   5.088   6.274
 7283SOL     OW33879   6.113   3.980   5.914
 7283SOL    HW133880   6.140   3.921   5.839
 7283SOL    HW233881   6.113   4.075   5.883
 7284SOL     OW33882   6.697   4.919   6.686
 7284SOL    HW133883   6.657   4.963   6.767
 7284SOL    HW233884   6.656   4.956   6.603
 7285SOL     OW33885   7.224   4.823   6.665
 7285SOL    HW133886   7.229   4.904   6.724
 7285SOL    HW233887   7.138   4.825   6.614
 7286SOL     OW33888   6.291   4.774   5.954
 7286SOL    HW133889   6.277   4.781   6.053
 7286SOL    HW233890   6.375   4.723   5.936
 7287SOL     OW33891   5.996   4.537   6.837
 7287SOL    HW133892   6.082   4.549   6.887
 7287SOL    HW233893   5.954   4.450   6.864
 7288SOL     OW33894   6.860   4.110   6.848
 7288SOL    HW133895   6.881   4.184   6.912
 7288SOL    HW233896   6.771   4.127   6.805
 7289SOL     OW33897   5.953   4.824   6.087
 7289SOL    HW133898   5.946   4.907   6.031
 7289SOL    HW233899   5.957   4.744   6.027
 7290SOL     OW33900   6.152   4.261   6.451
 7290SOL    HW133901   6.164   4.327   6.377
 7290SOL    HW233902   6.198   4.295   6.534
 7291SOL     OW33903   6.838   5.072   5.974
 7291SOL    HW133904   6.888   5.149   6.014
 7291SOL    HW233905   6.743   5.074   6.006
 7292SOL     OW33906   6.858   5.169   6.728
 7292SOL    HW133907   6.905   5.182   6.815
 7292SOL    HW233908   6.792   5.095   6.737
 7293SOL     OW33909   6.159   4.594   6.615
 7293SOL    HW133910   6.203   4.683   6.606
 7293SOL    HW233911   6.096   4.594   6.692
 7294SOL     OW33912   6.946   4.586   6.631
 7294SOL    HW133913   6.871   4.586   6.565
 7294SOL    HW233914   6.983   4.494   6.640
 7295SOL     OW33915   5.893   3.937   6.817
 7295SOL    HW133916   5.870   3.974   6.907
 7295SOL    HW233917   5.863   3.842   6.811
 7296SOL     OW33918   5.623   5.034   6.868
 7296SOL    HW133919   5.676   4.985   6.936
 7296SOL    HW233920   5.645   5.132   6.873
 7297SOL     OW33921   6.318   4.358   6.650
 7297SOL    HW133922   6.377   4.332   6.574
 7297SOL    HW233923   6.290   4.454   6.639
 7298SOL     OW33924   6.609   4.490   6.552
 7298SOL    HW133925   6.624   4.511   6.648
 7298SOL    HW233926   6.579   4.395   6.543
 7299SOL     OW33927   6.889   4.562   5.628
 7299SOL    HW133928   6.923   4.469   5.643
 7299SOL    HW233929   6.907   4.589   5.533
 7300SOL     OW33930   6.654   5.057   6.435
 7300SOL    HW133931   6.661   4.973   6.380
 7300SOL    HW233932   6.716   5.126   6.399
 7301SOL     OW33933   5.905   4.534   6.535
 7301SOL    HW133934   5.998   4.570   6.540
 7301SOL    HW233935   5.899   4.449   6.587
 7302SOL     OW33936   5.925   4.233   6.592
 7302SOL    HW133937   5.873   4.150   6.575
 7302SOL    HW233938   6.002   4.238   6.528
 7303SOL     OW33939   5.594   5.050   5.786
 7303SOL    HW133940   5.501   5.071   5.755
 7303SOL    HW233941   5.604   4.951   5.799
 7304SOL     OW33942   5.674   5.525   6.513
 7304SOL    HW133943   5.632   5.439   6.486
 7304SOL    HW233944   5.768   5.528   6.479
 7305SOL     OW33945   6.588   4.520   6.824
 7305SOL    HW133946   6.629   4.488   6.910
 7305SOL    HW233947   6.492   4.493   6.821
 7306SOL     OW33948   5.626   4.268   6.700
 7306SOL    HW133949   5.711   4.235   6.659
 7306SOL    HW233950   5.639   4.283   6.798
 7307SOL     OW33951   6.401   4.296   5.911
 7307SOL    HW133952   6.408   4.207   5.865
 7307SOL    HW233953   6.307   4.330   5.903
 7308SOL     OW33954   7.243   4.328   6.792
 7308SOL    HW133955   7.205   4.259   6.854
 7308SOL    HW233956   7.325   4.292   6.748
 7309SOL     OW33957   6.257   4.188   6.855
 7309SOL    HW133958   6.223   4.099   6.825
 7309SOL    HW233959   6.283   4.242   6.775
 7310SOL     OW33960   6.516   5.402   7.051
 7310SOL    HW133961   6.492   5.384   6.956
 7310SOL    HW233962   6.546   5.496   7.061
 7311SOL     OW33963   6.059   4.224   5.777
 7311SOL    HW133964   6.120   4.304   5.781
 7311SOL    HW233965   5.964   4.255   5.784
 7312SOL     OW33966   6.933   4.783   6.820
 7312SOL    HW133967   6.957   4.720   6.746
 7312SOL    HW233968   6.843   4.823   6.802
 7313SOL     OW33969   6.888   4.579   5.895
 7313SOL    HW133970   6.802   4.548   5.937
 7313SOL    HW233971   6.884   4.565   5.796
 7314SOL     OW33972   7.345   5.471   6.740
 7314SOL    HW133973   7.406   5.501   6.667
 7314SOL    HW233974   7.307   5.382   6.718
 7315SOL     OW33975   6.838   5.455   6.714
 7315SOL    HW133976   6.922   5.460   6.660
 7315SOL    HW233977   6.815   5.359   6.732
 7316SOL     OW33978   5.669   4.982   6.608
 7316SOL    HW133979   5.664   4.981   6.708
 7316SOL    HW233980   5.586   4.941   6.570
 7317SOL     OW33981   7.312   3.859   6.109
 7317SOL    HW133982   7.385   3.842   6.042
 7317SOL    HW233983   7.281   3.772   6.147
 7318SOL     OW33984   6.974   5.297   6.063
 7318SOL    HW133985   7.041   5.309   5.989
 7318SOL    HW233986   6.934   5.386   6.086
 7319SOL     OW33987   6.866   4.651   6.258
 7319SOL    HW133988   6.926   4.570   6.260
 7319SOL    HW233989   6.906   4.720   6.198
 7320SOL     OW33990   6.258   5.340   5.740
 7320SOL    HW133991   6.267   5.350   5.641
 7320SOL    HW233992   6.218   5.251   5.761
 7321SOL     OW33993   7.236   5.444   6.980
 7321SOL    HW133994   7.289   5.454   6.896
 7321SOL    HW233995   7.209   5.534   7.014
 7322SOL     OW33996   6.780   5.336   5.617
 7322SOL    HW133997   6.786   5.243   5.654
 7322SOL    HW233998   6.721   5.336   5.537
 7323SOL     OW33999   6.408   4.726   6.958
 7323SOL    HW134000   6.448   4.725   6.866
 7323SOL    HW234001   6.418   4.818   6.998
 7324SOL     OW34002   6.502   4.634   5.877
 7324SOL    HW134003   6.565   4.672   5.809
 7324SOL    HW234004   6.542   4.551   5.916
 7325SOL     OW34005   7.090   5.331   5.630
 7325SOL    HW134006   6.998   5.368   5.637
 7325SOL    HW234007   7.128   5.351   5.540
 7326SOL     OW34008   6.625   4.822   6.282
 7326SOL    HW134009   6.555   4.775   6.336
 7326SOL    HW234010   6.684   4.754   6.239
 7327SOL     OW34011   6.600   3.960   6.557
 7327SOL    HW134012   6.592   3.924   6.464
 7327SOL    HW234013   6.598   3.884   6.622
 7328SOL     OW34014   6.176   5.211   6.077
 7328SOL    HW134015   6.218   5.153   6.007
 7328SOL    HW234016   6.132   5.290   6.033
 7329SOL     OW34017   7.295   4.109   6.967
 7329SOL    HW134018   7.368   4.178   6.971
 7329SOL    HW234019   7.323   4.034   6.908
 7330SOL     OW34020   5.841   5.072   5.876
 7330SOL    HW134021   5.745   5.073   5.849
 7330SOL    HW234022   5.853   5.125   5.960
 7331SOL     OW34023   5.658   3.890   5.904
 7331SOL    HW134024   5.641   3.973   5.850
 7331SOL    HW234025   5.748   3.853   5.882
 7332SOL     OW34026   6.769   5.059   5.705
 7332SOL    HW134027   6.670   5.048   5.707
 7332SOL    HW234028   6.803   5.074   5.798
 7333SOL     OW34029   7.079   5.491   6.545
 7333SOL    HW134030   7.112   5.555   6.476
 7333SOL    HW234031   7.145   5.485   6.620
 7334SOL     OW34032   7.260   4.607   6.840
 7334SOL    HW134033   7.233   4.518   6.803
 7334SOL    HW234034   7.261   4.675   6.767
 7335SOL     OW34035   6.180   4.469   6.238
 7335SOL    HW134036   6.230   4.554   6.219
 7335SOL    HW234037   6.092   4.471   6.190
 7336SOL     OW34038   6.445   5.098   5.602
 7336SOL    HW134039   6.399   5.113   5.690
 7336SOL    HW234040   6.489   5.183   5.572
 7337SOL     OW34041   6.445   4.680   6.447
 7337SOL    HW134042   6.499   4.611   6.495
 7337SOL    HW234043   6.413   4.749   6.513
 7338SOL     OW34044   6.669   4.708   5.673
 7338SOL    HW134045   6.646   4.761   5.591
 7338SOL    HW234046   6.750   4.652   5.654
 7339SOL     OW34047   7.447   5.293   6.437
 7339SOL    HW134048   7.376   5.281   6.367
 7339SOL    HW234049   7.448   5.214   6.497
 7340SOL     OW34050   5.665   4.964   6.239
 7340SOL    HW134051   5.664   4.917   6.327
 7340SOL    HW234052   5.747   4.936   6.188
 7341SOL     OW34053   7.410   3.916   6.813
 7341SOL    HW134054   7.406   3.826   6.857
 7341SOL    HW234055   7.413   3.905   6.714
 7342SOL     OW34056   6.014   4.148   6.106
 7342SOL    HW134057   6.044   4.076   6.044
 7342SOL    HW234058   5.975   4.108   6.189
 7343SOL     OW34059   7.291   5.211   6.690
 7343SOL    HW134060   7.198   5.186   6.663
 7343SOL    HW234061   7.317   5.161   6.772
 7344SOL     OW34062   6.398   5.310   6.273
 7344SOL    HW134063   6.430   5.320   6.179
 7344SOL    HW234064   6.319   5.248   6.275
 7345SOL     OW34065   6.587   3.758   6.740
 7345SOL    HW134066   6.524   3.686   6.709
 7345SOL    HW234067   6.680   3.722   6.740
 7346SOL     OW34068   6.356   5.054   5.887
 7346SOL    HW134069   6.310   4.967   5.904
 7346SOL    HW234070   6.447   5.051   5.928
 7347SOL     OW34071   6.886   4.177   6.277
 7347SOL    HW134072   6.827   4.257   6.281
 7347SOL    HW234073   6.901   4.142   6.370
 7348SOL     OW34074   5.625   4.801   5.886
 7348SOL    HW134075   5.724   4.790   5.877
 7348SOL    HW234076   5.585   4.715   5.918
 7349SOL     OW34077   6.461   5.370   5.923
 7349SOL    HW134078   6.384   5.335   5.869
 7349SOL    HW234079   6.429   5.441   5.985
 7350SOL     OW34080   5.816   6.214   0.113
 7350SOL    HW134081   5.723   6.212   0.150
 7350SOL    HW234082   5.817   6.175   0.021
 7351SOL     OW34083   5.811   5.861   0.996
 7351SOL    HW134084   5.846   5.844   1.088
 7351SOL    HW234085   5.723   5.816   0.984
 7352SOL     OW34086   5.605   5.954   0.647
 7352SOL    HW134087   5.523   5.997   0.686
 7352SOL    HW234088   5.577   5.881   0.584
 7353SOL     OW34089   6.155   6.861   1.165
 7353SOL    HW134090   6.062   6.854   1.128
 7353SOL    HW234091   6.166   6.950   1.209
 7354SOL     OW34092   7.141   7.097   0.703
 7354SOL    HW134093   7.084   7.081   0.784
 7354SOL    HW234094   7.082   7.107   0.623
 7355SOL     OW34095   6.721   6.289   0.717
 7355SOL    HW134096   6.778   6.367   0.692
 7355SOL    HW234097   6.661   6.315   0.793
 7356SOL     OW34098   7.341   6.193   0.231
 7356SOL    HW134099   7.329   6.180   0.132
 7356SOL    HW234100   7.311   6.112   0.280
 7357SOL     OW34101   6.354   6.730   1.023
 7357SOL    HW134102   6.276   6.747   1.083
 7357SOL    HW234103   6.388   6.817   0.987
 7358SOL     OW34104   6.271   6.598   0.665
 7358SOL    HW134105   6.340   6.582   0.735
 7358SOL    HW234106   6.198   6.655   0.703
 7359SOL     OW34107   5.921   7.021   1.061
 7359SOL    HW134108   5.843   6.990   1.008
 7359SOL    HW234109   5.979   7.079   1.004
 7360SOL     OW34110   7.046   7.091   1.339
 7360SOL    HW134111   7.070   7.185   1.365
 7360SOL    HW234112   7.030   7.037   1.421
 7361SOL     OW34113   6.024   5.978   1.499
 7361SOL    HW134114   6.106   5.922   1.508
 7361SOL    HW234115   5.943   5.920   1.503
 7362SOL     OW34116   7.189   6.033   0.737
 7362SOL    HW134117   7.115   6.079   0.687
 7362SOL    HW234118   7.240   6.101   0.790
 7363SOL     OW34119   5.817   7.299   0.483
 7363SOL    HW134120   5.851   7.376   0.537
 7363SOL    HW234121   5.861   7.299   0.393
 7364SOL     OW34122   5.816   7.020   0.538
 7364SOL    HW134123   5.790   7.116   0.538
 7364SOL    HW234124   5.745   6.966   0.583
 7365SOL     OW34125   5.826   6.677   0.886
 7365SOL    HW134126   5.840   6.593   0.938
 7365SOL    HW234127   5.771   6.741   0.941
 7366SOL     OW34128   6.206   7.372   1.439
 7366SOL    HW134129   6.114   7.355   1.474
 7366SOL    HW234130   6.234   7.464   1.465
 7367SOL     OW34131   6.192   6.550   0.123
 7367SOL    HW134132   6.199   6.634   0.069
 7367SOL    HW234133   6.238   6.563   0.211
 7368SOL     OW34134   7.180   5.700   1.480
 7368SOL    HW134135   7.162   5.767   1.408
 7368SOL    HW234136   7.177   5.746   1.569
 7369SOL     OW34137   5.708   6.229   0.563
 7369SOL    HW134138   5.663   6.141   0.580
 7369SOL    HW234139   5.707   6.283   0.647
 7370SOL     OW34140   7.428   7.353   0.359
 7370SOL    HW134141   7.482   7.324   0.439
 7370SOL    HW234142   7.458   7.443   0.330
 7371SOL     OW34143   5.613   7.182   0.117
 7371SOL    HW134144   5.594   7.086   0.138
 7371SOL    HW234145   5.580   7.240   0.192
 7372SOL     OW34146   7.275   6.508   0.612
 7372SOL    HW134147   7.370   6.479   0.620
 7372SOL    HW234148   7.267   6.573   0.537
 7373SOL     OW34149   7.227   6.694   0.432
 7373SOL    HW134150   7.313   6.696   0.380
 7373SOL    HW234151   7.241   6.741   0.520
 7374SOL     OW34152   5.699   6.323   1.597
 7374SOL    HW134153   5.787   6.310   1.642
 7374SOL    HW234154   5.686   6.420   1.575
 7375SOL     OW34155   6.199   6.951   0.726
 7375SOL    HW134156   6.150   6.864   0.735
 7375SOL    HW234157   6.176   6.994   0.639
 7376SOL     OW34158   6.395   5.590   0.502
 7376SOL    HW134159   6.435   5.681   0.493
 7376SOL    HW234160   6.295   5.598   0.508
 7377SOL     OW34161   5.783   6.562   1.264
 7377SOL    HW134162   5.872   6.517   1.250
 7377SOL    HW234163   5.710   6.497   1.245
 7378SOL     OW34164   7.111   6.585   0.190
 7378SOL    HW134165   7.048   6.509   0.203
 7378SOL    HW234166   7.159   6.603   0.276
 7379SOL     OW34167   6.773   7.378   1.616
 7379SOL    HW134168   6.797   7.438   1.540
 7379SOL    HW234169   6.780   7.283   1.586
 7380SOL     OW34170   5.903   5.837   1.801
 7380SOL    HW134171   5.974   5.908   1.807
 7380SOL    HW234172   5.815   5.876   1.829
 7381SOL     OW34173   7.052   7.003   0.953
 7381SOL    HW134174   6.993   7.009   1.033
 7381SOL    HW234175   7.037   6.915   0.907
 7382SOL     OW34176   7.253   7.300   0.572
 7382SOL    HW134177   7.212   7.277   0.484
 7382SOL    HW234178   7.235   7.226   0.637
 7383SOL     OW34179   6.184   6.315   0.270
 7383SOL    HW134180   6.208   6.384   0.202
 7383SOL    HW234181   6.106   6.348   0.324
 7384SOL     OW34182   6.867   5.931   0.944
 7384SOL    HW134183   6.781   5.881   0.931
 7384SOL    HW234184   6.929   5.877   1.000
 7385SOL     OW34185   7.162   7.248   0.307
 7385SOL    HW134186   7.251   7.294   0.310
 7385SOL    HW234187   7.141   7.224   0.212
 7386SOL     OW34188   6.980   6.055   1.674
 7386SOL    HW134189   6.960   6.098   1.762
 7386SOL    HW234190   7.058   5.993   1.683
 7387SOL     OW34191   6.559   6.476   1.572
 7387SOL    HW134192   6.605   6.392   1.543
 7387SOL    HW234193   6.503   6.510   1.497
 7388SOL     OW34194   6.627   6.287   0.429
 7388SOL    HW134195   6.653   6.283   0.525
 7388SOL    HW234196   6.542   6.236   0.415
 7389SOL     OW34197   5.662   6.397   0.789
 7389SOL    HW134198   5.761   6.385   0.798
 7389SOL    HW234199   5.638   6.492   0.810
 7390SOL     OW34200   6.451   5.934   0.195
 7390SOL    HW134201   6.510   5.997   0.146
 7390SOL    HW234202   6.470   5.840   0.166
 7391SOL     OW34203   7.305   6.171   1.831
 7391SOL    HW134204   7.279   6.260   1.795
 7391SOL    HW234205   7.303   6.103   1.758
 7392SOL     OW34206   6.948   6.730   0.545
 7392SOL    HW134207   7.031   6.701   0.497
 7392SOL    HW234208   6.899   6.797   0.489
 7393SOL     OW34209   6.136   5.782   0.885
 7393SOL    HW134210   6.131   5.777   0.985
 7393SOL    HW234211   6.138   5.878   0.856
 7394SOL     OW34212   6.594   7.042   0.477
 7394SOL    HW134213   6.548   7.114   0.425
 7394SOL    HW234214   6.590   7.062   0.575
 7395SOL     OW34215   5.937   7.387   0.853
 7395SOL    HW134216   5.987   7.301   0.859
 7395SOL    HW234217   6.002   7.464   0.850
 7396SOL     OW34218   7.381   6.652   0.873
 7396SOL    HW134219   7.319   6.637   0.797
 7396SOL    HW234220   7.329   6.663   0.958
 7397SOL     OW34221   6.813   7.136   1.506
 7397SOL    HW134222   6.819   7.059   1.570
 7397SOL    HW234223   6.761   7.110   1.426
 7398SOL     OW34224   5.907   6.529   0.242
 7398SOL    HW134225   5.989   6.568   0.200
 7398SOL    HW234226   5.880   6.447   0.193
 7399SOL     OW34227   7.044   6.321   0.728
 7399SOL    HW134228   7.039   6.256   0.803
 7399SOL    HW234229   7.124   6.380   0.741
 7400SOL     OW34230   6.697   7.362   0.237
 7400SOL    HW134231   6.637   7.300   0.287
 7400SOL    HW234232   6.728   7.318   0.152
 7401SOL     OW34233   7.218   6.963   0.081
 7401SOL    HW134234   7.186   7.057   0.071
 7401SOL    HW234235   7.142   6.900   0.069
 7402SOL     OW34236   6.050   7.329   0.323
 7402SOL    HW134237   6.083   7.368   0.409
 7402SOL    HW234238   6.126   7.322   0.258
 7403SOL     OW34239   6.986   5.693   0.426
 7403SOL    HW134240   6.962   5.656   0.336
 7403SOL    HW234241   7.085   5.709   0.430
 7404SOL     OW34242   6.526   7.284   0.904
 7404SOL    HW134243   6.606   7.227   0.925
 7404SOL    HW234244   6.477   7.244   0.827
 7405SOL     OW34245   5.968   6.286   0.480
 7405SOL    HW134246   6.013   6.196   0.477
 7405SOL    HW234247   5.874   6.275   0.513
 7406SOL     OW34248   7.133   5.808   1.729
 7406SOL    HW134249   7.128   5.845   1.821
 7406SOL    HW234250   7.061   5.739   1.717
 7407SOL     OW34251   6.367   5.850   1.749
 7407SOL    HW134252   6.434   5.789   1.792
 7407SOL    HW234253   6.294   5.869   1.814
 7408SOL     OW34254   6.474   7.100   1.195
 7408SOL    HW134255   6.451   7.075   1.101
 7408SOL    HW234256   6.535   7.031   1.234
 7409SOL     OW34257   6.937   6.176   1.433
 7409SOL    HW134258   6.965   6.133   1.518
 7409SOL    HW234259   6.962   6.272   1.434
 7410SOL     OW34260   6.389   6.988   0.924
 7410SOL    HW134261   6.479   7.002   0.882
 7410SOL    HW234262   6.318   6.990   0.853
 7411SOL     OW34263   6.508   6.089   0.899
 7411SOL    HW134264   6.483   6.080   0.803
 7411SOL    HW234265   6.556   6.007   0.930
 7412SOL     OW34266   6.125   5.650   0.512
 7412SOL    HW134267   6.044   5.651   0.570
 7412SOL    HW234268   6.128   5.733   0.457
 7413SOL     OW34269   7.020   6.774   0.041
 7413SOL    HW134270   7.052   6.698   0.098
 7413SOL    HW234271   6.928   6.801   0.071
 7414SOL     OW34272   5.883   5.621   0.171
 7414SOL    HW134273   5.932   5.705   0.150
 7414SOL    HW234274   5.945   5.556   0.216
 7415SOL     OW34275   6.521   5.822   0.480
 7415SOL    HW134276   6.473   5.863   0.402
 7415SOL    HW234277   6.620   5.820   0.461
 7416SOL     OW34278   6.662   6.269   1.464
 7416SOL    HW134279   6.582   6.208   1.467
 7416SOL    HW234280   6.743   6.216   1.440
 7417SOL     OW34281   6.813   7.156   0.793
 7417SOL    HW134282   6.834   7.230   0.728
 7417SOL    HW234283   6.881   7.156   0.866
 7418SOL     OW34284   6.045   6.738   0.741
 7418SOL    HW134285   5.974   6.711   0.806
 7418SOL    HW234286   6.019   6.710   0.648
 7419SOL     OW34287   6.857   7.383   0.591
 7419SOL    HW134288   6.901   7.447   0.527
 7419SOL    HW234289   6.807   7.435   0.661
 7420SOL     OW34290   6.618   6.135   0.016
 7420SOL    HW134291   6.577   6.217  -0.023
 7420SOL    HW234292   6.682   6.161   0.089
 7421SOL     OW34293   5.664   6.142   1.386
 7421SOL    HW134294   5.756   6.141   1.345
 7421SOL    HW234295   5.658   6.216   1.453
 7422SOL     OW34296   6.147   5.808   1.147
 7422SOL    HW134297   6.185   5.724   1.184
 7422SOL    HW234298   6.059   5.827   1.191
 7423SOL     OW34299   6.452   6.040   0.642
 7423SOL    HW134300   6.420   6.112   0.580
 7423SOL    HW234301   6.476   5.959   0.589
 7424SOL     OW34302   6.603   5.625   0.753
 7424SOL    HW134303   6.531   5.630   0.684
 7424SOL    HW234304   6.579   5.556   0.822
 7425SOL     OW34305   7.015   6.759   0.867
 7425SOL    HW134306   6.960   6.675   0.860
 7425SOL    HW234307   7.041   6.788   0.775
 7426SOL     OW34308   7.052   6.176   0.992
 7426SOL    HW134309   7.022   6.081   0.999
 7426SOL    HW234310   7.125   6.192   1.058
 7427SOL     OW34311   7.443   6.419   0.377
 7427SOL    HW134312   7.485   6.355   0.441
 7427SOL    HW234313   7.405   6.368   0.299
 7428SOL     OW34314   6.074   6.971   0.174
 7428SOL    HW134315   5.987   6.956   0.221
 7428SOL    HW234316   6.057   6.997   0.079
 7429SOL     OW34317   7.250   6.866   0.657
 7429SOL    HW134318   7.349   6.874   0.671
 7429SOL    HW234319   7.205   6.950   0.688
 7430SOL     OW34320   6.976   6.161   0.078
 7430SOL    HW134321   6.922   6.140   0.159
 7430SOL    HW234322   7.067   6.120   0.087
 7431SOL     OW34323   6.113   5.842   0.328
 7431SOL    HW134324   6.140   5.783   0.253
 7431SOL    HW234325   6.113   5.937   0.297
 7432SOL     OW34326   6.650   6.933   1.340
 7432SOL    HW134327   6.570   6.910   1.395
 7432SOL    HW234328   6.733   6.907   1.389
 7433SOL     OW34329   6.697   6.781   1.100
 7433SOL    HW134330   6.657   6.825   1.181
 7433SOL    HW234331   6.656   6.818   1.017
 7434SOL     OW34332   7.224   6.685   1.079
 7434SOL    HW134333   7.229   6.766   1.138
 7434SOL    HW234334   7.138   6.687   1.028
 7435SOL     OW34335   6.291   6.636   0.368
 7435SOL    HW134336   6.277   6.643   0.467
 7435SOL    HW234337   6.375   6.585   0.350
 7436SOL     OW34338   5.996   6.399   1.251
 7436SOL    HW134339   6.082   6.411   1.301
 7436SOL    HW234340   5.954   6.312   1.278
 7437SOL     OW34341   6.860   5.972   1.262
 7437SOL    HW134342   6.881   6.046   1.326
 7437SOL    HW234343   6.771   5.989   1.219
 7438SOL     OW34344   5.953   6.686   0.501
 7438SOL    HW134345   5.946   6.769   0.445
 7438SOL    HW234346   5.957   6.606   0.441
 7439SOL     OW34347   6.152   6.123   0.865
 7439SOL    HW134348   6.164   6.189   0.791
 7439SOL    HW234349   6.198   6.157   0.948
 7440SOL     OW34350   6.838   6.934   0.388
 7440SOL    HW134351   6.888   7.011   0.428
 7440SOL    HW234352   6.743   6.936   0.420
 7441SOL     OW34353   6.858   7.031   1.142
 7441SOL    HW134354   6.905   7.044   1.229
 7441SOL    HW234355   6.792   6.957   1.151
 7442SOL     OW34356   7.168   6.225   0.472
 7442SOL    HW134357   7.137   6.286   0.545
 7442SOL    HW234358   7.218   6.277   0.403
 7443SOL     OW34359   5.988   6.337   1.598
 7443SOL    HW134360   6.056   6.392   1.551
 7443SOL    HW234361   6.028   6.249   1.625
 7444SOL     OW34362   7.173   6.365   1.670
 7444SOL    HW134363   7.081   6.403   1.665
 7444SOL    HW234364   7.233   6.412   1.605
 7445SOL     OW34365   6.090   5.636   1.740
 7445SOL    HW134366   6.048   5.579   1.670
 7445SOL    HW234367   6.024   5.705   1.772
 7446SOL     OW34368   6.159   6.456   1.029
 7446SOL    HW134369   6.203   6.545   1.020
 7446SOL    HW234370   6.096   6.456   1.106
 7447SOL     OW34371   6.946   6.448   1.045
 7447SOL    HW134372   6.871   6.448   0.979
 7447SOL    HW234373   6.983   6.356   1.054
 7448SOL     OW34374   6.795   6.111   0.275
 7448SOL    HW134375   6.808   6.027   0.329
 7448SOL    HW234376   6.766   6.185   0.335
 7449SOL     OW34377   5.893   5.799   1.231
 7449SOL    HW134378   5.870   5.836   1.321
 7449SOL    HW234379   5.863   5.704   1.225
 7450SOL     OW34380   5.623   6.896   1.282
 7450SOL    HW134381   5.676   6.847   1.350
 7450SOL    HW234382   5.645   6.994   1.287
 7451SOL     OW34383   6.318   6.220   1.064
 7451SOL    HW134384   6.377   6.194   0.988
 7451SOL    HW234385   6.290   6.316   1.053
 7452SOL     OW34386   7.314   6.521   1.854
 7452SOL    HW134387   7.268   6.514   1.765
 7452SOL    HW234388   7.252   6.565   1.920
 7453SOL     OW34389   5.893   5.649   0.618
 7453SOL    HW134390   5.882   5.743   0.651
 7453SOL    HW234391   5.888   5.586   0.695
 7454SOL     OW34392   7.208   5.953   0.374
 7454SOL    HW134393   7.210   5.877   0.438
 7454SOL    HW234394   7.160   6.030   0.414
 7455SOL     OW34395   6.609   6.352   0.966
 7455SOL    HW134396   6.624   6.373   1.062
 7455SOL    HW234397   6.579   6.257   0.957
 7456SOL     OW34398   7.445   7.104   1.605
 7456SOL    HW134399   7.459   7.131   1.510
 7456SOL    HW234400   7.528   7.126   1.658
 7457SOL     OW34401   7.126   5.860   0.125
 7457SOL    HW134402   7.065   5.785   0.148
 7457SOL    HW234403   7.148   5.912   0.208
 7458SOL     OW34404   6.889   6.424   0.042
 7458SOL    HW134405   6.923   6.331   0.057
 7458SOL    HW234406   6.907   6.451  -0.053
 7459SOL     OW34407   6.654   6.919   0.849
 7459SOL    HW134408   6.661   6.835   0.794
 7459SOL    HW234409   6.716   6.988   0.813
 7460SOL     OW34410   5.905   6.396   0.949
 7460SOL    HW134411   5.998   6.432   0.954
 7460SOL    HW234412   5.899   6.311   1.001
 7461SOL     OW34413   5.925   6.095   1.006
 7461SOL    HW134414   5.873   6.012   0.989
 7461SOL    HW234415   6.002   6.100   0.942
 7462SOL     OW34416   6.724   5.966   1.678
 7462SOL    HW134417   6.679   6.029   1.742
 7462SOL    HW234418   6.817   5.997   1.661
 7463SOL     OW34419   5.674   7.387   0.927
 7463SOL    HW134420   5.632   7.301   0.900
 7463SOL    HW234421   5.768   7.390   0.893
 7464SOL     OW34422   6.090   7.154   0.910
 7464SOL    HW134423   6.156   7.228   0.919
 7464SOL    HW234424   6.134   7.075   0.868
 7465SOL     OW34425   6.588   6.382   1.238
 7465SOL    HW134426   6.629   6.350   1.324
 7465SOL    HW234427   6.492   6.355   1.235
 7466SOL     OW34428   5.626   6.130   1.114
 7466SOL    HW134429   5.711   6.097   1.073
 7466SOL    HW234430   5.639   6.145   1.212
 7467SOL     OW34431   5.775   6.106   1.722
 7467SOL    HW134432   5.834   6.066   1.652
 7467SOL    HW234433   5.717   6.177   1.681
 7468SOL     OW34434   6.401   6.158   0.325
 7468SOL    HW134435   6.408   6.069   0.279
 7468SOL    HW234436   6.307   6.192   0.317
 7469SOL     OW34437   7.243   6.190   1.206
 7469SOL    HW134438   7.205   6.121   1.268
 7469SOL    HW234439   7.325   6.154   1.162
 7470SOL     OW34440   5.838   7.150   1.744
 7470SOL    HW134441   5.808   7.207   1.820
 7470SOL    HW234442   5.831   7.053   1.770
 7471SOL     OW34443   6.257   6.050   1.269
 7471SOL    HW134444   6.223   5.961   1.239
 7471SOL    HW234445   6.283   6.104   1.189
 7472SOL     OW34446   6.059   6.086   0.191
 7472SOL    HW134447   6.120   6.166   0.195
 7472SOL    HW234448   5.964   6.117   0.198
 7473SOL     OW34449   5.745   6.723   1.466
 7473SOL    HW134450   5.767   6.662   1.542
 7473SOL    HW234451   5.755   6.674   1.380
 7474SOL     OW34452   6.888   6.441   0.309
 7474SOL    HW134453   6.802   6.410   0.351
 7474SOL    HW234454   6.884   6.427   0.210
 7475SOL     OW34455   7.345   7.333   1.154
 7475SOL    HW134456   7.406   7.363   1.081
 7475SOL    HW234457   7.307   7.244   1.132
 7476SOL     OW34458   6.838   7.317   1.128
 7476SOL    HW134459   6.922   7.322   1.074
 7476SOL    HW234460   6.815   7.221   1.146
 7477SOL     OW34461   5.669   6.844   1.022
 7477SOL    HW134462   5.664   6.843   1.122
 7477SOL    HW234463   5.586   6.803   0.984
 7478SOL     OW34464   6.489   5.672   0.133
 7478SOL    HW134465   6.540   5.673   0.047
 7478SOL    HW234466   6.545   5.630   0.204
 7479SOL     OW34467   7.312   5.721   0.523
 7479SOL    HW134468   7.385   5.704   0.456
 7479SOL    HW234469   7.281   5.634   0.561
 7480SOL     OW34470   6.974   7.159   0.477
 7480SOL    HW134471   7.041   7.171   0.403
 7480SOL    HW234472   6.934   7.248   0.500
 7481SOL     OW34473   6.866   6.513   0.672
 7481SOL    HW134474   6.926   6.432   0.674
 7481SOL    HW234475   6.906   6.582   0.612
 7482SOL     OW34476   6.416   6.859   1.422
 7482SOL    HW134477   6.411   6.892   1.517
 7482SOL    HW234478   6.330   6.878   1.376
 7483SOL     OW34479   6.258   7.202   0.154
 7483SOL    HW134480   6.267   7.212   0.055
 7483SOL    HW234481   6.218   7.113   0.175
 7484SOL     OW34482   7.236   7.306   1.394
 7484SOL    HW134483   7.289   7.316   1.310
 7484SOL    HW234484   7.209   7.396   1.428
 7485SOL     OW34485   7.427   5.761   0.963
 7485SOL    HW134486   7.466   5.676   0.927
 7485SOL    HW234487   7.329   5.763   0.944
 7486SOL     OW34488   5.849   5.912   0.720
 7486SOL    HW134489   5.770   5.963   0.686
 7486SOL    HW234490   5.840   5.897   0.818
 7487SOL     OW34491   6.780   7.198   0.031
 7487SOL    HW134492   6.786   7.105   0.068
 7487SOL    HW234493   6.721   7.198  -0.049
 7488SOL     OW34494   6.408   6.588   1.372
 7488SOL    HW134495   6.448   6.587   1.280
 7488SOL    HW234496   6.418   6.680   1.412
 7489SOL     OW34497   6.502   6.496   0.291
 7489SOL    HW134498   6.565   6.534   0.223
 7489SOL    HW234499   6.542   6.413   0.330
 7490SOL     OW34500   7.090   7.193   0.044
 7490SOL    HW134501   6.998   7.230   0.051
 7490SOL    HW234502   7.128   7.213  -0.046
 7491SOL     OW34503   5.958   6.874   1.490
 7491SOL    HW134504   5.945   6.967   1.456
 7491SOL    HW234505   5.874   6.822   1.477
 7492SOL     OW34506   7.200   6.878   1.289
 7492SOL    HW134507   7.260   6.881   1.369
 7492SOL    HW234508   7.125   6.942   1.302
 7493SOL     OW34509   6.625   6.684   0.696
 7493SOL    HW134510   6.555   6.637   0.750
 7493SOL    HW234511   6.684   6.616   0.653
 7494SOL     OW34512   6.600   5.822   0.971
 7494SOL    HW134513   6.592   5.786   0.878
 7494SOL    HW234514   6.598   5.746   1.036
 7495SOL     OW34515   6.176   7.073   0.491
 7495SOL    HW134516   6.218   7.015   0.421
 7495SOL    HW234517   6.132   7.152   0.447
 7496SOL     OW34518   7.295   5.971   1.381
 7496SOL    HW134519   7.368   6.040   1.385
 7496SOL    HW234520   7.323   5.896   1.322
 7497SOL     OW34521   5.841   6.934   0.290
 7497SOL    HW134522   5.745   6.935   0.263
 7497SOL    HW234523   5.853   6.987   0.374
 7498SOL     OW34524   6.258   5.789   1.489
 7498SOL    HW134525   6.348   5.773   1.449
 7498SOL    HW234526   6.266   5.794   1.588
 7499SOL     OW34527   7.026   6.442   1.398
 7499SOL    HW134528   6.969   6.494   1.335
 7499SOL    HW234529   7.122   6.454   1.374
 7500SOL     OW34530   5.658   5.752   0.318
 7500SOL    HW134531   5.641   5.835   0.264
 7500SOL    HW234532   5.748   5.715   0.296
 7501SOL     OW34533   6.769   6.921   0.119
 7501SOL    HW134534   6.670   6.910   0.121
 7501SOL    HW234535   6.803   6.936   0.212
 7502SOL     OW34536   6.199   6.428   1.431
 7502SOL    HW134537   6.255   6.509   1.414
 7502SOL    HW234538   6.258   6.348   1.434
 7503SOL     OW34539   7.079   7.353   0.959
 7503SOL    HW134540   7.112   7.417   0.890
 7503SOL    HW234541   7.145   7.347   1.034
 7504SOL     OW34542   5.976   7.327   1.560
 7504SOL    HW134543   5.885   7.368   1.558
 7504SOL    HW234544   5.969   7.233   1.592
 7505SOL     OW34545   7.260   6.469   1.254
 7505SOL    HW134546   7.233   6.380   1.217
 7505SOL    HW234547   7.261   6.537   1.181
 7506SOL     OW34548   6.811   5.911   0.449
 7506SOL    HW134549   6.876   5.837   0.438
 7506SOL    HW234550   6.831   5.961   0.533
 7507SOL     OW34551   6.180   6.331   0.652
 7507SOL    HW134552   6.230   6.416   0.633
 7507SOL    HW234553   6.092   6.333   0.604
 7508SOL     OW34554   7.363   5.928   1.642
 7508SOL    HW134555   7.346   5.959   1.548
 7508SOL    HW234556   7.279   5.891   1.680
 7509SOL     OW34557   7.316   6.520   1.517
 7509SOL    HW134558   7.354   6.611   1.532
 7509SOL    HW234559   7.308   6.503   1.418
 7510SOL     OW34560   6.445   6.960   0.016
 7510SOL    HW134561   6.399   6.975   0.104
 7510SOL    HW234562   6.489   7.045  -0.014
 7511SOL     OW34563   6.247   7.376   0.953
 7511SOL    HW134564   6.201   7.464   0.940
 7511SOL    HW234565   6.346   7.388   0.946
 7512SOL     OW34566   6.445   6.542   0.861
 7512SOL    HW134567   6.499   6.473   0.909
 7512SOL    HW234568   6.413   6.611   0.927
 7513SOL     OW34569   6.669   6.570   0.087
 7513SOL    HW134570   6.646   6.623   0.005
 7513SOL    HW234571   6.750   6.514   0.068
 7514SOL     OW34572   7.447   7.155   0.851
 7514SOL    HW134573   7.376   7.143   0.781
 7514SOL    HW234574   7.448   7.076   0.911
 7515SOL     OW34575   5.665   6.826   0.653
 7515SOL    HW134576   5.664   6.779   0.741
 7515SOL    HW234577   5.747   6.798   0.602
 7516SOL     OW34578   7.410   5.778   1.227
 7516SOL    HW134579   7.406   5.688   1.271
 7516SOL    HW234580   7.413   5.767   1.128
 7517SOL     OW34581   6.014   6.010   0.520
 7517SOL    HW134582   6.044   5.938   0.458
 7517SOL    HW234583   5.975   5.970   0.603
 7518SOL     OW34584   7.291   7.073   1.104
 7518SOL    HW134585   7.198   7.048   1.077
 7518SOL    HW234586   7.317   7.023   1.186
 7519SOL     OW34587   5.903   6.133   1.280
 7519SOL    HW134588   5.941   6.074   1.352
 7519SOL    HW234589   5.943   6.107   1.192
 7520SOL     OW34590   6.398   7.172   0.687
 7520SOL    HW134591   6.430   7.182   0.593
 7520SOL    HW234592   6.319   7.110   0.689
 7521SOL     OW34593   7.010   5.800   1.112
 7521SOL    HW134594   7.062   5.735   1.167
 7521SOL    HW234595   6.961   5.863   1.173
 7522SOL     OW34596   6.587   5.620   1.154
 7522SOL    HW134597   6.524   5.548   1.123
 7522SOL    HW234598   6.680   5.584   1.154
 7523SOL     OW34599   6.356   6.916   0.301
 7523SOL    HW134600   6.310   6.829   0.318
 7523SOL    HW234601   6.447   6.913   0.342
 7524SOL     OW34602   6.204   7.153   1.284
 7524SOL    HW134603   6.199   7.235   1.341
 7524SOL    HW234604   6.293   7.150   1.239
 7525SOL     OW34605   6.938   5.638   0.168
 7525SOL    HW134606   6.973   5.597   0.084
 7525SOL    HW234607   6.848   5.600   0.188
 7526SOL     OW34608   6.886   6.039   0.691
 7526SOL    HW134609   6.827   6.119   0.695
 7526SOL    HW234610   6.901   6.004   0.784
 7527SOL     OW34611   7.179   5.807   0.882
 7527SOL    HW134612   7.095   5.806   0.936
 7527SOL    HW234613   7.181   5.890   0.826
 7528SOL     OW34614   5.625   6.663   0.300
 7528SOL    HW134615   5.724   6.652   0.291
 7528SOL    HW234616   5.585   6.577   0.332
 7529SOL     OW34617   6.461   7.232   0.337
 7529SOL    HW134618   6.384   7.197   0.283
 7529SOL    HW234619   6.429   7.303   0.399
 7530SOL     OW34620   5.816   6.214   1.975
 7530SOL    HW134621   5.723   6.212   2.012
 7530SOL    HW234622   5.817   6.175   1.883
 7531SOL     OW34623   6.721   6.289   2.579
 7531SOL    HW134624   6.778   6.367   2.554
 7531SOL    HW234625   6.661   6.315   2.655
 7532SOL     OW34626   7.341   6.193   2.093
 7532SOL    HW134627   7.329   6.180   1.994
 7532SOL    HW234628   7.311   6.112   2.142
 7533SOL     OW34629   6.271   6.598   2.527
 7533SOL    HW134630   6.340   6.582   2.597
 7533SOL    HW234631   6.198   6.655   2.565
 7534SOL     OW34632   6.024   5.978   3.361
 7534SOL    HW134633   6.106   5.922   3.370
 7534SOL    HW234634   5.943   5.920   3.365
 7535SOL     OW34635   5.817   7.299   2.345
 7535SOL    HW134636   5.851   7.376   2.399
 7535SOL    HW234637   5.861   7.299   2.255
 7536SOL     OW34638   6.395   5.590   2.364
 7536SOL    HW134639   6.435   5.681   2.355
 7536SOL    HW234640   6.295   5.598   2.370
 7537SOL     OW34641   7.253   7.300   2.434
 7537SOL    HW134642   7.212   7.277   2.346
 7537SOL    HW234643   7.235   7.226   2.499
 7538SOL     OW34644   6.184   6.315   2.132
 7538SOL    HW134645   6.208   6.384   2.064
 7538SOL    HW234646   6.106   6.348   2.186
 7539SOL     OW34647   7.162   7.248   2.169
 7539SOL    HW134648   7.251   7.294   2.172
 7539SOL    HW234649   7.141   7.224   2.074
 7540SOL     OW34650   6.980   6.055   3.536
 7540SOL    HW134651   6.960   6.098   3.624
 7540SOL    HW234652   7.058   5.993   3.545
 7541SOL     OW34653   5.716   7.407   3.433
 7541SOL    HW134654   5.706   7.392   3.532
 7541SOL    HW234655   5.630   7.443   3.397
 7542SOL     OW34656   6.136   5.782   2.747
 7542SOL    HW134657   6.131   5.777   2.847
 7542SOL    HW234658   6.138   5.878   2.718
 7543SOL     OW34659   6.047   6.852   3.589
 7543SOL    HW134660   5.997   6.853   3.503
 7543SOL    HW234661   5.984   6.834   3.665
 7544SOL     OW34662   6.697   7.362   2.099
 7544SOL    HW134663   6.637   7.300   2.149
 7544SOL    HW234664   6.728   7.318   2.014
 7545SOL     OW34665   6.937   6.176   3.295
 7545SOL    HW134666   6.965   6.133   3.380
 7545SOL    HW234667   6.962   6.272   3.296
 7546SOL     OW34668   6.508   6.089   2.761
 7546SOL    HW134669   6.483   6.080   2.665
 7546SOL    HW234670   6.556   6.007   2.792
 7547SOL     OW34671   6.125   5.650   2.374
 7547SOL    HW134672   6.044   5.651   2.432
 7547SOL    HW234673   6.128   5.733   2.319
 7548SOL     OW34674   7.020   6.774   1.903
 7548SOL    HW134675   7.052   6.698   1.960
 7548SOL    HW234676   6.928   6.801   1.933
 7549SOL     OW34677   6.045   6.738   2.603
 7549SOL    HW134678   5.974   6.711   2.668
 7549SOL    HW234679   6.019   6.710   2.510
 7550SOL     OW34680   6.857   7.383   2.453
 7550SOL    HW134681   6.901   7.447   2.389
 7550SOL    HW234682   6.807   7.435   2.523
 7551SOL     OW34683   6.147   5.808   3.009
 7551SOL    HW134684   6.185   5.724   3.046
 7551SOL    HW234685   6.059   5.827   3.053
 7552SOL     OW34686   6.452   6.040   2.504
 7552SOL    HW134687   6.420   6.112   2.442
 7552SOL    HW234688   6.476   5.959   2.451
 7553SOL     OW34689   7.052   6.176   2.854
 7553SOL    HW134690   7.022   6.081   2.861
 7553SOL    HW234691   7.125   6.192   2.920
 7554SOL     OW34692   7.250   6.866   2.519
 7554SOL    HW134693   7.349   6.874   2.533
 7554SOL    HW234694   7.205   6.950   2.550
 7555SOL     OW34695   6.976   6.161   1.940
 7555SOL    HW134696   6.922   6.140   2.021
 7555SOL    HW234697   7.067   6.120   1.949
 7556SOL     OW34698   7.340   6.809   3.450
 7556SOL    HW134699   7.431   6.770   3.437
 7556SOL    HW234700   7.348   6.905   3.474
 7557SOL     OW34701   6.697   6.781   2.962
 7557SOL    HW134702   6.657   6.825   3.043
 7557SOL    HW234703   6.656   6.818   2.879
 7558SOL     OW34704   7.224   6.685   2.941
 7558SOL    HW134705   7.229   6.766   3.000
 7558SOL    HW234706   7.138   6.687   2.890
 7559SOL     OW34707   6.566   6.702   3.581
 7559SOL    HW134708   6.467   6.708   3.591
 7559SOL    HW234709   6.589   6.622   3.525
 7560SOL     OW34710   6.860   5.972   3.124
 7560SOL    HW134711   6.881   6.046   3.188
 7560SOL    HW234712   6.771   5.989   3.081
 7561SOL     OW34713   5.650   7.150   3.193
 7561SOL    HW134714   5.604   7.232   3.159
 7561SOL    HW234715   5.748   7.169   3.202
 7562SOL     OW34716   6.858   7.031   3.004
 7562SOL    HW134717   6.905   7.044   3.091
 7562SOL    HW234718   6.792   6.957   3.013
 7563SOL     OW34719   7.173   6.365   3.532
 7563SOL    HW134720   7.081   6.403   3.527
 7563SOL    HW234721   7.233   6.412   3.467
 7564SOL     OW34722   6.599   5.691   3.632
 7564SOL    HW134723   6.605   5.776   3.580
 7564SOL    HW234724   6.631   5.615   3.575
 7565SOL     OW34725   6.946   6.448   2.907
 7565SOL    HW134726   6.871   6.448   2.841
 7565SOL    HW234727   6.983   6.356   2.916
 7566SOL     OW34728   6.795   6.111   2.137
 7566SOL    HW134729   6.808   6.027   2.191
 7566SOL    HW234730   6.766   6.185   2.197
 7567SOL     OW34731   6.318   6.220   2.926
 7567SOL    HW134732   6.377   6.194   2.850
 7567SOL    HW234733   6.290   6.316   2.915
 7568SOL     OW34734   7.314   6.521   3.716
 7568SOL    HW134735   7.268   6.514   3.627
 7568SOL    HW234736   7.252   6.565   3.782
 7569SOL     OW34737   7.445   7.104   3.467
 7569SOL    HW134738   7.459   7.131   3.372
 7569SOL    HW234739   7.528   7.126   3.520
 7570SOL     OW34740   7.126   5.860   1.987
 7570SOL    HW134741   7.065   5.785   2.010
 7570SOL    HW234742   7.148   5.912   2.070
 7571SOL     OW34743   6.654   6.919   2.711
 7571SOL    HW134744   6.661   6.835   2.656
 7571SOL    HW234745   6.716   6.988   2.675
 7572SOL     OW34746   5.775   6.106   3.584
 7572SOL    HW134747   5.834   6.066   3.514
 7572SOL    HW234748   5.717   6.177   3.543
 7573SOL     OW34749   6.401   6.158   2.187
 7573SOL    HW134750   6.408   6.069   2.141
 7573SOL    HW234751   6.307   6.192   2.179
 7574SOL     OW34752   7.243   6.190   3.068
 7574SOL    HW134753   7.205   6.121   3.130
 7574SOL    HW234754   7.325   6.154   3.024
 7575SOL     OW34755   6.516   7.264   3.327
 7575SOL    HW134756   6.492   7.246   3.232
 7575SOL    HW234757   6.546   7.358   3.337
 7576SOL     OW34758   6.059   6.086   2.053
 7576SOL    HW134759   6.120   6.166   2.057
 7576SOL    HW234760   5.964   6.117   2.060
 7577SOL     OW34761   5.745   6.723   3.328
 7577SOL    HW134762   5.767   6.662   3.404
 7577SOL    HW234763   5.755   6.674   3.242
 7578SOL     OW34764   6.933   6.645   3.096
 7578SOL    HW134765   6.957   6.582   3.022
 7578SOL    HW234766   6.843   6.685   3.078
 7579SOL     OW34767   6.974   7.159   2.339
 7579SOL    HW134768   7.041   7.171   2.265
 7579SOL    HW234769   6.934   7.248   2.362
 7580SOL     OW34770   6.780   7.198   1.893
 7580SOL    HW134771   6.786   7.105   1.930
 7580SOL    HW234772   6.721   7.198   1.813
 7581SOL     OW34773   5.691   6.599   3.588
 7581SOL    HW134774   5.614   6.566   3.642
 7581SOL    HW234775   5.776   6.569   3.630
 7582SOL     OW34776   6.258   5.789   3.351
 7582SOL    HW134777   6.348   5.773   3.311
 7582SOL    HW234778   6.266   5.794   3.450
 7583SOL     OW34779   5.661   5.931   1.895
 7583SOL    HW134780   5.569   5.903   1.866
 7583SOL    HW234781   5.692   6.008   1.839
 7584SOL     OW34782   7.026   6.442   3.260
 7584SOL    HW134783   6.969   6.494   3.197
 7584SOL    HW234784   7.122   6.454   3.236
 7585SOL     OW34785   6.199   6.428   3.293
 7585SOL    HW134786   6.255   6.509   3.276
 7585SOL    HW234787   6.258   6.348   3.296
 7586SOL     OW34788   7.316   6.520   3.379
 7586SOL    HW134789   7.354   6.611   3.394
 7586SOL    HW234790   7.308   6.503   3.280
 7587SOL     OW34791   7.410   5.778   3.089
 7587SOL    HW134792   7.406   5.688   3.133
 7587SOL    HW234793   7.413   5.767   2.990
 7588SOL     OW34794   5.903   6.133   3.142
 7588SOL    HW134795   5.941   6.074   3.214
 7588SOL    HW234796   5.943   6.107   3.054
 7589SOL     OW34797   7.010   5.800   2.974
 7589SOL    HW134798   7.062   5.735   3.029
 7589SOL    HW234799   6.961   5.863   3.035
 7590SOL     OW34800   6.587   5.620   3.016
 7590SOL    HW134801   6.524   5.548   2.985
 7590SOL    HW234802   6.680   5.584   3.016
 7591SOL     OW34803   6.938   5.638   2.030
 7591SOL    HW134804   6.973   5.597   1.946
 7591SOL    HW234805   6.848   5.600   2.050
 7592SOL     OW34806   6.886   6.039   2.553
 7592SOL    HW134807   6.827   6.119   2.557
 7592SOL    HW234808   6.901   6.004   2.646
 7593SOL     OW34809   5.625   6.663   2.162
 7593SOL    HW134810   5.724   6.652   2.153
 7593SOL    HW234811   5.585   6.577   2.194
 7594SOL     OW34812   5.605   5.954   4.371
 7594SOL    HW134813   5.523   5.997   4.410
 7594SOL    HW234814   5.577   5.881   4.308
 7595SOL     OW34815   6.155   6.861   4.889
 7595SOL    HW134816   6.062   6.854   4.852
 7595SOL    HW234817   6.166   6.950   4.933
 7596SOL     OW34818   6.436   6.384   5.547
 7596SOL    HW134819   6.432   6.460   5.612
 7596SOL    HW234820   6.458   6.420   5.456
 7597SOL     OW34821   6.272   6.747   5.527
 7597SOL    HW134822   6.332   6.826   5.541
 7597SOL    HW234823   6.186   6.778   5.486
 7598SOL     OW34824   7.189   6.033   4.461
 7598SOL    HW134825   7.115   6.079   4.411
 7598SOL    HW234826   7.240   6.101   4.514
 7599SOL     OW34827   5.817   7.299   4.207
 7599SOL    HW134828   5.851   7.376   4.261
 7599SOL    HW234829   5.861   7.299   4.117
 7600SOL     OW34830   6.713   6.927   5.414
 7600SOL    HW134831   6.760   6.927   5.502
 7600SOL    HW234832   6.665   6.840   5.403
 7601SOL     OW34833   6.206   7.372   5.163
 7601SOL    HW134834   6.114   7.355   5.198
 7601SOL    HW234835   6.234   7.464   5.189
 7602SOL     OW34836   7.180   5.700   5.204
 7602SOL    HW134837   7.162   5.767   5.132
 7602SOL    HW234838   7.177   5.746   5.293
 7603SOL     OW34839   5.708   6.229   4.287
 7603SOL    HW134840   5.663   6.141   4.304
 7603SOL    HW234841   5.707   6.283   4.371
 7604SOL     OW34842   5.613   7.182   3.841
 7604SOL    HW134843   5.594   7.086   3.862
 7604SOL    HW234844   5.580   7.240   3.916
 7605SOL     OW34845   7.275   6.508   4.336
 7605SOL    HW134846   7.370   6.479   4.344
 7605SOL    HW234847   7.267   6.573   4.261
 7606SOL     OW34848   5.699   6.323   5.321
 7606SOL    HW134849   5.787   6.310   5.366
 7606SOL    HW234850   5.686   6.420   5.299
 7607SOL     OW34851   6.199   6.951   4.450
 7607SOL    HW134852   6.150   6.864   4.459
 7607SOL    HW234853   6.176   6.994   4.363
 7608SOL     OW34854   6.879   6.814   5.147
 7608SOL    HW134855   6.916   6.741   5.089
 7608SOL    HW234856   6.931   6.819   5.232
 7609SOL     OW34857   6.773   7.378   5.340
 7609SOL    HW134858   6.797   7.438   5.264
 7609SOL    HW234859   6.780   7.283   5.310
 7610SOL     OW34860   6.980   6.055   5.398
 7610SOL    HW134861   6.960   6.098   5.486
 7610SOL    HW234862   7.058   5.993   5.407
 7611SOL     OW34863   6.577   5.996   4.966
 7611SOL    HW134864   6.500   6.030   5.020
 7611SOL    HW234865   6.543   5.945   4.887
 7612SOL     OW34866   5.662   6.397   4.513
 7612SOL    HW134867   5.761   6.385   4.522
 7612SOL    HW234868   5.638   6.492   4.534
 7613SOL     OW34869   5.716   7.407   5.295
 7613SOL    HW134870   5.706   7.392   5.394
 7613SOL    HW234871   5.630   7.443   5.259
 7614SOL     OW34872   7.305   6.171   5.555
 7614SOL    HW134873   7.279   6.260   5.519
 7614SOL    HW234874   7.303   6.103   5.482
 7615SOL     OW34875   6.047   6.852   5.451
 7615SOL    HW134876   5.997   6.853   5.365
 7615SOL    HW234877   5.984   6.834   5.527
 7616SOL     OW34878   6.050   7.329   4.047
 7616SOL    HW134879   6.083   7.368   4.133
 7616SOL    HW234880   6.126   7.322   3.982
 7617SOL     OW34881   5.835   7.371   4.965
 7617SOL    HW134882   5.892   7.306   5.015
 7617SOL    HW234883   5.819   7.338   4.872
 7618SOL     OW34884   7.133   5.808   5.453
 7618SOL    HW134885   7.128   5.845   5.545
 7618SOL    HW234886   7.061   5.739   5.441
 7619SOL     OW34887   6.367   5.850   5.473
 7619SOL    HW134888   6.434   5.789   5.516
 7619SOL    HW234889   6.294   5.869   5.538
 7620SOL     OW34890   6.389   6.988   4.648
 7620SOL    HW134891   6.479   7.002   4.606
 7620SOL    HW234892   6.318   6.990   4.577
 7621SOL     OW34893   5.883   5.621   3.895
 7621SOL    HW134894   5.932   5.705   3.874
 7621SOL    HW234895   5.945   5.556   3.940
 7622SOL     OW34896   6.662   6.269   5.188
 7622SOL    HW134897   6.582   6.208   5.191
 7622SOL    HW234898   6.743   6.216   5.164
 7623SOL     OW34899   6.618   6.135   3.740
 7623SOL    HW134900   6.577   6.217   3.701
 7623SOL    HW234901   6.682   6.161   3.813
 7624SOL     OW34902   6.603   5.625   4.477
 7624SOL    HW134903   6.531   5.630   4.408
 7624SOL    HW234904   6.579   5.556   4.546
 7625SOL     OW34905   7.015   6.759   4.591
 7625SOL    HW134906   6.960   6.675   4.584
 7625SOL    HW234907   7.041   6.788   4.499
 7626SOL     OW34908   6.074   6.971   3.898
 7626SOL    HW134909   5.987   6.956   3.945
 7626SOL    HW234910   6.057   6.997   3.803
 7627SOL     OW34911   6.113   5.842   4.052
 7627SOL    HW134912   6.140   5.783   3.977
 7627SOL    HW234913   6.113   5.937   4.021
 7628SOL     OW34914   5.996   6.399   4.975
 7628SOL    HW134915   6.082   6.411   5.025
 7628SOL    HW234916   5.954   6.312   5.002
 7629SOL     OW34917   5.953   6.686   4.225
 7629SOL    HW134918   5.946   6.769   4.169
 7629SOL    HW234919   5.957   6.606   4.165
 7630SOL     OW34920   6.838   6.934   4.112
 7630SOL    HW134921   6.888   7.011   4.152
 7630SOL    HW234922   6.743   6.936   4.144
 7631SOL     OW34923   6.858   7.031   4.866
 7631SOL    HW134924   6.905   7.044   4.953
 7631SOL    HW234925   6.792   6.957   4.875
 7632SOL     OW34926   5.988   6.337   5.322
 7632SOL    HW134927   6.056   6.392   5.275
 7632SOL    HW234928   6.028   6.249   5.349
 7633SOL     OW34929   7.173   6.365   5.394
 7633SOL    HW134930   7.081   6.403   5.389
 7633SOL    HW234931   7.233   6.412   5.329
 7634SOL     OW34932   6.599   5.691   5.494
 7634SOL    HW134933   6.605   5.776   5.442
 7634SOL    HW234934   6.631   5.615   5.437
 7635SOL     OW34935   6.090   5.636   5.464
 7635SOL    HW134936   6.048   5.579   5.394
 7635SOL    HW234937   6.024   5.705   5.496
 7636SOL     OW34938   6.159   6.456   4.753
 7636SOL    HW134939   6.203   6.545   4.744
 7636SOL    HW234940   6.096   6.456   4.830
 7637SOL     OW34941   6.946   6.448   4.769
 7637SOL    HW134942   6.871   6.448   4.703
 7637SOL    HW234943   6.983   6.356   4.778
 7638SOL     OW34944   5.893   5.799   4.955
 7638SOL    HW134945   5.870   5.836   5.045
 7638SOL    HW234946   5.863   5.704   4.949
 7639SOL     OW34947   7.314   6.521   5.578
 7639SOL    HW134948   7.268   6.514   5.489
 7639SOL    HW234949   7.252   6.565   5.644
 7640SOL     OW34950   6.566   7.159   5.424
 7640SOL    HW134951   6.546   7.203   5.336
 7640SOL    HW234952   6.605   7.068   5.408
 7641SOL     OW34953   5.936   6.484   5.528
 7641SOL    HW134954   6.012   6.528   5.576
 7641SOL    HW234955   5.971   6.437   5.446
 7642SOL     OW34956   7.126   5.860   3.849
 7642SOL    HW134957   7.065   5.785   3.872
 7642SOL    HW234958   7.148   5.912   3.932
 7643SOL     OW34959   5.905   6.396   4.673
 7643SOL    HW134960   5.998   6.432   4.678
 7643SOL    HW234961   5.899   6.311   4.725
 7644SOL     OW34962   5.925   6.095   4.730
 7644SOL    HW134963   5.873   6.012   4.713
 7644SOL    HW234964   6.002   6.100   4.666
 7645SOL     OW34965   6.724   5.966   5.402
 7645SOL    HW134966   6.679   6.029   5.466
 7645SOL    HW234967   6.817   5.997   5.385
 7646SOL     OW34968   6.090   7.154   4.634
 7646SOL    HW134969   6.156   7.228   4.643
 7646SOL    HW234970   6.134   7.075   4.592
 7647SOL     OW34971   6.401   6.158   4.049
 7647SOL    HW134972   6.408   6.069   4.003
 7647SOL    HW234973   6.307   6.192   4.041
 7648SOL     OW34974   5.838   7.150   5.468
 7648SOL    HW134975   5.808   7.207   5.544
 7648SOL    HW234976   5.831   7.053   5.494
 7649SOL     OW34977   6.516   7.264   5.189
 7649SOL    HW134978   6.492   7.246   5.094
 7649SOL    HW234979   6.546   7.358   5.199
 7650SOL     OW34980   6.059   6.086   3.915
 7650SOL    HW134981   6.120   6.166   3.919
 7650SOL    HW234982   5.964   6.117   3.922
 7651SOL     OW34983   6.933   6.645   4.958
 7651SOL    HW134984   6.957   6.582   4.884
 7651SOL    HW234985   6.843   6.685   4.940
 7652SOL     OW34986   6.274   7.248   5.440
 7652SOL    HW134987   6.218   7.329   5.449
 7652SOL    HW234988   6.326   7.252   5.354
 7653SOL     OW34989   6.974   7.159   4.201
 7653SOL    HW134990   7.041   7.171   4.127
 7653SOL    HW234991   6.934   7.248   4.224
 7654SOL     OW34992   5.716   7.380   5.575
 7654SOL    HW134993   5.675   7.306   5.628
 7654SOL    HW234994   5.780   7.431   5.633
 7655SOL     OW34995   7.236   7.306   5.118
 7655SOL    HW134996   7.289   7.316   5.034
 7655SOL    HW234997   7.209   7.396   5.152
 7656SOL     OW34998   7.427   5.761   4.687
 7656SOL    HW134999   7.466   5.676   4.651
 7656SOL    HW235000   7.329   5.763   4.668
 7657SOL     OW35001   5.849   5.912   4.444
 7657SOL    HW135002   5.770   5.963   4.410
 7657SOL    HW235003   5.840   5.897   4.542
 7658SOL     OW35004   6.780   7.198   3.755
 7658SOL    HW135005   6.786   7.105   3.792
 7658SOL    HW235006   6.721   7.198   3.675
 7659SOL     OW35007   6.502   6.496   4.015
 7659SOL    HW135008   6.565   6.534   3.947
 7659SOL    HW235009   6.542   6.413   4.054
 7660SOL     OW35010   7.090   7.193   3.768
 7660SOL    HW135011   6.998   7.230   3.775
 7660SOL    HW235012   7.128   7.213   3.678
 7661SOL     OW35013   6.176   7.073   4.215
 7661SOL    HW135014   6.218   7.015   4.145
 7661SOL    HW235015   6.132   7.152   4.171
 7662SOL     OW35016   7.295   5.971   5.105
 7662SOL    HW135017   7.368   6.040   5.109
 7662SOL    HW235018   7.323   5.896   5.046
 7663SOL     OW35019   5.691   6.599   5.450
 7663SOL    HW135020   5.614   6.566   5.504
 7663SOL    HW235021   5.776   6.569   5.492
 7664SOL     OW35022   7.026   6.442   5.122
 7664SOL    HW135023   6.969   6.494   5.059
 7664SOL    HW235024   7.122   6.454   5.098
 7665SOL     OW35025   5.658   5.752   4.042
 7665SOL    HW135026   5.641   5.835   3.988
 7665SOL    HW235027   5.748   5.715   4.020
 7666SOL     OW35028   7.079   7.353   4.683
 7666SOL    HW135029   7.112   7.417   4.614
 7666SOL    HW235030   7.145   7.347   4.758
 7667SOL     OW35031   5.976   7.327   5.284
 7667SOL    HW135032   5.885   7.368   5.282
 7667SOL    HW235033   5.969   7.233   5.316
 7668SOL     OW35034   7.260   6.469   4.978
 7668SOL    HW135035   7.233   6.380   4.941
 7668SOL    HW235036   7.261   6.537   4.905
 7669SOL     OW35037   7.363   5.928   5.366
 7669SOL    HW135038   7.346   5.959   5.272
 7669SOL    HW235039   7.279   5.891   5.404
 7670SOL     OW35040   7.316   6.520   5.241
 7670SOL    HW135041   7.354   6.611   5.256
 7670SOL    HW235042   7.308   6.503   5.142
 7671SOL     OW35043   7.447   7.155   4.575
 7671SOL    HW135044   7.376   7.143   4.505
 7671SOL    HW235045   7.448   7.076   4.635
 7672SOL     OW35046   5.807   6.900   5.568
 7672SOL    HW135047   5.742   6.827   5.547
 7672SOL    HW235048   5.811   6.914   5.666
 7673SOL     OW35049   5.665   6.826   4.377
 7673SOL    HW135050   5.664   6.779   4.465
 7673SOL    HW235051   5.747   6.798   4.326
 7674SOL     OW35052   6.258   6.977   5.348
 7674SOL    HW135053   6.180   6.927   5.386
 7674SOL    HW235054   6.255   7.072   5.379
 7675SOL     OW35055   7.410   5.778   4.951
 7675SOL    HW135056   7.406   5.688   4.995
 7675SOL    HW235057   7.413   5.767   4.852
 7676SOL     OW35058   6.398   7.172   4.411
 7676SOL    HW135059   6.430   7.182   4.317
 7676SOL    HW235060   6.319   7.110   4.413
 7677SOL     OW35061   6.356   6.916   4.025
 7677SOL    HW135062   6.310   6.829   4.042
 7677SOL    HW235063   6.447   6.913   4.066
 7678SOL     OW35064   6.886   6.039   4.415
 7678SOL    HW135065   6.827   6.119   4.419
 7678SOL    HW235066   6.901   6.004   4.508
 7679SOL     OW35067   7.179   5.807   4.606
 7679SOL    HW135068   7.095   5.806   4.660
 7679SOL    HW235069   7.181   5.890   4.550
 7680SOL     OW35070   5.816   6.214   5.699
 7680SOL    HW135071   5.723   6.212   5.736
 7680SOL    HW235072   5.817   6.175   5.607
 7681SOL     OW35073   5.811   5.861   6.582
 7681SOL    HW135074   5.846   5.844   6.674
 7681SOL    HW235075   5.723   5.816   6.570
 7682SOL     OW35076   5.605   5.954   6.233
 7682SOL    HW135077   5.523   5.997   6.272
 7682SOL    HW235078   5.577   5.881   6.170
 7683SOL     OW35079   6.155   6.861   6.751
 7683SOL    HW135080   6.062   6.854   6.714
 7683SOL    HW235081   6.166   6.950   6.795
 7684SOL     OW35082   7.141   7.097   6.289
 7684SOL    HW135083   7.084   7.081   6.370
 7684SOL    HW235084   7.082   7.107   6.209
 7685SOL     OW35085   6.721   6.289   6.303
 7685SOL    HW135086   6.778   6.367   6.278
 7685SOL    HW235087   6.661   6.315   6.379
 7686SOL     OW35088   7.341   6.193   5.817
 7686SOL    HW135089   7.329   6.180   5.718
 7686SOL    HW235090   7.311   6.112   5.866
 7687SOL     OW35091   6.354   6.730   6.609
 7687SOL    HW135092   6.276   6.747   6.669
 7687SOL    HW235093   6.388   6.817   6.573
 7688SOL     OW35094   6.271   6.598   6.251
 7688SOL    HW135095   6.340   6.582   6.321
 7688SOL    HW235096   6.198   6.655   6.289
 7689SOL     OW35097   5.921   7.021   6.647
 7689SOL    HW135098   5.843   6.990   6.594
 7689SOL    HW235099   5.979   7.079   6.590
 7690SOL     OW35100   7.189   6.033   6.323
 7690SOL    HW135101   7.115   6.079   6.273
 7690SOL    HW235102   7.240   6.101   6.376
 7691SOL     OW35103   5.817   7.299   6.069
 7691SOL    HW135104   5.851   7.376   6.123
 7691SOL    HW235105   5.861   7.299   5.979
 7692SOL     OW35106   5.816   7.020   6.124
 7692SOL    HW135107   5.790   7.116   6.124
 7692SOL    HW235108   5.745   6.966   6.169
 7693SOL     OW35109   5.826   6.677   6.472
 7693SOL    HW135110   5.840   6.593   6.524
 7693SOL    HW235111   5.771   6.741   6.527
 7694SOL     OW35112   6.192   6.550   5.709
 7694SOL    HW135113   6.199   6.634   5.655
 7694SOL    HW235114   6.238   6.563   5.797
 7695SOL     OW35115   5.708   6.229   6.149
 7695SOL    HW135116   5.663   6.141   6.166
 7695SOL    HW235117   5.707   6.283   6.233
 7696SOL     OW35118   7.428   7.353   5.945
 7696SOL    HW135119   7.482   7.324   6.025
 7696SOL    HW235120   7.458   7.443   5.916
 7697SOL     OW35121   5.613   7.182   5.703
 7697SOL    HW135122   5.594   7.086   5.724
 7697SOL    HW235123   5.580   7.240   5.778
 7698SOL     OW35124   7.275   6.508   6.198
 7698SOL    HW135125   7.370   6.479   6.206
 7698SOL    HW235126   7.267   6.573   6.123
 7699SOL     OW35127   7.227   6.694   6.018
 7699SOL    HW135128   7.313   6.696   5.966
 7699SOL    HW235129   7.241   6.741   6.106
 7700SOL     OW35130   6.199   6.951   6.312
 7700SOL    HW135131   6.150   6.864   6.321
 7700SOL    HW235132   6.176   6.994   6.225
 7701SOL     OW35133   6.395   5.590   6.088
 7701SOL    HW135134   6.435   5.681   6.079
 7701SOL    HW235135   6.295   5.598   6.094
 7702SOL     OW35136   5.783   6.562   6.850
 7702SOL    HW135137   5.872   6.517   6.836
 7702SOL    HW235138   5.710   6.497   6.831
 7703SOL     OW35139   7.111   6.585   5.776
 7703SOL    HW135140   7.048   6.509   5.789
 7703SOL    HW235141   7.159   6.603   5.862
 7704SOL     OW35142   7.052   7.003   6.539
 7704SOL    HW135143   6.993   7.009   6.619
 7704SOL    HW235144   7.037   6.915   6.493
 7705SOL     OW35145   7.253   7.300   6.158
 7705SOL    HW135146   7.212   7.277   6.070
 7705SOL    HW235147   7.235   7.226   6.223
 7706SOL     OW35148   6.184   6.315   5.856
 7706SOL    HW135149   6.208   6.384   5.788
 7706SOL    HW235150   6.106   6.348   5.910
 7707SOL     OW35151   6.867   5.931   6.530
 7707SOL    HW135152   6.781   5.881   6.517
 7707SOL    HW235153   6.929   5.877   6.586
 7708SOL     OW35154   7.162   7.248   5.893
 7708SOL    HW135155   7.251   7.294   5.896
 7708SOL    HW235156   7.141   7.224   5.798
 7709SOL     OW35157   6.577   5.996   6.828
 7709SOL    HW135158   6.500   6.030   6.882
 7709SOL    HW235159   6.543   5.945   6.749
 7710SOL     OW35160   6.627   6.287   6.015
 7710SOL    HW135161   6.653   6.283   6.111
 7710SOL    HW235162   6.542   6.236   6.001
 7711SOL     OW35163   5.662   6.397   6.375
 7711SOL    HW135164   5.761   6.385   6.384
 7711SOL    HW235165   5.638   6.492   6.396
 7712SOL     OW35166   6.451   5.934   5.781
 7712SOL    HW135167   6.510   5.997   5.732
 7712SOL    HW235168   6.470   5.840   5.752
 7713SOL     OW35169   6.948   6.730   6.131
 7713SOL    HW135170   7.031   6.701   6.083
 7713SOL    HW235171   6.899   6.797   6.075
 7714SOL     OW35172   6.136   5.782   6.471
 7714SOL    HW135173   6.131   5.777   6.571
 7714SOL    HW235174   6.138   5.878   6.442
 7715SOL     OW35175   6.594   7.042   6.063
 7715SOL    HW135176   6.548   7.114   6.011
 7715SOL    HW235177   6.590   7.062   6.161
 7716SOL     OW35178   5.937   7.387   6.439
 7716SOL    HW135179   5.987   7.301   6.445
 7716SOL    HW235180   6.002   7.464   6.436
 7717SOL     OW35181   7.381   6.652   6.459
 7717SOL    HW135182   7.319   6.637   6.383
 7717SOL    HW235183   7.329   6.663   6.544
 7718SOL     OW35184   5.907   6.529   5.828
 7718SOL    HW135185   5.989   6.568   5.786
 7718SOL    HW235186   5.880   6.447   5.779
 7719SOL     OW35187   7.044   6.321   6.314
 7719SOL    HW135188   7.039   6.256   6.389
 7719SOL    HW235189   7.124   6.380   6.327
 7720SOL     OW35190   6.697   7.362   5.823
 7720SOL    HW135191   6.637   7.300   5.873
 7720SOL    HW235192   6.728   7.318   5.738
 7721SOL     OW35193   6.050   7.329   5.909
 7721SOL    HW135194   6.083   7.368   5.995
 7721SOL    HW235195   6.126   7.322   5.844
 7722SOL     OW35196   6.986   5.693   6.012
 7722SOL    HW135197   6.962   5.656   5.922
 7722SOL    HW235198   7.085   5.709   6.016
 7723SOL     OW35199   5.835   7.371   6.827
 7723SOL    HW135200   5.892   7.306   6.877
 7723SOL    HW235201   5.819   7.338   6.734
 7724SOL     OW35202   6.526   7.284   6.490
 7724SOL    HW135203   6.606   7.227   6.511
 7724SOL    HW235204   6.477   7.244   6.413
 7725SOL     OW35205   5.968   6.286   6.066
 7725SOL    HW135206   6.013   6.196   6.063
 7725SOL    HW235207   5.874   6.275   6.099
 7726SOL     OW35208   6.200   5.708   5.703
 7726SOL    HW135209   6.298   5.686   5.710
 7726SOL    HW235210   6.169   5.691   5.610
 7727SOL     OW35211   6.389   6.988   6.510
 7727SOL    HW135212   6.479   7.002   6.468
 7727SOL    HW235213   6.318   6.990   6.439
 7728SOL     OW35214   6.508   6.089   6.485
 7728SOL    HW135215   6.483   6.080   6.389
 7728SOL    HW235216   6.556   6.007   6.516
 7729SOL     OW35217   5.883   5.621   5.757
 7729SOL    HW135218   5.932   5.705   5.736
 7729SOL    HW235219   5.945   5.556   5.802
 7730SOL     OW35220   6.521   5.822   6.066
 7730SOL    HW135221   6.473   5.863   5.988
 7730SOL    HW235222   6.620   5.820   6.047
 7731SOL     OW35223   6.813   7.156   6.379
 7731SOL    HW135224   6.834   7.230   6.314
 7731SOL    HW235225   6.881   7.156   6.452
 7732SOL     OW35226   6.045   6.738   6.327
 7732SOL    HW135227   5.974   6.711   6.392
 7732SOL    HW235228   6.019   6.710   6.234
 7733SOL     OW35229   6.857   7.383   6.177
 7733SOL    HW135230   6.901   7.447   6.113
 7733SOL    HW235231   6.807   7.435   6.247
 7734SOL     OW35232   6.618   6.135   5.602
 7734SOL    HW135233   6.577   6.217   5.563
 7734SOL    HW235234   6.682   6.161   5.675
 7735SOL     OW35235   6.147   5.808   6.733
 7735SOL    HW135236   6.185   5.724   6.770
 7735SOL    HW235237   6.059   5.827   6.777
 7736SOL     OW35238   6.452   6.040   6.228
 7736SOL    HW135239   6.420   6.112   6.166
 7736SOL    HW235240   6.476   5.959   6.175
 7737SOL     OW35241   6.603   5.625   6.339
 7737SOL    HW135242   6.531   5.630   6.270
 7737SOL    HW235243   6.579   5.556   6.408
 7738SOL     OW35244   7.015   6.759   6.453
 7738SOL    HW135245   6.960   6.675   6.446
 7738SOL    HW235246   7.041   6.788   6.361
 7739SOL     OW35247   7.052   6.176   6.578
 7739SOL    HW135248   7.022   6.081   6.585
 7739SOL    HW235249   7.125   6.192   6.644
 7740SOL     OW35250   7.443   6.419   5.963
 7740SOL    HW135251   7.485   6.355   6.027
 7740SOL    HW235252   7.405   6.368   5.885
 7741SOL     OW35253   6.074   6.971   5.760
 7741SOL    HW135254   5.987   6.956   5.807
 7741SOL    HW235255   6.057   6.997   5.665
 7742SOL     OW35256   7.250   6.866   6.243
 7742SOL    HW135257   7.349   6.874   6.257
 7742SOL    HW235258   7.205   6.950   6.274
 7743SOL     OW35259   6.976   6.161   5.664
 7743SOL    HW135260   6.922   6.140   5.745
 7743SOL    HW235261   7.067   6.120   5.673
 7744SOL     OW35262   6.697   6.781   6.686
 7744SOL    HW135263   6.657   6.825   6.767
 7744SOL    HW235264   6.656   6.818   6.603
 7745SOL     OW35265   7.224   6.685   6.665
 7745SOL    HW135266   7.229   6.766   6.724
 7745SOL    HW235267   7.138   6.687   6.614
 7746SOL     OW35268   6.291   6.636   5.954
 7746SOL    HW135269   6.277   6.643   6.053
 7746SOL    HW235270   6.375   6.585   5.936
 7747SOL     OW35271   5.996   6.399   6.837
 7747SOL    HW135272   6.082   6.411   6.887
 7747SOL    HW235273   5.954   6.312   6.864
 7748SOL     OW35274   6.860   5.972   6.848
 7748SOL    HW135275   6.881   6.046   6.912
 7748SOL    HW235276   6.771   5.989   6.805
 7749SOL     OW35277   5.953   6.686   6.087
 7749SOL    HW135278   5.946   6.769   6.031
 7749SOL    HW235279   5.957   6.606   6.027
 7750SOL     OW35280   6.152   6.123   6.451
 7750SOL    HW135281   6.164   6.189   6.377
 7750SOL    HW235282   6.198   6.157   6.534
 7751SOL     OW35283   6.838   6.934   5.974
 7751SOL    HW135284   6.888   7.011   6.014
 7751SOL    HW235285   6.743   6.936   6.006
 7752SOL     OW35286   6.858   7.031   6.728
 7752SOL    HW135287   6.905   7.044   6.815
 7752SOL    HW235288   6.792   6.957   6.737
 7753SOL     OW35289   7.168   6.225   6.058
 7753SOL    HW135290   7.137   6.286   6.131
 7753SOL    HW235291   7.218   6.277   5.989
 7754SOL     OW35292   5.940   7.096   6.915
 7754SOL    HW135293   5.919   7.052   6.828
 7754SOL    HW235294   6.037   7.122   6.918
 7755SOL     OW35295   6.159   6.456   6.615
 7755SOL    HW135296   6.203   6.545   6.606
 7755SOL    HW235297   6.096   6.456   6.692
 7756SOL     OW35298   6.946   6.448   6.631
 7756SOL    HW135299   6.871   6.448   6.565
 7756SOL    HW235300   6.983   6.356   6.640
 7757SOL     OW35301   6.795   6.111   5.861
 7757SOL    HW135302   6.808   6.027   5.915
 7757SOL    HW235303   6.766   6.185   5.921
 7758SOL     OW35304   5.893   5.799   6.817
 7758SOL    HW135305   5.870   5.836   6.907
 7758SOL    HW235306   5.863   5.704   6.811
 7759SOL     OW35307   5.623   6.896   6.868
 7759SOL    HW135308   5.676   6.847   6.936
 7759SOL    HW235309   5.645   6.994   6.873
 7760SOL     OW35310   6.318   6.220   6.650
 7760SOL    HW135311   6.377   6.194   6.574
 7760SOL    HW235312   6.290   6.316   6.639
 7761SOL     OW35313   7.208   5.953   5.960
 7761SOL    HW135314   7.210   5.877   6.024
 7761SOL    HW235315   7.160   6.030   6.000
 7762SOL     OW35316   6.609   6.352   6.552
 7762SOL    HW135317   6.624   6.373   6.648
 7762SOL    HW235318   6.579   6.257   6.543
 7763SOL     OW35319   7.126   5.860   5.711
 7763SOL    HW135320   7.065   5.785   5.734
 7763SOL    HW235321   7.148   5.912   5.794
 7764SOL     OW35322   6.889   6.424   5.628
 7764SOL    HW135323   6.923   6.331   5.643
 7764SOL    HW235324   6.907   6.451   5.533
 7765SOL     OW35325   6.654   6.919   6.435
 7765SOL    HW135326   6.661   6.835   6.380
 7765SOL    HW235327   6.716   6.988   6.399
 7766SOL     OW35328   5.905   6.396   6.535
 7766SOL    HW135329   5.998   6.432   6.540
 7766SOL    HW235330   5.899   6.311   6.587
 7767SOL     OW35331   5.925   6.095   6.592
 7767SOL    HW135332   5.873   6.012   6.575
 7767SOL    HW235333   6.002   6.100   6.528
 7768SOL     OW35334   6.746   5.793   7.063
 7768SOL    HW135335   6.746   5.857   7.140
 7768SOL    HW235336   6.774   5.841   6.980
 7769SOL     OW35337   5.594   6.912   5.786
 7769SOL    HW135338   5.501   6.933   5.755
 7769SOL    HW235339   5.604   6.813   5.799
 7770SOL     OW35340   5.674   7.387   6.513
 7770SOL    HW135341   5.632   7.301   6.486
 7770SOL    HW235342   5.768   7.390   6.479
 7771SOL     OW35343   6.090   7.154   6.496
 7771SOL    HW135344   6.156   7.228   6.505
 7771SOL    HW235345   6.134   7.075   6.454
 7772SOL     OW35346   6.588   6.382   6.824
 7772SOL    HW135347   6.629   6.350   6.910
 7772SOL    HW235348   6.492   6.355   6.821
 7773SOL     OW35349   5.626   6.130   6.700
 7773SOL    HW135350   5.711   6.097   6.659
 7773SOL    HW235351   5.639   6.145   6.798
 7774SOL     OW35352   6.401   6.158   5.911
 7774SOL    HW135353   6.408   6.069   5.865
 7774SOL    HW235354   6.307   6.192   5.903
 7775SOL     OW35355   7.243   6.190   6.792
 7775SOL    HW135356   7.205   6.121   6.854
 7775SOL    HW235357   7.325   6.154   6.748
 7776SOL     OW35358   6.257   6.050   6.855
 7776SOL    HW135359   6.223   5.961   6.825
 7776SOL    HW235360   6.283   6.104   6.775
 7777SOL     OW35361   6.516   7.264   7.051
 7777SOL    HW135362   6.492   7.246   6.956
 7777SOL    HW235363   6.546   7.358   7.061
 7778SOL     OW35364   6.933   6.645   6.820
 7778SOL    HW135365   6.957   6.582   6.746
 7778SOL    HW235366   6.843   6.685   6.802
 7779SOL     OW35367   6.888   6.441   5.895
 7779SOL    HW135368   6.802   6.410   5.937
 7779SOL    HW235369   6.884   6.427   5.796
 7780SOL     OW35370   7.345   7.333   6.740
 7780SOL    HW135371   7.406   7.363   6.667
 7780SOL    HW235372   7.307   7.244   6.718
 7781SOL     OW35373   6.838   7.317   6.714
 7781SOL    HW135374   6.922   7.322   6.660
 7781SOL    HW235375   6.815   7.221   6.732
 7782SOL     OW35376   5.669   6.844   6.608
 7782SOL    HW135377   5.664   6.843   6.708
 7782SOL    HW235378   5.586   6.803   6.570
 7783SOL     OW35379   7.312   5.721   6.109
 7783SOL    HW135380   7.385   5.704   6.042
 7783SOL    HW235381   7.281   5.634   6.147
 7784SOL     OW35382   6.974   7.159   6.063
 7784SOL    HW135383   7.041   7.171   5.989
 7784SOL    HW235384   6.934   7.248   6.086
 7785SOL     OW35385   6.866   6.513   6.258
 7785SOL    HW135386   6.926   6.432   6.260
 7785SOL    HW235387   6.906   6.582   6.198
 7786SOL     OW35388   6.258   7.202   5.740
 7786SOL    HW135389   6.267   7.212   5.641
 7786SOL    HW235390   6.218   7.113   5.761
 7787SOL     OW35391   7.236   7.306   6.980
 7787SOL    HW135392   7.289   7.316   6.896
 7787SOL    HW235393   7.209   7.396   7.014
 7788SOL     OW35394   7.427   5.761   6.549
 7788SOL    HW135395   7.466   5.676   6.513
 7788SOL    HW235396   7.329   5.763   6.530
 7789SOL     OW35397   5.849   5.912   6.306
 7789SOL    HW135398   5.770   5.963   6.272
 7789SOL    HW235399   5.840   5.897   6.404
 7790SOL     OW35400   6.780   7.198   5.617
 7790SOL    HW135401   6.786   7.105   5.654
 7790SOL    HW235402   6.721   7.198   5.537
 7791SOL     OW35403   6.408   6.588   6.958
 7791SOL    HW135404   6.448   6.587   6.866
 7791SOL    HW235405   6.418   6.680   6.998
 7792SOL     OW35406   6.502   6.496   5.877
 7792SOL    HW135407   6.565   6.534   5.809
 7792SOL    HW235408   6.542   6.413   5.916
 7793SOL     OW35409   6.625   6.684   6.282
 7793SOL    HW135410   6.555   6.637   6.336
 7793SOL    HW235411   6.684   6.616   6.239
 7794SOL     OW35412   6.600   5.822   6.557
 7794SOL    HW135413   6.592   5.786   6.464
 7794SOL    HW235414   6.598   5.746   6.622
 7795SOL     OW35415   6.176   7.073   6.077
 7795SOL    HW135416   6.218   7.015   6.007
 7795SOL    HW235417   6.132   7.152   6.033
 7796SOL     OW35418   7.295   5.971   6.967
 7796SOL    HW135419   7.368   6.040   6.971
 7796SOL    HW235420   7.323   5.896   6.908
 7797SOL     OW35421   5.841   6.934   5.876
 7797SOL    HW135422   5.745   6.935   5.849
 7797SOL    HW235423   5.853   6.987   5.960
 7798SOL     OW35424   5.661   5.931   5.619
 7798SOL    HW135425   5.569   5.903   5.590
 7798SOL    HW235426   5.692   6.008   5.563
 7799SOL     OW35427   5.658   5.752   5.904
 7799SOL    HW135428   5.641   5.835   5.850
 7799SOL    HW235429   5.748   5.715   5.882
 7800SOL     OW35430   6.769   6.921   5.705
 7800SOL    HW135431   6.670   6.910   5.707
 7800SOL    HW235432   6.803   6.936   5.798
 7801SOL     OW35433   7.079   7.353   6.545
 7801SOL    HW135434   7.112   7.417   6.476
 7801SOL    HW235435   7.145   7.347   6.620
 7802SOL     OW35436   7.036   6.806   7.219
 7802SOL    HW135437   7.027   6.796   7.318
 7802SOL    HW235438   7.132   6.799   7.193
 7803SOL     OW35439   7.260   6.469   6.840
 7803SOL    HW135440   7.233   6.380   6.803
 7803SOL    HW235441   7.261   6.537   6.767
 7804SOL     OW35442   6.811   5.911   6.035
 7804SOL    HW135443   6.876   5.837   6.024
 7804SOL    HW235444   6.831   5.961   6.119
 7805SOL     OW35445   6.180   6.331   6.238
 7805SOL    HW135446   6.230   6.416   6.219
 7805SOL    HW235447   6.092   6.333   6.190
 7806SOL     OW35448   7.316   6.520   7.103
 7806SOL    HW135449   7.354   6.611   7.118
 7806SOL    HW235450   7.308   6.503   7.004
 7807SOL     OW35451   6.445   6.960   5.602
 7807SOL    HW135452   6.399   6.975   5.690
 7807SOL    HW235453   6.489   7.045   5.572
 7808SOL     OW35454   6.247   7.376   6.539
 7808SOL    HW135455   6.201   7.464   6.526
 7808SOL    HW235456   6.346   7.388   6.532
 7809SOL     OW35457   6.445   6.542   6.447
 7809SOL    HW135458   6.499   6.473   6.495
 7809SOL    HW235459   6.413   6.611   6.513
 7810SOL     OW35460   6.669   6.570   5.673
 7810SOL    HW135461   6.646   6.623   5.591
 7810SOL    HW235462   6.750   6.514   5.654
 7811SOL     OW35463   7.447   7.155   6.437
 7811SOL    HW135464   7.376   7.143   6.367
 7811SOL    HW235465   7.448   7.076   6.497
 7812SOL     OW35466   5.665   6.826   6.239
 7812SOL    HW135467   5.664   6.779   6.327
 7812SOL    HW235468   5.747   6.798   6.188
 7813SOL     OW35469   7.410   5.778   6.813
 7813SOL    HW135470   7.406   5.688   6.857
 7813SOL    HW235471   7.413   5.767   6.714
 7814SOL     OW35472   7.291   7.073   6.690
 7814SOL    HW135473   7.198   7.048   6.663
 7814SOL    HW235474   7.317   7.023   6.772
 7815SOL     OW35475   6.398   7.172   6.273
 7815SOL    HW135476   6.430   7.182   6.179
 7815SOL    HW235477   6.319   7.110   6.275
 7816SOL     OW35478   7.010   5.800   6.698
 7816SOL    HW135479   7.062   5.735   6.753
 7816SOL    HW235480   6.961   5.863   6.759
 7817SOL     OW35481   6.356   6.916   5.887
 7817SOL    HW135482   6.310   6.829   5.904
 7817SOL    HW235483   6.447   6.913   5.928
 7818SOL     OW35484   6.938   5.638   5.754
 7818SOL    HW135485   6.973   5.597   5.670
 7818SOL    HW235486   6.848   5.600   5.774
 7819SOL     OW35487   6.886   6.039   6.277
 7819SOL    HW135488   6.827   6.119   6.281
 7819SOL    HW235489   6.901   6.004   6.370
 7820SOL     OW35490   7.179   5.807   6.468
 7820SOL    HW135491   7.095   5.806   6.522
 7820SOL    HW235492   7.181   5.890   6.412
 7821SOL     OW35493   5.625   6.663   5.886
 7821SOL    HW135494   5.724   6.652   5.877
 7821SOL    HW235495   5.585   6.577   5.918
 7822SOL     OW35496   6.461   7.232   5.923
 7822SOL    HW135497   6.384   7.197   5.869
 7822SOL    HW235498   6.429   7.303   5.985
 7823SOL     OW35499   5.811   7.723   0.996
 7823SOL    HW135500   5.846   7.706   1.088
 7823SOL    HW235501   5.723   7.678   0.984
 7824SOL     OW35502   5.605   7.816   0.647
 7824SOL    HW135503   5.523   7.859   0.686
 7824SOL    HW235504   5.577   7.743   0.584
 7825SOL     OW35505   6.721   8.151   0.717
 7825SOL    HW135506   6.778   8.229   0.692
 7825SOL    HW235507   6.661   8.177   0.793
 7826SOL     OW35508   7.341   8.055   0.231
 7826SOL    HW135509   7.329   8.042   0.132
 7826SOL    HW235510   7.311   7.974   0.280
 7827SOL     OW35511   6.354   8.592   1.023
 7827SOL    HW135512   6.276   8.609   1.083
 7827SOL    HW235513   6.388   8.679   0.987
 7828SOL     OW35514   6.271   8.460   0.665
 7828SOL    HW135515   6.340   8.444   0.735
 7828SOL    HW235516   6.198   8.517   0.703
 7829SOL     OW35517   6.024   7.840   1.499
 7829SOL    HW135518   6.106   7.784   1.508
 7829SOL    HW235519   5.943   7.782   1.503
 7830SOL     OW35520   7.189   7.895   0.737
 7830SOL    HW135521   7.115   7.941   0.687
 7830SOL    HW235522   7.240   7.963   0.790
 7831SOL     OW35523   5.826   8.539   0.886
 7831SOL    HW135524   5.840   8.455   0.938
 7831SOL    HW235525   5.771   8.603   0.941
 7832SOL     OW35526   7.180   7.562   1.480
 7832SOL    HW135527   7.162   7.629   1.408
 7832SOL    HW235528   7.177   7.608   1.569
 7833SOL     OW35529   5.708   8.091   0.563
 7833SOL    HW135530   5.663   8.003   0.580
 7833SOL    HW235531   5.707   8.145   0.647
 7834SOL     OW35532   5.699   8.185   1.597
 7834SOL    HW135533   5.787   8.172   1.642
 7834SOL    HW235534   5.686   8.282   1.575
 7835SOL     OW35535   6.395   7.452   0.502
 7835SOL    HW135536   6.435   7.543   0.493
 7835SOL    HW235537   6.295   7.460   0.508
 7836SOL     OW35538   5.783   8.424   1.264
 7836SOL    HW135539   5.872   8.379   1.250
 7836SOL    HW235540   5.710   8.359   1.245
 7837SOL     OW35541   7.111   8.447   0.190
 7837SOL    HW135542   7.048   8.371   0.203
 7837SOL    HW235543   7.159   8.465   0.276
 7838SOL     OW35544   5.903   7.699   1.801
 7838SOL    HW135545   5.974   7.770   1.807
 7838SOL    HW235546   5.815   7.738   1.829
 7839SOL     OW35547   6.867   7.793   0.944
 7839SOL    HW135548   6.781   7.743   0.931
 7839SOL    HW235549   6.929   7.739   1.000
 7840SOL     OW35550   6.393   8.053   1.465
 7840SOL    HW135551   6.346   8.050   1.554
 7840SOL    HW235552   6.342   7.998   1.399
 7841SOL     OW35553   6.559   8.338   1.572
 7841SOL    HW135554   6.605   8.254   1.543
 7841SOL    HW235555   6.503   8.372   1.497
 7842SOL     OW35556   6.577   7.858   1.242
 7842SOL    HW135557   6.500   7.892   1.296
 7842SOL    HW235558   6.543   7.807   1.163
 7843SOL     OW35559   6.627   8.149   0.429
 7843SOL    HW135560   6.653   8.145   0.525
 7843SOL    HW235561   6.542   8.098   0.415
 7844SOL     OW35562   5.662   8.259   0.789
 7844SOL    HW135563   5.761   8.247   0.798
 7844SOL    HW235564   5.638   8.354   0.810
 7845SOL     OW35565   6.451   7.796   0.195
 7845SOL    HW135566   6.510   7.859   0.146
 7845SOL    HW235567   6.470   7.702   0.166
 7846SOL     OW35568   6.136   7.644   0.885
 7846SOL    HW135569   6.131   7.639   0.985
 7846SOL    HW235570   6.138   7.740   0.856
 7847SOL     OW35571   7.044   8.183   0.728
 7847SOL    HW135572   7.039   8.118   0.803
 7847SOL    HW235573   7.124   8.242   0.741
 7848SOL     OW35574   5.788   7.733   1.498
 7848SOL    HW135575   5.708   7.793   1.485
 7848SOL    HW235576   5.778   7.684   1.584
 7849SOL     OW35577   6.986   7.555   0.426
 7849SOL    HW135578   6.962   7.518   0.336
 7849SOL    HW235579   7.085   7.571   0.430
 7850SOL     OW35580   5.968   8.148   0.480
 7850SOL    HW135581   6.013   8.058   0.477
 7850SOL    HW235582   5.874   8.137   0.513
 7851SOL     OW35583   7.133   7.670   1.729
 7851SOL    HW135584   7.128   7.707   1.821
 7851SOL    HW235585   7.061   7.601   1.717
 7852SOL     OW35586   6.200   7.570   0.117
 7852SOL    HW135587   6.298   7.548   0.124
 7852SOL    HW235588   6.169   7.553   0.024
 7853SOL     OW35589   6.367   7.712   1.749
 7853SOL    HW135590   6.434   7.651   1.792
 7853SOL    HW235591   6.294   7.731   1.814
 7854SOL     OW35592   6.937   8.038   1.433
 7854SOL    HW135593   6.965   7.995   1.518
 7854SOL    HW235594   6.962   8.134   1.434
 7855SOL     OW35595   6.508   7.951   0.899
 7855SOL    HW135596   6.483   7.942   0.803
 7855SOL    HW235597   6.556   7.869   0.930
 7856SOL     OW35598   6.125   7.512   0.512
 7856SOL    HW135599   6.044   7.513   0.570
 7856SOL    HW235600   6.128   7.595   0.457
 7857SOL     OW35601   6.521   7.684   0.480
 7857SOL    HW135602   6.473   7.725   0.402
 7857SOL    HW235603   6.620   7.682   0.461
 7858SOL     OW35604   6.662   8.131   1.464
 7858SOL    HW135605   6.582   8.070   1.467
 7858SOL    HW235606   6.743   8.078   1.440
 7859SOL     OW35607   5.664   8.004   1.386
 7859SOL    HW135608   5.756   8.003   1.345
 7859SOL    HW235609   5.658   8.078   1.453
 7860SOL     OW35610   6.147   7.670   1.147
 7860SOL    HW135611   6.185   7.586   1.184
 7860SOL    HW235612   6.059   7.689   1.191
 7861SOL     OW35613   6.452   7.902   0.642
 7861SOL    HW135614   6.420   7.974   0.580
 7861SOL    HW235615   6.476   7.821   0.589
 7862SOL     OW35616   6.603   7.487   0.753
 7862SOL    HW135617   6.531   7.492   0.684
 7862SOL    HW235618   6.579   7.418   0.822
 7863SOL     OW35619   7.052   8.038   0.992
 7863SOL    HW135620   7.022   7.943   0.999
 7863SOL    HW235621   7.125   8.054   1.058
 7864SOL     OW35622   7.443   8.281   0.377
 7864SOL    HW135623   7.485   8.217   0.441
 7864SOL    HW235624   7.405   8.230   0.299
 7865SOL     OW35625   6.976   8.023   0.078
 7865SOL    HW135626   6.922   8.002   0.159
 7865SOL    HW235627   7.067   7.982   0.087
 7866SOL     OW35628   6.113   7.704   0.328
 7866SOL    HW135629   6.140   7.645   0.253
 7866SOL    HW235630   6.113   7.799   0.297
 7867SOL     OW35631   7.224   8.547   1.079
 7867SOL    HW135632   7.229   8.628   1.138
 7867SOL    HW235633   7.138   8.549   1.028
 7868SOL     OW35634   6.501   7.537   1.402
 7868SOL    HW135635   6.526   7.517   1.307
 7868SOL    HW235636   6.573   7.593   1.444
 7869SOL     OW35637   5.996   8.261   1.251
 7869SOL    HW135638   6.082   8.273   1.301
 7869SOL    HW235639   5.954   8.174   1.278
 7870SOL     OW35640   6.860   7.834   1.262
 7870SOL    HW135641   6.881   7.908   1.326
 7870SOL    HW235642   6.771   7.851   1.219
 7871SOL     OW35643   6.152   7.985   0.865
 7871SOL    HW135644   6.164   8.051   0.791
 7871SOL    HW235645   6.198   8.019   0.948
 7872SOL     OW35646   7.168   8.087   0.472
 7872SOL    HW135647   7.137   8.148   0.545
 7872SOL    HW235648   7.218   8.139   0.403
 7873SOL     OW35649   5.988   8.199   1.598
 7873SOL    HW135650   6.056   8.254   1.551
 7873SOL    HW235651   6.028   8.111   1.625
 7874SOL     OW35652   6.090   7.498   1.740
 7874SOL    HW135653   6.048   7.441   1.670
 7874SOL    HW235654   6.024   7.567   1.772
 7875SOL     OW35655   6.159   8.318   1.029
 7875SOL    HW135656   6.203   8.407   1.020
 7875SOL    HW235657   6.096   8.318   1.106
 7876SOL     OW35658   6.946   8.310   1.045
 7876SOL    HW135659   6.871   8.310   0.979
 7876SOL    HW235660   6.983   8.218   1.054
 7877SOL     OW35661   6.795   7.973   0.275
 7877SOL    HW135662   6.808   7.889   0.329
 7877SOL    HW235663   6.766   8.047   0.335
 7878SOL     OW35664   5.893   7.661   1.231
 7878SOL    HW135665   5.870   7.698   1.321
 7878SOL    HW235666   5.863   7.566   1.225
 7879SOL     OW35667   6.318   8.082   1.064
 7879SOL    HW135668   6.377   8.056   0.988
 7879SOL    HW235669   6.290   8.178   1.053
 7880SOL     OW35670   5.893   7.511   0.618
 7880SOL    HW135671   5.882   7.605   0.651
 7880SOL    HW235672   5.888   7.448   0.695
 7881SOL     OW35673   7.208   7.815   0.374
 7881SOL    HW135674   7.210   7.739   0.438
 7881SOL    HW235675   7.160   7.892   0.414
 7882SOL     OW35676   6.609   8.214   0.966
 7882SOL    HW135677   6.624   8.235   1.062
 7882SOL    HW235678   6.579   8.119   0.957
 7883SOL     OW35679   5.936   8.346   1.804
 7883SOL    HW135680   6.012   8.390   1.852
 7883SOL    HW235681   5.971   8.299   1.722
 7884SOL     OW35682   7.126   7.722   0.125
 7884SOL    HW135683   7.065   7.647   0.148
 7884SOL    HW235684   7.148   7.774   0.208
 7885SOL     OW35685   6.889   8.286   0.042
 7885SOL    HW135686   6.923   8.193   0.057
 7885SOL    HW235687   6.907   8.313  -0.053
 7886SOL     OW35688   5.905   8.258   0.949
 7886SOL    HW135689   5.998   8.294   0.954
 7886SOL    HW235690   5.899   8.173   1.001
 7887SOL     OW35691   5.925   7.957   1.006
 7887SOL    HW135692   5.873   7.874   0.989
 7887SOL    HW235693   6.002   7.962   0.942
 7888SOL     OW35694   6.746   7.655   1.477
 7888SOL    HW135695   6.746   7.719   1.554
 7888SOL    HW235696   6.774   7.703   1.394
 7889SOL     OW35697   6.588   8.244   1.238
 7889SOL    HW135698   6.629   8.212   1.324
 7889SOL    HW235699   6.492   8.217   1.235
 7890SOL     OW35700   5.626   7.992   1.114
 7890SOL    HW135701   5.711   7.959   1.073
 7890SOL    HW235702   5.639   8.007   1.212
 7891SOL     OW35703   5.775   7.968   1.722
 7891SOL    HW135704   5.834   7.928   1.652
 7891SOL    HW235705   5.717   8.039   1.681
 7892SOL     OW35706   6.401   8.020   0.325
 7892SOL    HW135707   6.408   7.931   0.279
 7892SOL    HW235708   6.307   8.054   0.317
 7893SOL     OW35709   7.243   8.052   1.206
 7893SOL    HW135710   7.205   7.983   1.268
 7893SOL    HW235711   7.325   8.016   1.162
 7894SOL     OW35712   6.257   7.912   1.269
 7894SOL    HW135713   6.223   7.823   1.239
 7894SOL    HW235714   6.283   7.966   1.189
 7895SOL     OW35715   6.059   7.948   0.191
 7895SOL    HW135716   6.120   8.028   0.195
 7895SOL    HW235717   5.964   7.979   0.198
 7896SOL     OW35718   5.745   8.585   1.466
 7896SOL    HW135719   5.767   8.524   1.542
 7896SOL    HW235720   5.755   8.536   1.380
 7897SOL     OW35721   6.933   8.507   1.234
 7897SOL    HW135722   6.957   8.444   1.160
 7897SOL    HW235723   6.843   8.547   1.216
 7898SOL     OW35724   6.888   8.303   0.309
 7898SOL    HW135725   6.802   8.272   0.351
 7898SOL    HW235726   6.884   8.289   0.210
 7899SOL     OW35727   6.489   7.534   0.133
 7899SOL    HW135728   6.540   7.535   0.047
 7899SOL    HW235729   6.545   7.492   0.204
 7900SOL     OW35730   7.312   7.583   0.523
 7900SOL    HW135731   7.385   7.566   0.456
 7900SOL    HW235732   7.281   7.496   0.561
 7901SOL     OW35733   6.866   8.375   0.672
 7901SOL    HW135734   6.926   8.294   0.674
 7901SOL    HW235735   6.906   8.444   0.612
 7902SOL     OW35736   7.427   7.623   0.963
 7902SOL    HW135737   7.466   7.538   0.927
 7902SOL    HW235738   7.329   7.625   0.944
 7903SOL     OW35739   5.849   7.774   0.720
 7903SOL    HW135740   5.770   7.825   0.686
 7903SOL    HW235741   5.840   7.759   0.818
 7904SOL     OW35742   6.502   8.358   0.291
 7904SOL    HW135743   6.565   8.396   0.223
 7904SOL    HW235744   6.542   8.275   0.330
 7905SOL     OW35745   6.600   7.684   0.971
 7905SOL    HW135746   6.592   7.648   0.878
 7905SOL    HW235747   6.598   7.608   1.036
 7906SOL     OW35748   7.295   7.833   1.381
 7906SOL    HW135749   7.368   7.902   1.385
 7906SOL    HW235750   7.323   7.758   1.322
 7907SOL     OW35751   5.691   8.461   1.726
 7907SOL    HW135752   5.614   8.428   1.780
 7907SOL    HW235753   5.776   8.431   1.768
 7908SOL     OW35754   6.258   7.651   1.489
 7908SOL    HW135755   6.348   7.635   1.449
 7908SOL    HW235756   6.266   7.656   1.588
 7909SOL     OW35757   6.199   8.290   1.431
 7909SOL    HW135758   6.255   8.371   1.414
 7909SOL    HW235759   6.258   8.210   1.434
 7910SOL     OW35760   7.260   8.331   1.254
 7910SOL    HW135761   7.233   8.242   1.217
 7910SOL    HW235762   7.261   8.399   1.181
 7911SOL     OW35763   6.811   7.773   0.449
 7911SOL    HW135764   6.876   7.699   0.438
 7911SOL    HW235765   6.831   7.823   0.533
 7912SOL     OW35766   6.180   8.193   0.652
 7912SOL    HW135767   6.230   8.278   0.633
 7912SOL    HW235768   6.092   8.195   0.604
 7913SOL     OW35769   7.316   8.382   1.517
 7913SOL    HW135770   7.354   8.473   1.532
 7913SOL    HW235771   7.308   8.365   1.418
 7914SOL     OW35772   6.669   8.432   0.087
 7914SOL    HW135773   6.646   8.485   0.005
 7914SOL    HW235774   6.750   8.376   0.068
 7915SOL     OW35775   7.410   7.640   1.227
 7915SOL    HW135776   7.406   7.550   1.271
 7915SOL    HW235777   7.413   7.629   1.128
 7916SOL     OW35778   6.014   7.872   0.520
 7916SOL    HW135779   6.044   7.800   0.458
 7916SOL    HW235780   5.975   7.832   0.603
 7917SOL     OW35781   5.903   7.995   1.280
 7917SOL    HW135782   5.941   7.936   1.352
 7917SOL    HW235783   5.943   7.969   1.192
 7918SOL     OW35784   7.010   7.662   1.112
 7918SOL    HW135785   7.062   7.597   1.167
 7918SOL    HW235786   6.961   7.725   1.173
 7919SOL     OW35787   6.587   7.482   1.154
 7919SOL    HW135788   6.524   7.410   1.123
 7919SOL    HW235789   6.680   7.446   1.154
 7920SOL     OW35790   6.938   7.500   0.168
 7920SOL    HW135791   6.973   7.459   0.084
 7920SOL    HW235792   6.848   7.462   0.188
 7921SOL     OW35793   6.886   7.901   0.691
 7921SOL    HW135794   6.827   7.981   0.695
 7921SOL    HW235795   6.901   7.866   0.784
 7922SOL     OW35796   7.179   7.669   0.882
 7922SOL    HW135797   7.095   7.668   0.936
 7922SOL    HW235798   7.181   7.752   0.826
 7923SOL     OW35799   5.625   8.525   0.300
 7923SOL    HW135800   5.724   8.514   0.291
 7923SOL    HW235801   5.585   8.439   0.332
 7924SOL     OW35802   5.816   8.076   1.975
 7924SOL    HW135803   5.723   8.074   2.012
 7924SOL    HW235804   5.817   8.037   1.883
 7925SOL     OW35805   6.436   8.246   3.685
 7925SOL    HW135806   6.432   8.322   3.750
 7925SOL    HW235807   6.458   8.282   3.594
 7926SOL     OW35808   7.180   7.562   3.342
 7926SOL    HW135809   7.162   7.629   3.270
 7926SOL    HW235810   7.177   7.608   3.431
 7927SOL     OW35811   5.708   8.091   2.425
 7927SOL    HW135812   5.663   8.003   2.442
 7927SOL    HW235813   5.707   8.145   2.509
 7928SOL     OW35814   5.783   8.424   3.126
 7928SOL    HW135815   5.872   8.379   3.112
 7928SOL    HW235816   5.710   8.359   3.107
 7929SOL     OW35817   6.559   8.338   3.434
 7929SOL    HW135818   6.605   8.254   3.405
 7929SOL    HW235819   6.503   8.372   3.359
 7930SOL     OW35820   6.451   7.796   2.057
 7930SOL    HW135821   6.510   7.859   2.008
 7930SOL    HW235822   6.470   7.702   2.028
 7931SOL     OW35823   7.133   7.670   3.591
 7931SOL    HW135824   7.128   7.707   3.683
 7931SOL    HW235825   7.061   7.601   3.579
 7932SOL     OW35826   6.200   7.570   1.979
 7932SOL    HW135827   6.298   7.548   1.986
 7932SOL    HW235828   6.169   7.553   1.886
 7933SOL     OW35829   6.367   7.712   3.611
 7933SOL    HW135830   6.434   7.651   3.654
 7933SOL    HW235831   6.294   7.731   3.676
 7934SOL     OW35832   6.937   8.038   3.295
 7934SOL    HW135833   6.965   7.995   3.380
 7934SOL    HW235834   6.962   8.134   3.296
 7935SOL     OW35835   6.508   7.951   2.761
 7935SOL    HW135836   6.483   7.942   2.665
 7935SOL    HW235837   6.556   7.869   2.792
 7936SOL     OW35838   6.521   7.684   2.342
 7936SOL    HW135839   6.473   7.725   2.264
 7936SOL    HW235840   6.620   7.682   2.323
 7937SOL     OW35841   6.662   8.131   3.326
 7937SOL    HW135842   6.582   8.070   3.329
 7937SOL    HW235843   6.743   8.078   3.302
 7938SOL     OW35844   6.603   7.487   2.615
 7938SOL    HW135845   6.531   7.492   2.546
 7938SOL    HW235846   6.579   7.418   2.684
 7939SOL     OW35847   7.224   8.547   2.941
 7939SOL    HW135848   7.229   8.628   3.000
 7939SOL    HW235849   7.138   8.549   2.890
 7940SOL     OW35850   6.501   7.537   3.264
 7940SOL    HW135851   6.526   7.517   3.169
 7940SOL    HW235852   6.573   7.593   3.306
 7941SOL     OW35853   6.090   7.498   3.602
 7941SOL    HW135854   6.048   7.441   3.532
 7941SOL    HW235855   6.024   7.567   3.634
 7942SOL     OW35856   7.208   7.815   2.236
 7942SOL    HW135857   7.210   7.739   2.300
 7942SOL    HW235858   7.160   7.892   2.276
 7943SOL     OW35859   6.609   8.214   2.828
 7943SOL    HW135860   6.624   8.235   2.924
 7943SOL    HW235861   6.579   8.119   2.819
 7944SOL     OW35862   6.746   7.655   3.339
 7944SOL    HW135863   6.746   7.719   3.416
 7944SOL    HW235864   6.774   7.703   3.256
 7945SOL     OW35865   6.588   8.244   3.100
 7945SOL    HW135866   6.629   8.212   3.186
 7945SOL    HW235867   6.492   8.217   3.097
 7946SOL     OW35868   5.775   7.968   3.584
 7946SOL    HW135869   5.834   7.928   3.514
 7946SOL    HW235870   5.717   8.039   3.543
 7947SOL     OW35871   7.243   8.052   3.068
 7947SOL    HW135872   7.205   7.983   3.130
 7947SOL    HW235873   7.325   8.016   3.024
 7948SOL     OW35874   6.257   7.912   3.131
 7948SOL    HW135875   6.223   7.823   3.101
 7948SOL    HW235876   6.283   7.966   3.051
 7949SOL     OW35877   7.260   8.331   3.116
 7949SOL    HW135878   7.233   8.242   3.079
 7949SOL    HW235879   7.261   8.399   3.043
 7950SOL     OW35880   7.410   7.640   3.089
 7950SOL    HW135881   7.406   7.550   3.133
 7950SOL    HW235882   7.413   7.629   2.990
 7951SOL     OW35883   5.903   7.995   3.142
 7951SOL    HW135884   5.941   7.936   3.214
 7951SOL    HW235885   5.943   7.969   3.054
 7952SOL     OW35886   7.010   7.662   2.974
 7952SOL    HW135887   7.062   7.597   3.029
 7952SOL    HW235888   6.961   7.725   3.035
 7953SOL     OW35889   6.587   7.482   3.016
 7953SOL    HW135890   6.524   7.410   2.985
 7953SOL    HW235891   6.680   7.446   3.016
 7954SOL     OW35892   6.938   7.500   2.030
 7954SOL    HW135893   6.973   7.459   1.946
 7954SOL    HW235894   6.848   7.462   2.050
 7955SOL     OW35895   5.811   7.723   4.720
 7955SOL    HW135896   5.846   7.706   4.812
 7955SOL    HW235897   5.723   7.678   4.708
 7956SOL     OW35898   6.436   8.246   5.547
 7956SOL    HW135899   6.432   8.322   5.612
 7956SOL    HW235900   6.458   8.282   5.456
 7957SOL     OW35901   7.180   7.562   5.204
 7957SOL    HW135902   7.162   7.629   5.132
 7957SOL    HW235903   7.177   7.608   5.293
 7958SOL     OW35904   6.395   7.452   4.226
 7958SOL    HW135905   6.435   7.543   4.217
 7958SOL    HW235906   6.295   7.460   4.232
 7959SOL     OW35907   6.184   8.177   3.994
 7959SOL    HW135908   6.208   8.246   3.926
 7959SOL    HW235909   6.106   8.210   4.048
 7960SOL     OW35910   6.980   7.917   5.398
 7960SOL    HW135911   6.960   7.960   5.486
 7960SOL    HW235912   7.058   7.855   5.407
 7961SOL     OW35913   7.305   8.033   5.555
 7961SOL    HW135914   7.279   8.122   5.519
 7961SOL    HW235915   7.303   7.965   5.482
 7962SOL     OW35916   6.136   7.644   4.609
 7962SOL    HW135917   6.131   7.639   4.709
 7962SOL    HW235918   6.138   7.740   4.580
 7963SOL     OW35919   7.044   8.183   4.452
 7963SOL    HW135920   7.039   8.118   4.527
 7963SOL    HW235921   7.124   8.242   4.465
 7964SOL     OW35922   5.968   8.148   4.204
 7964SOL    HW135923   6.013   8.058   4.201
 7964SOL    HW235924   5.874   8.137   4.237
 7965SOL     OW35925   7.133   7.670   5.453
 7965SOL    HW135926   7.128   7.707   5.545
 7965SOL    HW235927   7.061   7.601   5.441
 7966SOL     OW35928   6.125   7.512   4.236
 7966SOL    HW135929   6.044   7.513   4.294
 7966SOL    HW235930   6.128   7.595   4.181
 7967SOL     OW35931   6.521   7.684   4.204
 7967SOL    HW135932   6.473   7.725   4.126
 7967SOL    HW235933   6.620   7.682   4.185
 7968SOL     OW35934   7.224   8.547   4.803
 7968SOL    HW135935   7.229   8.628   4.862
 7968SOL    HW235936   7.138   8.549   4.752
 7969SOL     OW35937   6.501   7.537   5.126
 7969SOL    HW135938   6.526   7.517   5.031
 7969SOL    HW235939   6.573   7.593   5.168
 7970SOL     OW35940   5.988   8.199   5.322
 7970SOL    HW135941   6.056   8.254   5.275
 7970SOL    HW235942   6.028   8.111   5.349
 7971SOL     OW35943   7.173   8.227   5.394
 7971SOL    HW135944   7.081   8.265   5.389
 7971SOL    HW235945   7.233   8.274   5.329
 7972SOL     OW35946   6.090   7.498   5.464
 7972SOL    HW135947   6.048   7.441   5.394
 7972SOL    HW235948   6.024   7.567   5.496
 7973SOL     OW35949   6.795   7.973   3.999
 7973SOL    HW135950   6.808   7.889   4.053
 7973SOL    HW235951   6.766   8.047   4.059
 7974SOL     OW35952   7.314   8.383   5.578
 7974SOL    HW135953   7.268   8.376   5.489
 7974SOL    HW235954   7.252   8.427   5.644
 7975SOL     OW35955   6.609   8.214   4.690
 7975SOL    HW135956   6.624   8.235   4.786
 7975SOL    HW235957   6.579   8.119   4.681
 7976SOL     OW35958   5.936   8.346   5.528
 7976SOL    HW135959   6.012   8.390   5.576
 7976SOL    HW235960   5.971   8.299   5.446
 7977SOL     OW35961   7.126   7.722   3.849
 7977SOL    HW135962   7.065   7.647   3.872
 7977SOL    HW235963   7.148   7.774   3.932
 7978SOL     OW35964   6.889   8.286   3.766
 7978SOL    HW135965   6.923   8.193   3.781
 7978SOL    HW235966   6.907   8.313   3.671
 7979SOL     OW35967   6.955   8.398   5.384
 7979SOL    HW135968   6.994   8.487   5.404
 7979SOL    HW235969   6.965   8.378   5.287
 7980SOL     OW35970   7.243   8.052   4.930
 7980SOL    HW135971   7.205   7.983   4.992
 7980SOL    HW235972   7.325   8.016   4.886
 7981SOL     OW35973   6.059   7.948   3.915
 7981SOL    HW135974   6.120   8.028   3.919
 7981SOL    HW235975   5.964   7.979   3.922
 7982SOL     OW35976   6.866   8.375   4.396
 7982SOL    HW135977   6.926   8.294   4.398
 7982SOL    HW235978   6.906   8.444   4.336
 7983SOL     OW35979   7.295   7.833   5.105
 7983SOL    HW135980   7.368   7.902   5.109
 7983SOL    HW235981   7.323   7.758   5.046
 7984SOL     OW35982   5.691   8.461   5.450
 7984SOL    HW135983   5.614   8.428   5.504
 7984SOL    HW235984   5.776   8.431   5.492
 7985SOL     OW35985   6.258   7.651   5.213
 7985SOL    HW135986   6.348   7.635   5.173
 7985SOL    HW235987   6.266   7.656   5.312
 7986SOL     OW35988   5.661   7.793   3.757
 7986SOL    HW135989   5.569   7.765   3.728
 7986SOL    HW235990   5.692   7.870   3.701
 7987SOL     OW35991   6.199   8.290   5.155
 7987SOL    HW135992   6.255   8.371   5.138
 7987SOL    HW235993   6.258   8.210   5.158
 7988SOL     OW35994   6.302   8.013   5.432
 7988SOL    HW135995   6.321   8.078   5.506
 7988SOL    HW235996   6.362   7.933   5.441
 7989SOL     OW35997   7.260   8.331   4.978
 7989SOL    HW135998   7.233   8.242   4.941
 7989SOL    HW235999   7.261   8.399   4.905
 7990SOL     OW36000   7.363   7.790   5.366
 7990SOL    HW136001   7.346   7.821   5.272
 7990SOL    HW236002   7.279   7.753   5.404
 7991SOL     OW36003   7.316   8.382   5.241
 7991SOL    HW136004   7.354   8.473   5.256
 7991SOL    HW236005   7.308   8.365   5.142
 7992SOL     OW36006   6.669   8.432   3.811
 7992SOL    HW136007   6.646   8.485   3.729
 7992SOL    HW236008   6.750   8.376   3.792
 7993SOL     OW36009   7.410   7.640   4.951
 7993SOL    HW136010   7.406   7.550   4.995
 7993SOL    HW236011   7.413   7.629   4.852
 7994SOL     OW36012   5.816   8.076   5.699
 7994SOL    HW136013   5.723   8.074   5.736
 7994SOL    HW236014   5.817   8.037   5.607
 7995SOL     OW36015   6.721   8.151   6.303
 7995SOL    HW136016   6.778   8.229   6.278
 7995SOL    HW236017   6.661   8.177   6.379
 7996SOL     OW36018   7.341   8.055   5.817
 7996SOL    HW136019   7.329   8.042   5.718
 7996SOL    HW236020   7.311   7.974   5.866
 7997SOL     OW36021   6.354   8.592   6.609
 7997SOL    HW136022   6.276   8.609   6.669
 7997SOL    HW236023   6.388   8.679   6.573
 7998SOL     OW36024   6.271   8.460   6.251
 7998SOL    HW136025   6.340   8.444   6.321
 7998SOL    HW236026   6.198   8.517   6.289
 7999SOL     OW36027   7.189   7.895   6.323
 7999SOL    HW136028   7.115   7.941   6.273
 7999SOL    HW236029   7.240   7.963   6.376
 8000SOL     OW36030   5.826   8.539   6.472
 8000SOL    HW136031   5.840   8.455   6.524
 8000SOL    HW236032   5.771   8.603   6.527
 8001SOL     OW36033   5.708   8.091   6.149
 8001SOL    HW136034   5.663   8.003   6.166
 8001SOL    HW236035   5.707   8.145   6.233
 8002SOL     OW36036   6.395   7.452   6.088
 8002SOL    HW136037   6.435   7.543   6.079
 8002SOL    HW236038   6.295   7.460   6.094
 8003SOL     OW36039   5.783   8.424   6.850
 8003SOL    HW136040   5.872   8.379   6.836
 8003SOL    HW236041   5.710   8.359   6.831
 8004SOL     OW36042   7.111   8.447   5.776
 8004SOL    HW136043   7.048   8.371   5.789
 8004SOL    HW236044   7.159   8.465   5.862
 8005SOL     OW36045   6.184   8.177   5.856
 8005SOL    HW136046   6.208   8.246   5.788
 8005SOL    HW236047   6.106   8.210   5.910
 8006SOL     OW36048   6.867   7.793   6.530
 8006SOL    HW136049   6.781   7.743   6.517
 8006SOL    HW236050   6.929   7.739   6.586
 8007SOL     OW36051   6.627   8.149   6.015
 8007SOL    HW136052   6.653   8.145   6.111
 8007SOL    HW236053   6.542   8.098   6.001
 8008SOL     OW36054   5.662   8.259   6.375
 8008SOL    HW136055   5.761   8.247   6.384
 8008SOL    HW236056   5.638   8.354   6.396
 8009SOL     OW36057   6.136   7.644   6.471
 8009SOL    HW136058   6.131   7.639   6.571
 8009SOL    HW236059   6.138   7.740   6.442
 8010SOL     OW36060   7.044   8.183   6.314
 8010SOL    HW136061   7.039   8.118   6.389
 8010SOL    HW236062   7.124   8.242   6.327
 8011SOL     OW36063   6.986   7.555   6.012
 8011SOL    HW136064   6.962   7.518   5.922
 8011SOL    HW236065   7.085   7.571   6.016
 8012SOL     OW36066   5.968   8.148   6.066
 8012SOL    HW136067   6.013   8.058   6.063
 8012SOL    HW236068   5.874   8.137   6.099
 8013SOL     OW36069   6.200   7.570   5.703
 8013SOL    HW136070   6.298   7.548   5.710
 8013SOL    HW236071   6.169   7.553   5.610
 8014SOL     OW36072   6.125   7.512   6.098
 8014SOL    HW136073   6.044   7.513   6.156
 8014SOL    HW236074   6.128   7.595   6.043
 8015SOL     OW36075   5.883   7.483   5.757
 8015SOL    HW136076   5.932   7.567   5.736
 8015SOL    HW236077   5.945   7.418   5.802
 8016SOL     OW36078   6.521   7.684   6.066
 8016SOL    HW136079   6.473   7.725   5.988
 8016SOL    HW236080   6.620   7.682   6.047
 8017SOL     OW36081   6.147   7.670   6.733
 8017SOL    HW136082   6.185   7.586   6.770
 8017SOL    HW236083   6.059   7.689   6.777
 8018SOL     OW36084   6.452   7.902   6.228
 8018SOL    HW136085   6.420   7.974   6.166
 8018SOL    HW236086   6.476   7.821   6.175
 8019SOL     OW36087   6.603   7.487   6.339
 8019SOL    HW136088   6.531   7.492   6.270
 8019SOL    HW236089   6.579   7.418   6.408
 8020SOL     OW36090   7.052   8.038   6.578
 8020SOL    HW136091   7.022   7.943   6.585
 8020SOL    HW236092   7.125   8.054   6.644
 8021SOL     OW36093   7.443   8.281   5.963
 8021SOL    HW136094   7.485   8.217   6.027
 8021SOL    HW236095   7.405   8.230   5.885
 8022SOL     OW36096   6.976   8.023   5.664
 8022SOL    HW136097   6.922   8.002   5.745
 8022SOL    HW236098   7.067   7.982   5.673
 8023SOL     OW36099   6.113   7.704   5.914
 8023SOL    HW136100   6.140   7.645   5.839
 8023SOL    HW236101   6.113   7.799   5.883
 8024SOL     OW36102   7.224   8.547   6.665
 8024SOL    HW136103   7.229   8.628   6.724
 8024SOL    HW236104   7.138   8.549   6.614
 8025SOL     OW36105   6.860   7.834   6.848
 8025SOL    HW136106   6.881   7.908   6.912
 8025SOL    HW236107   6.771   7.851   6.805
 8026SOL     OW36108   6.152   7.985   6.451
 8026SOL    HW136109   6.164   8.051   6.377
 8026SOL    HW236110   6.198   8.019   6.534
 8027SOL     OW36111   7.168   8.087   6.058
 8027SOL    HW136112   7.137   8.148   6.131
 8027SOL    HW236113   7.218   8.139   5.989
 8028SOL     OW36114   6.946   8.310   6.631
 8028SOL    HW136115   6.871   8.310   6.565
 8028SOL    HW236116   6.983   8.218   6.640
 8029SOL     OW36117   6.795   7.973   5.861
 8029SOL    HW136118   6.808   7.889   5.915
 8029SOL    HW236119   6.766   8.047   5.921
 8030SOL     OW36120   5.893   7.511   6.204
 8030SOL    HW136121   5.882   7.605   6.237
 8030SOL    HW236122   5.888   7.448   6.281
 8031SOL     OW36123   7.208   7.815   5.960
 8031SOL    HW136124   7.210   7.739   6.024
 8031SOL    HW236125   7.160   7.892   6.000
 8032SOL     OW36126   6.609   8.214   6.552
 8032SOL    HW136127   6.624   8.235   6.648
 8032SOL    HW236128   6.579   8.119   6.543
 8033SOL     OW36129   7.126   7.722   5.711
 8033SOL    HW136130   7.065   7.647   5.734
 8033SOL    HW236131   7.148   7.774   5.794
 8034SOL     OW36132   6.889   8.286   5.628
 8034SOL    HW136133   6.923   8.193   5.643
 8034SOL    HW236134   6.907   8.313   5.533
 8035SOL     OW36135   6.746   7.655   7.063
 8035SOL    HW136136   6.746   7.719   7.140
 8035SOL    HW236137   6.774   7.703   6.980
 8036SOL     OW36138   6.588   8.244   6.824
 8036SOL    HW136139   6.629   8.212   6.910
 8036SOL    HW236140   6.492   8.217   6.821
 8037SOL     OW36141   6.401   8.020   5.911
 8037SOL    HW136142   6.408   7.931   5.865
 8037SOL    HW236143   6.307   8.054   5.903
 8038SOL     OW36144   7.243   8.052   6.792
 8038SOL    HW136145   7.205   7.983   6.854
 8038SOL    HW236146   7.325   8.016   6.748
 8039SOL     OW36147   6.059   7.948   5.777
 8039SOL    HW136148   6.120   8.028   5.781
 8039SOL    HW236149   5.964   7.979   5.784
 8040SOL     OW36150   6.933   8.507   6.820
 8040SOL    HW136151   6.957   8.444   6.746
 8040SOL    HW236152   6.843   8.547   6.802
 8041SOL     OW36153   6.888   8.303   5.895
 8041SOL    HW136154   6.802   8.272   5.937
 8041SOL    HW236155   6.884   8.289   5.796
 8042SOL     OW36156   7.312   7.583   6.109
 8042SOL    HW136157   7.385   7.566   6.042
 8042SOL    HW236158   7.281   7.496   6.147
 8043SOL     OW36159   6.866   8.375   6.258
 8043SOL    HW136160   6.926   8.294   6.260
 8043SOL    HW236161   6.906   8.444   6.198
 8044SOL     OW36162   7.427   7.623   6.549
 8044SOL    HW136163   7.466   7.538   6.513
 8044SOL    HW236164   7.329   7.625   6.530
 8045SOL     OW36165   6.502   8.358   5.877
 8045SOL    HW136166   6.565   8.396   5.809
 8045SOL    HW236167   6.542   8.275   5.916
 8046SOL     OW36168   6.600   7.684   6.557
 8046SOL    HW136169   6.592   7.648   6.464
 8046SOL    HW236170   6.598   7.608   6.622
 8047SOL     OW36171   7.295   7.833   6.967
 8047SOL    HW136172   7.368   7.902   6.971
 8047SOL    HW236173   7.323   7.758   6.908
 8048SOL     OW36174   5.658   7.614   5.904
 8048SOL    HW136175   5.641   7.697   5.850
 8048SOL    HW236176   5.748   7.577   5.882
 8049SOL     OW36177   7.260   8.331   6.840
 8049SOL    HW136178   7.233   8.242   6.803
 8049SOL    HW236179   7.261   8.399   6.767
 8050SOL     OW36180   6.811   7.773   6.035
 8050SOL    HW136181   6.876   7.699   6.024
 8050SOL    HW236182   6.831   7.823   6.119
 8051SOL     OW36183   6.180   8.193   6.238
 8051SOL    HW136184   6.230   8.278   6.219
 8051SOL    HW236185   6.092   8.195   6.190
 8052SOL     OW36186   7.316   8.382   7.103
 8052SOL    HW136187   7.354   8.473   7.118
 8052SOL    HW236188   7.308   8.365   7.004
 8053SOL     OW36189   6.669   8.432   5.673
 8053SOL    HW136190   6.646   8.485   5.591
 8053SOL    HW236191   6.750   8.376   5.654
 8054SOL     OW36192   7.410   7.640   6.813
 8054SOL    HW136193   7.406   7.550   6.857
 8054SOL    HW236194   7.413   7.629   6.714
 8055SOL     OW36195   6.014   7.872   6.106
 8055SOL    HW136196   6.044   7.800   6.044
 8055SOL    HW236197   5.975   7.832   6.189
 8056SOL     OW36198   7.010   7.662   6.698
 8056SOL    HW136199   7.062   7.597   6.753
 8056SOL    HW236200   6.961   7.725   6.759
 8057SOL     OW36201   6.587   7.482   6.740
 8057SOL    HW136202   6.524   7.410   6.709
 8057SOL    HW236203   6.680   7.446   6.740
 8058SOL     OW36204   6.938   7.500   5.754
 8058SOL    HW136205   6.973   7.459   5.670
 8058SOL    HW236206   6.848   7.462   5.774
 8059SOL     OW36207   6.886   7.901   6.277
 8059SOL    HW136208   6.827   7.981   6.281
 8059SOL    HW236209   6.901   7.866   6.370
 8060SOL     OW36210   7.179   7.669   6.468
 8060SOL    HW136211   7.095   7.668   6.522
 8060SOL    HW236212   7.181   7.752   6.412
 8061SOL     OW36213   7.678   0.628   0.113
 8061SOL    HW136214   7.585   0.626   0.150
 8061SOL    HW236215   7.679   0.589   0.021
 8062SOL     OW36216   7.673   0.275   0.996
 8062SOL    HW136217   7.708   0.258   1.088
 8062SOL    HW236218   7.585   0.230   0.984
 8063SOL     OW36219   7.467   0.368   0.647
 8063SOL    HW136220   7.385   0.411   0.686
 8063SOL    HW236221   7.439   0.295   0.584
 8064SOL     OW36222   8.017   1.275   1.165
 8064SOL    HW136223   7.924   1.268   1.128
 8064SOL    HW236224   8.028   1.364   1.209
 8065SOL     OW36225   9.203   0.607   0.231
 8065SOL    HW136226   9.191   0.594   0.132
 8065SOL    HW236227   9.173   0.526   0.280
 8066SOL     OW36228   8.216   1.144   1.023
 8066SOL    HW136229   8.138   1.161   1.083
 8066SOL    HW236230   8.250   1.231   0.987
 8067SOL     OW36231   8.133   1.012   0.665
 8067SOL    HW136232   8.202   0.996   0.735
 8067SOL    HW236233   8.060   1.069   0.703
 8068SOL     OW36234   7.783   1.435   1.061
 8068SOL    HW136235   7.705   1.404   1.008
 8068SOL    HW236236   7.841   1.493   1.004
 8069SOL     OW36237   8.908   1.505   1.339
 8069SOL    HW136238   8.932   1.599   1.365
 8069SOL    HW236239   8.892   1.451   1.421
 8070SOL     OW36240   9.051   0.447   0.737
 8070SOL    HW136241   8.977   0.493   0.687
 8070SOL    HW236242   9.102   0.515   0.790
 8071SOL     OW36243   7.679   1.713   0.483
 8071SOL    HW136244   7.713   1.790   0.537
 8071SOL    HW236245   7.723   1.713   0.393
 8072SOL     OW36246   7.678   1.434   0.538
 8072SOL    HW136247   7.652   1.530   0.538
 8072SOL    HW236248   7.607   1.380   0.583
 8073SOL     OW36249   7.688   1.091   0.886
 8073SOL    HW136250   7.702   1.007   0.938
 8073SOL    HW236251   7.633   1.155   0.941
 8074SOL     OW36252   8.068   1.786   1.439
 8074SOL    HW136253   7.976   1.769   1.474
 8074SOL    HW236254   8.096   1.878   1.465
 8075SOL     OW36255   8.054   0.964   0.123
 8075SOL    HW136256   8.061   1.048   0.069
 8075SOL    HW236257   8.100   0.977   0.211
 8076SOL     OW36258   7.570   0.643   0.563
 8076SOL    HW136259   7.525   0.555   0.580
 8076SOL    HW236260   7.569   0.697   0.647
 8077SOL     OW36261   9.290   1.767   0.359
 8077SOL    HW136262   9.344   1.738   0.439
 8077SOL    HW236263   9.320   1.857   0.330
 8078SOL     OW36264   7.475   1.596   0.117
 8078SOL    HW136265   7.456   1.500   0.138
 8078SOL    HW236266   7.442   1.654   0.192
 8079SOL     OW36267   8.061   1.365   0.726
 8079SOL    HW136268   8.012   1.278   0.735
 8079SOL    HW236269   8.038   1.408   0.639
 8080SOL     OW36270   8.257   0.004   0.502
 8080SOL    HW136271   8.297   0.095   0.493
 8080SOL    HW236272   8.157   0.012   0.508
 8081SOL     OW36273   8.973   0.999   0.190
 8081SOL    HW136274   8.910   0.923   0.203
 8081SOL    HW236275   9.021   1.017   0.276
 8082SOL     OW36276   8.635   1.792   1.616
 8082SOL    HW136277   8.659   1.852   1.540
 8082SOL    HW236278   8.642   1.697   1.586
 8083SOL     OW36279   7.765   0.251   1.801
 8083SOL    HW136280   7.836   0.322   1.807
 8083SOL    HW236281   7.677   0.290   1.829
 8084SOL     OW36282   9.115   1.714   0.572
 8084SOL    HW136283   9.074   1.691   0.484
 8084SOL    HW236284   9.097   1.640   0.637
 8085SOL     OW36285   8.046   0.729   0.270
 8085SOL    HW136286   8.070   0.798   0.202
 8085SOL    HW236287   7.968   0.762   0.324
 8086SOL     OW36288   8.729   0.345   0.944
 8086SOL    HW136289   8.643   0.295   0.931
 8086SOL    HW236290   8.791   0.291   1.000
 8087SOL     OW36291   9.024   1.662   0.307
 8087SOL    HW136292   9.113   1.708   0.310
 8087SOL    HW236293   9.003   1.638   0.212
 8088SOL     OW36294   8.421   0.890   1.572
 8088SOL    HW136295   8.467   0.806   1.543
 8088SOL    HW236296   8.365   0.924   1.497
 8089SOL     OW36297   8.439   0.410   1.242
 8089SOL    HW136298   8.362   0.444   1.296
 8089SOL    HW236299   8.405   0.359   1.163
 8090SOL     OW36300   8.489   0.701   0.429
 8090SOL    HW136301   8.515   0.697   0.525
 8090SOL    HW236302   8.404   0.650   0.415
 8091SOL     OW36303   8.313   0.348   0.195
 8091SOL    HW136304   8.372   0.411   0.146
 8091SOL    HW236305   8.332   0.254   0.166
 8092SOL     OW36306   8.810   1.144   0.545
 8092SOL    HW136307   8.893   1.115   0.497
 8092SOL    HW236308   8.761   1.211   0.489
 8093SOL     OW36309   8.456   1.456   0.477
 8093SOL    HW136310   8.410   1.528   0.425
 8093SOL    HW236311   8.452   1.476   0.575
 8094SOL     OW36312   7.799   1.801   0.853
 8094SOL    HW136313   7.849   1.715   0.859
 8094SOL    HW236314   7.864   1.878   0.850
 8095SOL     OW36315   7.769   0.943   0.242
 8095SOL    HW136316   7.851   0.982   0.200
 8095SOL    HW236317   7.742   0.861   0.193
 8096SOL     OW36318   8.906   0.735   0.728
 8096SOL    HW136319   8.901   0.670   0.803
 8096SOL    HW236320   8.986   0.794   0.741
 8097SOL     OW36321   7.909   1.266   1.727
 8097SOL    HW136322   7.859   1.267   1.641
 8097SOL    HW236323   7.846   1.248   1.803
 8098SOL     OW36324   8.559   1.776   0.237
 8098SOL    HW136325   8.499   1.714   0.287
 8098SOL    HW236326   8.590   1.732   0.152
 8099SOL     OW36327   9.080   1.377   0.081
 8099SOL    HW136328   9.048   1.471   0.071
 8099SOL    HW236329   9.004   1.314   0.069
 8100SOL     OW36330   7.912   1.743   0.323
 8100SOL    HW136331   7.945   1.782   0.409
 8100SOL    HW236332   7.988   1.736   0.258
 8101SOL     OW36333   8.848   0.107   0.426
 8101SOL    HW136334   8.824   0.070   0.336
 8101SOL    HW236335   8.947   0.123   0.430
 8102SOL     OW36336   7.830   0.700   0.480
 8102SOL    HW136337   7.875   0.610   0.477
 8102SOL    HW236338   7.736   0.689   0.513
 8103SOL     OW36339   8.062   0.122   0.117
 8103SOL    HW136340   8.160   0.100   0.124
 8103SOL    HW236341   8.031   0.105   0.024
 8104SOL     OW36342   8.251   1.402   0.924
 8104SOL    HW136343   8.341   1.416   0.882
 8104SOL    HW236344   8.180   1.404   0.853
 8105SOL     OW36345   7.987   0.064   0.512
 8105SOL    HW136346   7.906   0.065   0.570
 8105SOL    HW236347   7.990   0.147   0.457
 8106SOL     OW36348   8.882   1.188   0.041
 8106SOL    HW136349   8.914   1.112   0.098
 8106SOL    HW236350   8.790   1.215   0.071
 8107SOL     OW36351   7.745   0.035   0.171
 8107SOL    HW136352   7.794   0.119   0.150
 8107SOL    HW236353   7.807  -0.030   0.216
 8108SOL     OW36354   8.383   0.236   0.480
 8108SOL    HW136355   8.335   0.277   0.402
 8108SOL    HW236356   8.482   0.234   0.461
 8109SOL     OW36357   8.524   0.683   1.464
 8109SOL    HW136358   8.444   0.622   1.467
 8109SOL    HW236359   8.605   0.630   1.440
 8110SOL     OW36360   7.907   1.152   0.741
 8110SOL    HW136361   7.836   1.125   0.806
 8110SOL    HW236362   7.881   1.124   0.648
 8111SOL     OW36363   8.719   1.797   0.591
 8111SOL    HW136364   8.763   1.861   0.527
 8111SOL    HW236365   8.669   1.849   0.661
 8112SOL     OW36366   8.480   0.549   0.016
 8112SOL    HW136367   8.439   0.631  -0.023
 8112SOL    HW236368   8.544   0.575   0.089
 8113SOL     OW36369   8.465   0.039   0.753
 8113SOL    HW136370   8.393   0.044   0.684
 8113SOL    HW236371   8.441  -0.030   0.822
 8114SOL     OW36372   9.305   0.833   0.377
 8114SOL    HW136373   9.347   0.769   0.441
 8114SOL    HW236374   9.267   0.782   0.299
 8115SOL     OW36375   7.936   1.385   0.174
 8115SOL    HW136376   7.849   1.370   0.221
 8115SOL    HW236377   7.919   1.411   0.079
 8116SOL     OW36378   8.838   0.575   0.078
 8116SOL    HW136379   8.784   0.554   0.159
 8116SOL    HW236380   8.929   0.534   0.087
 8117SOL     OW36381   7.975   0.256   0.328
 8117SOL    HW136382   8.002   0.197   0.253
 8117SOL    HW236383   7.975   0.351   0.297
 8118SOL     OW36384   8.153   1.050   0.368
 8118SOL    HW136385   8.139   1.057   0.467
 8118SOL    HW236386   8.237   0.999   0.350
 8119SOL     OW36387   8.722   0.386   1.262
 8119SOL    HW136388   8.743   0.460   1.326
 8119SOL    HW236389   8.633   0.403   1.219
 8120SOL     OW36390   7.512   1.564   1.331
 8120SOL    HW136391   7.466   1.646   1.297
 8120SOL    HW236392   7.610   1.583   1.340
 8121SOL     OW36393   7.815   1.100   0.501
 8121SOL    HW136394   7.808   1.183   0.445
 8121SOL    HW236395   7.819   1.020   0.441
 8122SOL     OW36396   8.014   0.537   0.865
 8122SOL    HW136397   8.026   0.603   0.791
 8122SOL    HW236398   8.060   0.571   0.948
 8123SOL     OW36399   8.700   1.348   0.388
 8123SOL    HW136400   8.750   1.425   0.428
 8123SOL    HW236401   8.605   1.350   0.420
 8124SOL     OW36402   9.030   0.639   0.472
 8124SOL    HW136403   8.999   0.700   0.545
 8124SOL    HW236404   9.080   0.691   0.403
 8125SOL     OW36405   7.802   1.510   1.329
 8125SOL    HW136406   7.781   1.466   1.242
 8125SOL    HW236407   7.899   1.536   1.332
 8126SOL     OW36408   9.035   0.779   1.670
 8126SOL    HW136409   8.943   0.817   1.665
 8126SOL    HW236410   9.095   0.826   1.605
 8127SOL     OW36411   7.952   0.050   1.740
 8127SOL    HW136412   7.910  -0.007   1.670
 8127SOL    HW236413   7.886   0.119   1.772
 8128SOL     OW36414   8.021   0.870   1.029
 8128SOL    HW136415   8.065   0.959   1.020
 8128SOL    HW236416   7.958   0.870   1.106
 8129SOL     OW36417   8.657   0.525   0.275
 8129SOL    HW136418   8.670   0.441   0.329
 8129SOL    HW236419   8.628   0.599   0.335
 8130SOL     OW36420   7.485   1.310   1.282
 8130SOL    HW136421   7.538   1.261   1.350
 8130SOL    HW236422   7.507   1.408   1.287
 8131SOL     OW36423   7.755   0.063   0.618
 8131SOL    HW136424   7.744   0.157   0.651
 8131SOL    HW236425   7.750   0.000   0.695
 8132SOL     OW36426   9.070   0.367   0.374
 8132SOL    HW136427   9.072   0.291   0.438
 8132SOL    HW236428   9.022   0.444   0.414
 8133SOL     OW36429   8.471   0.766   0.966
 8133SOL    HW136430   8.486   0.787   1.062
 8133SOL    HW236431   8.441   0.671   0.957
 8134SOL     OW36432   7.798   0.898   1.804
 8134SOL    HW136433   7.874   0.942   1.852
 8134SOL    HW236434   7.833   0.851   1.722
 8135SOL     OW36435   8.988   0.274   0.125
 8135SOL    HW136436   8.927   0.199   0.148
 8135SOL    HW236437   9.010   0.326   0.208
 8136SOL     OW36438   8.751   0.838   0.042
 8136SOL    HW136439   8.785   0.745   0.057
 8136SOL    HW236440   8.769   0.865  -0.053
 8137SOL     OW36441   8.516   1.333   0.849
 8137SOL    HW136442   8.523   1.249   0.794
 8137SOL    HW236443   8.578   1.402   0.813
 8138SOL     OW36444   7.767   0.810   0.949
 8138SOL    HW136445   7.860   0.846   0.954
 8138SOL    HW236446   7.761   0.725   1.001
 8139SOL     OW36447   7.787   0.509   1.006
 8139SOL    HW136448   7.735   0.426   0.989
 8139SOL    HW236449   7.864   0.514   0.942
 8140SOL     OW36450   7.536   1.801   0.927
 8140SOL    HW136451   7.494   1.715   0.900
 8140SOL    HW236452   7.630   1.804   0.893
 8141SOL     OW36453   7.952   1.568   0.910
 8141SOL    HW136454   8.018   1.642   0.919
 8141SOL    HW236455   7.996   1.489   0.868
 8142SOL     OW36456   7.488   0.544   1.114
 8142SOL    HW136457   7.573   0.511   1.073
 8142SOL    HW236458   7.501   0.559   1.212
 8143SOL     OW36459   8.263   0.572   0.325
 8143SOL    HW136460   8.270   0.483   0.279
 8143SOL    HW236461   8.169   0.606   0.317
 8144SOL     OW36462   7.700   1.564   1.744
 8144SOL    HW136463   7.670   1.621   1.820
 8144SOL    HW236464   7.693   1.467   1.770
 8145SOL     OW36465   8.378   1.678   1.465
 8145SOL    HW136466   8.354   1.660   1.370
 8145SOL    HW236467   8.408   1.772   1.475
 8146SOL     OW36468   7.921   0.500   0.191
 8146SOL    HW136469   7.982   0.580   0.195
 8146SOL    HW236470   7.826   0.531   0.198
 8147SOL     OW36471   8.750   0.855   0.309
 8147SOL    HW136472   8.664   0.824   0.351
 8147SOL    HW236473   8.746   0.841   0.210
 8148SOL     OW36474   7.531   1.258   1.022
 8148SOL    HW136475   7.526   1.257   1.122
 8148SOL    HW236476   7.448   1.217   0.984
 8149SOL     OW36477   8.136   1.662   1.716
 8149SOL    HW136478   8.080   1.743   1.725
 8149SOL    HW236479   8.188   1.666   1.630
 8150SOL     OW36480   8.351   0.086   0.133
 8150SOL    HW136481   8.402   0.087   0.047
 8150SOL    HW236482   8.407   0.044   0.204
 8151SOL     OW36483   9.174   0.135   0.523
 8151SOL    HW136484   9.247   0.118   0.456
 8151SOL    HW236485   9.143   0.048   0.561
 8152SOL     OW36486   8.836   1.573   0.477
 8152SOL    HW136487   8.903   1.585   0.403
 8152SOL    HW236488   8.796   1.662   0.500
 8153SOL     OW36489   8.728   0.927   0.672
 8153SOL    HW136490   8.788   0.846   0.674
 8153SOL    HW236491   8.768   0.996   0.612
 8154SOL     OW36492   8.120   1.616   0.154
 8154SOL    HW136493   8.129   1.626   0.055
 8154SOL    HW236494   8.080   1.527   0.175
 8155SOL     OW36495   9.098   1.720   1.394
 8155SOL    HW136496   9.151   1.730   1.310
 8155SOL    HW236497   9.071   1.810   1.428
 8156SOL     OW36498   9.289   0.175   0.963
 8156SOL    HW136499   9.328   0.090   0.927
 8156SOL    HW236500   9.191   0.177   0.944
 8157SOL     OW36501   7.711   0.326   0.720
 8157SOL    HW136502   7.632   0.377   0.686
 8157SOL    HW236503   7.702   0.311   0.818
 8158SOL     OW36504   8.642   1.612   0.031
 8158SOL    HW136505   8.648   1.519   0.068
 8158SOL    HW236506   8.583   1.612  -0.049
 8159SOL     OW36507   8.270   1.002   1.372
 8159SOL    HW136508   8.310   1.001   1.280
 8159SOL    HW236509   8.280   1.094   1.412
 8160SOL     OW36510   8.364   0.910   0.291
 8160SOL    HW136511   8.427   0.948   0.223
 8160SOL    HW236512   8.404   0.827   0.330
 8161SOL     OW36513   8.952   1.607   0.044
 8161SOL    HW136514   8.860   1.644   0.051
 8161SOL    HW236515   8.990   1.627  -0.046
 8162SOL     OW36516   9.062   1.292   1.289
 8162SOL    HW136517   9.122   1.295   1.369
 8162SOL    HW236518   8.987   1.356   1.302
 8163SOL     OW36519   8.487   1.098   0.696
 8163SOL    HW136520   8.417   1.051   0.750
 8163SOL    HW236521   8.546   1.030   0.653
 8164SOL     OW36522   8.462   0.236   0.971
 8164SOL    HW136523   8.454   0.200   0.878
 8164SOL    HW236524   8.460   0.160   1.036
 8165SOL     OW36525   8.038   1.487   0.491
 8165SOL    HW136526   8.080   1.429   0.421
 8165SOL    HW236527   7.994   1.566   0.447
 8166SOL     OW36528   7.703   1.348   0.290
 8166SOL    HW136529   7.607   1.349   0.263
 8166SOL    HW236530   7.715   1.401   0.374
 8167SOL     OW36531   8.631   1.335   0.119
 8167SOL    HW136532   8.532   1.324   0.121
 8167SOL    HW236533   8.665   1.350   0.212
 8168SOL     OW36534   8.941   1.767   0.959
 8168SOL    HW136535   8.974   1.831   0.890
 8168SOL    HW236536   9.007   1.761   1.034
 8169SOL     OW36537   8.164   0.565   1.708
 8169SOL    HW136538   8.183   0.630   1.782
 8169SOL    HW236539   8.224   0.485   1.717
 8170SOL     OW36540   9.122   0.883   1.254
 8170SOL    HW136541   9.095   0.794   1.217
 8170SOL    HW236542   9.123   0.951   1.181
 8171SOL     OW36543   8.673   0.325   0.449
 8171SOL    HW136544   8.738   0.251   0.438
 8171SOL    HW236545   8.693   0.375   0.533
 8172SOL     OW36546   8.042   0.745   0.652
 8172SOL    HW136547   8.092   0.830   0.633
 8172SOL    HW236548   7.954   0.747   0.604
 8173SOL     OW36549   8.307   1.374   0.016
 8173SOL    HW136550   8.261   1.389   0.104
 8173SOL    HW236551   8.351   1.459  -0.014
 8174SOL     OW36552   8.109   1.790   0.953
 8174SOL    HW136553   8.063   1.878   0.940
 8174SOL    HW236554   8.208   1.802   0.946
 8175SOL     OW36555   8.307   0.956   0.861
 8175SOL    HW136556   8.361   0.887   0.909
 8175SOL    HW236557   8.275   1.025   0.927
 8176SOL     OW36558   8.531   0.984   0.087
 8176SOL    HW136559   8.508   1.037   0.005
 8176SOL    HW236560   8.612   0.928   0.068
 8177SOL     OW36561   7.527   1.240   0.653
 8177SOL    HW136562   7.526   1.193   0.741
 8177SOL    HW236563   7.609   1.212   0.602
 8178SOL     OW36564   9.272   0.192   1.227
 8178SOL    HW136565   9.268   0.102   1.271
 8178SOL    HW236566   9.275   0.181   1.128
 8179SOL     OW36567   7.876   0.424   0.520
 8179SOL    HW136568   7.906   0.352   0.458
 8179SOL    HW236569   7.837   0.384   0.603
 8180SOL     OW36570   7.765   0.547   1.280
 8180SOL    HW136571   7.803   0.488   1.352
 8180SOL    HW236572   7.805   0.521   1.192
 8181SOL     OW36573   8.260   1.586   0.687
 8181SOL    HW136574   8.292   1.596   0.593
 8181SOL    HW236575   8.181   1.524   0.689
 8182SOL     OW36576   8.449   0.034   1.154
 8182SOL    HW136577   8.386  -0.038   1.123
 8182SOL    HW236578   8.542  -0.002   1.154
 8183SOL     OW36579   8.218   1.330   0.301
 8183SOL    HW136580   8.172   1.243   0.318
 8183SOL    HW236581   8.309   1.327   0.342
 8184SOL     OW36582   8.800   0.052   0.168
 8184SOL    HW136583   8.835   0.011   0.084
 8184SOL    HW236584   8.710   0.014   0.188
 8185SOL     OW36585   9.041   0.221   0.882
 8185SOL    HW136586   8.957   0.220   0.936
 8185SOL    HW236587   9.043   0.304   0.826
 8186SOL     OW36588   7.487   1.077   0.300
 8186SOL    HW136589   7.586   1.066   0.291
 8186SOL    HW236590   7.447   0.991   0.332
 8187SOL     OW36591   8.323   1.646   0.337
 8187SOL    HW136592   8.246   1.611   0.283
 8187SOL    HW236593   8.291   1.717   0.399
 8188SOL     OW36594   7.467   0.368   2.509
 8188SOL    HW136595   7.385   0.411   2.548
 8188SOL    HW236596   7.439   0.295   2.446
 8189SOL     OW36597   8.298   0.798   3.685
 8189SOL    HW136598   8.294   0.874   3.750
 8189SOL    HW236599   8.320   0.834   3.594
 8190SOL     OW36600   8.134   1.161   3.665
 8190SOL    HW136601   8.194   1.240   3.679
 8190SOL    HW236602   8.048   1.192   3.624
 8191SOL     OW36603   7.886   0.392   3.361
 8191SOL    HW136604   7.968   0.336   3.370
 8191SOL    HW236605   7.805   0.334   3.365
 8192SOL     OW36606   8.575   1.341   3.552
 8192SOL    HW136607   8.622   1.341   3.640
 8192SOL    HW236608   8.527   1.254   3.541
 8193SOL     OW36609   7.678   1.434   2.400
 8193SOL    HW136610   7.652   1.530   2.400
 8193SOL    HW236611   7.607   1.380   2.445
 8194SOL     OW36612   7.688   1.091   2.748
 8194SOL    HW136613   7.702   1.007   2.800
 8194SOL    HW236614   7.633   1.155   2.803
 8195SOL     OW36615   8.068   1.786   3.301
 8195SOL    HW136616   7.976   1.769   3.336
 8195SOL    HW236617   8.096   1.878   3.327
 8196SOL     OW36618   7.475   1.596   1.979
 8196SOL    HW136619   7.456   1.500   2.000
 8196SOL    HW236620   7.442   1.654   2.054
 8197SOL     OW36621   7.561   0.737   3.459
 8197SOL    HW136622   7.649   0.724   3.504
 8197SOL    HW236623   7.548   0.834   3.437
 8198SOL     OW36624   8.741   1.228   3.285
 8198SOL    HW136625   8.778   1.155   3.227
 8198SOL    HW236626   8.793   1.233   3.370
 8199SOL     OW36627   8.257   0.004   2.364
 8199SOL    HW136628   8.297   0.095   2.355
 8199SOL    HW236629   8.157   0.012   2.370
 8200SOL     OW36630   7.765   0.251   3.663
 8200SOL    HW136631   7.836   0.322   3.669
 8200SOL    HW236632   7.677   0.290   3.691
 8201SOL     OW36633   8.046   0.729   2.132
 8201SOL    HW136634   8.070   0.798   2.064
 8201SOL    HW236635   7.968   0.762   2.186
 8202SOL     OW36636   8.255   0.605   3.327
 8202SOL    HW136637   8.208   0.602   3.416
 8202SOL    HW236638   8.204   0.550   3.261
 8203SOL     OW36639   8.842   0.469   3.536
 8203SOL    HW136640   8.822   0.512   3.624
 8203SOL    HW236641   8.920   0.407   3.545
 8204SOL     OW36642   8.439   0.410   3.104
 8204SOL    HW136643   8.362   0.444   3.158
 8204SOL    HW236644   8.405   0.359   3.025
 8205SOL     OW36645   9.167   0.585   3.693
 8205SOL    HW136646   9.141   0.674   3.657
 8205SOL    HW236647   9.165   0.517   3.620
 8206SOL     OW36648   9.243   1.066   2.735
 8206SOL    HW136649   9.181   1.051   2.659
 8206SOL    HW236650   9.191   1.077   2.820
 8207SOL     OW36651   8.559   1.776   2.099
 8207SOL    HW136652   8.499   1.714   2.149
 8207SOL    HW236653   8.590   1.732   2.014
 8208SOL     OW36654   7.650   0.285   3.360
 8208SOL    HW136655   7.570   0.345   3.347
 8208SOL    HW236656   7.640   0.236   3.446
 8209SOL     OW36657   7.912   1.743   2.185
 8209SOL    HW136658   7.945   1.782   2.271
 8209SOL    HW236659   7.988   1.736   2.120
 8210SOL     OW36660   7.987   0.064   2.374
 8210SOL    HW136661   7.906   0.065   2.432
 8210SOL    HW236662   7.990   0.147   2.319
 8211SOL     OW36663   8.524   0.683   3.326
 8211SOL    HW136664   8.444   0.622   3.329
 8211SOL    HW236665   8.605   0.630   3.302
 8212SOL     OW36666   8.675   1.570   2.655
 8212SOL    HW136667   8.696   1.644   2.590
 8212SOL    HW236668   8.743   1.570   2.728
 8213SOL     OW36669   7.526   0.556   3.248
 8213SOL    HW136670   7.618   0.555   3.207
 8213SOL    HW236671   7.520   0.630   3.315
 8214SOL     OW36672   9.202   1.223   3.450
 8214SOL    HW136673   9.293   1.184   3.437
 8214SOL    HW236674   9.210   1.319   3.474
 8215SOL     OW36675   7.858   0.813   3.113
 8215SOL    HW136676   7.944   0.825   3.163
 8215SOL    HW236677   7.816   0.726   3.140
 8216SOL     OW36678   7.512   1.564   3.193
 8216SOL    HW136679   7.466   1.646   3.159
 8216SOL    HW236680   7.610   1.583   3.202
 8217SOL     OW36681   8.720   1.445   3.004
 8217SOL    HW136682   8.767   1.458   3.091
 8217SOL    HW236683   8.654   1.371   3.013
 8218SOL     OW36684   7.802   1.510   3.191
 8218SOL    HW136685   7.781   1.466   3.104
 8218SOL    HW236686   7.899   1.536   3.194
 8219SOL     OW36687   7.850   0.751   3.460
 8219SOL    HW136688   7.918   0.806   3.413
 8219SOL    HW236689   7.890   0.663   3.487
 8220SOL     OW36690   9.035   0.779   3.532
 8220SOL    HW136691   8.943   0.817   3.527
 8220SOL    HW236692   9.095   0.826   3.467
 8221SOL     OW36693   9.176   0.935   3.716
 8221SOL    HW136694   9.130   0.928   3.627
 8221SOL    HW236695   9.114   0.979   3.782
 8222SOL     OW36696   8.516   1.333   2.711
 8222SOL    HW136697   8.523   1.249   2.656
 8222SOL    HW236698   8.578   1.402   2.675
 8223SOL     OW36699   7.767   0.810   2.811
 8223SOL    HW136700   7.860   0.846   2.816
 8223SOL    HW236701   7.761   0.725   2.863
 8224SOL     OW36702   7.787   0.509   2.868
 8224SOL    HW136703   7.735   0.426   2.851
 8224SOL    HW236704   7.864   0.514   2.804
 8225SOL     OW36705   8.586   0.380   3.540
 8225SOL    HW136706   8.541   0.443   3.604
 8225SOL    HW236707   8.679   0.411   3.523
 8226SOL     OW36708   8.608   0.207   3.339
 8226SOL    HW136709   8.608   0.271   3.416
 8226SOL    HW236710   8.636   0.255   3.256
 8227SOL     OW36711   7.456   1.326   2.062
 8227SOL    HW136712   7.363   1.347   2.031
 8227SOL    HW236713   7.466   1.227   2.075
 8228SOL     OW36714   7.952   1.568   2.772
 8228SOL    HW136715   8.018   1.642   2.781
 8228SOL    HW236716   7.996   1.489   2.730
 8229SOL     OW36717   8.450   0.796   3.100
 8229SOL    HW136718   8.491   0.764   3.186
 8229SOL    HW236719   8.354   0.769   3.097
 8230SOL     OW36720   7.488   0.544   2.976
 8230SOL    HW136721   7.573   0.511   2.935
 8230SOL    HW236722   7.501   0.559   3.074
 8231SOL     OW36723   8.817   0.950   3.522
 8231SOL    HW136724   8.856   1.039   3.542
 8231SOL    HW236725   8.827   0.930   3.425
 8232SOL     OW36726   8.119   0.464   3.131
 8232SOL    HW136727   8.085   0.375   3.101
 8232SOL    HW236728   8.145   0.518   3.051
 8233SOL     OW36729   7.921   0.500   2.053
 8233SOL    HW136730   7.982   0.580   2.057
 8233SOL    HW236731   7.826   0.531   2.060
 8234SOL     OW36732   7.578   1.794   3.713
 8234SOL    HW136733   7.537   1.720   3.766
 8234SOL    HW236734   7.642   1.845   3.771
 8235SOL     OW36735   8.120   1.616   2.016
 8235SOL    HW136736   8.129   1.626   1.917
 8235SOL    HW236737   8.080   1.527   2.037
 8236SOL     OW36738   7.820   1.288   3.352
 8236SOL    HW136739   7.807   1.381   3.318
 8236SOL    HW236740   7.736   1.236   3.339
 8237SOL     OW36741   9.062   1.292   3.151
 8237SOL    HW136742   9.122   1.295   3.231
 8237SOL    HW236743   8.987   1.356   3.164
 8238SOL     OW36744   8.462   0.236   2.833
 8238SOL    HW136745   8.454   0.200   2.740
 8238SOL    HW236746   8.460   0.160   2.898
 8239SOL     OW36747   8.631   1.335   1.981
 8239SOL    HW136748   8.532   1.324   1.983
 8239SOL    HW236749   8.665   1.350   2.074
 8240SOL     OW36750   8.941   1.767   2.821
 8240SOL    HW136751   8.974   1.831   2.752
 8240SOL    HW236752   9.007   1.761   2.896
 8241SOL     OW36753   9.225   0.342   3.504
 8241SOL    HW136754   9.208   0.373   3.410
 8241SOL    HW236755   9.141   0.305   3.542
 8242SOL     OW36756   9.309   1.569   2.713
 8242SOL    HW136757   9.238   1.557   2.643
 8242SOL    HW236758   9.310   1.490   2.773
 8243SOL     OW36759   7.669   1.314   3.706
 8243SOL    HW136760   7.604   1.241   3.685
 8243SOL    HW236761   7.673   1.328   3.804
 8244SOL     OW36762   8.066   1.567   3.146
 8244SOL    HW136763   8.061   1.649   3.203
 8244SOL    HW236764   8.155   1.564   3.101
 8245SOL     OW36765   9.041   0.221   2.744
 8245SOL    HW136766   8.957   0.220   2.798
 8245SOL    HW236767   9.043   0.304   2.688
 8246SOL     OW36768   7.467   0.368   4.371
 8246SOL    HW136769   7.385   0.411   4.410
 8246SOL    HW236770   7.439   0.295   4.308
 8247SOL     OW36771   8.216   1.144   4.747
 8247SOL    HW136772   8.138   1.161   4.807
 8247SOL    HW236773   8.250   1.231   4.711
 8248SOL     OW36774   8.298   0.798   5.547
 8248SOL    HW136775   8.294   0.874   5.612
 8248SOL    HW236776   8.320   0.834   5.456
 8249SOL     OW36777   8.133   1.012   4.389
 8249SOL    HW136778   8.202   0.996   4.459
 8249SOL    HW236779   8.060   1.069   4.427
 8250SOL     OW36780   8.134   1.161   5.527
 8250SOL    HW136781   8.194   1.240   5.541
 8250SOL    HW236782   8.048   1.192   5.486
 8251SOL     OW36783   7.679   1.713   4.207
 8251SOL    HW136784   7.713   1.790   4.261
 8251SOL    HW236785   7.723   1.713   4.117
 8252SOL     OW36786   7.688   1.091   4.610
 8252SOL    HW136787   7.702   1.007   4.662
 8252SOL    HW236788   7.633   1.155   4.665
 8253SOL     OW36789   8.061   1.365   4.450
 8253SOL    HW136790   8.012   1.278   4.459
 8253SOL    HW236791   8.038   1.408   4.363
 8254SOL     OW36792   8.741   1.228   5.147
 8254SOL    HW136793   8.778   1.155   5.089
 8254SOL    HW236794   8.793   1.233   5.232
 8255SOL     OW36795   8.973   0.999   3.914
 8255SOL    HW136796   8.910   0.923   3.927
 8255SOL    HW236797   9.021   1.017   4.000
 8256SOL     OW36798   8.635   1.792   5.340
 8256SOL    HW136799   8.659   1.852   5.264
 8256SOL    HW236800   8.642   1.697   5.310
 8257SOL     OW36801   7.765   0.251   5.525
 8257SOL    HW136802   7.836   0.322   5.531
 8257SOL    HW236803   7.677   0.290   5.553
 8258SOL     OW36804   8.914   1.417   4.677
 8258SOL    HW136805   8.855   1.423   4.757
 8258SOL    HW236806   8.899   1.329   4.631
 8259SOL     OW36807   8.255   0.605   5.189
 8259SOL    HW136808   8.208   0.602   5.278
 8259SOL    HW236809   8.204   0.550   5.123
 8260SOL     OW36810   8.421   0.890   5.296
 8260SOL    HW136811   8.467   0.806   5.267
 8260SOL    HW236812   8.365   0.924   5.221
 8261SOL     OW36813   8.489   0.701   4.153
 8261SOL    HW136814   8.515   0.697   4.249
 8261SOL    HW236815   8.404   0.650   4.139
 8262SOL     OW36816   7.524   0.811   4.513
 8262SOL    HW136817   7.623   0.799   4.522
 8262SOL    HW236818   7.500   0.906   4.534
 8263SOL     OW36819   8.313   0.348   3.919
 8263SOL    HW136820   8.372   0.411   3.870
 8263SOL    HW236821   8.332   0.254   3.890
 8264SOL     OW36822   7.799   1.801   4.577
 8264SOL    HW136823   7.849   1.715   4.583
 8264SOL    HW236824   7.864   1.878   4.574
 8265SOL     OW36825   7.909   1.266   5.451
 8265SOL    HW136826   7.859   1.267   5.365
 8265SOL    HW236827   7.846   1.248   5.527
 8266SOL     OW36828   7.650   0.285   5.222
 8266SOL    HW136829   7.570   0.345   5.209
 8266SOL    HW236830   7.640   0.236   5.308
 8267SOL     OW36831   7.912   1.743   4.047
 8267SOL    HW136832   7.945   1.782   4.133
 8267SOL    HW236833   7.988   1.736   3.982
 8268SOL     OW36834   8.848   0.107   4.150
 8268SOL    HW136835   8.824   0.070   4.060
 8268SOL    HW236836   8.947   0.123   4.154
 8269SOL     OW36837   8.388   1.698   4.628
 8269SOL    HW136838   8.468   1.641   4.649
 8269SOL    HW236839   8.339   1.658   4.551
 8270SOL     OW36840   7.830   0.700   4.204
 8270SOL    HW136841   7.875   0.610   4.201
 8270SOL    HW236842   7.736   0.689   4.237
 8271SOL     OW36843   8.675   1.570   4.517
 8271SOL    HW136844   8.696   1.644   4.452
 8271SOL    HW236845   8.743   1.570   4.590
 8272SOL     OW36846   7.907   1.152   4.465
 8272SOL    HW136847   7.836   1.125   4.530
 8272SOL    HW236848   7.881   1.124   4.372
 8273SOL     OW36849   7.526   0.556   5.110
 8273SOL    HW136850   7.618   0.555   5.069
 8273SOL    HW236851   7.520   0.630   5.177
 8274SOL     OW36852   8.838   0.575   3.802
 8274SOL    HW136853   8.784   0.554   3.883
 8274SOL    HW236854   8.929   0.534   3.811
 8275SOL     OW36855   7.975   0.256   4.052
 8275SOL    HW136856   8.002   0.197   3.977
 8275SOL    HW236857   7.975   0.351   4.021
 8276SOL     OW36858   9.202   1.223   5.312
 8276SOL    HW136859   9.293   1.184   5.299
 8276SOL    HW236860   9.210   1.319   5.336
 8277SOL     OW36861   8.512   1.347   5.064
 8277SOL    HW136862   8.432   1.324   5.119
 8277SOL    HW236863   8.595   1.321   5.113
 8278SOL     OW36864   8.428   1.116   5.443
 8278SOL    HW136865   8.329   1.122   5.453
 8278SOL    HW236866   8.451   1.036   5.387
 8279SOL     OW36867   8.153   1.050   4.092
 8279SOL    HW136868   8.139   1.057   4.191
 8279SOL    HW236869   8.237   0.999   4.074
 8280SOL     OW36870   7.858   0.813   4.975
 8280SOL    HW136871   7.944   0.825   5.025
 8280SOL    HW236872   7.816   0.726   5.002
 8281SOL     OW36873   7.512   1.564   5.055
 8281SOL    HW136874   7.466   1.646   5.021
 8281SOL    HW236875   7.610   1.583   5.064
 8282SOL     OW36876   7.815   1.100   4.225
 8282SOL    HW136877   7.808   1.183   4.169
 8282SOL    HW236878   7.819   1.020   4.165
 8283SOL     OW36879   8.720   1.445   4.866
 8283SOL    HW136880   8.767   1.458   4.953
 8283SOL    HW236881   8.654   1.371   4.875
 8284SOL     OW36882   8.461   0.105   5.494
 8284SOL    HW136883   8.467   0.190   5.442
 8284SOL    HW236884   8.493   0.029   5.437
 8285SOL     OW36885   7.952   0.050   5.464
 8285SOL    HW136886   7.910  -0.007   5.394
 8285SOL    HW236887   7.886   0.119   5.496
 8286SOL     OW36888   8.751   0.838   3.766
 8286SOL    HW136889   8.785   0.745   3.781
 8286SOL    HW236890   8.769   0.865   3.671
 8287SOL     OW36891   7.787   0.509   4.730
 8287SOL    HW136892   7.735   0.426   4.713
 8287SOL    HW236893   7.864   0.514   4.666
 8288SOL     OW36894   8.817   0.950   5.384
 8288SOL    HW136895   8.856   1.039   5.404
 8288SOL    HW236896   8.827   0.930   5.287
 8289SOL     OW36897   7.700   1.564   5.468
 8289SOL    HW136898   7.670   1.621   5.544
 8289SOL    HW236899   7.693   1.467   5.494
 8290SOL     OW36900   7.921   0.500   3.915
 8290SOL    HW136901   7.982   0.580   3.919
 8290SOL    HW236902   7.826   0.531   3.922
 8291SOL     OW36903   8.750   0.855   4.033
 8291SOL    HW136904   8.664   0.824   4.075
 8291SOL    HW236905   8.746   0.841   3.934
 8292SOL     OW36906   8.728   0.927   4.396
 8292SOL    HW136907   8.788   0.846   4.398
 8292SOL    HW236908   8.768   0.996   4.336
 8293SOL     OW36909   8.270   1.002   5.096
 8293SOL    HW136910   8.310   1.001   5.004
 8293SOL    HW236911   8.280   1.094   5.136
 8294SOL     OW36912   8.487   1.098   4.420
 8294SOL    HW136913   8.417   1.051   4.474
 8294SOL    HW236914   8.546   1.030   4.377
 8295SOL     OW36915   8.038   1.487   4.215
 8295SOL    HW136916   8.080   1.429   4.145
 8295SOL    HW236917   7.994   1.566   4.171
 8296SOL     OW36918   7.703   1.348   4.014
 8296SOL    HW136919   7.607   1.349   3.987
 8296SOL    HW236920   7.715   1.401   4.098
 8297SOL     OW36921   7.553   1.013   5.450
 8297SOL    HW136922   7.476   0.980   5.504
 8297SOL    HW236923   7.638   0.983   5.492
 8298SOL     OW36924   8.631   1.335   3.843
 8298SOL    HW136925   8.532   1.324   3.845
 8298SOL    HW236926   8.665   1.350   3.936
 8299SOL     OW36927   8.061   0.842   5.155
 8299SOL    HW136928   8.117   0.923   5.138
 8299SOL    HW236929   8.120   0.762   5.158
 8300SOL     OW36930   8.673   0.325   4.173
 8300SOL    HW136931   8.738   0.251   4.162
 8300SOL    HW236932   8.693   0.375   4.257
 8301SOL     OW36933   8.307   1.374   3.740
 8301SOL    HW136934   8.261   1.389   3.828
 8301SOL    HW236935   8.351   1.459   3.710
 8302SOL     OW36936   8.109   1.790   4.677
 8302SOL    HW136937   8.063   1.878   4.664
 8302SOL    HW236938   8.208   1.802   4.670
 8303SOL     OW36939   7.669   1.314   5.568
 8303SOL    HW136940   7.604   1.241   5.547
 8303SOL    HW236941   7.673   1.328   5.666
 8304SOL     OW36942   7.876   0.424   4.244
 8304SOL    HW136943   7.906   0.352   4.182
 8304SOL    HW236944   7.837   0.384   4.327
 8305SOL     OW36945   7.765   0.547   5.004
 8305SOL    HW136946   7.803   0.488   5.076
 8305SOL    HW236947   7.805   0.521   4.916
 8306SOL     OW36948   8.218   1.330   4.025
 8306SOL    HW136949   8.172   1.243   4.042
 8306SOL    HW236950   8.309   1.327   4.066
 8307SOL     OW36951   8.800   0.052   3.892
 8307SOL    HW136952   8.835   0.011   3.808
 8307SOL    HW236953   8.710   0.014   3.912
 8308SOL     OW36954   7.487   1.077   4.024
 8308SOL    HW136955   7.586   1.066   4.015
 8308SOL    HW236956   7.447   0.991   4.056
 8309SOL     OW36957   7.673   0.275   6.582
 8309SOL    HW136958   7.708   0.258   6.674
 8309SOL    HW236959   7.585   0.230   6.570
 8310SOL     OW36960   7.467   0.368   6.233
 8310SOL    HW136961   7.385   0.411   6.272
 8310SOL    HW236962   7.439   0.295   6.170
 8311SOL     OW36963   8.017   1.275   6.751
 8311SOL    HW136964   7.924   1.268   6.714
 8311SOL    HW236965   8.028   1.364   6.795
 8312SOL     OW36966   9.003   1.511   6.289
 8312SOL    HW136967   8.946   1.495   6.370
 8312SOL    HW236968   8.944   1.521   6.209
 8313SOL     OW36969   8.583   0.703   6.303
 8313SOL    HW136970   8.640   0.781   6.278
 8313SOL    HW236971   8.523   0.729   6.379
 8314SOL     OW36972   8.216   1.144   6.609
 8314SOL    HW136973   8.138   1.161   6.669
 8314SOL    HW236974   8.250   1.231   6.573
 8315SOL     OW36975   8.133   1.012   6.251
 8315SOL    HW136976   8.202   0.996   6.321
 8315SOL    HW236977   8.060   1.069   6.289
 8316SOL     OW36978   7.783   1.435   6.647
 8316SOL    HW136979   7.705   1.404   6.594
 8316SOL    HW236980   7.841   1.493   6.590
 8317SOL     OW36981   9.051   0.447   6.323
 8317SOL    HW136982   8.977   0.493   6.273
 8317SOL    HW236983   9.102   0.515   6.376
 8318SOL     OW36984   7.679   1.713   6.069
 8318SOL    HW136985   7.713   1.790   6.123
 8318SOL    HW236986   7.723   1.713   5.979
 8319SOL     OW36987   7.678   1.434   6.124
 8319SOL    HW136988   7.652   1.530   6.124
 8319SOL    HW236989   7.607   1.380   6.169
 8320SOL     OW36990   7.688   1.091   6.472
 8320SOL    HW136991   7.702   1.007   6.524
 8320SOL    HW236992   7.633   1.155   6.527
 8321SOL     OW36993   8.068   1.786   7.025
 8321SOL    HW136994   7.976   1.769   7.060
 8321SOL    HW236995   8.096   1.878   7.051
 8322SOL     OW36996   8.054   0.964   5.709
 8322SOL    HW136997   8.061   1.048   5.655
 8322SOL    HW236998   8.100   0.977   5.797
 8323SOL     OW36999   7.570   0.643   6.149
 8323SOL    HW137000   7.525   0.555   6.166
 8323SOL    HW237001   7.569   0.697   6.233
 8324SOL     OW37002   9.290   1.767   5.945
 8324SOL    HW137003   9.344   1.738   6.025
 8324SOL    HW237004   9.320   1.857   5.916
 8325SOL     OW37005   9.137   0.922   6.198
 8325SOL    HW137006   9.232   0.893   6.206
 8325SOL    HW237007   9.129   0.987   6.123
 8326SOL     OW37008   9.089   1.108   6.018
 8326SOL    HW137009   9.175   1.110   5.966
 8326SOL    HW237010   9.103   1.155   6.106
 8327SOL     OW37011   8.061   1.365   6.312
 8327SOL    HW137012   8.012   1.278   6.321
 8327SOL    HW237013   8.038   1.408   6.225
 8328SOL     OW37014   8.257   0.004   6.088
 8328SOL    HW137015   8.297   0.095   6.079
 8328SOL    HW237016   8.157   0.012   6.094
 8329SOL     OW37017   7.645   0.976   6.850
 8329SOL    HW137018   7.734   0.931   6.836
 8329SOL    HW237019   7.572   0.911   6.831
 8330SOL     OW37020   8.914   1.417   6.539
 8330SOL    HW137021   8.855   1.423   6.619
 8330SOL    HW237022   8.899   1.329   6.493
 8331SOL     OW37023   9.115   1.714   6.158
 8331SOL    HW137024   9.074   1.691   6.070
 8331SOL    HW237025   9.097   1.640   6.223
 8332SOL     OW37026   8.046   0.729   5.856
 8332SOL    HW137027   8.070   0.798   5.788
 8332SOL    HW237028   7.968   0.762   5.910
 8333SOL     OW37029   8.729   0.345   6.530
 8333SOL    HW137030   8.643   0.295   6.517
 8333SOL    HW237031   8.791   0.291   6.586
 8334SOL     OW37032   9.024   1.662   5.893
 8334SOL    HW137033   9.113   1.708   5.896
 8334SOL    HW237034   9.003   1.638   5.798
 8335SOL     OW37035   8.439   0.410   6.828
 8335SOL    HW137036   8.362   0.444   6.882
 8335SOL    HW237037   8.405   0.359   6.749
 8336SOL     OW37038   8.489   0.701   6.015
 8336SOL    HW137039   8.515   0.697   6.111
 8336SOL    HW237040   8.404   0.650   6.001
 8337SOL     OW37041   7.524   0.811   6.375
 8337SOL    HW137042   7.623   0.799   6.384
 8337SOL    HW237043   7.500   0.906   6.396
 8338SOL     OW37044   8.313   0.348   5.781
 8338SOL    HW137045   8.372   0.411   5.732
 8338SOL    HW237046   8.332   0.254   5.752
 8339SOL     OW37047   8.810   1.144   6.131
 8339SOL    HW137048   8.893   1.115   6.083
 8339SOL    HW237049   8.761   1.211   6.075
 8340SOL     OW37050   7.998   0.196   6.471
 8340SOL    HW137051   7.993   0.191   6.571
 8340SOL    HW237052   8.000   0.292   6.442
 8341SOL     OW37053   8.456   1.456   6.063
 8341SOL    HW137054   8.410   1.528   6.011
 8341SOL    HW237055   8.452   1.476   6.161
 8342SOL     OW37056   7.799   1.801   6.439
 8342SOL    HW137057   7.849   1.715   6.445
 8342SOL    HW237058   7.864   1.878   6.436
 8343SOL     OW37059   9.243   1.066   6.459
 8343SOL    HW137060   9.181   1.051   6.383
 8343SOL    HW237061   9.191   1.077   6.544
 8344SOL     OW37062   7.769   0.943   5.828
 8344SOL    HW137063   7.851   0.982   5.786
 8344SOL    HW237064   7.742   0.861   5.779
 8345SOL     OW37065   8.906   0.735   6.314
 8345SOL    HW137066   8.901   0.670   6.389
 8345SOL    HW237067   8.986   0.794   6.327
 8346SOL     OW37068   7.650   0.285   7.084
 8346SOL    HW137069   7.570   0.345   7.071
 8346SOL    HW237070   7.640   0.236   7.170
 8347SOL     OW37071   8.848   0.107   6.012
 8347SOL    HW137072   8.824   0.070   5.922
 8347SOL    HW237073   8.947   0.123   6.016
 8348SOL     OW37074   7.697   1.785   6.827
 8348SOL    HW137075   7.754   1.720   6.877
 8348SOL    HW237076   7.681   1.752   6.734
 8349SOL     OW37077   8.388   1.698   6.490
 8349SOL    HW137078   8.468   1.641   6.511
 8349SOL    HW237079   8.339   1.658   6.413
 8350SOL     OW37080   7.830   0.700   6.066
 8350SOL    HW137081   7.875   0.610   6.063
 8350SOL    HW237082   7.736   0.689   6.099
 8351SOL     OW37083   8.062   0.122   5.703
 8351SOL    HW137084   8.160   0.100   5.710
 8351SOL    HW237085   8.031   0.105   5.610
 8352SOL     OW37086   8.251   1.402   6.510
 8352SOL    HW137087   8.341   1.416   6.468
 8352SOL    HW237088   8.180   1.404   6.439
 8353SOL     OW37089   8.370   0.503   6.485
 8353SOL    HW137090   8.345   0.494   6.389
 8353SOL    HW237091   8.418   0.421   6.516
 8354SOL     OW37092   7.987   0.064   6.098
 8354SOL    HW137093   7.906   0.065   6.156
 8354SOL    HW237094   7.990   0.147   6.043
 8355SOL     OW37095   7.745   0.035   5.757
 8355SOL    HW137096   7.794   0.119   5.736
 8355SOL    HW237097   7.807  -0.030   5.802
 8356SOL     OW37098   8.383   0.236   6.066
 8356SOL    HW137099   8.335   0.277   5.988
 8356SOL    HW237100   8.482   0.234   6.047
 8357SOL     OW37101   8.675   1.570   6.379
 8357SOL    HW137102   8.696   1.644   6.314
 8357SOL    HW237103   8.743   1.570   6.452
 8358SOL     OW37104   7.907   1.152   6.327
 8358SOL    HW137105   7.836   1.125   6.392
 8358SOL    HW237106   7.881   1.124   6.234
 8359SOL     OW37107   8.719   1.797   6.177
 8359SOL    HW137108   8.763   1.861   6.113
 8359SOL    HW237109   8.669   1.849   6.247
 8360SOL     OW37110   8.480   0.549   5.602
 8360SOL    HW137111   8.439   0.631   5.563
 8360SOL    HW237112   8.544   0.575   5.675
 8361SOL     OW37113   8.009   0.222   6.733
 8361SOL    HW137114   8.047   0.138   6.770
 8361SOL    HW237115   7.921   0.241   6.777
 8362SOL     OW37116   8.314   0.454   6.228
 8362SOL    HW137117   8.282   0.526   6.166
 8362SOL    HW237118   8.338   0.373   6.175
 8363SOL     OW37119   8.465   0.039   6.339
 8363SOL    HW137120   8.393   0.044   6.270
 8363SOL    HW237121   8.441  -0.030   6.408
 8364SOL     OW37122   8.877   1.173   6.453
 8364SOL    HW137123   8.822   1.089   6.446
 8364SOL    HW237124   8.903   1.202   6.361
 8365SOL     OW37125   8.914   0.590   6.578
 8365SOL    HW137126   8.884   0.495   6.585
 8365SOL    HW237127   8.987   0.606   6.644
 8366SOL     OW37128   9.112   1.280   6.243
 8366SOL    HW137129   9.211   1.288   6.257
 8366SOL    HW237130   9.067   1.364   6.274
 8367SOL     OW37131   7.975   0.256   5.914
 8367SOL    HW137132   8.002   0.197   5.839
 8367SOL    HW237133   7.975   0.351   5.883
 8368SOL     OW37134   9.202   1.223   7.174
 8368SOL    HW137135   9.293   1.184   7.161
 8368SOL    HW237136   9.210   1.319   7.198
 8369SOL     OW37137   8.559   1.195   6.686
 8369SOL    HW137138   8.519   1.239   6.767
 8369SOL    HW237139   8.518   1.232   6.603
 8370SOL     OW37140   9.086   1.099   6.665
 8370SOL    HW137141   9.091   1.180   6.724
 8370SOL    HW237142   9.000   1.101   6.614
 8371SOL     OW37143   8.153   1.050   5.954
 8371SOL    HW137144   8.139   1.057   6.053
 8371SOL    HW237145   8.237   0.999   5.936
 8372SOL     OW37146   7.858   0.813   6.837
 8372SOL    HW137147   7.944   0.825   6.887
 8372SOL    HW237148   7.816   0.726   6.864
 8373SOL     OW37149   8.722   0.386   6.848
 8373SOL    HW137150   8.743   0.460   6.912
 8373SOL    HW237151   8.633   0.403   6.805
 8374SOL     OW37152   7.815   1.100   6.087
 8374SOL    HW137153   7.808   1.183   6.031
 8374SOL    HW237154   7.819   1.020   6.027
 8375SOL     OW37155   8.014   0.537   6.451
 8375SOL    HW137156   8.026   0.603   6.377
 8375SOL    HW237157   8.060   0.571   6.534
 8376SOL     OW37158   8.700   1.348   5.974
 8376SOL    HW137159   8.750   1.425   6.014
 8376SOL    HW237160   8.605   1.350   6.006
 8377SOL     OW37161   8.720   1.445   6.728
 8377SOL    HW137162   8.767   1.458   6.815
 8377SOL    HW237163   8.654   1.371   6.737
 8378SOL     OW37164   7.802   1.510   6.915
 8378SOL    HW137165   7.781   1.466   6.828
 8378SOL    HW237166   7.899   1.536   6.918
 8379SOL     OW37167   8.021   0.870   6.615
 8379SOL    HW137168   8.065   0.959   6.606
 8379SOL    HW237169   7.958   0.870   6.692
 8380SOL     OW37170   8.808   0.862   6.631
 8380SOL    HW137171   8.733   0.862   6.565
 8380SOL    HW237172   8.845   0.770   6.640
 8381SOL     OW37173   8.657   0.525   5.861
 8381SOL    HW137174   8.670   0.441   5.915
 8381SOL    HW237175   8.628   0.599   5.921
 8382SOL     OW37176   7.755   0.213   6.817
 8382SOL    HW137177   7.732   0.250   6.907
 8382SOL    HW237178   7.725   0.118   6.811
 8383SOL     OW37179   7.485   1.310   6.868
 8383SOL    HW137180   7.538   1.261   6.936
 8383SOL    HW237181   7.507   1.408   6.873
 8384SOL     OW37182   8.180   0.634   6.650
 8384SOL    HW137183   8.239   0.608   6.574
 8384SOL    HW237184   8.152   0.730   6.639
 8385SOL     OW37185   7.755   0.063   6.204
 8385SOL    HW137186   7.744   0.157   6.237
 8385SOL    HW237187   7.750   0.000   6.281
 8386SOL     OW37188   9.070   0.367   5.960
 8386SOL    HW137189   9.072   0.291   6.024
 8386SOL    HW237190   9.022   0.444   6.000
 8387SOL     OW37191   8.471   0.766   6.552
 8387SOL    HW137192   8.486   0.787   6.648
 8387SOL    HW237193   8.441   0.671   6.543
 8388SOL     OW37194   8.988   0.274   5.711
 8388SOL    HW137195   8.927   0.199   5.734
 8388SOL    HW237196   9.010   0.326   5.794
 8389SOL     OW37197   8.751   0.838   5.628
 8389SOL    HW137198   8.785   0.745   5.643
 8389SOL    HW237199   8.769   0.865   5.533
 8390SOL     OW37200   8.516   1.333   6.435
 8390SOL    HW137201   8.523   1.249   6.380
 8390SOL    HW237202   8.578   1.402   6.399
 8391SOL     OW37203   7.767   0.810   6.535
 8391SOL    HW137204   7.860   0.846   6.540
 8391SOL    HW237205   7.761   0.725   6.587
 8392SOL     OW37206   7.787   0.509   6.592
 8392SOL    HW137207   7.735   0.426   6.575
 8392SOL    HW237208   7.864   0.514   6.528
 8393SOL     OW37209   8.608   0.207   7.063
 8393SOL    HW137210   8.608   0.271   7.140
 8393SOL    HW237211   8.636   0.255   6.980
 8394SOL     OW37212   7.456   1.326   5.786
 8394SOL    HW137213   7.363   1.347   5.755
 8394SOL    HW237214   7.466   1.227   5.799
 8395SOL     OW37215   7.536   1.801   6.513
 8395SOL    HW137216   7.494   1.715   6.486
 8395SOL    HW237217   7.630   1.804   6.479
 8396SOL     OW37218   7.952   1.568   6.496
 8396SOL    HW137219   8.018   1.642   6.505
 8396SOL    HW237220   7.996   1.489   6.454
 8397SOL     OW37221   8.450   0.796   6.824
 8397SOL    HW137222   8.491   0.764   6.910
 8397SOL    HW237223   8.354   0.769   6.821
 8398SOL     OW37224   7.488   0.544   6.700
 8398SOL    HW137225   7.573   0.511   6.659
 8398SOL    HW237226   7.501   0.559   6.798
 8399SOL     OW37227   8.263   0.572   5.911
 8399SOL    HW137228   8.270   0.483   5.865
 8399SOL    HW237229   8.169   0.606   5.903
 8400SOL     OW37230   9.105   0.604   6.792
 8400SOL    HW137231   9.067   0.535   6.854
 8400SOL    HW237232   9.187   0.568   6.748
 8401SOL     OW37233   8.119   0.464   6.855
 8401SOL    HW137234   8.085   0.375   6.825
 8401SOL    HW237235   8.145   0.518   6.775
 8402SOL     OW37236   8.378   1.678   7.051
 8402SOL    HW137237   8.354   1.660   6.956
 8402SOL    HW237238   8.408   1.772   7.061
 8403SOL     OW37239   7.921   0.500   5.777
 8403SOL    HW137240   7.982   0.580   5.781
 8403SOL    HW237241   7.826   0.531   5.784
 8404SOL     OW37242   8.795   1.059   6.820
 8404SOL    HW137243   8.819   0.996   6.746
 8404SOL    HW237244   8.705   1.099   6.802
 8405SOL     OW37245   8.750   0.855   5.895
 8405SOL    HW137246   8.664   0.824   5.937
 8405SOL    HW237247   8.746   0.841   5.796
 8406SOL     OW37248   9.207   1.747   6.740
 8406SOL    HW137249   9.268   1.777   6.667
 8406SOL    HW237250   9.169   1.658   6.718
 8407SOL     OW37251   8.700   1.731   6.714
 8407SOL    HW137252   8.784   1.736   6.660
 8407SOL    HW237253   8.677   1.635   6.732
 8408SOL     OW37254   7.531   1.258   6.608
 8408SOL    HW137255   7.526   1.257   6.708
 8408SOL    HW237256   7.448   1.217   6.570
 8409SOL     OW37257   9.174   0.135   6.109
 8409SOL    HW137258   9.247   0.118   6.042
 8409SOL    HW237259   9.143   0.048   6.147
 8410SOL     OW37260   8.836   1.573   6.063
 8410SOL    HW137261   8.903   1.585   5.989
 8410SOL    HW237262   8.796   1.662   6.086
 8411SOL     OW37263   8.728   0.927   6.258
 8411SOL    HW137264   8.788   0.846   6.260
 8411SOL    HW237265   8.768   0.996   6.198
 8412SOL     OW37266   9.098   1.720   6.980
 8412SOL    HW137267   9.151   1.730   6.896
 8412SOL    HW237268   9.071   1.810   7.014
 8413SOL     OW37269   9.289   0.175   6.549
 8413SOL    HW137270   9.328   0.090   6.513
 8413SOL    HW237271   9.191   0.177   6.530
 8414SOL     OW37272   7.711   0.326   6.306
 8414SOL    HW137273   7.632   0.377   6.272
 8414SOL    HW237274   7.702   0.311   6.404
 8415SOL     OW37275   8.270   1.002   6.958
 8415SOL    HW137276   8.310   1.001   6.866
 8415SOL    HW237277   8.280   1.094   6.998
 8416SOL     OW37278   8.364   0.910   5.877
 8416SOL    HW137279   8.427   0.948   5.809
 8416SOL    HW237280   8.404   0.827   5.916
 8417SOL     OW37281   8.952   1.607   5.630
 8417SOL    HW137282   8.860   1.644   5.637
 8417SOL    HW237283   8.990   1.627   5.540
 8418SOL     OW37284   8.487   1.098   6.282
 8418SOL    HW137285   8.417   1.051   6.336
 8418SOL    HW237286   8.546   1.030   6.239
 8419SOL     OW37287   8.462   0.236   6.557
 8419SOL    HW137288   8.454   0.200   6.464
 8419SOL    HW237289   8.460   0.160   6.622
 8420SOL     OW37290   8.038   1.487   6.077
 8420SOL    HW137291   8.080   1.429   6.007
 8420SOL    HW237292   7.994   1.566   6.033
 8421SOL     OW37293   9.157   0.385   6.967
 8421SOL    HW137294   9.230   0.454   6.971
 8421SOL    HW237295   9.185   0.310   6.908
 8422SOL     OW37296   7.520   0.166   5.904
 8422SOL    HW137297   7.503   0.249   5.850
 8422SOL    HW237298   7.610   0.129   5.882
 8423SOL     OW37299   8.631   1.335   5.705
 8423SOL    HW137300   8.532   1.324   5.707
 8423SOL    HW237301   8.665   1.350   5.798
 8424SOL     OW37302   8.941   1.767   6.545
 8424SOL    HW137303   8.974   1.831   6.476
 8424SOL    HW237304   9.007   1.761   6.620
 8425SOL     OW37305   8.898   1.220   7.219
 8425SOL    HW137306   8.889   1.210   7.318
 8425SOL    HW237307   8.994   1.213   7.193
 8426SOL     OW37308   9.122   0.883   6.840
 8426SOL    HW137309   9.095   0.794   6.803
 8426SOL    HW237310   9.123   0.951   6.767
 8427SOL     OW37311   8.673   0.325   6.035
 8427SOL    HW137312   8.738   0.251   6.024
 8427SOL    HW237313   8.693   0.375   6.119
 8428SOL     OW37314   8.042   0.745   6.238
 8428SOL    HW137315   8.092   0.830   6.219
 8428SOL    HW237316   7.954   0.747   6.190
 8429SOL     OW37317   9.178   0.934   7.103
 8429SOL    HW137318   9.216   1.025   7.118
 8429SOL    HW237319   9.170   0.917   7.004
 8430SOL     OW37320   8.109   1.790   6.539
 8430SOL    HW137321   8.063   1.878   6.526
 8430SOL    HW237322   8.208   1.802   6.532
 8431SOL     OW37323   8.307   0.956   6.447
 8431SOL    HW137324   8.361   0.887   6.495
 8431SOL    HW237325   8.275   1.025   6.513
 8432SOL     OW37326   8.531   0.984   5.673
 8432SOL    HW137327   8.508   1.037   5.591
 8432SOL    HW237328   8.612   0.928   5.654
 8433SOL     OW37329   9.309   1.569   6.437
 8433SOL    HW137330   9.238   1.557   6.367
 8433SOL    HW237331   9.310   1.490   6.497
 8434SOL     OW37332   7.527   1.240   6.239
 8434SOL    HW137333   7.526   1.193   6.327
 8434SOL    HW237334   7.609   1.212   6.188
 8435SOL     OW37335   9.272   0.192   6.813
 8435SOL    HW137336   9.268   0.102   6.857
 8435SOL    HW237337   9.275   0.181   6.714
 8436SOL     OW37338   7.876   0.424   6.106
 8436SOL    HW137339   7.906   0.352   6.044
 8436SOL    HW237340   7.837   0.384   6.189
 8437SOL     OW37341   9.153   1.487   6.690
 8437SOL    HW137342   9.060   1.462   6.663
 8437SOL    HW237343   9.179   1.437   6.772
 8438SOL     OW37344   8.260   1.586   6.273
 8438SOL    HW137345   8.292   1.596   6.179
 8438SOL    HW237346   8.181   1.524   6.275
 8439SOL     OW37347   8.872   0.214   6.698
 8439SOL    HW137348   8.924   0.149   6.753
 8439SOL    HW237349   8.823   0.277   6.759
 8440SOL     OW37350   8.449   0.034   6.740
 8440SOL    HW137351   8.386  -0.038   6.709
 8440SOL    HW237352   8.542  -0.002   6.740
 8441SOL     OW37353   8.218   1.330   5.887
 8441SOL    HW137354   8.172   1.243   5.904
 8441SOL    HW237355   8.309   1.327   5.928
 8442SOL     OW37356   8.800   0.052   5.754
 8442SOL    HW137357   8.835   0.011   5.670
 8442SOL    HW237358   8.710   0.014   5.774
 8443SOL     OW37359   8.748   0.453   6.277
 8443SOL    HW137360   8.689   0.533   6.281
 8443SOL    HW237361   8.763   0.418   6.370
 8444SOL     OW37362   9.041   0.221   6.468
 8444SOL    HW137363   8.957   0.220   6.522
 8444SOL    HW237364   9.043   0.304   6.412
 8445SOL     OW37365   7.487   1.077   5.886
 8445SOL    HW137366   7.586   1.066   5.877
 8445SOL    HW237367   7.447   0.991   5.918
 8446SOL     OW37368   8.323   1.646   5.923
 8446SOL    HW137369   8.246   1.611   5.869
 8446SOL    HW237370   8.291   1.717   5.985
 8447SOL     OW37371   7.678   2.490   0.113
 8447SOL    HW137372   7.585   2.488   0.150
 8447SOL    HW237373   7.679   2.451   0.021
 8448SOL     OW37374   7.467   2.230   0.647
 8448SOL    HW137375   7.385   2.273   0.686
 8448SOL    HW237376   7.439   2.157   0.584
 8449SOL     OW37377   8.017   3.137   1.165
 8449SOL    HW137378   7.924   3.130   1.128
 8449SOL    HW237379   8.028   3.226   1.209
 8450SOL     OW37380   9.003   3.373   0.703
 8450SOL    HW137381   8.946   3.357   0.784
 8450SOL    HW237382   8.944   3.383   0.623
 8451SOL     OW37383   8.583   2.565   0.717
 8451SOL    HW137384   8.640   2.643   0.692
 8451SOL    HW237385   8.523   2.591   0.793
 8452SOL     OW37386   9.203   2.469   0.231
 8452SOL    HW137387   9.191   2.456   0.132
 8452SOL    HW237388   9.173   2.388   0.280
 8453SOL     OW37389   8.216   3.006   1.023
 8453SOL    HW137390   8.138   3.023   1.083
 8453SOL    HW237391   8.250   3.093   0.987
 8454SOL     OW37392   8.133   2.874   0.665
 8454SOL    HW137393   8.202   2.858   0.735
 8454SOL    HW237394   8.060   2.931   0.703
 8455SOL     OW37395   7.783   3.297   1.061
 8455SOL    HW137396   7.705   3.266   1.008
 8455SOL    HW237397   7.841   3.355   1.004
 8456SOL     OW37398   9.051   2.309   0.737
 8456SOL    HW137399   8.977   2.355   0.687
 8456SOL    HW237400   9.102   2.377   0.790
 8457SOL     OW37401   7.679   3.575   0.483
 8457SOL    HW137402   7.713   3.652   0.537
 8457SOL    HW237403   7.723   3.575   0.393
 8458SOL     OW37404   7.678   3.296   0.538
 8458SOL    HW137405   7.652   3.392   0.538
 8458SOL    HW237406   7.607   3.242   0.583
 8459SOL     OW37407   7.688   2.953   0.886
 8459SOL    HW137408   7.702   2.869   0.938
 8459SOL    HW237409   7.633   3.017   0.941
 8460SOL     OW37410   8.068   3.648   1.439
 8460SOL    HW137411   7.976   3.631   1.474
 8460SOL    HW237412   8.096   3.740   1.465
 8461SOL     OW37413   8.054   2.826   0.123
 8461SOL    HW137414   8.061   2.910   0.069
 8461SOL    HW237415   8.100   2.839   0.211
 8462SOL     OW37416   7.570   2.505   0.563
 8462SOL    HW137417   7.525   2.417   0.580
 8462SOL    HW237418   7.569   2.559   0.647
 8463SOL     OW37419   9.290   3.629   0.359
 8463SOL    HW137420   9.344   3.600   0.439
 8463SOL    HW237421   9.320   3.719   0.330
 8464SOL     OW37422   7.475   3.458   0.117
 8464SOL    HW137423   7.456   3.362   0.138
 8464SOL    HW237424   7.442   3.516   0.192
 8465SOL     OW37425   9.137   2.784   0.612
 8465SOL    HW137426   9.232   2.755   0.620
 8465SOL    HW237427   9.129   2.849   0.537
 8466SOL     OW37428   9.089   2.970   0.432
 8466SOL    HW137429   9.175   2.972   0.380
 8466SOL    HW237430   9.103   3.017   0.520
 8467SOL     OW37431   7.561   2.599   1.597
 8467SOL    HW137432   7.649   2.586   1.642
 8467SOL    HW237433   7.548   2.696   1.575
 8468SOL     OW37434   8.061   3.227   0.726
 8468SOL    HW137435   8.012   3.140   0.735
 8468SOL    HW237436   8.038   3.270   0.639
 8469SOL     OW37437   8.257   1.866   0.502
 8469SOL    HW137438   8.297   1.957   0.493
 8469SOL    HW237439   8.157   1.874   0.508
 8470SOL     OW37440   7.645   2.838   1.264
 8470SOL    HW137441   7.734   2.793   1.250
 8470SOL    HW237442   7.572   2.773   1.245
 8471SOL     OW37443   8.973   2.861   0.190
 8471SOL    HW137444   8.910   2.785   0.203
 8471SOL    HW237445   9.021   2.879   0.276
 8472SOL     OW37446   8.914   3.279   0.953
 8472SOL    HW137447   8.855   3.285   1.033
 8472SOL    HW237448   8.899   3.191   0.907
 8473SOL     OW37449   9.115   3.576   0.572
 8473SOL    HW137450   9.074   3.553   0.484
 8473SOL    HW237451   9.097   3.502   0.637
 8474SOL     OW37452   8.046   2.591   0.270
 8474SOL    HW137453   8.070   2.660   0.202
 8474SOL    HW237454   7.968   2.624   0.324
 8475SOL     OW37455   8.729   2.207   0.944
 8475SOL    HW137456   8.643   2.157   0.931
 8475SOL    HW237457   8.791   2.153   1.000
 8476SOL     OW37458   9.024   3.524   0.307
 8476SOL    HW137459   9.113   3.570   0.310
 8476SOL    HW237460   9.003   3.500   0.212
 8477SOL     OW37461   8.255   2.467   1.465
 8477SOL    HW137462   8.208   2.464   1.554
 8477SOL    HW237463   8.204   2.412   1.399
 8478SOL     OW37464   8.842   2.331   1.674
 8478SOL    HW137465   8.822   2.374   1.762
 8478SOL    HW237466   8.920   2.269   1.683
 8479SOL     OW37467   8.421   2.752   1.572
 8479SOL    HW137468   8.467   2.668   1.543
 8479SOL    HW237469   8.365   2.786   1.497
 8480SOL     OW37470   8.439   2.272   1.242
 8480SOL    HW137471   8.362   2.306   1.296
 8480SOL    HW237472   8.405   2.221   1.163
 8481SOL     OW37473   8.489   2.563   0.429
 8481SOL    HW137474   8.515   2.559   0.525
 8481SOL    HW237475   8.404   2.512   0.415
 8482SOL     OW37476   7.524   2.673   0.789
 8482SOL    HW137477   7.623   2.661   0.798
 8482SOL    HW237478   7.500   2.768   0.810
 8483SOL     OW37479   8.313   2.210   0.195
 8483SOL    HW137480   8.372   2.273   0.146
 8483SOL    HW237481   8.332   2.116   0.166
 8484SOL     OW37482   9.167   2.447   1.831
 8484SOL    HW137483   9.141   2.536   1.795
 8484SOL    HW237484   9.165   2.379   1.758
 8485SOL     OW37485   8.810   3.006   0.545
 8485SOL    HW137486   8.893   2.977   0.497
 8485SOL    HW237487   8.761   3.073   0.489
 8486SOL     OW37488   7.998   2.058   0.885
 8486SOL    HW137489   7.993   2.053   0.985
 8486SOL    HW237490   8.000   2.154   0.856
 8487SOL     OW37491   8.456   3.318   0.477
 8487SOL    HW137492   8.410   3.390   0.425
 8487SOL    HW237493   8.452   3.338   0.575
 8488SOL     OW37494   7.799   3.663   0.853
 8488SOL    HW137495   7.849   3.577   0.859
 8488SOL    HW237496   7.864   3.740   0.850
 8489SOL     OW37497   9.243   2.928   0.873
 8489SOL    HW137498   9.181   2.913   0.797
 8489SOL    HW237499   9.191   2.939   0.958
 8490SOL     OW37500   7.769   2.805   0.242
 8490SOL    HW137501   7.851   2.844   0.200
 8490SOL    HW237502   7.742   2.723   0.193
 8491SOL     OW37503   8.906   2.597   0.728
 8491SOL    HW137504   8.901   2.532   0.803
 8491SOL    HW237505   8.986   2.656   0.741
 8492SOL     OW37506   8.559   3.638   0.237
 8492SOL    HW137507   8.499   3.576   0.287
 8492SOL    HW237508   8.590   3.594   0.152
 8493SOL     OW37509   9.080   3.239   0.081
 8493SOL    HW137510   9.048   3.333   0.071
 8493SOL    HW237511   9.004   3.176   0.069
 8494SOL     OW37512   7.912   3.605   0.323
 8494SOL    HW137513   7.945   3.644   0.409
 8494SOL    HW237514   7.988   3.598   0.258
 8495SOL     OW37515   8.848   1.969   0.426
 8495SOL    HW137516   8.824   1.932   0.336
 8495SOL    HW237517   8.947   1.985   0.430
 8496SOL     OW37518   7.697   3.647   1.241
 8496SOL    HW137519   7.754   3.582   1.291
 8496SOL    HW237520   7.681   3.614   1.148
 8497SOL     OW37521   8.388   3.560   0.904
 8497SOL    HW137522   8.468   3.503   0.925
 8497SOL    HW237523   8.339   3.520   0.827
 8498SOL     OW37524   7.830   2.562   0.480
 8498SOL    HW137525   7.875   2.472   0.477
 8498SOL    HW237526   7.736   2.551   0.513
 8499SOL     OW37527   8.336   3.376   1.195
 8499SOL    HW137528   8.313   3.351   1.101
 8499SOL    HW237529   8.397   3.307   1.234
 8500SOL     OW37530   8.799   2.452   1.433
 8500SOL    HW137531   8.827   2.409   1.518
 8500SOL    HW237532   8.824   2.548   1.434
 8501SOL     OW37533   8.251   3.264   0.924
 8501SOL    HW137534   8.341   3.278   0.882
 8501SOL    HW237535   8.180   3.266   0.853
 8502SOL     OW37536   8.370   2.365   0.899
 8502SOL    HW137537   8.345   2.356   0.803
 8502SOL    HW237538   8.418   2.283   0.930
 8503SOL     OW37539   7.987   1.926   0.512
 8503SOL    HW137540   7.906   1.927   0.570
 8503SOL    HW237541   7.990   2.009   0.457
 8504SOL     OW37542   8.882   3.050   0.041
 8504SOL    HW137543   8.914   2.974   0.098
 8504SOL    HW237544   8.790   3.077   0.071
 8505SOL     OW37545   7.745   1.897   0.171
 8505SOL    HW137546   7.794   1.981   0.150
 8505SOL    HW237547   7.807   1.832   0.216
 8506SOL     OW37548   8.383   2.098   0.480
 8506SOL    HW137549   8.335   2.139   0.402
 8506SOL    HW237550   8.482   2.096   0.461
 8507SOL     OW37551   8.524   2.545   1.464
 8507SOL    HW137552   8.444   2.484   1.467
 8507SOL    HW237553   8.605   2.492   1.440
 8508SOL     OW37554   8.675   3.432   0.793
 8508SOL    HW137555   8.696   3.506   0.728
 8508SOL    HW237556   8.743   3.432   0.866
 8509SOL     OW37557   7.907   3.014   0.741
 8509SOL    HW137558   7.836   2.987   0.806
 8509SOL    HW237559   7.881   2.986   0.648
 8510SOL     OW37560   8.719   3.659   0.591
 8510SOL    HW137561   8.763   3.723   0.527
 8510SOL    HW237562   8.669   3.711   0.661
 8511SOL     OW37563   8.480   2.411   0.016
 8511SOL    HW137564   8.439   2.493  -0.023
 8511SOL    HW237565   8.544   2.437   0.089
 8512SOL     OW37566   8.009   2.084   1.147
 8512SOL    HW137567   8.047   2.000   1.184
 8512SOL    HW237568   7.921   2.103   1.191
 8513SOL     OW37569   8.314   2.316   0.642
 8513SOL    HW137570   8.282   2.388   0.580
 8513SOL    HW237571   8.338   2.235   0.589
 8514SOL     OW37572   8.465   1.901   0.753
 8514SOL    HW137573   8.393   1.906   0.684
 8514SOL    HW237574   8.441   1.832   0.822
 8515SOL     OW37575   8.877   3.035   0.867
 8515SOL    HW137576   8.822   2.951   0.860
 8515SOL    HW237577   8.903   3.064   0.775
 8516SOL     OW37578   8.914   2.452   0.992
 8516SOL    HW137579   8.884   2.357   0.999
 8516SOL    HW237580   8.987   2.468   1.058
 8517SOL     OW37581   9.305   2.695   0.377
 8517SOL    HW137582   9.347   2.631   0.441
 8517SOL    HW237583   9.267   2.644   0.299
 8518SOL     OW37584   7.936   3.247   0.174
 8518SOL    HW137585   7.849   3.232   0.221
 8518SOL    HW237586   7.919   3.273   0.079
 8519SOL     OW37587   9.112   3.142   0.657
 8519SOL    HW137588   9.211   3.150   0.671
 8519SOL    HW237589   9.067   3.226   0.688
 8520SOL     OW37590   8.838   2.437   0.078
 8520SOL    HW137591   8.784   2.416   0.159
 8520SOL    HW237592   8.929   2.396   0.087
 8521SOL     OW37593   7.975   2.118   0.328
 8521SOL    HW137594   8.002   2.059   0.253
 8521SOL    HW237595   7.975   2.213   0.297
 8522SOL     OW37596   9.202   3.085   1.588
 8522SOL    HW137597   9.293   3.046   1.575
 8522SOL    HW237598   9.210   3.181   1.612
 8523SOL     OW37599   9.040   3.491   1.625
 8523SOL    HW137600   9.067   3.525   1.535
 8523SOL    HW237601   9.119   3.453   1.671
 8524SOL     OW37602   8.559   3.057   1.100
 8524SOL    HW137603   8.519   3.101   1.181
 8524SOL    HW237604   8.518   3.094   1.017
 8525SOL     OW37605   9.086   2.961   1.079
 8525SOL    HW137606   9.091   3.042   1.138
 8525SOL    HW237607   9.000   2.963   1.028
 8526SOL     OW37608   8.363   1.951   1.402
 8526SOL    HW137609   8.388   1.931   1.307
 8526SOL    HW237610   8.435   2.007   1.444
 8527SOL     OW37611   8.153   2.912   0.368
 8527SOL    HW137612   8.139   2.919   0.467
 8527SOL    HW237613   8.237   2.861   0.350
 8528SOL     OW37614   8.722   2.248   1.262
 8528SOL    HW137615   8.743   2.322   1.326
 8528SOL    HW237616   8.633   2.265   1.219
 8529SOL     OW37617   7.512   3.426   1.331
 8529SOL    HW137618   7.466   3.508   1.297
 8529SOL    HW237619   7.610   3.445   1.340
 8530SOL     OW37620   7.815   2.962   0.501
 8530SOL    HW137621   7.808   3.045   0.445
 8530SOL    HW237622   7.819   2.882   0.441
 8531SOL     OW37623   8.014   2.399   0.865
 8531SOL    HW137624   8.026   2.465   0.791
 8531SOL    HW237625   8.060   2.433   0.948
 8532SOL     OW37626   8.700   3.210   0.388
 8532SOL    HW137627   8.750   3.287   0.428
 8532SOL    HW237628   8.605   3.212   0.420
 8533SOL     OW37629   8.720   3.307   1.142
 8533SOL    HW137630   8.767   3.320   1.229
 8533SOL    HW237631   8.654   3.233   1.151
 8534SOL     OW37632   9.030   2.501   0.472
 8534SOL    HW137633   8.999   2.562   0.545
 8534SOL    HW237634   9.080   2.553   0.403
 8535SOL     OW37635   7.802   3.372   1.329
 8535SOL    HW137636   7.781   3.328   1.242
 8535SOL    HW237637   7.899   3.398   1.332
 8536SOL     OW37638   8.461   1.967   1.770
 8536SOL    HW137639   8.467   2.052   1.718
 8536SOL    HW237640   8.493   1.891   1.713
 8537SOL     OW37641   7.952   1.912   1.740
 8537SOL    HW137642   7.910   1.855   1.670
 8537SOL    HW237643   7.886   1.981   1.772
 8538SOL     OW37644   8.021   2.732   1.029
 8538SOL    HW137645   8.065   2.821   1.020
 8538SOL    HW237646   7.958   2.732   1.106
 8539SOL     OW37647   8.808   2.724   1.045
 8539SOL    HW137648   8.733   2.724   0.979
 8539SOL    HW237649   8.845   2.632   1.054
 8540SOL     OW37650   8.657   2.387   0.275
 8540SOL    HW137651   8.670   2.303   0.329
 8540SOL    HW237652   8.628   2.461   0.335
 8541SOL     OW37653   7.485   3.172   1.282
 8541SOL    HW137654   7.538   3.123   1.350
 8541SOL    HW237655   7.507   3.270   1.287
 8542SOL     OW37656   8.180   2.496   1.064
 8542SOL    HW137657   8.239   2.470   0.988
 8542SOL    HW237658   8.152   2.592   1.053
 8543SOL     OW37659   9.176   2.797   1.854
 8543SOL    HW137660   9.130   2.790   1.765
 8543SOL    HW237661   9.114   2.841   1.920
 8544SOL     OW37662   7.755   1.925   0.618
 8544SOL    HW137663   7.744   2.019   0.651
 8544SOL    HW237664   7.750   1.862   0.695
 8545SOL     OW37665   9.070   2.229   0.374
 8545SOL    HW137666   9.072   2.153   0.438
 8545SOL    HW237667   9.022   2.306   0.414
 8546SOL     OW37668   8.471   2.628   0.966
 8546SOL    HW137669   8.486   2.649   1.062
 8546SOL    HW237670   8.441   2.533   0.957
 8547SOL     OW37671   9.307   3.380   1.605
 8547SOL    HW137672   9.321   3.407   1.510
 8547SOL    HW237673   9.390   3.402   1.658
 8548SOL     OW37674   8.988   2.136   0.125
 8548SOL    HW137675   8.927   2.061   0.148
 8548SOL    HW237676   9.010   2.188   0.208
 8549SOL     OW37677   8.751   2.700   0.042
 8549SOL    HW137678   8.785   2.607   0.057
 8549SOL    HW237679   8.769   2.727  -0.053
 8550SOL     OW37680   8.516   3.195   0.849
 8550SOL    HW137681   8.523   3.111   0.794
 8550SOL    HW237682   8.578   3.264   0.813
 8551SOL     OW37683   7.767   2.672   0.949
 8551SOL    HW137684   7.860   2.708   0.954
 8551SOL    HW237685   7.761   2.587   1.001
 8552SOL     OW37686   7.787   2.371   1.006
 8552SOL    HW137687   7.735   2.288   0.989
 8552SOL    HW237688   7.864   2.376   0.942
 8553SOL     OW37689   8.608   2.069   1.477
 8553SOL    HW137690   8.608   2.133   1.554
 8553SOL    HW237691   8.636   2.117   1.394
 8554SOL     OW37692   7.536   3.663   0.927
 8554SOL    HW137693   7.494   3.577   0.900
 8554SOL    HW237694   7.630   3.666   0.893
 8555SOL     OW37695   7.952   3.430   0.910
 8555SOL    HW137696   8.018   3.504   0.919
 8555SOL    HW237697   7.996   3.351   0.868
 8556SOL     OW37698   8.450   2.658   1.238
 8556SOL    HW137699   8.491   2.626   1.324
 8556SOL    HW237700   8.354   2.631   1.235
 8557SOL     OW37701   7.488   2.406   1.114
 8557SOL    HW137702   7.573   2.373   1.073
 8557SOL    HW237703   7.501   2.421   1.212
 8558SOL     OW37704   8.263   2.434   0.325
 8558SOL    HW137705   8.270   2.345   0.279
 8558SOL    HW237706   8.169   2.468   0.317
 8559SOL     OW37707   9.105   2.466   1.206
 8559SOL    HW137708   9.067   2.397   1.268
 8559SOL    HW237709   9.187   2.430   1.162
 8560SOL     OW37710   8.119   2.326   1.269
 8560SOL    HW137711   8.085   2.237   1.239
 8560SOL    HW237712   8.145   2.380   1.189
 8561SOL     OW37713   7.921   2.362   0.191
 8561SOL    HW137714   7.982   2.442   0.195
 8561SOL    HW237715   7.826   2.393   0.198
 8562SOL     OW37716   8.795   2.921   1.234
 8562SOL    HW137717   8.819   2.858   1.160
 8562SOL    HW237718   8.705   2.961   1.216
 8563SOL     OW37719   8.750   2.717   0.309
 8563SOL    HW137720   8.664   2.686   0.351
 8563SOL    HW237721   8.746   2.703   0.210
 8564SOL     OW37722   9.207   3.609   1.154
 8564SOL    HW137723   9.268   3.639   1.081
 8564SOL    HW237724   9.169   3.520   1.132
 8565SOL     OW37725   8.700   3.593   1.128
 8565SOL    HW137726   8.784   3.598   1.074
 8565SOL    HW237727   8.677   3.497   1.146
 8566SOL     OW37728   7.531   3.120   1.022
 8566SOL    HW137729   7.526   3.119   1.122
 8566SOL    HW237730   7.448   3.079   0.984
 8567SOL     OW37731   8.136   3.524   1.716
 8567SOL    HW137732   8.080   3.605   1.725
 8567SOL    HW237733   8.188   3.528   1.630
 8568SOL     OW37734   8.351   1.948   0.133
 8568SOL    HW137735   8.402   1.949   0.047
 8568SOL    HW237736   8.407   1.906   0.204
 8569SOL     OW37737   9.174   1.997   0.523
 8569SOL    HW137738   9.247   1.980   0.456
 8569SOL    HW237739   9.143   1.910   0.561
 8570SOL     OW37740   8.836   3.435   0.477
 8570SOL    HW137741   8.903   3.447   0.403
 8570SOL    HW237742   8.796   3.524   0.500
 8571SOL     OW37743   8.728   2.789   0.672
 8571SOL    HW137744   8.788   2.708   0.674
 8571SOL    HW237745   8.768   2.858   0.612
 8572SOL     OW37746   8.120   3.478   0.154
 8572SOL    HW137747   8.129   3.488   0.055
 8572SOL    HW237748   8.080   3.389   0.175
 8573SOL     OW37749   9.098   3.582   1.394
 8573SOL    HW137750   9.151   3.592   1.310
 8573SOL    HW237751   9.071   3.672   1.428
 8574SOL     OW37752   9.289   2.037   0.963
 8574SOL    HW137753   9.328   1.952   0.927
 8574SOL    HW237754   9.191   2.039   0.944
 8575SOL     OW37755   7.711   2.188   0.720
 8575SOL    HW137756   7.632   2.239   0.686
 8575SOL    HW237757   7.702   2.173   0.818
 8576SOL     OW37758   8.642   3.474   0.031
 8576SOL    HW137759   8.648   3.381   0.068
 8576SOL    HW237760   8.583   3.474  -0.049
 8577SOL     OW37761   8.270   2.864   1.372
 8577SOL    HW137762   8.310   2.863   1.280
 8577SOL    HW237763   8.280   2.956   1.412
 8578SOL     OW37764   8.364   2.772   0.291
 8578SOL    HW137765   8.427   2.810   0.223
 8578SOL    HW237766   8.404   2.689   0.330
 8579SOL     OW37767   8.952   3.469   0.044
 8579SOL    HW137768   8.860   3.506   0.051
 8579SOL    HW237769   8.990   3.489  -0.046
 8580SOL     OW37770   7.820   3.150   1.490
 8580SOL    HW137771   7.807   3.243   1.456
 8580SOL    HW237772   7.736   3.098   1.477
 8581SOL     OW37773   8.487   2.960   0.696
 8581SOL    HW137774   8.417   2.913   0.750
 8581SOL    HW237775   8.546   2.892   0.653
 8582SOL     OW37776   8.038   3.349   0.491
 8582SOL    HW137777   8.080   3.291   0.421
 8582SOL    HW237778   7.994   3.428   0.447
 8583SOL     OW37779   7.703   3.210   0.290
 8583SOL    HW137780   7.607   3.211   0.263
 8583SOL    HW237781   7.715   3.263   0.374
 8584SOL     OW37782   7.553   2.875   1.726
 8584SOL    HW137783   7.476   2.842   1.780
 8584SOL    HW237784   7.638   2.845   1.768
 8585SOL     OW37785   8.120   2.065   1.489
 8585SOL    HW137786   8.210   2.049   1.449
 8585SOL    HW237787   8.128   2.070   1.588
 8586SOL     OW37788   7.520   2.028   0.318
 8586SOL    HW137789   7.503   2.111   0.264
 8586SOL    HW237790   7.610   1.991   0.296
 8587SOL     OW37791   8.631   3.197   0.119
 8587SOL    HW137792   8.532   3.186   0.121
 8587SOL    HW237793   8.665   3.212   0.212
 8588SOL     OW37794   8.061   2.704   1.431
 8588SOL    HW137795   8.117   2.785   1.414
 8588SOL    HW237796   8.120   2.624   1.434
 8589SOL     OW37797   8.941   3.629   0.959
 8589SOL    HW137798   8.974   3.693   0.890
 8589SOL    HW237799   9.007   3.623   1.034
 8590SOL     OW37800   7.838   3.603   1.560
 8590SOL    HW137801   7.747   3.644   1.558
 8590SOL    HW237802   7.831   3.509   1.592
 8591SOL     OW37803   9.122   2.745   1.254
 8591SOL    HW137804   9.095   2.656   1.217
 8591SOL    HW237805   9.123   2.813   1.181
 8592SOL     OW37806   8.673   2.187   0.449
 8592SOL    HW137807   8.738   2.113   0.438
 8592SOL    HW237808   8.693   2.237   0.533
 8593SOL     OW37809   8.042   2.607   0.652
 8593SOL    HW137810   8.092   2.692   0.633
 8593SOL    HW237811   7.954   2.609   0.604
 8594SOL     OW37812   8.307   3.236   0.016
 8594SOL    HW137813   8.261   3.251   0.104
 8594SOL    HW237814   8.351   3.321  -0.014
 8595SOL     OW37815   8.109   3.652   0.953
 8595SOL    HW137816   8.063   3.740   0.940
 8595SOL    HW237817   8.208   3.664   0.946
 8596SOL     OW37818   8.307   2.818   0.861
 8596SOL    HW137819   8.361   2.749   0.909
 8596SOL    HW237820   8.275   2.887   0.927
 8597SOL     OW37821   8.531   2.846   0.087
 8597SOL    HW137822   8.508   2.899   0.005
 8597SOL    HW237823   8.612   2.790   0.068
 8598SOL     OW37824   9.309   3.431   0.851
 8598SOL    HW137825   9.238   3.419   0.781
 8598SOL    HW237826   9.310   3.352   0.911
 8599SOL     OW37827   7.527   3.102   0.653
 8599SOL    HW137828   7.526   3.055   0.741
 8599SOL    HW237829   7.609   3.074   0.602
 8600SOL     OW37830   8.120   3.253   1.624
 8600SOL    HW137831   8.042   3.203   1.662
 8600SOL    HW237832   8.117   3.348   1.655
 8601SOL     OW37833   7.876   2.286   0.520
 8601SOL    HW137834   7.906   2.214   0.458
 8601SOL    HW237835   7.837   2.246   0.603
 8602SOL     OW37836   9.153   3.349   1.104
 8602SOL    HW137837   9.060   3.324   1.077
 8602SOL    HW237838   9.179   3.299   1.186
 8603SOL     OW37839   8.260   3.448   0.687
 8603SOL    HW137840   8.292   3.458   0.593
 8603SOL    HW237841   8.181   3.386   0.689
 8604SOL     OW37842   8.218   3.192   0.301
 8604SOL    HW137843   8.172   3.105   0.318
 8604SOL    HW237844   8.309   3.189   0.342
 8605SOL     OW37845   8.066   3.429   1.284
 8605SOL    HW137846   8.061   3.511   1.341
 8605SOL    HW237847   8.155   3.426   1.239
 8606SOL     OW37848   8.800   1.914   0.168
 8606SOL    HW137849   8.835   1.873   0.084
 8606SOL    HW237850   8.710   1.876   0.188
 8607SOL     OW37851   8.748   2.315   0.691
 8607SOL    HW137852   8.689   2.395   0.695
 8607SOL    HW237853   8.763   2.280   0.784
 8608SOL     OW37854   9.041   2.083   0.882
 8608SOL    HW137855   8.957   2.082   0.936
 8608SOL    HW237856   9.043   2.166   0.826
 8609SOL     OW37857   7.487   2.939   0.300
 8609SOL    HW137858   7.586   2.928   0.291
 8609SOL    HW237859   7.447   2.853   0.332
 8610SOL     OW37860   8.323   3.508   0.337
 8610SOL    HW137861   8.246   3.473   0.283
 8610SOL    HW237862   8.291   3.579   0.399
 8611SOL     OW37863   7.678   2.490   1.975
 8611SOL    HW137864   7.585   2.488   2.012
 8611SOL    HW237865   7.679   2.451   1.883
 8612SOL     OW37866   7.467   2.230   2.509
 8612SOL    HW137867   7.385   2.273   2.548
 8612SOL    HW237868   7.439   2.157   2.446
 8613SOL     OW37869   8.133   2.874   2.527
 8613SOL    HW137870   8.202   2.858   2.597
 8613SOL    HW237871   8.060   2.931   2.565
 8614SOL     OW37872   8.134   3.023   3.665
 8614SOL    HW137873   8.194   3.102   3.679
 8614SOL    HW237874   8.048   3.054   3.624
 8615SOL     OW37875   8.908   3.367   3.201
 8615SOL    HW137876   8.932   3.461   3.227
 8615SOL    HW237877   8.892   3.313   3.283
 8616SOL     OW37878   7.886   2.254   3.361
 8616SOL    HW137879   7.968   2.198   3.370
 8616SOL    HW237880   7.805   2.196   3.365
 8617SOL     OW37881   9.042   1.976   3.342
 8617SOL    HW137882   9.024   2.043   3.270
 8617SOL    HW237883   9.039   2.022   3.431
 8618SOL     OW37884   7.475   3.458   1.979
 8618SOL    HW137885   7.456   3.362   2.000
 8618SOL    HW237886   7.442   3.516   2.054
 8619SOL     OW37887   9.137   2.784   2.474
 8619SOL    HW137888   9.232   2.755   2.482
 8619SOL    HW237889   9.129   2.849   2.399
 8620SOL     OW37890   7.561   2.599   3.459
 8620SOL    HW137891   7.649   2.586   3.504
 8620SOL    HW237892   7.548   2.696   3.437
 8621SOL     OW37893   8.046   2.591   2.132
 8621SOL    HW137894   8.070   2.660   2.064
 8621SOL    HW237895   7.968   2.624   2.186
 8622SOL     OW37896   8.421   2.752   3.434
 8622SOL    HW137897   8.467   2.668   3.405
 8622SOL    HW237898   8.365   2.786   3.359
 8623SOL     OW37899   8.313   2.210   2.057
 8623SOL    HW137900   8.372   2.273   2.008
 8623SOL    HW237901   8.332   2.116   2.028
 8624SOL     OW37902   9.167   2.447   3.693
 8624SOL    HW137903   9.141   2.536   3.657
 8624SOL    HW237904   9.165   2.379   3.620
 8625SOL     OW37905   8.810   3.006   2.407
 8625SOL    HW137906   8.893   2.977   2.359
 8625SOL    HW237907   8.761   3.073   2.351
 8626SOL     OW37908   9.243   2.928   2.735
 8626SOL    HW137909   9.181   2.913   2.659
 8626SOL    HW237910   9.191   2.939   2.820
 8627SOL     OW37911   8.675   3.412   3.368
 8627SOL    HW137912   8.681   3.335   3.432
 8627SOL    HW237913   8.623   3.386   3.288
 8628SOL     OW37914   7.909   3.128   3.589
 8628SOL    HW137915   7.859   3.129   3.503
 8628SOL    HW237916   7.846   3.110   3.665
 8629SOL     OW37917   9.080   3.239   1.943
 8629SOL    HW137918   9.048   3.333   1.933
 8629SOL    HW237919   9.004   3.176   1.931
 8630SOL     OW37920   7.912   3.605   2.185
 8630SOL    HW137921   7.945   3.644   2.271
 8630SOL    HW237922   7.988   3.598   2.120
 8631SOL     OW37923   8.388   3.560   2.766
 8631SOL    HW137924   8.468   3.503   2.787
 8631SOL    HW237925   8.339   3.520   2.689
 8632SOL     OW37926   7.830   2.562   2.342
 8632SOL    HW137927   7.875   2.472   2.339
 8632SOL    HW237928   7.736   2.551   2.375
 8633SOL     OW37929   8.995   2.084   3.591
 8633SOL    HW137930   8.990   2.121   3.683
 8633SOL    HW237931   8.923   2.015   3.579
 8634SOL     OW37932   8.799   2.452   3.295
 8634SOL    HW137933   8.827   2.409   3.380
 8634SOL    HW237934   8.824   2.548   3.296
 8635SOL     OW37935   8.370   2.365   2.761
 8635SOL    HW137936   8.345   2.356   2.665
 8635SOL    HW237937   8.418   2.283   2.792
 8636SOL     OW37938   7.745   1.897   2.033
 8636SOL    HW137939   7.794   1.981   2.012
 8636SOL    HW237940   7.807   1.832   2.078
 8637SOL     OW37941   7.907   3.014   2.603
 8637SOL    HW137942   7.836   2.987   2.668
 8637SOL    HW237943   7.881   2.986   2.510
 8638SOL     OW37944   8.914   2.452   2.854
 8638SOL    HW137945   8.884   2.357   2.861
 8638SOL    HW237946   8.987   2.468   2.920
 8639SOL     OW37947   9.305   2.695   2.239
 8639SOL    HW137948   9.347   2.631   2.303
 8639SOL    HW237949   9.267   2.644   2.161
 8640SOL     OW37950   9.112   3.142   2.519
 8640SOL    HW137951   9.211   3.150   2.533
 8640SOL    HW237952   9.067   3.226   2.550
 8641SOL     OW37953   8.838   2.437   1.940
 8641SOL    HW137954   8.784   2.416   2.021
 8641SOL    HW237955   8.929   2.396   1.949
 8642SOL     OW37956   9.040   3.491   3.487
 8642SOL    HW137957   9.067   3.525   3.397
 8642SOL    HW237958   9.119   3.453   3.533
 8643SOL     OW37959   8.363   1.951   3.264
 8643SOL    HW137960   8.388   1.931   3.169
 8643SOL    HW237961   8.435   2.007   3.306
 8644SOL     OW37962   8.722   2.248   3.124
 8644SOL    HW137963   8.743   2.322   3.188
 8644SOL    HW237964   8.633   2.265   3.081
 8645SOL     OW37965   7.952   1.912   3.602
 8645SOL    HW137966   7.910   1.855   3.532
 8645SOL    HW237967   7.886   1.981   3.634
 8646SOL     OW37968   8.180   2.496   2.926
 8646SOL    HW137969   8.239   2.470   2.850
 8646SOL    HW237970   8.152   2.592   2.915
 8647SOL     OW37971   9.070   2.229   2.236
 8647SOL    HW137972   9.072   2.153   2.300
 8647SOL    HW237973   9.022   2.306   2.276
 8648SOL     OW37974   9.307   3.380   3.467
 8648SOL    HW137975   9.321   3.407   3.372
 8648SOL    HW237976   9.390   3.402   3.520
 8649SOL     OW37977   8.751   2.700   1.904
 8649SOL    HW137978   8.785   2.607   1.919
 8649SOL    HW237979   8.769   2.727   1.809
 8650SOL     OW37980   8.586   2.242   3.540
 8650SOL    HW137981   8.541   2.305   3.604
 8650SOL    HW237982   8.679   2.273   3.523
 8651SOL     OW37983   8.608   2.069   3.339
 8651SOL    HW137984   8.608   2.133   3.416
 8651SOL    HW237985   8.636   2.117   3.256
 8652SOL     OW37986   7.536   3.663   2.789
 8652SOL    HW137987   7.494   3.577   2.762
 8652SOL    HW237988   7.630   3.666   2.755
 8653SOL     OW37989   7.488   2.406   2.976
 8653SOL    HW137990   7.573   2.373   2.935
 8653SOL    HW237991   7.501   2.421   3.074
 8654SOL     OW37992   8.817   2.812   3.522
 8654SOL    HW137993   8.856   2.901   3.542
 8654SOL    HW237994   8.827   2.792   3.425
 8655SOL     OW37995   8.119   2.326   3.131
 8655SOL    HW137996   8.085   2.237   3.101
 8655SOL    HW237997   8.145   2.380   3.051
 8656SOL     OW37998   7.921   2.362   2.053
 8656SOL    HW137999   7.982   2.442   2.057
 8656SOL    HW238000   7.826   2.393   2.060
 8657SOL     OW38001   9.207   3.609   3.016
 8657SOL    HW138002   9.268   3.639   2.943
 8657SOL    HW238003   9.169   3.520   2.994
 8658SOL     OW38004   8.136   3.524   3.578
 8658SOL    HW138005   8.080   3.605   3.587
 8658SOL    HW238006   8.188   3.528   3.492
 8659SOL     OW38007   9.174   1.997   2.385
 8659SOL    HW138008   9.247   1.980   2.318
 8659SOL    HW238009   9.143   1.910   2.423
 8660SOL     OW38010   9.098   3.582   3.256
 8660SOL    HW138011   9.151   3.592   3.172
 8660SOL    HW238012   9.071   3.672   3.290
 8661SOL     OW38013   8.364   2.772   2.153
 8661SOL    HW138014   8.427   2.810   2.085
 8661SOL    HW238015   8.404   2.689   2.192
 8662SOL     OW38016   7.820   3.150   3.352
 8662SOL    HW138017   7.807   3.243   3.318
 8662SOL    HW238018   7.736   3.098   3.339
 8663SOL     OW38019   9.157   2.247   3.243
 8663SOL    HW138020   9.230   2.316   3.247
 8663SOL    HW238021   9.185   2.172   3.184
 8664SOL     OW38022   8.120   2.065   3.351
 8664SOL    HW138023   8.210   2.049   3.311
 8664SOL    HW238024   8.128   2.070   3.450
 8665SOL     OW38025   8.888   2.718   3.260
 8665SOL    HW138026   8.831   2.770   3.197
 8665SOL    HW238027   8.984   2.730   3.236
 8666SOL     OW38028   8.898   3.082   3.495
 8666SOL    HW138029   8.889   3.072   3.594
 8666SOL    HW238030   8.994   3.075   3.469
 8667SOL     OW38031   7.838   3.603   3.422
 8667SOL    HW138032   7.747   3.644   3.420
 8667SOL    HW238033   7.831   3.509   3.454
 8668SOL     OW38034   9.122   2.745   3.116
 8668SOL    HW138035   9.095   2.656   3.079
 8668SOL    HW238036   9.123   2.813   3.043
 8669SOL     OW38037   9.178   2.796   3.379
 8669SOL    HW138038   9.216   2.887   3.394
 8669SOL    HW238039   9.170   2.779   3.280
 8670SOL     OW38040   8.307   3.236   1.878
 8670SOL    HW138041   8.261   3.251   1.966
 8670SOL    HW238042   8.351   3.321   1.848
 8671SOL     OW38043   8.531   2.846   1.949
 8671SOL    HW138044   8.508   2.899   1.867
 8671SOL    HW238045   8.612   2.790   1.930
 8672SOL     OW38046   8.120   3.253   3.486
 8672SOL    HW138047   8.042   3.203   3.524
 8672SOL    HW238048   8.117   3.348   3.517
 8673SOL     OW38049   7.876   2.286   2.382
 8673SOL    HW138050   7.906   2.214   2.320
 8673SOL    HW238051   7.837   2.246   2.465
 8674SOL     OW38052   8.260   3.448   2.549
 8674SOL    HW138053   8.292   3.458   2.455
 8674SOL    HW238054   8.181   3.386   2.551
 8675SOL     OW38055   8.066   3.429   3.146
 8675SOL    HW138056   8.061   3.511   3.203
 8675SOL    HW238057   8.155   3.426   3.101
 8676SOL     OW38058   8.800   1.914   2.030
 8676SOL    HW138059   8.835   1.873   1.946
 8676SOL    HW238060   8.710   1.876   2.050
 8677SOL     OW38061   8.323   3.508   2.199
 8677SOL    HW138062   8.246   3.473   2.145
 8677SOL    HW238063   8.291   3.579   2.261
 8678SOL     OW38064   7.678   2.490   3.837
 8678SOL    HW138065   7.585   2.488   3.874
 8678SOL    HW238066   7.679   2.451   3.745
 8679SOL     OW38067   7.467   2.230   4.371
 8679SOL    HW138068   7.385   2.273   4.410
 8679SOL    HW238069   7.439   2.157   4.308
 8680SOL     OW38070   8.583   2.565   4.441
 8680SOL    HW138071   8.640   2.643   4.416
 8680SOL    HW238072   8.523   2.591   4.517
 8681SOL     OW38073   9.203   2.469   3.955
 8681SOL    HW138074   9.191   2.456   3.856
 8681SOL    HW238075   9.173   2.388   4.004
 8682SOL     OW38076   8.216   3.006   4.747
 8682SOL    HW138077   8.138   3.023   4.807
 8682SOL    HW238078   8.250   3.093   4.711
 8683SOL     OW38079   8.908   3.367   5.063
 8683SOL    HW138080   8.932   3.461   5.089
 8683SOL    HW238081   8.892   3.313   5.145
 8684SOL     OW38082   8.575   3.203   5.414
 8684SOL    HW138083   8.622   3.203   5.502
 8684SOL    HW238084   8.527   3.116   5.403
 8685SOL     OW38085   8.054   2.826   3.847
 8685SOL    HW138086   8.061   2.910   3.793
 8685SOL    HW238087   8.100   2.839   3.935
 8686SOL     OW38088   9.042   1.976   5.204
 8686SOL    HW138089   9.024   2.043   5.132
 8686SOL    HW238090   9.039   2.022   5.293
 8687SOL     OW38091   7.475   3.458   3.841
 8687SOL    HW138092   7.456   3.362   3.862
 8687SOL    HW238093   7.442   3.516   3.916
 8688SOL     OW38094   9.089   2.970   4.156
 8688SOL    HW138095   9.175   2.972   4.104
 8688SOL    HW238096   9.103   3.017   4.244
 8689SOL     OW38097   7.561   2.599   5.321
 8689SOL    HW138098   7.649   2.586   5.366
 8689SOL    HW238099   7.548   2.696   5.299
 8690SOL     OW38100   8.061   3.227   4.450
 8690SOL    HW138101   8.012   3.140   4.459
 8690SOL    HW238102   8.038   3.270   4.363
 8691SOL     OW38103   8.842   2.331   5.398
 8691SOL    HW138104   8.822   2.374   5.486
 8691SOL    HW238105   8.920   2.269   5.407
 8692SOL     OW38106   7.524   2.673   4.513
 8692SOL    HW138107   7.623   2.661   4.522
 8692SOL    HW238108   7.500   2.768   4.534
 8693SOL     OW38109   8.313   2.210   3.919
 8693SOL    HW138110   8.372   2.273   3.870
 8693SOL    HW238111   8.332   2.116   3.890
 8694SOL     OW38112   8.810   3.006   4.269
 8694SOL    HW138113   8.893   2.977   4.221
 8694SOL    HW238114   8.761   3.073   4.213
 8695SOL     OW38115   8.456   3.318   4.201
 8695SOL    HW138116   8.410   3.390   4.149
 8695SOL    HW238117   8.452   3.338   4.299
 8696SOL     OW38118   8.559   3.638   3.961
 8696SOL    HW138119   8.499   3.576   4.011
 8696SOL    HW238120   8.590   3.594   3.876
 8697SOL     OW38121   9.080   3.239   3.805
 8697SOL    HW138122   9.048   3.333   3.795
 8697SOL    HW238123   9.004   3.176   3.793
 8698SOL     OW38124   8.229   2.126   5.473
 8698SOL    HW138125   8.296   2.065   5.516
 8698SOL    HW238126   8.156   2.145   5.538
 8699SOL     OW38127   8.799   2.452   5.157
 8699SOL    HW138128   8.827   2.409   5.242
 8699SOL    HW238129   8.824   2.548   5.158
 8700SOL     OW38130   7.745   1.897   3.895
 8700SOL    HW138131   7.794   1.981   3.874
 8700SOL    HW238132   7.807   1.832   3.940
 8701SOL     OW38133   8.480   2.411   3.740
 8701SOL    HW138134   8.439   2.493   3.701
 8701SOL    HW238135   8.544   2.437   3.813
 8702SOL     OW38136   8.009   2.084   4.871
 8702SOL    HW138137   8.047   2.000   4.908
 8702SOL    HW238138   7.921   2.103   4.915
 8703SOL     OW38139   8.559   3.057   4.824
 8703SOL    HW138140   8.519   3.101   4.905
 8703SOL    HW238141   8.518   3.094   4.741
 8704SOL     OW38142   9.086   2.961   4.803
 8704SOL    HW138143   9.091   3.042   4.862
 8704SOL    HW238144   9.000   2.963   4.752
 8705SOL     OW38145   8.428   2.978   5.443
 8705SOL    HW138146   8.329   2.984   5.453
 8705SOL    HW238147   8.451   2.898   5.387
 8706SOL     OW38148   8.720   3.307   4.866
 8706SOL    HW138149   8.767   3.320   4.953
 8706SOL    HW238150   8.654   3.233   4.875
 8707SOL     OW38151   7.802   3.372   5.053
 8707SOL    HW138152   7.781   3.328   4.966
 8707SOL    HW238153   7.899   3.398   5.056
 8708SOL     OW38154   8.461   1.967   5.494
 8708SOL    HW138155   8.467   2.052   5.442
 8708SOL    HW238156   8.493   1.891   5.437
 8709SOL     OW38157   8.657   2.387   3.999
 8709SOL    HW138158   8.670   2.303   4.053
 8709SOL    HW238159   8.628   2.461   4.059
 8710SOL     OW38160   9.176   2.797   5.578
 8710SOL    HW138161   9.130   2.790   5.489
 8710SOL    HW238162   9.114   2.841   5.644
 8711SOL     OW38163   7.755   1.925   4.342
 8711SOL    HW138164   7.744   2.019   4.375
 8711SOL    HW238165   7.750   1.862   4.419
 8712SOL     OW38166   9.307   3.380   5.329
 8712SOL    HW138167   9.321   3.407   5.234
 8712SOL    HW238168   9.390   3.402   5.382
 8713SOL     OW38169   8.751   2.700   3.766
 8713SOL    HW138170   8.785   2.607   3.781
 8713SOL    HW238171   8.769   2.727   3.671
 8714SOL     OW38172   8.516   3.195   4.573
 8714SOL    HW138173   8.523   3.111   4.518
 8714SOL    HW238174   8.578   3.264   4.537
 8715SOL     OW38175   7.767   2.672   4.673
 8715SOL    HW138176   7.860   2.708   4.678
 8715SOL    HW238177   7.761   2.587   4.725
 8716SOL     OW38178   8.586   2.242   5.402
 8716SOL    HW138179   8.541   2.305   5.466
 8716SOL    HW238180   8.679   2.273   5.385
 8717SOL     OW38181   8.608   2.069   5.201
 8717SOL    HW138182   8.608   2.133   5.278
 8717SOL    HW238183   8.636   2.117   5.118
 8718SOL     OW38184   7.536   3.663   4.651
 8718SOL    HW138185   7.494   3.577   4.624
 8718SOL    HW238186   7.630   3.666   4.617
 8719SOL     OW38187   7.637   2.382   5.446
 8719SOL    HW138188   7.696   2.342   5.376
 8719SOL    HW238189   7.579   2.453   5.405
 8720SOL     OW38190   8.817   2.812   5.384
 8720SOL    HW138191   8.856   2.901   5.404
 8720SOL    HW238192   8.827   2.792   5.287
 8721SOL     OW38193   8.119   2.326   4.993
 8721SOL    HW138194   8.085   2.237   4.963
 8721SOL    HW238195   8.145   2.380   4.913
 8722SOL     OW38196   7.607   2.999   5.190
 8722SOL    HW138197   7.629   2.938   5.266
 8722SOL    HW238198   7.617   2.950   5.104
 8723SOL     OW38199   8.750   2.717   4.033
 8723SOL    HW138200   8.664   2.686   4.075
 8723SOL    HW238201   8.746   2.703   3.934
 8724SOL     OW38202   8.700   3.593   4.852
 8724SOL    HW138203   8.784   3.598   4.798
 8724SOL    HW238204   8.677   3.497   4.870
 8725SOL     OW38205   7.531   3.120   4.746
 8725SOL    HW138206   7.526   3.119   4.846
 8725SOL    HW238207   7.448   3.079   4.708
 8726SOL     OW38208   9.098   3.582   5.118
 8726SOL    HW138209   9.151   3.592   5.034
 8726SOL    HW238210   9.071   3.672   5.152
 8727SOL     OW38211   8.642   3.474   3.755
 8727SOL    HW138212   8.648   3.381   3.792
 8727SOL    HW238213   8.583   3.474   3.675
 8728SOL     OW38214   8.952   3.469   3.768
 8728SOL    HW138215   8.860   3.506   3.775
 8728SOL    HW238216   8.990   3.489   3.678
 8729SOL     OW38217   7.820   3.150   5.214
 8729SOL    HW138218   7.807   3.243   5.180
 8729SOL    HW238219   7.736   3.098   5.201
 8730SOL     OW38220   9.062   3.154   5.013
 8730SOL    HW138221   9.122   3.157   5.093
 8730SOL    HW238222   8.987   3.218   5.026
 8731SOL     OW38223   8.462   2.098   4.695
 8731SOL    HW138224   8.454   2.062   4.602
 8731SOL    HW238225   8.460   2.022   4.760
 8732SOL     OW38226   8.038   3.349   4.215
 8732SOL    HW138227   8.080   3.291   4.145
 8732SOL    HW238228   7.994   3.428   4.171
 8733SOL     OW38229   7.703   3.210   4.014
 8733SOL    HW138230   7.607   3.211   3.987
 8733SOL    HW238231   7.715   3.263   4.098
 8734SOL     OW38232   7.553   2.875   5.450
 8734SOL    HW138233   7.476   2.842   5.504
 8734SOL    HW238234   7.638   2.845   5.492
 8735SOL     OW38235   8.888   2.718   5.122
 8735SOL    HW138236   8.831   2.770   5.059
 8735SOL    HW238237   8.984   2.730   5.098
 8736SOL     OW38238   8.631   3.197   3.843
 8736SOL    HW138239   8.532   3.186   3.845
 8736SOL    HW238240   8.665   3.212   3.936
 8737SOL     OW38241   8.061   2.704   5.155
 8737SOL    HW138242   8.117   2.785   5.138
 8737SOL    HW238243   8.120   2.624   5.158
 8738SOL     OW38244   8.673   2.187   4.173
 8738SOL    HW138245   8.738   2.113   4.162
 8738SOL    HW238246   8.693   2.237   4.257
 8739SOL     OW38247   8.042   2.607   4.376
 8739SOL    HW138248   8.092   2.692   4.357
 8739SOL    HW238249   7.954   2.609   4.328
 8740SOL     OW38250   9.225   2.204   5.366
 8740SOL    HW138251   9.208   2.235   5.272
 8740SOL    HW238252   9.141   2.167   5.404
 8741SOL     OW38253   8.307   3.236   3.740
 8741SOL    HW138254   8.261   3.251   3.828
 8741SOL    HW238255   8.351   3.321   3.710
 8742SOL     OW38256   9.309   3.431   4.575
 8742SOL    HW138257   9.238   3.419   4.505
 8742SOL    HW238258   9.310   3.352   4.635
 8743SOL     OW38259   7.669   3.176   5.568
 8743SOL    HW138260   7.604   3.103   5.547
 8743SOL    HW238261   7.673   3.190   5.666
 8744SOL     OW38262   7.876   2.286   4.244
 8744SOL    HW138263   7.906   2.214   4.182
 8744SOL    HW238264   7.837   2.246   4.327
 8745SOL     OW38265   8.449   1.896   4.878
 8745SOL    HW138266   8.386   1.824   4.847
 8745SOL    HW238267   8.542   1.860   4.878
 8746SOL     OW38268   8.066   3.429   5.008
 8746SOL    HW138269   8.061   3.511   5.065
 8746SOL    HW238270   8.155   3.426   4.963
 8747SOL     OW38271   7.487   2.939   4.024
 8747SOL    HW138272   7.586   2.928   4.015
 8747SOL    HW238273   7.447   2.853   4.056
 8748SOL     OW38274   7.678   2.490   5.699
 8748SOL    HW138275   7.585   2.488   5.736
 8748SOL    HW238276   7.679   2.451   5.607
 8749SOL     OW38277   7.673   2.137   6.582
 8749SOL    HW138278   7.708   2.120   6.674
 8749SOL    HW238279   7.585   2.092   6.570
 8750SOL     OW38280   7.467   2.230   6.233
 8750SOL    HW138281   7.385   2.273   6.272
 8750SOL    HW238282   7.439   2.157   6.170
 8751SOL     OW38283   8.017   3.137   6.751
 8751SOL    HW138284   7.924   3.130   6.714
 8751SOL    HW238285   8.028   3.226   6.795
 8752SOL     OW38286   9.003   3.373   6.289
 8752SOL    HW138287   8.946   3.357   6.370
 8752SOL    HW238288   8.944   3.383   6.209
 8753SOL     OW38289   8.583   2.565   6.303
 8753SOL    HW138290   8.640   2.643   6.278
 8753SOL    HW238291   8.523   2.591   6.379
 8754SOL     OW38292   9.203   2.469   5.817
 8754SOL    HW138293   9.191   2.456   5.718
 8754SOL    HW238294   9.173   2.388   5.866
 8755SOL     OW38295   8.216   3.006   6.609
 8755SOL    HW138296   8.138   3.023   6.669
 8755SOL    HW238297   8.250   3.093   6.573
 8756SOL     OW38298   8.133   2.874   6.251
 8756SOL    HW138299   8.202   2.858   6.321
 8756SOL    HW238300   8.060   2.931   6.289
 8757SOL     OW38301   7.783   3.297   6.647
 8757SOL    HW138302   7.705   3.266   6.594
 8757SOL    HW238303   7.841   3.355   6.590
 8758SOL     OW38304   9.051   2.309   6.323
 8758SOL    HW138305   8.977   2.355   6.273
 8758SOL    HW238306   9.102   2.377   6.376
 8759SOL     OW38307   7.688   2.953   6.472
 8759SOL    HW138308   7.702   2.869   6.524
 8759SOL    HW238309   7.633   3.017   6.527
 8760SOL     OW38310   8.068   3.648   7.025
 8760SOL    HW138311   7.976   3.631   7.060
 8760SOL    HW238312   8.096   3.740   7.051
 8761SOL     OW38313   8.054   2.826   5.709
 8761SOL    HW138314   8.061   2.910   5.655
 8761SOL    HW238315   8.100   2.839   5.797
 8762SOL     OW38316   7.570   2.505   6.149
 8762SOL    HW138317   7.525   2.417   6.166
 8762SOL    HW238318   7.569   2.559   6.233
 8763SOL     OW38319   9.137   2.784   6.198
 8763SOL    HW138320   9.232   2.755   6.206
 8763SOL    HW238321   9.129   2.849   6.123
 8764SOL     OW38322   9.089   2.970   6.018
 8764SOL    HW138323   9.175   2.972   5.966
 8764SOL    HW238324   9.103   3.017   6.106
 8765SOL     OW38325   8.061   3.227   6.312
 8765SOL    HW138326   8.012   3.140   6.321
 8765SOL    HW238327   8.038   3.270   6.225
 8766SOL     OW38328   8.257   1.866   6.088
 8766SOL    HW138329   8.297   1.957   6.079
 8766SOL    HW238330   8.157   1.874   6.094
 8767SOL     OW38331   7.645   2.838   6.850
 8767SOL    HW138332   7.734   2.793   6.836
 8767SOL    HW238333   7.572   2.773   6.831
 8768SOL     OW38334   8.973   2.861   5.776
 8768SOL    HW138335   8.910   2.785   5.789
 8768SOL    HW238336   9.021   2.879   5.862
 8769SOL     OW38337   8.914   3.279   6.539
 8769SOL    HW138338   8.855   3.285   6.619
 8769SOL    HW238339   8.899   3.191   6.493
 8770SOL     OW38340   8.046   2.591   5.856
 8770SOL    HW138341   8.070   2.660   5.788
 8770SOL    HW238342   7.968   2.624   5.910
 8771SOL     OW38343   8.729   2.207   6.530
 8771SOL    HW138344   8.643   2.157   6.517
 8771SOL    HW238345   8.791   2.153   6.586
 8772SOL     OW38346   9.024   3.524   5.893
 8772SOL    HW138347   9.113   3.570   5.896
 8772SOL    HW238348   9.003   3.500   5.798
 8773SOL     OW38349   8.439   2.272   6.828
 8773SOL    HW138350   8.362   2.306   6.882
 8773SOL    HW238351   8.405   2.221   6.749
 8774SOL     OW38352   8.489   2.563   6.015
 8774SOL    HW138353   8.515   2.559   6.111
 8774SOL    HW238354   8.404   2.512   6.001
 8775SOL     OW38355   7.524   2.673   6.375
 8775SOL    HW138356   7.623   2.661   6.384
 8775SOL    HW238357   7.500   2.768   6.396
 8776SOL     OW38358   8.313   2.210   5.781
 8776SOL    HW138359   8.372   2.273   5.732
 8776SOL    HW238360   8.332   2.116   5.752
 8777SOL     OW38361   8.810   3.006   6.131
 8777SOL    HW138362   8.893   2.977   6.083
 8777SOL    HW238363   8.761   3.073   6.075
 8778SOL     OW38364   7.998   2.058   6.471
 8778SOL    HW138365   7.993   2.053   6.571
 8778SOL    HW238366   8.000   2.154   6.442
 8779SOL     OW38367   8.456   3.318   6.063
 8779SOL    HW138368   8.410   3.390   6.011
 8779SOL    HW238369   8.452   3.338   6.161
 8780SOL     OW38370   7.799   3.663   6.439
 8780SOL    HW138371   7.849   3.577   6.445
 8780SOL    HW238372   7.864   3.740   6.436
 8781SOL     OW38373   9.243   2.928   6.459
 8781SOL    HW138374   9.181   2.913   6.383
 8781SOL    HW238375   9.191   2.939   6.544
 8782SOL     OW38376   7.769   2.805   5.828
 8782SOL    HW138377   7.851   2.844   5.786
 8782SOL    HW238378   7.742   2.723   5.779
 8783SOL     OW38379   8.906   2.597   6.314
 8783SOL    HW138380   8.901   2.532   6.389
 8783SOL    HW238381   8.986   2.656   6.327
 8784SOL     OW38382   9.080   3.239   5.667
 8784SOL    HW138383   9.048   3.333   5.657
 8784SOL    HW238384   9.004   3.176   5.655
 8785SOL     OW38385   8.848   1.969   6.012
 8785SOL    HW138386   8.824   1.932   5.922
 8785SOL    HW238387   8.947   1.985   6.016
 8786SOL     OW38388   7.697   3.647   6.827
 8786SOL    HW138389   7.754   3.582   6.877
 8786SOL    HW238390   7.681   3.614   6.734
 8787SOL     OW38391   8.388   3.560   6.490
 8787SOL    HW138392   8.468   3.503   6.511
 8787SOL    HW238393   8.339   3.520   6.413
 8788SOL     OW38394   7.830   2.562   6.066
 8788SOL    HW138395   7.875   2.472   6.063
 8788SOL    HW238396   7.736   2.551   6.099
 8789SOL     OW38397   8.251   3.264   6.510
 8789SOL    HW138398   8.341   3.278   6.468
 8789SOL    HW238399   8.180   3.266   6.439
 8790SOL     OW38400   8.370   2.365   6.485
 8790SOL    HW138401   8.345   2.356   6.389
 8790SOL    HW238402   8.418   2.283   6.516
 8791SOL     OW38403   7.987   1.926   6.098
 8791SOL    HW138404   7.906   1.927   6.156
 8791SOL    HW238405   7.990   2.009   6.043
 8792SOL     OW38406   8.882   3.050   5.627
 8792SOL    HW138407   8.914   2.974   5.684
 8792SOL    HW238408   8.790   3.077   5.657
 8793SOL     OW38409   8.383   2.098   6.066
 8793SOL    HW138410   8.335   2.139   5.988
 8793SOL    HW238411   8.482   2.096   6.047
 8794SOL     OW38412   8.675   3.432   6.379
 8794SOL    HW138413   8.696   3.506   6.314
 8794SOL    HW238414   8.743   3.432   6.452
 8795SOL     OW38415   7.907   3.014   6.327
 8795SOL    HW138416   7.836   2.987   6.392
 8795SOL    HW238417   7.881   2.986   6.234
 8796SOL     OW38418   8.719   3.659   6.177
 8796SOL    HW138419   8.763   3.723   6.113
 8796SOL    HW238420   8.669   3.711   6.247
 8797SOL     OW38421   8.009   2.084   6.733
 8797SOL    HW138422   8.047   2.000   6.770
 8797SOL    HW238423   7.921   2.103   6.777
 8798SOL     OW38424   8.314   2.316   6.228
 8798SOL    HW138425   8.282   2.388   6.166
 8798SOL    HW238426   8.338   2.235   6.175
 8799SOL     OW38427   8.465   1.901   6.339
 8799SOL    HW138428   8.393   1.906   6.270
 8799SOL    HW238429   8.441   1.832   6.408
 8800SOL     OW38430   8.877   3.035   6.453
 8800SOL    HW138431   8.822   2.951   6.446
 8800SOL    HW238432   8.903   3.064   6.361
 8801SOL     OW38433   8.914   2.452   6.578
 8801SOL    HW138434   8.884   2.357   6.585
 8801SOL    HW238435   8.987   2.468   6.644
 8802SOL     OW38436   9.305   2.695   5.963
 8802SOL    HW138437   9.347   2.631   6.027
 8802SOL    HW238438   9.267   2.644   5.885
 8803SOL     OW38439   9.112   3.142   6.243
 8803SOL    HW138440   9.211   3.150   6.257
 8803SOL    HW238441   9.067   3.226   6.274
 8804SOL     OW38442   9.202   3.085   7.174
 8804SOL    HW138443   9.293   3.046   7.161
 8804SOL    HW238444   9.210   3.181   7.198
 8805SOL     OW38445   8.559   3.057   6.686
 8805SOL    HW138446   8.519   3.101   6.767
 8805SOL    HW238447   8.518   3.094   6.603
 8806SOL     OW38448   9.086   2.961   6.665
 8806SOL    HW138449   9.091   3.042   6.724
 8806SOL    HW238450   9.000   2.963   6.614
 8807SOL     OW38451   7.858   2.675   6.837
 8807SOL    HW138452   7.944   2.687   6.887
 8807SOL    HW238453   7.816   2.588   6.864
 8808SOL     OW38454   8.722   2.248   6.848
 8808SOL    HW138455   8.743   2.322   6.912
 8808SOL    HW238456   8.633   2.265   6.805
 8809SOL     OW38457   7.815   2.962   6.087
 8809SOL    HW138458   7.808   3.045   6.031
 8809SOL    HW238459   7.819   2.882   6.027
 8810SOL     OW38460   8.014   2.399   6.451
 8810SOL    HW138461   8.026   2.465   6.377
 8810SOL    HW238462   8.060   2.433   6.534
 8811SOL     OW38463   8.700   3.210   5.974
 8811SOL    HW138464   8.750   3.287   6.014
 8811SOL    HW238465   8.605   3.212   6.006
 8812SOL     OW38466   8.720   3.307   6.728
 8812SOL    HW138467   8.767   3.320   6.815
 8812SOL    HW238468   8.654   3.233   6.737
 8813SOL     OW38469   9.030   2.501   6.058
 8813SOL    HW138470   8.999   2.562   6.131
 8813SOL    HW238471   9.080   2.553   5.989
 8814SOL     OW38472   7.802   3.372   6.915
 8814SOL    HW138473   7.781   3.328   6.828
 8814SOL    HW238474   7.899   3.398   6.918
 8815SOL     OW38475   8.021   2.732   6.615
 8815SOL    HW138476   8.065   2.821   6.606
 8815SOL    HW238477   7.958   2.732   6.692
 8816SOL     OW38478   8.808   2.724   6.631
 8816SOL    HW138479   8.733   2.724   6.565
 8816SOL    HW238480   8.845   2.632   6.640
 8817SOL     OW38481   8.657   2.387   5.861
 8817SOL    HW138482   8.670   2.303   5.915
 8817SOL    HW238483   8.628   2.461   5.921
 8818SOL     OW38484   7.755   2.075   6.817
 8818SOL    HW138485   7.732   2.112   6.907
 8818SOL    HW238486   7.725   1.980   6.811
 8819SOL     OW38487   7.485   3.172   6.868
 8819SOL    HW138488   7.538   3.123   6.936
 8819SOL    HW238489   7.507   3.270   6.873
 8820SOL     OW38490   8.180   2.496   6.650
 8820SOL    HW138491   8.239   2.470   6.574
 8820SOL    HW238492   8.152   2.592   6.639
 8821SOL     OW38493   7.755   1.925   6.204
 8821SOL    HW138494   7.744   2.019   6.237
 8821SOL    HW238495   7.750   1.862   6.281
 8822SOL     OW38496   9.070   2.229   5.960
 8822SOL    HW138497   9.072   2.153   6.024
 8822SOL    HW238498   9.022   2.306   6.000
 8823SOL     OW38499   8.471   2.628   6.552
 8823SOL    HW138500   8.486   2.649   6.648
 8823SOL    HW238501   8.441   2.533   6.543
 8824SOL     OW38502   8.516   3.195   6.435
 8824SOL    HW138503   8.523   3.111   6.380
 8824SOL    HW238504   8.578   3.264   6.399
 8825SOL     OW38505   7.767   2.672   6.535
 8825SOL    HW138506   7.860   2.708   6.540
 8825SOL    HW238507   7.761   2.587   6.587
 8826SOL     OW38508   7.787   2.371   6.592
 8826SOL    HW138509   7.735   2.288   6.575
 8826SOL    HW238510   7.864   2.376   6.528
 8827SOL     OW38511   8.608   2.069   7.063
 8827SOL    HW138512   8.608   2.133   7.140
 8827SOL    HW238513   8.636   2.117   6.980
 8828SOL     OW38514   7.952   3.430   6.496
 8828SOL    HW138515   8.018   3.504   6.505
 8828SOL    HW238516   7.996   3.351   6.454
 8829SOL     OW38517   8.450   2.658   6.824
 8829SOL    HW138518   8.491   2.626   6.910
 8829SOL    HW238519   8.354   2.631   6.821
 8830SOL     OW38520   7.488   2.406   6.700
 8830SOL    HW138521   7.573   2.373   6.659
 8830SOL    HW238522   7.501   2.421   6.798
 8831SOL     OW38523   8.263   2.434   5.911
 8831SOL    HW138524   8.270   2.345   5.865
 8831SOL    HW238525   8.169   2.468   5.903
 8832SOL     OW38526   9.105   2.466   6.792
 8832SOL    HW138527   9.067   2.397   6.854
 8832SOL    HW238528   9.187   2.430   6.748
 8833SOL     OW38529   8.119   2.326   6.855
 8833SOL    HW138530   8.085   2.237   6.825
 8833SOL    HW238531   8.145   2.380   6.775
 8834SOL     OW38532   8.378   3.540   7.051
 8834SOL    HW138533   8.354   3.522   6.956
 8834SOL    HW238534   8.408   3.634   7.061
 8835SOL     OW38535   7.921   2.362   5.777
 8835SOL    HW138536   7.982   2.442   5.781
 8835SOL    HW238537   7.826   2.393   5.784
 8836SOL     OW38538   8.795   2.921   6.820
 8836SOL    HW138539   8.819   2.858   6.746
 8836SOL    HW238540   8.705   2.961   6.802
 8837SOL     OW38541   8.750   2.717   5.895
 8837SOL    HW138542   8.664   2.686   5.937
 8837SOL    HW238543   8.746   2.703   5.796
 8838SOL     OW38544   9.207   3.609   6.740
 8838SOL    HW138545   9.268   3.639   6.667
 8838SOL    HW238546   9.169   3.520   6.718
 8839SOL     OW38547   8.700   3.593   6.714
 8839SOL    HW138548   8.784   3.598   6.660
 8839SOL    HW238549   8.677   3.497   6.732
 8840SOL     OW38550   7.531   3.120   6.608
 8840SOL    HW138551   7.526   3.119   6.708
 8840SOL    HW238552   7.448   3.079   6.570
 8841SOL     OW38553   9.174   1.997   6.109
 8841SOL    HW138554   9.247   1.980   6.042
 8841SOL    HW238555   9.143   1.910   6.147
 8842SOL     OW38556   8.836   3.435   6.063
 8842SOL    HW138557   8.903   3.447   5.989
 8842SOL    HW238558   8.796   3.524   6.086
 8843SOL     OW38559   8.728   2.789   6.258
 8843SOL    HW138560   8.788   2.708   6.260
 8843SOL    HW238561   8.768   2.858   6.198
 8844SOL     OW38562   9.098   3.582   6.980
 8844SOL    HW138563   9.151   3.592   6.896
 8844SOL    HW238564   9.071   3.672   7.014
 8845SOL     OW38565   9.289   2.037   6.549
 8845SOL    HW138566   9.328   1.952   6.513
 8845SOL    HW238567   9.191   2.039   6.530
 8846SOL     OW38568   7.711   2.188   6.306
 8846SOL    HW138569   7.632   2.239   6.272
 8846SOL    HW238570   7.702   2.173   6.404
 8847SOL     OW38571   8.270   2.864   6.958
 8847SOL    HW138572   8.310   2.863   6.866
 8847SOL    HW238573   8.280   2.956   6.998
 8848SOL     OW38574   8.364   2.772   5.877
 8848SOL    HW138575   8.427   2.810   5.809
 8848SOL    HW238576   8.404   2.689   5.916
 8849SOL     OW38577   8.952   3.469   5.630
 8849SOL    HW138578   8.860   3.506   5.637
 8849SOL    HW238579   8.990   3.489   5.540
 8850SOL     OW38580   8.487   2.960   6.282
 8850SOL    HW138581   8.417   2.913   6.336
 8850SOL    HW238582   8.546   2.892   6.239
 8851SOL     OW38583   8.462   2.098   6.557
 8851SOL    HW138584   8.454   2.062   6.464
 8851SOL    HW238585   8.460   2.022   6.622
 8852SOL     OW38586   8.038   3.349   6.077
 8852SOL    HW138587   8.080   3.291   6.007
 8852SOL    HW238588   7.994   3.428   6.033
 8853SOL     OW38589   9.157   2.247   6.967
 8853SOL    HW138590   9.230   2.316   6.971
 8853SOL    HW238591   9.185   2.172   6.908
 8854SOL     OW38592   7.703   3.210   5.876
 8854SOL    HW138593   7.607   3.211   5.849
 8854SOL    HW238594   7.715   3.263   5.960
 8855SOL     OW38595   8.631   3.197   5.705
 8855SOL    HW138596   8.532   3.186   5.707
 8855SOL    HW238597   8.665   3.212   5.798
 8856SOL     OW38598   8.941   3.629   6.545
 8856SOL    HW138599   8.974   3.693   6.476
 8856SOL    HW238600   9.007   3.623   6.620
 8857SOL     OW38601   8.898   3.082   7.219
 8857SOL    HW138602   8.889   3.072   7.318
 8857SOL    HW238603   8.994   3.075   7.193
 8858SOL     OW38604   9.122   2.745   6.840
 8858SOL    HW138605   9.095   2.656   6.803
 8858SOL    HW238606   9.123   2.813   6.767
 8859SOL     OW38607   8.673   2.187   6.035
 8859SOL    HW138608   8.738   2.113   6.024
 8859SOL    HW238609   8.693   2.237   6.119
 8860SOL     OW38610   8.042   2.607   6.238
 8860SOL    HW138611   8.092   2.692   6.219
 8860SOL    HW238612   7.954   2.609   6.190
 8861SOL     OW38613   9.178   2.796   7.103
 8861SOL    HW138614   9.216   2.887   7.118
 8861SOL    HW238615   9.170   2.779   7.004
 8862SOL     OW38616   8.109   3.652   6.539
 8862SOL    HW138617   8.063   3.740   6.526
 8862SOL    HW238618   8.208   3.664   6.532
 8863SOL     OW38619   8.307   2.818   6.447
 8863SOL    HW138620   8.361   2.749   6.495
 8863SOL    HW238621   8.275   2.887   6.513
 8864SOL     OW38622   7.527   3.102   6.239
 8864SOL    HW138623   7.526   3.055   6.327
 8864SOL    HW238624   7.609   3.074   6.188
 8865SOL     OW38625   9.272   2.054   6.813
 8865SOL    HW138626   9.268   1.964   6.857
 8865SOL    HW238627   9.275   2.043   6.714
 8866SOL     OW38628   7.876   2.286   6.106
 8866SOL    HW138629   7.906   2.214   6.044
 8866SOL    HW238630   7.837   2.246   6.189
 8867SOL     OW38631   9.153   3.349   6.690
 8867SOL    HW138632   9.060   3.324   6.663
 8867SOL    HW238633   9.179   3.299   6.772
 8868SOL     OW38634   8.260   3.448   6.273
 8868SOL    HW138635   8.292   3.458   6.179
 8868SOL    HW238636   8.181   3.386   6.275
 8869SOL     OW38637   8.872   2.076   6.698
 8869SOL    HW138638   8.924   2.011   6.753
 8869SOL    HW238639   8.823   2.139   6.759
 8870SOL     OW38640   8.449   1.896   6.740
 8870SOL    HW138641   8.386   1.824   6.709
 8870SOL    HW238642   8.542   1.860   6.740
 8871SOL     OW38643   8.748   2.315   6.277
 8871SOL    HW138644   8.689   2.395   6.281
 8871SOL    HW238645   8.763   2.280   6.370
 8872SOL     OW38646   9.041   2.083   6.468
 8872SOL    HW138647   8.957   2.082   6.522
 8872SOL    HW238648   9.043   2.166   6.412
 8873SOL     OW38649   7.487   2.939   5.886
 8873SOL    HW138650   7.586   2.928   5.877
 8873SOL    HW238651   7.447   2.853   5.918
 8874SOL     OW38652   7.678   4.352   0.113
 8874SOL    HW138653   7.585   4.350   0.150
 8874SOL    HW238654   7.679   4.313   0.021
 8875SOL     OW38655   7.673   3.999   0.996
 8875SOL    HW138656   7.708   3.982   1.088
 8875SOL    HW238657   7.585   3.954   0.984
 8876SOL     OW38658   7.467   4.092   0.647
 8876SOL    HW138659   7.385   4.135   0.686
 8876SOL    HW238660   7.439   4.019   0.584
 8877SOL     OW38661   9.003   5.235   0.703
 8877SOL    HW138662   8.946   5.219   0.784
 8877SOL    HW238663   8.944   5.245   0.623
 8878SOL     OW38664   8.583   4.427   0.717
 8878SOL    HW138665   8.640   4.505   0.692
 8878SOL    HW238666   8.523   4.453   0.793
 8879SOL     OW38667   9.203   4.331   0.231
 8879SOL    HW138668   9.191   4.318   0.132
 8879SOL    HW238669   9.173   4.250   0.280
 8880SOL     OW38670   8.133   4.736   0.665
 8880SOL    HW138671   8.202   4.720   0.735
 8880SOL    HW238672   8.060   4.793   0.703
 8881SOL     OW38673   8.134   4.885   1.803
 8881SOL    HW138674   8.194   4.964   1.817
 8881SOL    HW238675   8.048   4.916   1.762
 8882SOL     OW38676   8.908   5.229   1.339
 8882SOL    HW138677   8.932   5.323   1.365
 8882SOL    HW238678   8.892   5.175   1.421
 8883SOL     OW38679   9.051   4.171   0.737
 8883SOL    HW138680   8.977   4.217   0.687
 8883SOL    HW238681   9.102   4.239   0.790
 8884SOL     OW38682   7.679   5.437   0.483
 8884SOL    HW138683   7.713   5.514   0.537
 8884SOL    HW238684   7.723   5.437   0.393
 8885SOL     OW38685   8.575   5.065   1.690
 8885SOL    HW138686   8.622   5.065   1.778
 8885SOL    HW238687   8.527   4.978   1.679
 8886SOL     OW38688   7.678   5.158   0.538
 8886SOL    HW138689   7.652   5.254   0.538
 8886SOL    HW238690   7.607   5.104   0.583
 8887SOL     OW38691   8.054   4.688   0.123
 8887SOL    HW138692   8.061   4.772   0.069
 8887SOL    HW238693   8.100   4.701   0.211
 8888SOL     OW38694   7.570   4.367   0.563
 8888SOL    HW138695   7.525   4.279   0.580
 8888SOL    HW238696   7.569   4.421   0.647
 8889SOL     OW38697   9.290   5.491   0.359
 8889SOL    HW138698   9.344   5.462   0.439
 8889SOL    HW238699   9.320   5.581   0.330
 8890SOL     OW38700   7.475   5.320   0.117
 8890SOL    HW138701   7.456   5.224   0.138
 8890SOL    HW238702   7.442   5.378   0.192
 8891SOL     OW38703   9.137   4.646   0.612
 8891SOL    HW138704   9.232   4.617   0.620
 8891SOL    HW238705   9.129   4.711   0.537
 8892SOL     OW38706   9.089   4.832   0.432
 8892SOL    HW138707   9.175   4.834   0.380
 8892SOL    HW238708   9.103   4.879   0.520
 8893SOL     OW38709   8.061   5.089   0.726
 8893SOL    HW138710   8.012   5.002   0.735
 8893SOL    HW238711   8.038   5.132   0.639
 8894SOL     OW38712   8.257   3.728   0.502
 8894SOL    HW138713   8.297   3.819   0.493
 8894SOL    HW238714   8.157   3.736   0.508
 8895SOL     OW38715   8.973   4.723   0.190
 8895SOL    HW138716   8.910   4.647   0.203
 8895SOL    HW238717   9.021   4.741   0.276
 8896SOL     OW38718   7.765   3.975   1.801
 8896SOL    HW138719   7.836   4.046   1.807
 8896SOL    HW238720   7.677   4.014   1.829
 8897SOL     OW38721   8.914   5.141   0.953
 8897SOL    HW138722   8.855   5.147   1.033
 8897SOL    HW238723   8.899   5.053   0.907
 8898SOL     OW38724   9.115   5.438   0.572
 8898SOL    HW138725   9.074   5.415   0.484
 8898SOL    HW238726   9.097   5.364   0.637
 8899SOL     OW38727   8.046   4.453   0.270
 8899SOL    HW138728   8.070   4.522   0.202
 8899SOL    HW238729   7.968   4.486   0.324
 8900SOL     OW38730   8.729   4.069   0.944
 8900SOL    HW138731   8.643   4.019   0.931
 8900SOL    HW238732   8.791   4.015   1.000
 8901SOL     OW38733   9.024   5.386   0.307
 8901SOL    HW138734   9.113   5.432   0.310
 8901SOL    HW238735   9.003   5.362   0.212
 8902SOL     OW38736   8.421   4.614   1.572
 8902SOL    HW138737   8.467   4.530   1.543
 8902SOL    HW238738   8.365   4.648   1.497
 8903SOL     OW38739   8.489   4.425   0.429
 8903SOL    HW138740   8.515   4.421   0.525
 8903SOL    HW238741   8.404   4.374   0.415
 8904SOL     OW38742   7.524   4.535   0.789
 8904SOL    HW138743   7.623   4.523   0.798
 8904SOL    HW238744   7.500   4.630   0.810
 8905SOL     OW38745   8.313   4.072   0.195
 8905SOL    HW138746   8.372   4.135   0.146
 8905SOL    HW238747   8.332   3.978   0.166
 8906SOL     OW38748   8.810   4.868   0.545
 8906SOL    HW138749   8.893   4.839   0.497
 8906SOL    HW238750   8.761   4.935   0.489
 8907SOL     OW38751   7.998   3.920   0.885
 8907SOL    HW138752   7.993   3.915   0.985
 8907SOL    HW238753   8.000   4.016   0.856
 8908SOL     OW38754   8.456   5.180   0.477
 8908SOL    HW138755   8.410   5.252   0.425
 8908SOL    HW238756   8.452   5.200   0.575
 8909SOL     OW38757   8.675   5.274   1.506
 8909SOL    HW138758   8.681   5.197   1.570
 8909SOL    HW238759   8.623   5.248   1.426
 8910SOL     OW38760   7.769   4.667   0.242
 8910SOL    HW138761   7.851   4.706   0.200
 8910SOL    HW238762   7.742   4.585   0.193
 8911SOL     OW38763   8.906   4.459   0.728
 8911SOL    HW138764   8.901   4.394   0.803
 8911SOL    HW238765   8.986   4.518   0.741
 8912SOL     OW38766   8.559   5.500   0.237
 8912SOL    HW138767   8.499   5.438   0.287
 8912SOL    HW238768   8.590   5.456   0.152
 8913SOL     OW38769   7.650   4.009   1.498
 8913SOL    HW138770   7.570   4.069   1.485
 8913SOL    HW238771   7.640   3.960   1.584
 8914SOL     OW38772   9.080   5.101   0.081
 8914SOL    HW138773   9.048   5.195   0.071
 8914SOL    HW238774   9.004   5.038   0.069
 8915SOL     OW38775   7.912   5.467   0.323
 8915SOL    HW138776   7.945   5.506   0.409
 8915SOL    HW238777   7.988   5.460   0.258
 8916SOL     OW38778   8.848   3.831   0.426
 8916SOL    HW138779   8.824   3.794   0.336
 8916SOL    HW238780   8.947   3.847   0.430
 8917SOL     OW38781   7.697   5.509   1.241
 8917SOL    HW138782   7.754   5.444   1.291
 8917SOL    HW238783   7.681   5.476   1.148
 8918SOL     OW38784   8.388   5.422   0.904
 8918SOL    HW138785   8.468   5.365   0.925
 8918SOL    HW238786   8.339   5.382   0.827
 8919SOL     OW38787   7.830   4.424   0.480
 8919SOL    HW138788   7.875   4.334   0.477
 8919SOL    HW238789   7.736   4.413   0.513
 8920SOL     OW38790   8.251   5.126   0.924
 8920SOL    HW138791   8.341   5.140   0.882
 8920SOL    HW238792   8.180   5.128   0.853
 8921SOL     OW38793   8.370   4.227   0.899
 8921SOL    HW138794   8.345   4.218   0.803
 8921SOL    HW238795   8.418   4.145   0.930
 8922SOL     OW38796   7.987   3.788   0.512
 8922SOL    HW138797   7.906   3.789   0.570
 8922SOL    HW238798   7.990   3.871   0.457
 8923SOL     OW38799   8.882   4.912   0.041
 8923SOL    HW138800   8.914   4.836   0.098
 8923SOL    HW238801   8.790   4.939   0.071
 8924SOL     OW38802   7.745   3.759   0.171
 8924SOL    HW138803   7.794   3.843   0.150
 8924SOL    HW238804   7.807   3.694   0.216
 8925SOL     OW38805   8.383   3.960   0.480
 8925SOL    HW138806   8.335   4.001   0.402
 8925SOL    HW238807   8.482   3.958   0.461
 8926SOL     OW38808   8.675   5.294   0.793
 8926SOL    HW138809   8.696   5.368   0.728
 8926SOL    HW238810   8.743   5.294   0.866
 8927SOL     OW38811   7.907   4.876   0.741
 8927SOL    HW138812   7.836   4.849   0.806
 8927SOL    HW238813   7.881   4.848   0.648
 8928SOL     OW38814   8.719   5.521   0.591
 8928SOL    HW138815   8.763   5.585   0.527
 8928SOL    HW238816   8.669   5.573   0.661
 8929SOL     OW38817   8.480   4.273   0.016
 8929SOL    HW138818   8.439   4.355  -0.023
 8929SOL    HW238819   8.544   4.299   0.089
 8930SOL     OW38820   7.526   4.280   1.386
 8930SOL    HW138821   7.618   4.279   1.345
 8930SOL    HW238822   7.520   4.354   1.453
 8931SOL     OW38823   8.009   3.946   1.147
 8931SOL    HW138824   8.047   3.862   1.184
 8931SOL    HW238825   7.921   3.965   1.191
 8932SOL     OW38826   8.314   4.178   0.642
 8932SOL    HW138827   8.282   4.250   0.580
 8932SOL    HW238828   8.338   4.097   0.589
 8933SOL     OW38829   8.465   3.763   0.753
 8933SOL    HW138830   8.393   3.768   0.684
 8933SOL    HW238831   8.441   3.694   0.822
 8934SOL     OW38832   8.877   4.897   0.867
 8934SOL    HW138833   8.822   4.813   0.860
 8934SOL    HW238834   8.903   4.926   0.775
 8935SOL     OW38835   8.914   4.314   0.992
 8935SOL    HW138836   8.884   4.219   0.999
 8935SOL    HW238837   8.987   4.330   1.058
 8936SOL     OW38838   9.305   4.557   0.377
 8936SOL    HW138839   9.347   4.493   0.441
 8936SOL    HW238840   9.267   4.506   0.299
 8937SOL     OW38841   7.936   5.109   0.174
 8937SOL    HW138842   7.849   5.094   0.221
 8937SOL    HW238843   7.919   5.135   0.079
 8938SOL     OW38844   9.112   5.004   0.657
 8938SOL    HW138845   9.211   5.012   0.671
 8938SOL    HW238846   9.067   5.088   0.688
 8939SOL     OW38847   8.838   4.299   0.078
 8939SOL    HW138848   8.784   4.278   0.159
 8939SOL    HW238849   8.929   4.258   0.087
 8940SOL     OW38850   7.975   3.980   0.328
 8940SOL    HW138851   8.002   3.921   0.253
 8940SOL    HW238852   7.975   4.075   0.297
 8941SOL     OW38853   9.202   4.947   1.588
 8941SOL    HW138854   9.293   4.908   1.575
 8941SOL    HW238855   9.210   5.043   1.612
 8942SOL     OW38856   9.040   5.353   1.625
 8942SOL    HW138857   9.067   5.387   1.535
 8942SOL    HW238858   9.119   5.315   1.671
 8943SOL     OW38859   8.363   3.813   1.402
 8943SOL    HW138860   8.388   3.793   1.307
 8943SOL    HW238861   8.435   3.869   1.444
 8944SOL     OW38862   8.153   4.774   0.368
 8944SOL    HW138863   8.139   4.781   0.467
 8944SOL    HW238864   8.237   4.723   0.350
 8945SOL     OW38865   7.512   5.288   1.331
 8945SOL    HW138866   7.466   5.370   1.297
 8945SOL    HW238867   7.610   5.307   1.340
 8946SOL     OW38868   7.815   4.824   0.501
 8946SOL    HW138869   7.808   4.907   0.445
 8946SOL    HW238870   7.819   4.744   0.441
 8947SOL     OW38871   8.014   4.261   0.865
 8947SOL    HW138872   8.026   4.327   0.791
 8947SOL    HW238873   8.060   4.295   0.948
 8948SOL     OW38874   8.700   5.072   0.388
 8948SOL    HW138875   8.750   5.149   0.428
 8948SOL    HW238876   8.605   5.074   0.420
 8949SOL     OW38877   9.030   4.363   0.472
 8949SOL    HW138878   8.999   4.424   0.545
 8949SOL    HW238879   9.080   4.415   0.403
 8950SOL     OW38880   7.952   3.774   1.740
 8950SOL    HW138881   7.910   3.717   1.670
 8950SOL    HW238882   7.886   3.843   1.772
 8951SOL     OW38883   8.808   4.586   1.045
 8951SOL    HW138884   8.733   4.586   0.979
 8951SOL    HW238885   8.845   4.494   1.054
 8952SOL     OW38886   8.657   4.249   0.275
 8952SOL    HW138887   8.670   4.165   0.329
 8952SOL    HW238888   8.628   4.323   0.335
 8953SOL     OW38889   7.755   3.937   1.231
 8953SOL    HW138890   7.732   3.974   1.321
 8953SOL    HW238891   7.725   3.842   1.225
 8954SOL     OW38892   7.485   5.034   1.282
 8954SOL    HW138893   7.538   4.985   1.350
 8954SOL    HW238894   7.507   5.132   1.287
 8955SOL     OW38895   8.180   4.358   1.064
 8955SOL    HW138896   8.239   4.332   0.988
 8955SOL    HW238897   8.152   4.454   1.053
 8956SOL     OW38898   7.755   3.787   0.618
 8956SOL    HW138899   7.744   3.881   0.651
 8956SOL    HW238900   7.750   3.724   0.695
 8957SOL     OW38901   9.070   4.091   0.374
 8957SOL    HW138902   9.072   4.015   0.438
 8957SOL    HW238903   9.022   4.168   0.414
 8958SOL     OW38904   8.471   4.490   0.966
 8958SOL    HW138905   8.486   4.511   1.062
 8958SOL    HW238906   8.441   4.395   0.957
 8959SOL     OW38907   8.988   3.998   0.125
 8959SOL    HW138908   8.927   3.923   0.148
 8959SOL    HW238909   9.010   4.050   0.208
 8960SOL     OW38910   8.751   4.562   0.042
 8960SOL    HW138911   8.785   4.469   0.057
 8960SOL    HW238912   8.769   4.589  -0.053
 8961SOL     OW38913   8.516   5.057   0.849
 8961SOL    HW138914   8.523   4.973   0.794
 8961SOL    HW238915   8.578   5.126   0.813
 8962SOL     OW38916   7.787   4.233   1.006
 8962SOL    HW138917   7.735   4.150   0.989
 8962SOL    HW238918   7.864   4.238   0.942
 8963SOL     OW38919   8.450   4.520   1.238
 8963SOL    HW138920   8.491   4.488   1.324
 8963SOL    HW238921   8.354   4.493   1.235
 8964SOL     OW38922   7.637   4.244   1.722
 8964SOL    HW138923   7.696   4.204   1.652
 8964SOL    HW238924   7.579   4.315   1.681
 8965SOL     OW38925   8.817   4.674   1.660
 8965SOL    HW138926   8.856   4.763   1.680
 8965SOL    HW238927   8.827   4.654   1.563
 8966SOL     OW38928   8.263   4.296   0.325
 8966SOL    HW138929   8.270   4.207   0.279
 8966SOL    HW238930   8.169   4.330   0.317
 8967SOL     OW38931   9.105   4.328   1.206
 8967SOL    HW138932   9.067   4.259   1.268
 8967SOL    HW238933   9.187   4.292   1.162
 8968SOL     OW38934   8.119   4.188   1.269
 8968SOL    HW138935   8.085   4.099   1.239
 8968SOL    HW238936   8.145   4.242   1.189
 8969SOL     OW38937   8.378   5.402   1.465
 8969SOL    HW138938   8.354   5.384   1.370
 8969SOL    HW238939   8.408   5.496   1.475
 8970SOL     OW38940   7.921   4.224   0.191
 8970SOL    HW138941   7.982   4.304   0.195
 8970SOL    HW238942   7.826   4.255   0.198
 8971SOL     OW38943   7.607   4.861   1.466
 8971SOL    HW138944   7.629   4.800   1.542
 8971SOL    HW238945   7.617   4.812   1.380
 8972SOL     OW38946   8.750   4.579   0.309
 8972SOL    HW138947   8.664   4.548   0.351
 8972SOL    HW238948   8.746   4.565   0.210
 8973SOL     OW38949   9.207   5.471   1.154
 8973SOL    HW138950   9.268   5.501   1.081
 8973SOL    HW238951   9.169   5.382   1.132
 8974SOL     OW38952   8.700   5.455   1.128
 8974SOL    HW138953   8.784   5.460   1.074
 8974SOL    HW238954   8.677   5.359   1.146
 8975SOL     OW38955   8.351   3.810   0.133
 8975SOL    HW138956   8.402   3.811   0.047
 8975SOL    HW238957   8.407   3.768   0.204
 8976SOL     OW38958   9.174   3.859   0.523
 8976SOL    HW138959   9.247   3.842   0.456
 8976SOL    HW238960   9.143   3.772   0.561
 8977SOL     OW38961   8.836   5.297   0.477
 8977SOL    HW138962   8.903   5.309   0.403
 8977SOL    HW238963   8.796   5.386   0.500
 8978SOL     OW38964   8.728   4.651   0.672
 8978SOL    HW138965   8.788   4.570   0.674
 8978SOL    HW238966   8.768   4.720   0.612
 8979SOL     OW38967   8.278   4.997   1.422
 8979SOL    HW138968   8.273   5.030   1.517
 8979SOL    HW238969   8.192   5.016   1.376
 8980SOL     OW38970   8.120   5.340   0.154
 8980SOL    HW138971   8.129   5.350   0.055
 8980SOL    HW238972   8.080   5.251   0.175
 8981SOL     OW38973   9.289   3.899   0.963
 8981SOL    HW138974   9.328   3.814   0.927
 8981SOL    HW238975   9.191   3.901   0.944
 8982SOL     OW38976   7.711   4.050   0.720
 8982SOL    HW138977   7.632   4.101   0.686
 8982SOL    HW238978   7.702   4.035   0.818
 8983SOL     OW38979   8.642   5.336   0.031
 8983SOL    HW138980   8.648   5.243   0.068
 8983SOL    HW238981   8.583   5.336  -0.049
 8984SOL     OW38982   8.364   4.634   0.291
 8984SOL    HW138983   8.427   4.672   0.223
 8984SOL    HW238984   8.404   4.551   0.330
 8985SOL     OW38985   8.952   5.331   0.044
 8985SOL    HW138986   8.860   5.368   0.051
 8985SOL    HW238987   8.990   5.351  -0.046
 8986SOL     OW38988   7.820   5.012   1.490
 8986SOL    HW138989   7.807   5.105   1.456
 8986SOL    HW238990   7.736   4.960   1.477
 8987SOL     OW38991   8.487   4.822   0.696
 8987SOL    HW138992   8.417   4.775   0.750
 8987SOL    HW238993   8.546   4.754   0.653
 8988SOL     OW38994   8.462   3.960   0.971
 8988SOL    HW138995   8.454   3.924   0.878
 8988SOL    HW238996   8.460   3.884   1.036
 8989SOL     OW38997   8.038   5.211   0.491
 8989SOL    HW138998   8.080   5.153   0.421
 8989SOL    HW238999   7.994   5.290   0.447
 8990SOL     OW39000   9.157   4.109   1.381
 8990SOL    HW139001   9.230   4.178   1.385
 8990SOL    HW239002   9.185   4.034   1.322
 8991SOL     OW39003   7.703   5.072   0.290
 8991SOL    HW139004   7.607   5.073   0.263
 8991SOL    HW239005   7.715   5.125   0.374
 8992SOL     OW39006   8.120   3.927   1.489
 8992SOL    HW139007   8.210   3.911   1.449
 8992SOL    HW239008   8.128   3.932   1.588
 8993SOL     OW39009   7.520   3.890   0.318
 8993SOL    HW139010   7.503   3.973   0.264
 8993SOL    HW239011   7.610   3.853   0.296
 8994SOL     OW39012   8.631   5.059   0.119
 8994SOL    HW139013   8.532   5.048   0.121
 8994SOL    HW239014   8.665   5.074   0.212
 8995SOL     OW39015   8.061   4.566   1.431
 8995SOL    HW139016   8.117   4.647   1.414
 8995SOL    HW239017   8.120   4.486   1.434
 8996SOL     OW39018   8.941   5.491   0.959
 8996SOL    HW139019   8.974   5.555   0.890
 8996SOL    HW239020   9.007   5.485   1.034
 8997SOL     OW39021   8.673   4.049   0.449
 8997SOL    HW139022   8.738   3.975   0.438
 8997SOL    HW239023   8.693   4.099   0.533
 8998SOL     OW39024   8.042   4.469   0.652
 8998SOL    HW139025   8.092   4.554   0.633
 8998SOL    HW239026   7.954   4.471   0.604
 8999SOL     OW39027   8.307   5.098   0.016
 8999SOL    HW139028   8.261   5.113   0.104
 8999SOL    HW239029   8.351   5.183  -0.014
 9000SOL     OW39030   8.531   4.708   0.087
 9000SOL    HW139031   8.508   4.761   0.005
 9000SOL    HW239032   8.612   4.652   0.068
 9001SOL     OW39033   9.309   5.293   0.851
 9001SOL    HW139034   9.238   5.281   0.781
 9001SOL    HW239035   9.310   5.214   0.911
 9002SOL     OW39036   9.272   3.916   1.227
 9002SOL    HW139037   9.268   3.826   1.271
 9002SOL    HW239038   9.275   3.905   1.128
 9003SOL     OW39039   7.876   4.148   0.520
 9003SOL    HW139040   7.906   4.076   0.458
 9003SOL    HW239041   7.837   4.108   0.603
 9004SOL     OW39042   9.153   5.211   1.104
 9004SOL    HW139043   9.060   5.186   1.077
 9004SOL    HW239044   9.179   5.161   1.186
 9005SOL     OW39045   8.260   5.310   0.687
 9005SOL    HW139046   8.292   5.320   0.593
 9005SOL    HW239047   8.181   5.248   0.689
 9006SOL     OW39048   8.449   3.758   1.154
 9006SOL    HW139049   8.386   3.686   1.123
 9006SOL    HW239050   8.542   3.722   1.154
 9007SOL     OW39051   8.218   5.054   0.301
 9007SOL    HW139052   8.172   4.967   0.318
 9007SOL    HW239053   8.309   5.051   0.342
 9008SOL     OW39054   8.800   3.776   0.168
 9008SOL    HW139055   8.835   3.735   0.084
 9008SOL    HW239056   8.710   3.738   0.188
 9009SOL     OW39057   8.748   4.177   0.691
 9009SOL    HW139058   8.689   4.257   0.695
 9009SOL    HW239059   8.763   4.142   0.784
 9010SOL     OW39060   9.041   3.945   0.882
 9010SOL    HW139061   8.957   3.944   0.936
 9010SOL    HW239062   9.043   4.028   0.826
 9011SOL     OW39063   7.487   4.801   0.300
 9011SOL    HW139064   7.586   4.790   0.291
 9011SOL    HW239065   7.447   4.715   0.332
 9012SOL     OW39066   8.323   5.370   0.337
 9012SOL    HW139067   8.246   5.335   0.283
 9012SOL    HW239068   8.291   5.441   0.399
 9013SOL     OW39069   7.467   4.092   2.509
 9013SOL    HW139070   7.385   4.135   2.548
 9013SOL    HW239071   7.439   4.019   2.446
 9014SOL     OW39072   9.003   5.235   2.565
 9014SOL    HW139073   8.946   5.219   2.646
 9014SOL    HW239074   8.944   5.245   2.485
 9015SOL     OW39075   8.134   4.885   3.665
 9015SOL    HW139076   8.194   4.964   3.679
 9015SOL    HW239077   8.048   4.916   3.624
 9016SOL     OW39078   7.679   5.437   2.345
 9016SOL    HW139079   7.713   5.514   2.399
 9016SOL    HW239080   7.723   5.437   2.255
 9017SOL     OW39081   8.575   5.065   3.552
 9017SOL    HW139082   8.622   5.065   3.640
 9017SOL    HW239083   8.527   4.978   3.541
 9018SOL     OW39084   7.678   5.158   2.400
 9018SOL    HW139085   7.652   5.254   2.400
 9018SOL    HW239086   7.607   5.104   2.445
 9019SOL     OW39087   8.054   4.688   1.985
 9019SOL    HW139088   8.061   4.772   1.931
 9019SOL    HW239089   8.100   4.701   2.073
 9020SOL     OW39090   7.475   5.320   1.979
 9020SOL    HW139091   7.456   5.224   2.000
 9020SOL    HW239092   7.442   5.378   2.054
 9021SOL     OW39093   7.561   4.461   3.459
 9021SOL    HW139094   7.649   4.448   3.504
 9021SOL    HW239095   7.548   4.558   3.437
 9022SOL     OW39096   8.741   4.952   3.285
 9022SOL    HW139097   8.778   4.879   3.227
 9022SOL    HW239098   8.793   4.957   3.370
 9023SOL     OW39099   7.765   3.975   3.663
 9023SOL    HW139100   7.836   4.046   3.669
 9023SOL    HW239101   7.677   4.014   3.691
 9024SOL     OW39102   8.914   5.141   2.815
 9024SOL    HW139103   8.855   5.147   2.895
 9024SOL    HW239104   8.899   5.053   2.769
 9025SOL     OW39105   9.115   5.438   2.434
 9025SOL    HW139106   9.074   5.415   2.346
 9025SOL    HW239107   9.097   5.364   2.499
 9026SOL     OW39108   8.729   4.069   2.806
 9026SOL    HW139109   8.643   4.019   2.793
 9026SOL    HW239110   8.791   4.015   2.862
 9027SOL     OW39111   8.421   4.614   3.434
 9027SOL    HW139112   8.467   4.530   3.405
 9027SOL    HW239113   8.365   4.648   3.359
 9028SOL     OW39114   8.313   4.072   2.057
 9028SOL    HW139115   8.372   4.135   2.008
 9028SOL    HW239116   8.332   3.978   2.028
 9029SOL     OW39117   7.799   5.525   2.715
 9029SOL    HW139118   7.849   5.439   2.721
 9029SOL    HW239119   7.864   5.602   2.712
 9030SOL     OW39120   7.650   4.009   3.360
 9030SOL    HW139121   7.570   4.069   3.347
 9030SOL    HW239122   7.640   3.960   3.446
 9031SOL     OW39123   9.080   5.101   1.943
 9031SOL    HW139124   9.048   5.195   1.933
 9031SOL    HW239125   9.004   5.038   1.931
 9032SOL     OW39126   7.697   5.509   3.103
 9032SOL    HW139127   7.754   5.444   3.153
 9032SOL    HW239128   7.681   5.476   3.010
 9033SOL     OW39129   8.995   3.946   3.591
 9033SOL    HW139130   8.990   3.983   3.683
 9033SOL    HW239131   8.923   3.877   3.579
 9034SOL     OW39132   8.336   5.238   3.057
 9034SOL    HW139133   8.313   5.213   2.963
 9034SOL    HW239134   8.397   5.169   3.096
 9035SOL     OW39135   8.799   4.314   3.295
 9035SOL    HW139136   8.827   4.271   3.380
 9035SOL    HW239137   8.824   4.410   3.296
 9036SOL     OW39138   8.251   5.126   2.786
 9036SOL    HW139139   8.341   5.140   2.744
 9036SOL    HW239140   8.180   5.128   2.715
 9037SOL     OW39141   7.987   3.788   2.374
 9037SOL    HW139142   7.906   3.789   2.432
 9037SOL    HW239143   7.990   3.871   2.319
 9038SOL     OW39144   7.745   3.759   2.033
 9038SOL    HW139145   7.794   3.843   2.012
 9038SOL    HW239146   7.807   3.694   2.078
 9039SOL     OW39147   8.524   4.407   3.326
 9039SOL    HW139148   8.444   4.346   3.329
 9039SOL    HW239149   8.605   4.354   3.302
 9040SOL     OW39150   8.675   5.294   2.655
 9040SOL    HW139151   8.696   5.368   2.590
 9040SOL    HW239152   8.743   5.294   2.728
 9041SOL     OW39153   7.907   4.876   2.603
 9041SOL    HW139154   7.836   4.849   2.668
 9041SOL    HW239155   7.881   4.848   2.510
 9042SOL     OW39156   8.480   4.273   1.878
 9042SOL    HW139157   8.439   4.355   1.839
 9042SOL    HW239158   8.544   4.299   1.951
 9043SOL     OW39159   7.936   5.109   2.036
 9043SOL    HW139160   7.849   5.094   2.083
 9043SOL    HW239161   7.919   5.135   1.941
 9044SOL     OW39162   7.975   3.980   2.190
 9044SOL    HW139163   8.002   3.921   2.115
 9044SOL    HW239164   7.975   4.075   2.159
 9045SOL     OW39165   8.559   4.919   2.962
 9045SOL    HW139166   8.519   4.963   3.043
 9045SOL    HW239167   8.518   4.956   2.879
 9046SOL     OW39168   8.428   4.840   3.581
 9046SOL    HW139169   8.329   4.846   3.591
 9046SOL    HW239170   8.451   4.760   3.525
 9047SOL     OW39171   8.700   5.072   2.250
 9047SOL    HW139172   8.750   5.149   2.290
 9047SOL    HW239173   8.605   5.074   2.282
 9048SOL     OW39174   7.802   5.234   3.191
 9048SOL    HW139175   7.781   5.190   3.104
 9048SOL    HW239176   7.899   5.260   3.194
 9049SOL     OW39177   7.850   4.475   3.460
 9049SOL    HW139178   7.918   4.530   3.413
 9049SOL    HW239179   7.890   4.387   3.487
 9050SOL     OW39180   8.461   3.829   3.632
 9050SOL    HW139181   8.467   3.914   3.580
 9050SOL    HW239182   8.493   3.753   3.575
 9051SOL     OW39183   7.952   3.774   3.602
 9051SOL    HW139184   7.910   3.717   3.532
 9051SOL    HW239185   7.886   3.843   3.634
 9052SOL     OW39186   9.070   4.091   2.236
 9052SOL    HW139187   9.072   4.015   2.300
 9052SOL    HW239188   9.022   4.168   2.276
 9053SOL     OW39189   8.428   5.297   3.562
 9053SOL    HW139190   8.408   5.341   3.474
 9053SOL    HW239191   8.467   5.206   3.546
 9054SOL     OW39192   9.307   5.242   3.467
 9054SOL    HW139193   9.321   5.269   3.372
 9054SOL    HW239194   9.390   5.264   3.520
 9055SOL     OW39195   8.751   4.562   1.904
 9055SOL    HW139196   8.785   4.469   1.919
 9055SOL    HW239197   8.769   4.589   1.809
 9056SOL     OW39198   7.787   4.233   2.868
 9056SOL    HW139199   7.735   4.150   2.851
 9056SOL    HW239200   7.864   4.238   2.804
 9057SOL     OW39201   8.586   4.104   3.540
 9057SOL    HW139202   8.541   4.167   3.604
 9057SOL    HW239203   8.679   4.135   3.523
 9058SOL     OW39204   7.536   5.525   2.789
 9058SOL    HW139205   7.494   5.439   2.762
 9058SOL    HW239206   7.630   5.528   2.755
 9059SOL     OW39207   8.700   5.455   2.990
 9059SOL    HW139208   8.784   5.460   2.936
 9059SOL    HW239209   8.677   5.359   3.008
 9060SOL     OW39210   8.278   4.997   3.284
 9060SOL    HW139211   8.273   5.030   3.379
 9060SOL    HW239212   8.192   5.016   3.238
 9061SOL     OW39213   8.270   4.726   3.234
 9061SOL    HW139214   8.310   4.725   3.142
 9061SOL    HW239215   8.280   4.818   3.274
 9062SOL     OW39216   8.364   4.634   2.153
 9062SOL    HW139217   8.427   4.672   2.085
 9062SOL    HW239218   8.404   4.551   2.192
 9063SOL     OW39219   8.462   3.960   2.833
 9063SOL    HW139220   8.454   3.924   2.740
 9063SOL    HW239221   8.460   3.884   2.898
 9064SOL     OW39222   9.157   4.109   3.243
 9064SOL    HW139223   9.230   4.178   3.247
 9064SOL    HW239224   9.185   4.034   3.184
 9065SOL     OW39225   7.703   5.072   2.152
 9065SOL    HW139226   7.607   5.073   2.125
 9065SOL    HW239227   7.715   5.125   2.236
 9066SOL     OW39228   7.553   4.737   3.588
 9066SOL    HW139229   7.476   4.704   3.642
 9066SOL    HW239230   7.638   4.707   3.630
 9067SOL     OW39231   8.120   3.927   3.351
 9067SOL    HW139232   8.210   3.911   3.311
 9067SOL    HW239233   8.128   3.932   3.450
 9068SOL     OW39234   7.523   4.069   1.895
 9068SOL    HW139235   7.431   4.041   1.866
 9068SOL    HW239236   7.554   4.146   1.839
 9069SOL     OW39237   8.888   4.580   3.260
 9069SOL    HW139238   8.831   4.632   3.197
 9069SOL    HW239239   8.984   4.592   3.236
 9070SOL     OW39240   7.520   3.890   2.180
 9070SOL    HW139241   7.503   3.973   2.126
 9070SOL    HW239242   7.610   3.853   2.158
 9071SOL     OW39243   8.061   4.566   3.293
 9071SOL    HW139244   8.117   4.647   3.276
 9071SOL    HW239245   8.120   4.486   3.296
 9072SOL     OW39246   8.164   4.289   3.570
 9072SOL    HW139247   8.183   4.354   3.644
 9072SOL    HW239248   8.224   4.209   3.579
 9073SOL     OW39249   8.109   5.514   2.815
 9073SOL    HW139250   8.063   5.602   2.802
 9073SOL    HW239251   8.208   5.526   2.808
 9074SOL     OW39252   7.669   5.038   3.706
 9074SOL    HW139253   7.604   4.965   3.685
 9074SOL    HW239254   7.673   5.052   3.804
 9075SOL     OW39255   8.120   5.115   3.486
 9075SOL    HW139256   8.042   5.065   3.524
 9075SOL    HW239257   8.117   5.210   3.517
 9076SOL     OW39258   7.876   4.148   2.382
 9076SOL    HW139259   7.906   4.076   2.320
 9076SOL    HW239260   7.837   4.108   2.465
 9077SOL     OW39261   9.153   5.211   2.966
 9077SOL    HW139262   9.060   5.186   2.939
 9077SOL    HW239263   9.179   5.161   3.048
 9078SOL     OW39264   8.066   5.291   3.146
 9078SOL    HW139265   8.061   5.373   3.203
 9078SOL    HW239266   8.155   5.288   3.101
 9079SOL     OW39267   9.041   3.945   2.744
 9079SOL    HW139268   8.957   3.944   2.798
 9079SOL    HW239269   9.043   4.028   2.688
 9080SOL     OW39270   7.487   4.801   2.162
 9080SOL    HW139271   7.586   4.790   2.153
 9080SOL    HW239272   7.447   4.715   2.194
 9081SOL     OW39273   9.203   4.331   3.955
 9081SOL    HW139274   9.191   4.318   3.856
 9081SOL    HW239275   9.173   4.250   4.004
 9082SOL     OW39276   8.298   4.522   5.547
 9082SOL    HW139277   8.294   4.598   5.612
 9082SOL    HW239278   8.320   4.558   5.456
 9083SOL     OW39279   8.134   4.885   5.527
 9083SOL    HW139280   8.194   4.964   5.541
 9083SOL    HW239281   8.048   4.916   5.486
 9084SOL     OW39282   7.886   4.116   5.223
 9084SOL    HW139283   7.968   4.060   5.232
 9084SOL    HW239284   7.805   4.058   5.227
 9085SOL     OW39285   8.575   5.065   5.414
 9085SOL    HW139286   8.622   5.065   5.502
 9085SOL    HW239287   8.527   4.978   5.403
 9086SOL     OW39288   7.678   5.158   4.262
 9086SOL    HW139289   7.652   5.254   4.262
 9086SOL    HW239290   7.607   5.104   4.307
 9087SOL     OW39291   9.089   4.832   4.156
 9087SOL    HW139292   9.175   4.834   4.104
 9087SOL    HW239293   9.103   4.879   4.244
 9088SOL     OW39294   7.561   4.461   5.321
 9088SOL    HW139295   7.649   4.448   5.366
 9088SOL    HW239296   7.548   4.558   5.299
 9089SOL     OW39297   8.741   4.952   5.147
 9089SOL    HW139298   8.778   4.879   5.089
 9089SOL    HW239299   8.793   4.957   5.232
 9090SOL     OW39300   8.046   4.453   3.994
 9090SOL    HW139301   8.070   4.522   3.926
 9090SOL    HW239302   7.968   4.486   4.048
 9091SOL     OW39303   9.024   5.386   4.031
 9091SOL    HW139304   9.113   5.432   4.034
 9091SOL    HW239305   9.003   5.362   3.936
 9092SOL     OW39306   8.439   4.134   4.966
 9092SOL    HW139307   8.362   4.168   5.020
 9092SOL    HW239308   8.405   4.083   4.887
 9093SOL     OW39309   7.524   4.535   4.513
 9093SOL    HW139310   7.623   4.523   4.522
 9093SOL    HW239311   7.500   4.630   4.534
 9094SOL     OW39312   7.578   5.545   5.295
 9094SOL    HW139313   7.568   5.530   5.394
 9094SOL    HW239314   7.492   5.581   5.259
 9095SOL     OW39315   8.313   4.072   3.919
 9095SOL    HW139316   8.372   4.135   3.870
 9095SOL    HW239317   8.332   3.978   3.890
 9096SOL     OW39318   8.810   4.868   4.269
 9096SOL    HW139319   8.893   4.839   4.221
 9096SOL    HW239320   8.761   4.935   4.213
 9097SOL     OW39321   8.675   5.274   5.230
 9097SOL    HW139322   8.681   5.197   5.294
 9097SOL    HW239323   8.623   5.248   5.150
 9098SOL     OW39324   8.906   4.459   4.452
 9098SOL    HW139325   8.901   4.394   4.527
 9098SOL    HW239326   8.986   4.518   4.465
 9099SOL     OW39327   7.909   4.990   5.451
 9099SOL    HW139328   7.859   4.991   5.365
 9099SOL    HW239329   7.846   4.972   5.527
 9100SOL     OW39330   7.912   5.467   4.047
 9100SOL    HW139331   7.945   5.506   4.133
 9100SOL    HW239332   7.988   5.460   3.982
 9101SOL     OW39333   8.848   3.831   4.150
 9101SOL    HW139334   8.824   3.794   4.060
 9101SOL    HW239335   8.947   3.847   4.154
 9102SOL     OW39336   7.697   5.509   4.965
 9102SOL    HW139337   7.754   5.444   5.015
 9102SOL    HW239338   7.681   5.476   4.872
 9103SOL     OW39339   8.388   5.422   4.628
 9103SOL    HW139340   8.468   5.365   4.649
 9103SOL    HW239341   8.339   5.382   4.551
 9104SOL     OW39342   7.830   4.424   4.204
 9104SOL    HW139343   7.875   4.334   4.201
 9104SOL    HW239344   7.736   4.413   4.237
 9105SOL     OW39345   8.229   3.988   5.473
 9105SOL    HW139346   8.296   3.927   5.516
 9105SOL    HW239347   8.156   4.007   5.538
 9106SOL     OW39348   8.465   3.763   4.477
 9106SOL    HW139349   8.393   3.768   4.408
 9106SOL    HW239350   8.441   3.694   4.546
 9107SOL     OW39351   8.877   4.897   4.591
 9107SOL    HW139352   8.822   4.813   4.584
 9107SOL    HW239353   8.903   4.926   4.499
 9108SOL     OW39354   9.202   4.947   5.312
 9108SOL    HW139355   9.293   4.908   5.299
 9108SOL    HW239356   9.210   5.043   5.336
 9109SOL     OW39357   8.363   3.813   5.126
 9109SOL    HW139358   8.388   3.793   5.031
 9109SOL    HW239359   8.435   3.869   5.168
 9110SOL     OW39360   8.428   4.840   5.443
 9110SOL    HW139361   8.329   4.846   5.453
 9110SOL    HW239362   8.451   4.760   5.387
 9111SOL     OW39363   7.858   4.537   4.975
 9111SOL    HW139364   7.944   4.549   5.025
 9111SOL    HW239365   7.816   4.450   5.002
 9112SOL     OW39366   7.512   5.288   5.055
 9112SOL    HW139367   7.466   5.370   5.021
 9112SOL    HW239368   7.610   5.307   5.064
 9113SOL     OW39369   8.720   5.169   4.866
 9113SOL    HW139370   8.767   5.182   4.953
 9113SOL    HW239371   8.654   5.095   4.875
 9114SOL     OW39372   7.850   4.475   5.322
 9114SOL    HW139373   7.918   4.530   5.275
 9114SOL    HW239374   7.890   4.387   5.349
 9115SOL     OW39375   8.021   4.594   4.753
 9115SOL    HW139376   8.065   4.683   4.744
 9115SOL    HW239377   7.958   4.594   4.830
 9116SOL     OW39378   8.657   4.249   3.999
 9116SOL    HW139379   8.670   4.165   4.053
 9116SOL    HW239380   8.628   4.323   4.059
 9117SOL     OW39381   7.485   5.034   5.006
 9117SOL    HW139382   7.538   4.985   5.074
 9117SOL    HW239383   7.507   5.132   5.011
 9118SOL     OW39384   9.176   4.659   5.578
 9118SOL    HW139385   9.130   4.652   5.489
 9118SOL    HW239386   9.114   4.703   5.644
 9119SOL     OW39387   7.755   3.787   4.342
 9119SOL    HW139388   7.744   3.881   4.375
 9119SOL    HW239389   7.750   3.724   4.419
 9120SOL     OW39390   8.428   5.297   5.424
 9120SOL    HW139391   8.408   5.341   5.336
 9120SOL    HW239392   8.467   5.206   5.408
 9121SOL     OW39393   7.798   4.622   5.528
 9121SOL    HW139394   7.874   4.666   5.576
 9121SOL    HW239395   7.833   4.575   5.446
 9122SOL     OW39396   8.988   3.998   3.849
 9122SOL    HW139397   8.927   3.923   3.872
 9122SOL    HW239398   9.010   4.050   3.932
 9123SOL     OW39399   8.751   4.562   3.766
 9123SOL    HW139400   8.785   4.469   3.781
 9123SOL    HW239401   8.769   4.589   3.671
 9124SOL     OW39402   8.608   3.931   5.201
 9124SOL    HW139403   8.608   3.995   5.278
 9124SOL    HW239404   8.636   3.979   5.118
 9125SOL     OW39405   7.536   5.525   4.651
 9125SOL    HW139406   7.494   5.439   4.624
 9125SOL    HW239407   7.630   5.528   4.617
 9126SOL     OW39408   8.263   4.296   4.049
 9126SOL    HW139409   8.270   4.207   4.003
 9126SOL    HW239410   8.169   4.330   4.041
 9127SOL     OW39411   8.795   4.783   4.958
 9127SOL    HW139412   8.819   4.720   4.884
 9127SOL    HW239413   8.705   4.823   4.940
 9128SOL     OW39414   8.750   4.579   4.033
 9128SOL    HW139415   8.664   4.548   4.075
 9128SOL    HW239416   8.746   4.565   3.934
 9129SOL     OW39417   7.531   4.982   4.746
 9129SOL    HW139418   7.526   4.981   4.846
 9129SOL    HW239419   7.448   4.941   4.708
 9130SOL     OW39420   8.836   5.297   4.201
 9130SOL    HW139421   8.903   5.309   4.127
 9130SOL    HW239422   8.796   5.386   4.224
 9131SOL     OW39423   7.578   5.518   5.575
 9131SOL    HW139424   7.537   5.444   5.628
 9131SOL    HW239425   7.642   5.569   5.633
 9132SOL     OW39426   8.278   4.997   5.146
 9132SOL    HW139427   8.273   5.030   5.241
 9132SOL    HW239428   8.192   5.016   5.100
 9133SOL     OW39429   9.098   5.444   5.118
 9133SOL    HW139430   9.151   5.454   5.034
 9133SOL    HW239431   9.071   5.534   5.152
 9134SOL     OW39432   7.711   4.050   4.444
 9134SOL    HW139433   7.632   4.101   4.410
 9134SOL    HW239434   7.702   4.035   4.542
 9135SOL     OW39435   8.642   5.336   3.755
 9135SOL    HW139436   8.648   5.243   3.792
 9135SOL    HW239437   8.583   5.336   3.675
 9136SOL     OW39438   8.952   5.331   3.768
 9136SOL    HW139439   8.860   5.368   3.775
 9136SOL    HW239440   8.990   5.351   3.678
 9137SOL     OW39441   8.487   4.822   4.420
 9137SOL    HW139442   8.417   4.775   4.474
 9137SOL    HW239443   8.546   4.754   4.377
 9138SOL     OW39444   7.703   5.072   4.014
 9138SOL    HW139445   7.607   5.073   3.987
 9138SOL    HW239446   7.715   5.125   4.098
 9139SOL     OW39447   8.120   3.927   5.213
 9139SOL    HW139448   8.210   3.911   5.173
 9139SOL    HW239449   8.128   3.932   5.312
 9140SOL     OW39450   8.631   5.059   3.843
 9140SOL    HW139451   8.532   5.048   3.845
 9140SOL    HW239452   8.665   5.074   3.936
 9141SOL     OW39453   8.941   5.491   4.683
 9141SOL    HW139454   8.974   5.555   4.614
 9141SOL    HW239455   9.007   5.485   4.758
 9142SOL     OW39456   7.838   5.465   5.284
 9142SOL    HW139457   7.747   5.506   5.282
 9142SOL    HW239458   7.831   5.371   5.316
 9143SOL     OW39459   9.122   4.607   4.978
 9143SOL    HW139460   9.095   4.518   4.941
 9143SOL    HW239461   9.123   4.675   4.905
 9144SOL     OW39462   9.178   4.658   5.241
 9144SOL    HW139463   9.216   4.749   5.256
 9144SOL    HW239464   9.170   4.641   5.142
 9145SOL     OW39465   8.531   4.708   3.811
 9145SOL    HW139466   8.508   4.761   3.729
 9145SOL    HW239467   8.612   4.652   3.792
 9146SOL     OW39468   8.120   5.115   5.348
 9146SOL    HW139469   8.042   5.065   5.386
 9146SOL    HW239470   8.117   5.210   5.379
 9147SOL     OW39471   9.153   5.211   4.828
 9147SOL    HW139472   9.060   5.186   4.801
 9147SOL    HW239473   9.179   5.161   4.910
 9148SOL     OW39474   7.765   4.271   5.004
 9148SOL    HW139475   7.803   4.212   5.076
 9148SOL    HW239476   7.805   4.245   4.916
 9149SOL     OW39477   8.260   5.310   4.411
 9149SOL    HW139478   8.292   5.320   4.317
 9149SOL    HW239479   8.181   5.248   4.413
 9150SOL     OW39480   8.218   5.054   4.025
 9150SOL    HW139481   8.172   4.967   4.042
 9150SOL    HW239482   8.309   5.051   4.066
 9151SOL     OW39483   8.748   4.177   4.415
 9151SOL    HW139484   8.689   4.257   4.419
 9151SOL    HW239485   8.763   4.142   4.508
 9152SOL     OW39486   8.323   5.370   4.061
 9152SOL    HW139487   8.246   5.335   4.007
 9152SOL    HW239488   8.291   5.441   4.123
 9153SOL     OW39489   7.673   3.999   6.582
 9153SOL    HW139490   7.708   3.982   6.674
 9153SOL    HW239491   7.585   3.954   6.570
 9154SOL     OW39492   7.467   4.092   6.233
 9154SOL    HW139493   7.385   4.135   6.272
 9154SOL    HW239494   7.439   4.019   6.170
 9155SOL     OW39495   8.017   4.999   6.751
 9155SOL    HW139496   7.924   4.992   6.714
 9155SOL    HW239497   8.028   5.088   6.795
 9156SOL     OW39498   9.003   5.235   6.289
 9156SOL    HW139499   8.946   5.219   6.370
 9156SOL    HW239500   8.944   5.245   6.209
 9157SOL     OW39501   8.583   4.427   6.303
 9157SOL    HW139502   8.640   4.505   6.278
 9157SOL    HW239503   8.523   4.453   6.379
 9158SOL     OW39504   9.203   4.331   5.817
 9158SOL    HW139505   9.191   4.318   5.718
 9158SOL    HW239506   9.173   4.250   5.866
 9159SOL     OW39507   8.216   4.868   6.609
 9159SOL    HW139508   8.138   4.885   6.669
 9159SOL    HW239509   8.250   4.955   6.573
 9160SOL     OW39510   8.133   4.736   6.251
 9160SOL    HW139511   8.202   4.720   6.321
 9160SOL    HW239512   8.060   4.793   6.289
 9161SOL     OW39513   7.783   5.159   6.647
 9161SOL    HW139514   7.705   5.128   6.594
 9161SOL    HW239515   7.841   5.217   6.590
 9162SOL     OW39516   9.051   4.171   6.323
 9162SOL    HW139517   8.977   4.217   6.273
 9162SOL    HW239518   9.102   4.239   6.376
 9163SOL     OW39519   7.679   5.437   6.069
 9163SOL    HW139520   7.713   5.514   6.123
 9163SOL    HW239521   7.723   5.437   5.979
 9164SOL     OW39522   7.678   5.158   6.124
 9164SOL    HW139523   7.652   5.254   6.124
 9164SOL    HW239524   7.607   5.104   6.169
 9165SOL     OW39525   7.688   4.815   6.472
 9165SOL    HW139526   7.702   4.731   6.524
 9165SOL    HW239527   7.633   4.879   6.527
 9166SOL     OW39528   8.068   5.510   7.025
 9166SOL    HW139529   7.976   5.493   7.060
 9166SOL    HW239530   8.096   5.602   7.051
 9167SOL     OW39531   8.054   4.688   5.709
 9167SOL    HW139532   8.061   4.772   5.655
 9167SOL    HW239533   8.100   4.701   5.797
 9168SOL     OW39534   7.570   4.367   6.149
 9168SOL    HW139535   7.525   4.279   6.166
 9168SOL    HW239536   7.569   4.421   6.233
 9169SOL     OW39537   9.290   5.491   5.945
 9169SOL    HW139538   9.344   5.462   6.025
 9169SOL    HW239539   9.320   5.581   5.916
 9170SOL     OW39540   9.137   4.646   6.198
 9170SOL    HW139541   9.232   4.617   6.206
 9170SOL    HW239542   9.129   4.711   6.123
 9171SOL     OW39543   9.089   4.832   6.018
 9171SOL    HW139544   9.175   4.834   5.966
 9171SOL    HW239545   9.103   4.879   6.106
 9172SOL     OW39546   8.061   5.089   6.312
 9172SOL    HW139547   8.012   5.002   6.321
 9172SOL    HW239548   8.038   5.132   6.225
 9173SOL     OW39549   8.257   3.728   6.088
 9173SOL    HW139550   8.297   3.819   6.079
 9173SOL    HW239551   8.157   3.736   6.094
 9174SOL     OW39552   8.914   5.141   6.539
 9174SOL    HW139553   8.855   5.147   6.619
 9174SOL    HW239554   8.899   5.053   6.493
 9175SOL     OW39555   9.115   5.438   6.158
 9175SOL    HW139556   9.074   5.415   6.070
 9175SOL    HW239557   9.097   5.364   6.223
 9176SOL     OW39558   8.046   4.453   5.856
 9176SOL    HW139559   8.070   4.522   5.788
 9176SOL    HW239560   7.968   4.486   5.910
 9177SOL     OW39561   8.729   4.069   6.530
 9177SOL    HW139562   8.643   4.019   6.517
 9177SOL    HW239563   8.791   4.015   6.586
 9178SOL     OW39564   9.024   5.386   5.893
 9178SOL    HW139565   9.113   5.432   5.896
 9178SOL    HW239566   9.003   5.362   5.798
 9179SOL     OW39567   8.439   4.134   6.828
 9179SOL    HW139568   8.362   4.168   6.882
 9179SOL    HW239569   8.405   4.083   6.749
 9180SOL     OW39570   8.489   4.425   6.015
 9180SOL    HW139571   8.515   4.421   6.111
 9180SOL    HW239572   8.404   4.374   6.001
 9181SOL     OW39573   8.313   4.072   5.781
 9181SOL    HW139574   8.372   4.135   5.732
 9181SOL    HW239575   8.332   3.978   5.752
 9182SOL     OW39576   8.810   4.868   6.131
 9182SOL    HW139577   8.893   4.839   6.083
 9182SOL    HW239578   8.761   4.935   6.075
 9183SOL     OW39579   7.998   3.920   6.471
 9183SOL    HW139580   7.993   3.915   6.571
 9183SOL    HW239581   8.000   4.016   6.442
 9184SOL     OW39582   8.456   5.180   6.063
 9184SOL    HW139583   8.410   5.252   6.011
 9184SOL    HW239584   8.452   5.200   6.161
 9185SOL     OW39585   7.799   5.525   6.439
 9185SOL    HW139586   7.849   5.439   6.445
 9185SOL    HW239587   7.864   5.602   6.436
 9186SOL     OW39588   9.243   4.790   6.459
 9186SOL    HW139589   9.181   4.775   6.383
 9186SOL    HW239590   9.191   4.801   6.544
 9187SOL     OW39591   8.906   4.459   6.314
 9187SOL    HW139592   8.901   4.394   6.389
 9187SOL    HW239593   8.986   4.518   6.327
 9188SOL     OW39594   8.559   5.500   5.823
 9188SOL    HW139595   8.499   5.438   5.873
 9188SOL    HW239596   8.590   5.456   5.738
 9189SOL     OW39597   9.080   5.101   5.667
 9189SOL    HW139598   9.048   5.195   5.657
 9189SOL    HW239599   9.004   5.038   5.655
 9190SOL     OW39600   7.912   5.467   5.909
 9190SOL    HW139601   7.945   5.506   5.995
 9190SOL    HW239602   7.988   5.460   5.844
 9191SOL     OW39603   8.848   3.831   6.012
 9191SOL    HW139604   8.824   3.794   5.922
 9191SOL    HW239605   8.947   3.847   6.016
 9192SOL     OW39606   7.697   5.509   6.827
 9192SOL    HW139607   7.754   5.444   6.877
 9192SOL    HW239608   7.681   5.476   6.734
 9193SOL     OW39609   8.388   5.422   6.490
 9193SOL    HW139610   8.468   5.365   6.511
 9193SOL    HW239611   8.339   5.382   6.413
 9194SOL     OW39612   7.830   4.424   6.066
 9194SOL    HW139613   7.875   4.334   6.063
 9194SOL    HW239614   7.736   4.413   6.099
 9195SOL     OW39615   8.062   3.846   5.703
 9195SOL    HW139616   8.160   3.824   5.710
 9195SOL    HW239617   8.031   3.829   5.610
 9196SOL     OW39618   8.251   5.126   6.510
 9196SOL    HW139619   8.341   5.140   6.468
 9196SOL    HW239620   8.180   5.128   6.439
 9197SOL     OW39621   8.370   4.227   6.485
 9197SOL    HW139622   8.345   4.218   6.389
 9197SOL    HW239623   8.418   4.145   6.516
 9198SOL     OW39624   7.987   3.788   6.098
 9198SOL    HW139625   7.906   3.789   6.156
 9198SOL    HW239626   7.990   3.871   6.043
 9199SOL     OW39627   7.745   3.759   5.757
 9199SOL    HW139628   7.794   3.843   5.736
 9199SOL    HW239629   7.807   3.694   5.802
 9200SOL     OW39630   8.383   3.960   6.066
 9200SOL    HW139631   8.335   4.001   5.988
 9200SOL    HW239632   8.482   3.958   6.047
 9201SOL     OW39633   8.675   5.294   6.379
 9201SOL    HW139634   8.696   5.368   6.314
 9201SOL    HW239635   8.743   5.294   6.452
 9202SOL     OW39636   7.907   4.876   6.327
 9202SOL    HW139637   7.836   4.849   6.392
 9202SOL    HW239638   7.881   4.848   6.234
 9203SOL     OW39639   8.719   5.521   6.177
 9203SOL    HW139640   8.763   5.585   6.113
 9203SOL    HW239641   8.669   5.573   6.247
 9204SOL     OW39642   8.009   3.946   6.733
 9204SOL    HW139643   8.047   3.862   6.770
 9204SOL    HW239644   7.921   3.965   6.777
 9205SOL     OW39645   8.314   4.178   6.228
 9205SOL    HW139646   8.282   4.250   6.166
 9205SOL    HW239647   8.338   4.097   6.175
 9206SOL     OW39648   8.465   3.763   6.339
 9206SOL    HW139649   8.393   3.768   6.270
 9206SOL    HW239650   8.441   3.694   6.408
 9207SOL     OW39651   8.877   4.897   6.453
 9207SOL    HW139652   8.822   4.813   6.446
 9207SOL    HW239653   8.903   4.926   6.361
 9208SOL     OW39654   8.914   4.314   6.578
 9208SOL    HW139655   8.884   4.219   6.585
 9208SOL    HW239656   8.987   4.330   6.644
 9209SOL     OW39657   9.305   4.557   5.963
 9209SOL    HW139658   9.347   4.493   6.027
 9209SOL    HW239659   9.267   4.506   5.885
 9210SOL     OW39660   7.936   5.109   5.760
 9210SOL    HW139661   7.849   5.094   5.807
 9210SOL    HW239662   7.919   5.135   5.665
 9211SOL     OW39663   9.112   5.004   6.243
 9211SOL    HW139664   9.211   5.012   6.257
 9211SOL    HW239665   9.067   5.088   6.274
 9212SOL     OW39666   7.975   3.980   5.914
 9212SOL    HW139667   8.002   3.921   5.839
 9212SOL    HW239668   7.975   4.075   5.883
 9213SOL     OW39669   9.202   4.947   7.174
 9213SOL    HW139670   9.293   4.908   7.161
 9213SOL    HW239671   9.210   5.043   7.198
 9214SOL     OW39672   8.559   4.919   6.686
 9214SOL    HW139673   8.519   4.963   6.767
 9214SOL    HW239674   8.518   4.956   6.603
 9215SOL     OW39675   9.086   4.823   6.665
 9215SOL    HW139676   9.091   4.904   6.724
 9215SOL    HW239677   9.000   4.825   6.614
 9216SOL     OW39678   8.153   4.774   5.954
 9216SOL    HW139679   8.139   4.781   6.053
 9216SOL    HW239680   8.237   4.723   5.936
 9217SOL     OW39681   8.722   4.110   6.848
 9217SOL    HW139682   8.743   4.184   6.912
 9217SOL    HW239683   8.633   4.127   6.805
 9218SOL     OW39684   7.815   4.824   6.087
 9218SOL    HW139685   7.808   4.907   6.031
 9218SOL    HW239686   7.819   4.744   6.027
 9219SOL     OW39687   8.014   4.261   6.451
 9219SOL    HW139688   8.026   4.327   6.377
 9219SOL    HW239689   8.060   4.295   6.534
 9220SOL     OW39690   8.700   5.072   5.974
 9220SOL    HW139691   8.750   5.149   6.014
 9220SOL    HW239692   8.605   5.074   6.006
 9221SOL     OW39693   8.720   5.169   6.728
 9221SOL    HW139694   8.767   5.182   6.815
 9221SOL    HW239695   8.654   5.095   6.737
 9222SOL     OW39696   9.030   4.363   6.058
 9222SOL    HW139697   8.999   4.424   6.131
 9222SOL    HW239698   9.080   4.415   5.989
 9223SOL     OW39699   7.802   5.234   6.915
 9223SOL    HW139700   7.781   5.190   6.828
 9223SOL    HW239701   7.899   5.260   6.918
 9224SOL     OW39702   8.021   4.594   6.615
 9224SOL    HW139703   8.065   4.683   6.606
 9224SOL    HW239704   7.958   4.594   6.692
 9225SOL     OW39705   8.808   4.586   6.631
 9225SOL    HW139706   8.733   4.586   6.565
 9225SOL    HW239707   8.845   4.494   6.640
 9226SOL     OW39708   8.657   4.249   5.861
 9226SOL    HW139709   8.670   4.165   5.915
 9226SOL    HW239710   8.628   4.323   5.921
 9227SOL     OW39711   7.755   3.937   6.817
 9227SOL    HW139712   7.732   3.974   6.907
 9227SOL    HW239713   7.725   3.842   6.811
 9228SOL     OW39714   7.485   5.034   6.868
 9228SOL    HW139715   7.538   4.985   6.936
 9228SOL    HW239716   7.507   5.132   6.873
 9229SOL     OW39717   8.180   4.358   6.650
 9229SOL    HW139718   8.239   4.332   6.574
 9229SOL    HW239719   8.152   4.454   6.639
 9230SOL     OW39720   7.755   3.787   6.204
 9230SOL    HW139721   7.744   3.881   6.237
 9230SOL    HW239722   7.750   3.724   6.281
 9231SOL     OW39723   9.070   4.091   5.960
 9231SOL    HW139724   9.072   4.015   6.024
 9231SOL    HW239725   9.022   4.168   6.000
 9232SOL     OW39726   8.471   4.490   6.552
 9232SOL    HW139727   8.486   4.511   6.648
 9232SOL    HW239728   8.441   4.395   6.543
 9233SOL     OW39729   8.988   3.998   5.711
 9233SOL    HW139730   8.927   3.923   5.734
 9233SOL    HW239731   9.010   4.050   5.794
 9234SOL     OW39732   8.516   5.057   6.435
 9234SOL    HW139733   8.523   4.973   6.380
 9234SOL    HW239734   8.578   5.126   6.399
 9235SOL     OW39735   7.787   4.233   6.592
 9235SOL    HW139736   7.735   4.150   6.575
 9235SOL    HW239737   7.864   4.238   6.528
 9236SOL     OW39738   8.608   3.931   7.063
 9236SOL    HW139739   8.608   3.995   7.140
 9236SOL    HW239740   8.636   3.979   6.980
 9237SOL     OW39741   7.536   5.525   6.513
 9237SOL    HW139742   7.494   5.439   6.486
 9237SOL    HW239743   7.630   5.528   6.479
 9238SOL     OW39744   7.952   5.292   6.496
 9238SOL    HW139745   8.018   5.366   6.505
 9238SOL    HW239746   7.996   5.213   6.454
 9239SOL     OW39747   8.450   4.520   6.824
 9239SOL    HW139748   8.491   4.488   6.910
 9239SOL    HW239749   8.354   4.493   6.821
 9240SOL     OW39750   8.263   4.296   5.911
 9240SOL    HW139751   8.270   4.207   5.865
 9240SOL    HW239752   8.169   4.330   5.903
 9241SOL     OW39753   9.105   4.328   6.792
 9241SOL    HW139754   9.067   4.259   6.854
 9241SOL    HW239755   9.187   4.292   6.748
 9242SOL     OW39756   8.119   4.188   6.855
 9242SOL    HW139757   8.085   4.099   6.825
 9242SOL    HW239758   8.145   4.242   6.775
 9243SOL     OW39759   8.378   5.402   7.051
 9243SOL    HW139760   8.354   5.384   6.956
 9243SOL    HW239761   8.408   5.496   7.061
 9244SOL     OW39762   8.795   4.783   6.820
 9244SOL    HW139763   8.819   4.720   6.746
 9244SOL    HW239764   8.705   4.823   6.802
 9245SOL     OW39765   8.750   4.579   5.895
 9245SOL    HW139766   8.664   4.548   5.937
 9245SOL    HW239767   8.746   4.565   5.796
 9246SOL     OW39768   9.207   5.471   6.740
 9246SOL    HW139769   9.268   5.501   6.667
 9246SOL    HW239770   9.169   5.382   6.718
 9247SOL     OW39771   8.700   5.455   6.714
 9247SOL    HW139772   8.784   5.460   6.660
 9247SOL    HW239773   8.677   5.359   6.732
 9248SOL     OW39774   7.531   4.982   6.608
 9248SOL    HW139775   7.526   4.981   6.708
 9248SOL    HW239776   7.448   4.941   6.570
 9249SOL     OW39777   9.174   3.859   6.109
 9249SOL    HW139778   9.247   3.842   6.042
 9249SOL    HW239779   9.143   3.772   6.147
 9250SOL     OW39780   8.836   5.297   6.063
 9250SOL    HW139781   8.903   5.309   5.989
 9250SOL    HW239782   8.796   5.386   6.086
 9251SOL     OW39783   8.728   4.651   6.258
 9251SOL    HW139784   8.788   4.570   6.260
 9251SOL    HW239785   8.768   4.720   6.198
 9252SOL     OW39786   8.120   5.340   5.740
 9252SOL    HW139787   8.129   5.350   5.641
 9252SOL    HW239788   8.080   5.251   5.761
 9253SOL     OW39789   9.098   5.444   6.980
 9253SOL    HW139790   9.151   5.454   6.896
 9253SOL    HW239791   9.071   5.534   7.014
 9254SOL     OW39792   7.711   4.050   6.306
 9254SOL    HW139793   7.632   4.101   6.272
 9254SOL    HW239794   7.702   4.035   6.404
 9255SOL     OW39795   8.642   5.336   5.617
 9255SOL    HW139796   8.648   5.243   5.654
 9255SOL    HW239797   8.583   5.336   5.537
 9256SOL     OW39798   8.270   4.726   6.958
 9256SOL    HW139799   8.310   4.725   6.866
 9256SOL    HW239800   8.280   4.818   6.998
 9257SOL     OW39801   8.364   4.634   5.877
 9257SOL    HW139802   8.427   4.672   5.809
 9257SOL    HW239803   8.404   4.551   5.916
 9258SOL     OW39804   8.952   5.331   5.630
 9258SOL    HW139805   8.860   5.368   5.637
 9258SOL    HW239806   8.990   5.351   5.540
 9259SOL     OW39807   8.487   4.822   6.282
 9259SOL    HW139808   8.417   4.775   6.336
 9259SOL    HW239809   8.546   4.754   6.239
 9260SOL     OW39810   8.462   3.960   6.557
 9260SOL    HW139811   8.454   3.924   6.464
 9260SOL    HW239812   8.460   3.884   6.622
 9261SOL     OW39813   8.038   5.211   6.077
 9261SOL    HW139814   8.080   5.153   6.007
 9261SOL    HW239815   7.994   5.290   6.033
 9262SOL     OW39816   9.157   4.109   6.967
 9262SOL    HW139817   9.230   4.178   6.971
 9262SOL    HW239818   9.185   4.034   6.908
 9263SOL     OW39819   7.523   4.069   5.619
 9263SOL    HW139820   7.431   4.041   5.590
 9263SOL    HW239821   7.554   4.146   5.563
 9264SOL     OW39822   7.520   3.890   5.904
 9264SOL    HW139823   7.503   3.973   5.850
 9264SOL    HW239824   7.610   3.853   5.882
 9265SOL     OW39825   8.631   5.059   5.705
 9265SOL    HW139826   8.532   5.048   5.707
 9265SOL    HW239827   8.665   5.074   5.798
 9266SOL     OW39828   8.941   5.491   6.545
 9266SOL    HW139829   8.974   5.555   6.476
 9266SOL    HW239830   9.007   5.485   6.620
 9267SOL     OW39831   8.898   4.944   7.219
 9267SOL    HW139832   8.889   4.934   7.318
 9267SOL    HW239833   8.994   4.937   7.193
 9268SOL     OW39834   9.122   4.607   6.840
 9268SOL    HW139835   9.095   4.518   6.803
 9268SOL    HW239836   9.123   4.675   6.767
 9269SOL     OW39837   8.673   4.049   6.035
 9269SOL    HW139838   8.738   3.975   6.024
 9269SOL    HW239839   8.693   4.099   6.119
 9270SOL     OW39840   8.042   4.469   6.238
 9270SOL    HW139841   8.092   4.554   6.219
 9270SOL    HW239842   7.954   4.471   6.190
 9271SOL     OW39843   9.178   4.658   7.103
 9271SOL    HW139844   9.216   4.749   7.118
 9271SOL    HW239845   9.170   4.641   7.004
 9272SOL     OW39846   8.307   5.098   5.602
 9272SOL    HW139847   8.261   5.113   5.690
 9272SOL    HW239848   8.351   5.183   5.572
 9273SOL     OW39849   8.109   5.514   6.539
 9273SOL    HW139850   8.063   5.602   6.526
 9273SOL    HW239851   8.208   5.526   6.532
 9274SOL     OW39852   8.307   4.680   6.447
 9274SOL    HW139853   8.361   4.611   6.495
 9274SOL    HW239854   8.275   4.749   6.513
 9275SOL     OW39855   9.309   5.293   6.437
 9275SOL    HW139856   9.238   5.281   6.367
 9275SOL    HW239857   9.310   5.214   6.497
 9276SOL     OW39858   7.527   4.964   6.239
 9276SOL    HW139859   7.526   4.917   6.327
 9276SOL    HW239860   7.609   4.936   6.188
 9277SOL     OW39861   9.272   3.916   6.813
 9277SOL    HW139862   9.268   3.826   6.857
 9277SOL    HW239863   9.275   3.905   6.714
 9278SOL     OW39864   7.876   4.148   6.106
 9278SOL    HW139865   7.906   4.076   6.044
 9278SOL    HW239866   7.837   4.108   6.189
 9279SOL     OW39867   9.153   5.211   6.690
 9279SOL    HW139868   9.060   5.186   6.663
 9279SOL    HW239869   9.179   5.161   6.772
 9280SOL     OW39870   8.260   5.310   6.273
 9280SOL    HW139871   8.292   5.320   6.179
 9280SOL    HW239872   8.181   5.248   6.275
 9281SOL     OW39873   8.872   3.938   6.698
 9281SOL    HW139874   8.924   3.873   6.753
 9281SOL    HW239875   8.823   4.001   6.759
 9282SOL     OW39876   8.449   3.758   6.740
 9282SOL    HW139877   8.386   3.686   6.709
 9282SOL    HW239878   8.542   3.722   6.740
 9283SOL     OW39879   8.218   5.054   5.887
 9283SOL    HW139880   8.172   4.967   5.904
 9283SOL    HW239881   8.309   5.051   5.928
 9284SOL     OW39882   8.800   3.776   5.754
 9284SOL    HW139883   8.835   3.735   5.670
 9284SOL    HW239884   8.710   3.738   5.774
 9285SOL     OW39885   8.748   4.177   6.277
 9285SOL    HW139886   8.689   4.257   6.281
 9285SOL    HW239887   8.763   4.142   6.370
 9286SOL     OW39888   9.041   3.945   6.468
 9286SOL    HW139889   8.957   3.944   6.522
 9286SOL    HW239890   9.043   4.028   6.412
 9287SOL     OW39891   7.487   4.801   5.886
 9287SOL    HW139892   7.586   4.790   5.877
 9287SOL    HW239893   7.447   4.715   5.918
 9288SOL     OW39894   8.323   5.370   5.923
 9288SOL    HW139895   8.246   5.335   5.869
 9288SOL    HW239896   8.291   5.441   5.985
 9289SOL     OW39897   7.678   6.214   0.113
 9289SOL    HW139898   7.585   6.212   0.150
 9289SOL    HW239899   7.679   6.175   0.021
 9290SOL     OW39900   7.673   5.861   0.996
 9290SOL    HW139901   7.708   5.844   1.088
 9290SOL    HW239902   7.585   5.816   0.984
 9291SOL     OW39903   7.467   5.954   0.647
 9291SOL    HW139904   7.385   5.997   0.686
 9291SOL    HW239905   7.439   5.881   0.584
 9292SOL     OW39906   8.017   6.861   1.165
 9292SOL    HW139907   7.924   6.854   1.128
 9292SOL    HW239908   8.028   6.950   1.209
 9293SOL     OW39909   9.003   7.097   0.703
 9293SOL    HW139910   8.946   7.081   0.784
 9293SOL    HW239911   8.944   7.107   0.623
 9294SOL     OW39912   8.583   6.289   0.717
 9294SOL    HW139913   8.640   6.367   0.692
 9294SOL    HW239914   8.523   6.315   0.793
 9295SOL     OW39915   9.203   6.193   0.231
 9295SOL    HW139916   9.191   6.180   0.132
 9295SOL    HW239917   9.173   6.112   0.280
 9296SOL     OW39918   8.216   6.730   1.023
 9296SOL    HW139919   8.138   6.747   1.083
 9296SOL    HW239920   8.250   6.817   0.987
 9297SOL     OW39921   8.133   6.598   0.665
 9297SOL    HW139922   8.202   6.582   0.735
 9297SOL    HW239923   8.060   6.655   0.703
 9298SOL     OW39924   8.134   6.747   1.803
 9298SOL    HW139925   8.194   6.826   1.817
 9298SOL    HW239926   8.048   6.778   1.762
 9299SOL     OW39927   8.908   7.091   1.339
 9299SOL    HW139928   8.932   7.185   1.365
 9299SOL    HW239929   8.892   7.037   1.421
 9300SOL     OW39930   7.679   7.299   0.483
 9300SOL    HW139931   7.713   7.376   0.537
 9300SOL    HW239932   7.723   7.299   0.393
 9301SOL     OW39933   8.575   6.927   1.690
 9301SOL    HW139934   8.622   6.927   1.778
 9301SOL    HW239935   8.527   6.840   1.679
 9302SOL     OW39936   7.678   7.020   0.538
 9302SOL    HW139937   7.652   7.116   0.538
 9302SOL    HW239938   7.607   6.966   0.583
 9303SOL     OW39939   7.688   6.677   0.886
 9303SOL    HW139940   7.702   6.593   0.938
 9303SOL    HW239941   7.633   6.741   0.941
 9304SOL     OW39942   8.054   6.550   0.123
 9304SOL    HW139943   8.061   6.634   0.069
 9304SOL    HW239944   8.100   6.563   0.211
 9305SOL     OW39945   7.570   6.229   0.563
 9305SOL    HW139946   7.525   6.141   0.580
 9305SOL    HW239947   7.569   6.283   0.647
 9306SOL     OW39948   9.290   7.353   0.359
 9306SOL    HW139949   9.344   7.324   0.439
 9306SOL    HW239950   9.320   7.443   0.330
 9307SOL     OW39951   7.475   7.182   0.117
 9307SOL    HW139952   7.456   7.086   0.138
 9307SOL    HW239953   7.442   7.240   0.192
 9308SOL     OW39954   9.137   6.508   0.612
 9308SOL    HW139955   9.232   6.479   0.620
 9308SOL    HW239956   9.129   6.573   0.537
 9309SOL     OW39957   7.561   6.323   1.597
 9309SOL    HW139958   7.649   6.310   1.642
 9309SOL    HW239959   7.548   6.420   1.575
 9310SOL     OW39960   8.061   6.951   0.726
 9310SOL    HW139961   8.012   6.864   0.735
 9310SOL    HW239962   8.038   6.994   0.639
 9311SOL     OW39963   8.257   5.590   0.502
 9311SOL    HW139964   8.297   5.681   0.493
 9311SOL    HW239965   8.157   5.598   0.508
 9312SOL     OW39966   8.635   7.378   1.616
 9312SOL    HW139967   8.659   7.438   1.540
 9312SOL    HW239968   8.642   7.283   1.586
 9313SOL     OW39969   8.914   7.003   0.953
 9313SOL    HW139970   8.855   7.009   1.033
 9313SOL    HW239971   8.899   6.915   0.907
 9314SOL     OW39972   9.115   7.300   0.572
 9314SOL    HW139973   9.074   7.277   0.484
 9314SOL    HW239974   9.097   7.226   0.637
 9315SOL     OW39975   8.046   6.315   0.270
 9315SOL    HW139976   8.070   6.384   0.202
 9315SOL    HW239977   7.968   6.348   0.324
 9316SOL     OW39978   8.729   5.931   0.944
 9316SOL    HW139979   8.643   5.881   0.931
 9316SOL    HW239980   8.791   5.877   1.000
 9317SOL     OW39981   9.024   7.248   0.307
 9317SOL    HW139982   9.113   7.294   0.310
 9317SOL    HW239983   9.003   7.224   0.212
 9318SOL     OW39984   8.421   6.476   1.572
 9318SOL    HW139985   8.467   6.392   1.543
 9318SOL    HW239986   8.365   6.510   1.497
 9319SOL     OW39987   8.489   6.287   0.429
 9319SOL    HW139988   8.515   6.283   0.525
 9319SOL    HW239989   8.404   6.236   0.415
 9320SOL     OW39990   7.524   6.397   0.789
 9320SOL    HW139991   7.623   6.385   0.798
 9320SOL    HW239992   7.500   6.492   0.810
 9321SOL     OW39993   8.313   5.934   0.195
 9321SOL    HW139994   8.372   5.997   0.146
 9321SOL    HW239995   8.332   5.840   0.166
 9322SOL     OW39996   8.810   6.730   0.545
 9322SOL    HW139997   8.893   6.701   0.497
 9322SOL    HW239998   8.761   6.797   0.489
 9323SOL     OW39999   7.998   5.782   0.885
 9323SOL    HW140000   7.993   5.777   0.985
 9323SOL    HW240001   8.000   5.878   0.856
 9324SOL     OW40002   8.456   7.042   0.477
 9324SOL    HW140003   8.410   7.114   0.425
 9324SOL    HW240004   8.452   7.062   0.575
 9325SOL     OW40005   7.799   7.387   0.853
 9325SOL    HW140006   7.849   7.301   0.859
 9325SOL    HW240007   7.864   7.464   0.850
 9326SOL     OW40008   7.769   6.529   0.242
 9326SOL    HW140009   7.851   6.568   0.200
 9326SOL    HW240010   7.742   6.447   0.193
 9327SOL     OW40011   8.559   7.362   0.237
 9327SOL    HW140012   8.499   7.300   0.287
 9327SOL    HW240013   8.590   7.318   0.152
 9328SOL     OW40014   7.650   5.871   1.498
 9328SOL    HW140015   7.570   5.931   1.485
 9328SOL    HW240016   7.640   5.822   1.584
 9329SOL     OW40017   9.080   6.963   0.081
 9329SOL    HW140018   9.048   7.057   0.071
 9329SOL    HW240019   9.004   6.900   0.069
 9330SOL     OW40020   7.912   7.329   0.323
 9330SOL    HW140021   7.945   7.368   0.409
 9330SOL    HW240022   7.988   7.322   0.258
 9331SOL     OW40023   8.848   5.693   0.426
 9331SOL    HW140024   8.824   5.656   0.336
 9331SOL    HW240025   8.947   5.709   0.430
 9332SOL     OW40026   7.697   7.371   1.241
 9332SOL    HW140027   7.754   7.306   1.291
 9332SOL    HW240028   7.681   7.338   1.148
 9333SOL     OW40029   8.388   7.284   0.904
 9333SOL    HW140030   8.468   7.227   0.925
 9333SOL    HW240031   8.339   7.244   0.827
 9334SOL     OW40032   7.830   6.286   0.480
 9334SOL    HW140033   7.875   6.196   0.477
 9334SOL    HW240034   7.736   6.275   0.513
 9335SOL     OW40035   8.995   5.808   1.729
 9335SOL    HW140036   8.990   5.845   1.821
 9335SOL    HW240037   8.923   5.739   1.717
 9336SOL     OW40038   8.229   5.850   1.749
 9336SOL    HW140039   8.296   5.789   1.792
 9336SOL    HW240040   8.156   5.869   1.814
 9337SOL     OW40041   8.799   6.176   1.433
 9337SOL    HW140042   8.827   6.133   1.518
 9337SOL    HW240043   8.824   6.272   1.434
 9338SOL     OW40044   8.251   6.988   0.924
 9338SOL    HW140045   8.341   7.002   0.882
 9338SOL    HW240046   8.180   6.990   0.853
 9339SOL     OW40047   8.370   6.089   0.899
 9339SOL    HW140048   8.345   6.080   0.803
 9339SOL    HW240049   8.418   6.007   0.930
 9340SOL     OW40050   7.987   5.650   0.512
 9340SOL    HW140051   7.906   5.651   0.570
 9340SOL    HW240052   7.990   5.733   0.457
 9341SOL     OW40053   8.882   6.774   0.041
 9341SOL    HW140054   8.914   6.698   0.098
 9341SOL    HW240055   8.790   6.801   0.071
 9342SOL     OW40056   7.745   5.621   0.171
 9342SOL    HW140057   7.794   5.705   0.150
 9342SOL    HW240058   7.807   5.556   0.216
 9343SOL     OW40059   8.383   5.822   0.480
 9343SOL    HW140060   8.335   5.863   0.402
 9343SOL    HW240061   8.482   5.820   0.461
 9344SOL     OW40062   8.524   6.269   1.464
 9344SOL    HW140063   8.444   6.208   1.467
 9344SOL    HW240064   8.605   6.216   1.440
 9345SOL     OW40065   8.675   7.156   0.793
 9345SOL    HW140066   8.696   7.230   0.728
 9345SOL    HW240067   8.743   7.156   0.866
 9346SOL     OW40068   7.907   6.738   0.741
 9346SOL    HW140069   7.836   6.711   0.806
 9346SOL    HW240070   7.881   6.710   0.648
 9347SOL     OW40071   8.719   7.383   0.591
 9347SOL    HW140072   8.763   7.447   0.527
 9347SOL    HW240073   8.669   7.435   0.661
 9348SOL     OW40074   8.480   6.135   0.016
 9348SOL    HW140075   8.439   6.217  -0.023
 9348SOL    HW240076   8.544   6.161   0.089
 9349SOL     OW40077   7.526   6.142   1.386
 9349SOL    HW140078   7.618   6.141   1.345
 9349SOL    HW240079   7.520   6.216   1.453
 9350SOL     OW40080   8.314   6.040   0.642
 9350SOL    HW140081   8.282   6.112   0.580
 9350SOL    HW240082   8.338   5.959   0.589
 9351SOL     OW40083   8.465   5.625   0.753
 9351SOL    HW140084   8.393   5.630   0.684
 9351SOL    HW240085   8.441   5.556   0.822
 9352SOL     OW40086   8.877   6.759   0.867
 9352SOL    HW140087   8.822   6.675   0.860
 9352SOL    HW240088   8.903   6.788   0.775
 9353SOL     OW40089   7.936   6.971   0.174
 9353SOL    HW140090   7.849   6.956   0.221
 9353SOL    HW240091   7.919   6.997   0.079
 9354SOL     OW40092   8.838   6.161   0.078
 9354SOL    HW140093   8.784   6.140   0.159
 9354SOL    HW240094   8.929   6.120   0.087
 9355SOL     OW40095   7.975   5.842   0.328
 9355SOL    HW140096   8.002   5.783   0.253
 9355SOL    HW240097   7.975   5.937   0.297
 9356SOL     OW40098   9.202   6.809   1.588
 9356SOL    HW140099   9.293   6.770   1.575
 9356SOL    HW240100   9.210   6.905   1.612
 9357SOL     OW40101   8.559   6.781   1.100
 9357SOL    HW140102   8.519   6.825   1.181
 9357SOL    HW240103   8.518   6.818   1.017
 9358SOL     OW40104   8.428   6.702   1.719
 9358SOL    HW140105   8.329   6.708   1.729
 9358SOL    HW240106   8.451   6.622   1.663
 9359SOL     OW40107   8.153   6.636   0.368
 9359SOL    HW140108   8.139   6.643   0.467
 9359SOL    HW240109   8.237   6.585   0.350
 9360SOL     OW40110   7.815   6.686   0.501
 9360SOL    HW140111   7.808   6.769   0.445
 9360SOL    HW240112   7.819   6.606   0.441
 9361SOL     OW40113   8.014   6.123   0.865
 9361SOL    HW140114   8.026   6.189   0.791
 9361SOL    HW240115   8.060   6.157   0.948
 9362SOL     OW40116   8.700   6.934   0.388
 9362SOL    HW140117   8.750   7.011   0.428
 9362SOL    HW240118   8.605   6.936   0.420
 9363SOL     OW40119   8.720   7.031   1.142
 9363SOL    HW140120   8.767   7.044   1.229
 9363SOL    HW240121   8.654   6.957   1.151
 9364SOL     OW40122   8.021   6.456   1.029
 9364SOL    HW140123   8.065   6.545   1.020
 9364SOL    HW240124   7.958   6.456   1.106
 9365SOL     OW40125   8.808   6.448   1.045
 9365SOL    HW140126   8.733   6.448   0.979
 9365SOL    HW240127   8.845   6.356   1.054
 9366SOL     OW40128   8.657   6.111   0.275
 9366SOL    HW140129   8.670   6.027   0.329
 9366SOL    HW240130   8.628   6.185   0.335
 9367SOL     OW40131   8.180   6.220   1.064
 9367SOL    HW140132   8.239   6.194   0.988
 9367SOL    HW240133   8.152   6.316   1.053
 9368SOL     OW40134   9.070   5.953   0.374
 9368SOL    HW140135   9.072   5.877   0.438
 9368SOL    HW240136   9.022   6.030   0.414
 9369SOL     OW40137   8.471   6.352   0.966
 9369SOL    HW140138   8.486   6.373   1.062
 9369SOL    HW240139   8.441   6.257   0.957
 9370SOL     OW40140   8.988   5.860   0.125
 9370SOL    HW140141   8.927   5.785   0.148
 9370SOL    HW240142   9.010   5.912   0.208
 9371SOL     OW40143   8.516   6.919   0.849
 9371SOL    HW140144   8.523   6.835   0.794
 9371SOL    HW240145   8.578   6.988   0.813
 9372SOL     OW40146   7.767   6.396   0.949
 9372SOL    HW140147   7.860   6.432   0.954
 9372SOL    HW240148   7.761   6.311   1.001
 9373SOL     OW40149   7.787   6.095   1.006
 9373SOL    HW140150   7.735   6.012   0.989
 9373SOL    HW240151   7.864   6.100   0.942
 9374SOL     OW40152   7.536   7.387   0.927
 9374SOL    HW140153   7.494   7.301   0.900
 9374SOL    HW240154   7.630   7.390   0.893
 9375SOL     OW40155   7.952   7.154   0.910
 9375SOL    HW140156   8.018   7.228   0.919
 9375SOL    HW240157   7.996   7.075   0.868
 9376SOL     OW40158   8.450   6.382   1.238
 9376SOL    HW140159   8.491   6.350   1.324
 9376SOL    HW240160   8.354   6.355   1.235
 9377SOL     OW40161   7.488   6.130   1.114
 9377SOL    HW140162   7.573   6.097   1.073
 9377SOL    HW240163   7.501   6.145   1.212
 9378SOL     OW40164   8.263   6.158   0.325
 9378SOL    HW140165   8.270   6.069   0.279
 9378SOL    HW240166   8.169   6.192   0.317
 9379SOL     OW40167   7.700   7.150   1.744
 9379SOL    HW140168   7.670   7.207   1.820
 9379SOL    HW240169   7.693   7.053   1.770
 9380SOL     OW40170   7.921   6.086   0.191
 9380SOL    HW140171   7.982   6.166   0.195
 9380SOL    HW240172   7.826   6.117   0.198
 9381SOL     OW40173   8.750   6.441   0.309
 9381SOL    HW140174   8.664   6.410   0.351
 9381SOL    HW240175   8.746   6.427   0.210
 9382SOL     OW40176   9.207   7.333   1.154
 9382SOL    HW140177   9.268   7.363   1.081
 9382SOL    HW240178   9.169   7.244   1.132
 9383SOL     OW40179   8.700   7.317   1.128
 9383SOL    HW140180   8.784   7.322   1.074
 9383SOL    HW240181   8.677   7.221   1.146
 9384SOL     OW40182   7.531   6.844   1.022
 9384SOL    HW140183   7.526   6.843   1.122
 9384SOL    HW240184   7.448   6.803   0.984
 9385SOL     OW40185   8.351   5.672   0.133
 9385SOL    HW140186   8.402   5.673   0.047
 9385SOL    HW240187   8.407   5.630   0.204
 9386SOL     OW40188   9.174   5.721   0.523
 9386SOL    HW140189   9.247   5.704   0.456
 9386SOL    HW240190   9.143   5.634   0.561
 9387SOL     OW40191   8.836   7.159   0.477
 9387SOL    HW140192   8.903   7.171   0.403
 9387SOL    HW240193   8.796   7.248   0.500
 9388SOL     OW40194   8.728   6.513   0.672
 9388SOL    HW140195   8.788   6.432   0.674
 9388SOL    HW240196   8.768   6.582   0.612
 9389SOL     OW40197   8.278   6.859   1.422
 9389SOL    HW140198   8.273   6.892   1.517
 9389SOL    HW240199   8.192   6.878   1.376
 9390SOL     OW40200   8.120   7.202   0.154
 9390SOL    HW140201   8.129   7.212   0.055
 9390SOL    HW240202   8.080   7.113   0.175
 9391SOL     OW40203   9.098   7.306   1.394
 9391SOL    HW140204   9.151   7.316   1.310
 9391SOL    HW240205   9.071   7.396   1.428
 9392SOL     OW40206   9.289   5.761   0.963
 9392SOL    HW140207   9.328   5.676   0.927
 9392SOL    HW240208   9.191   5.763   0.944
 9393SOL     OW40209   7.711   5.912   0.720
 9393SOL    HW140210   7.632   5.963   0.686
 9393SOL    HW240211   7.702   5.897   0.818
 9394SOL     OW40212   8.642   7.198   0.031
 9394SOL    HW140213   8.648   7.105   0.068
 9394SOL    HW240214   8.583   7.198  -0.049
 9395SOL     OW40215   8.270   6.588   1.372
 9395SOL    HW140216   8.310   6.587   1.280
 9395SOL    HW240217   8.280   6.680   1.412
 9396SOL     OW40218   8.364   6.496   0.291
 9396SOL    HW140219   8.427   6.534   0.223
 9396SOL    HW240220   8.404   6.413   0.330
 9397SOL     OW40221   8.952   7.193   0.044
 9397SOL    HW140222   8.860   7.230   0.051
 9397SOL    HW240223   8.990   7.213  -0.046
 9398SOL     OW40224   9.062   6.878   1.289
 9398SOL    HW140225   9.122   6.881   1.369
 9398SOL    HW240226   8.987   6.942   1.302
 9399SOL     OW40227   8.487   6.684   0.696
 9399SOL    HW140228   8.417   6.637   0.750
 9399SOL    HW240229   8.546   6.616   0.653
 9400SOL     OW40230   8.038   7.073   0.491
 9400SOL    HW140231   8.080   7.015   0.421
 9400SOL    HW240232   7.994   7.152   0.447
 9401SOL     OW40233   7.703   6.934   0.290
 9401SOL    HW140234   7.607   6.935   0.263
 9401SOL    HW240235   7.715   6.987   0.374
 9402SOL     OW40236   7.553   6.599   1.726
 9402SOL    HW140237   7.476   6.566   1.780
 9402SOL    HW240238   7.638   6.569   1.768
 9403SOL     OW40239   8.631   6.921   0.119
 9403SOL    HW140240   8.532   6.910   0.121
 9403SOL    HW240241   8.665   6.936   0.212
 9404SOL     OW40242   8.061   6.428   1.431
 9404SOL    HW140243   8.117   6.509   1.414
 9404SOL    HW240244   8.120   6.348   1.434
 9405SOL     OW40245   8.941   7.353   0.959
 9405SOL    HW140246   8.974   7.417   0.890
 9405SOL    HW240247   9.007   7.347   1.034
 9406SOL     OW40248   8.898   6.806   1.633
 9406SOL    HW140249   8.889   6.796   1.732
 9406SOL    HW240250   8.994   6.799   1.607
 9407SOL     OW40251   7.838   7.327   1.560
 9407SOL    HW140252   7.747   7.368   1.558
 9407SOL    HW240253   7.831   7.233   1.592
 9408SOL     OW40254   8.673   5.911   0.449
 9408SOL    HW140255   8.738   5.837   0.438
 9408SOL    HW240256   8.693   5.961   0.533
 9409SOL     OW40257   8.042   6.331   0.652
 9409SOL    HW140258   8.092   6.416   0.633
 9409SOL    HW240259   7.954   6.333   0.604
 9410SOL     OW40260   9.225   5.928   1.642
 9410SOL    HW140261   9.208   5.959   1.548
 9410SOL    HW240262   9.141   5.891   1.680
 9411SOL     OW40263   9.178   6.520   1.517
 9411SOL    HW140264   9.216   6.611   1.532
 9411SOL    HW240265   9.170   6.503   1.418
 9412SOL     OW40266   8.307   6.960   0.016
 9412SOL    HW140267   8.261   6.975   0.104
 9412SOL    HW240268   8.351   7.045  -0.014
 9413SOL     OW40269   8.109   7.376   0.953
 9413SOL    HW140270   8.063   7.464   0.940
 9413SOL    HW240271   8.208   7.388   0.946
 9414SOL     OW40272   8.307   6.542   0.861
 9414SOL    HW140273   8.361   6.473   0.909
 9414SOL    HW240274   8.275   6.611   0.927
 9415SOL     OW40275   8.531   6.570   0.087
 9415SOL    HW140276   8.508   6.623   0.005
 9415SOL    HW240277   8.612   6.514   0.068
 9416SOL     OW40278   7.527   6.826   0.653
 9416SOL    HW140279   7.526   6.779   0.741
 9416SOL    HW240280   7.609   6.798   0.602
 9417SOL     OW40281   8.120   6.977   1.624
 9417SOL    HW140282   8.042   6.927   1.662
 9417SOL    HW240283   8.117   7.072   1.655
 9418SOL     OW40284   7.876   6.010   0.520
 9418SOL    HW140285   7.906   5.938   0.458
 9418SOL    HW240286   7.837   5.970   0.603
 9419SOL     OW40287   9.153   7.073   1.104
 9419SOL    HW140288   9.060   7.048   1.077
 9419SOL    HW240289   9.179   7.023   1.186
 9420SOL     OW40290   7.765   6.133   1.280
 9420SOL    HW140291   7.803   6.074   1.352
 9420SOL    HW240292   7.805   6.107   1.192
 9421SOL     OW40293   8.260   7.172   0.687
 9421SOL    HW140294   8.292   7.182   0.593
 9421SOL    HW240295   8.181   7.110   0.689
 9422SOL     OW40296   8.218   6.916   0.301
 9422SOL    HW140297   8.172   6.829   0.318
 9422SOL    HW240298   8.309   6.913   0.342
 9423SOL     OW40299   8.800   5.638   0.168
 9423SOL    HW140300   8.835   5.597   0.084
 9423SOL    HW240301   8.710   5.600   0.188
 9424SOL     OW40302   9.041   5.807   0.882
 9424SOL    HW140303   8.957   5.806   0.936
 9424SOL    HW240304   9.043   5.890   0.826
 9425SOL     OW40305   7.487   6.663   0.300
 9425SOL    HW140306   7.586   6.652   0.291
 9425SOL    HW240307   7.447   6.577   0.332
 9426SOL     OW40308   8.323   7.232   0.337
 9426SOL    HW140309   8.246   7.197   0.283
 9426SOL    HW240310   8.291   7.303   0.399
 9427SOL     OW40311   8.017   6.861   3.027
 9427SOL    HW140312   7.924   6.854   2.990
 9427SOL    HW240313   8.028   6.950   3.071
 9428SOL     OW40314   8.298   6.384   3.685
 9428SOL    HW140315   8.294   6.460   3.750
 9428SOL    HW240316   8.320   6.420   3.594
 9429SOL     OW40317   7.783   7.021   2.923
 9429SOL    HW140318   7.705   6.990   2.870
 9429SOL    HW240319   7.841   7.079   2.866
 9430SOL     OW40320   8.908   7.091   3.201
 9430SOL    HW140321   8.932   7.185   3.227
 9430SOL    HW240322   8.892   7.037   3.283
 9431SOL     OW40323   8.575   6.927   3.552
 9431SOL    HW140324   8.622   6.927   3.640
 9431SOL    HW240325   8.527   6.840   3.541
 9432SOL     OW40326   8.068   7.372   3.301
 9432SOL    HW140327   7.976   7.355   3.336
 9432SOL    HW240328   8.096   7.464   3.327
 9433SOL     OW40329   9.042   5.700   3.342
 9433SOL    HW140330   9.024   5.767   3.270
 9433SOL    HW240331   9.039   5.746   3.431
 9434SOL     OW40332   7.570   6.229   2.425
 9434SOL    HW140333   7.525   6.141   2.442
 9434SOL    HW240334   7.569   6.283   2.509
 9435SOL     OW40335   9.137   6.508   2.474
 9435SOL    HW140336   9.232   6.479   2.482
 9435SOL    HW240337   9.129   6.573   2.399
 9436SOL     OW40338   8.257   5.590   2.364
 9436SOL    HW140339   8.297   5.681   2.355
 9436SOL    HW240340   8.157   5.598   2.370
 9437SOL     OW40341   7.645   6.562   3.126
 9437SOL    HW140342   7.734   6.517   3.112
 9437SOL    HW240343   7.572   6.497   3.107
 9438SOL     OW40344   8.973   6.585   2.052
 9438SOL    HW140345   8.910   6.509   2.065
 9438SOL    HW240346   9.021   6.603   2.138
 9439SOL     OW40347   8.729   5.931   2.806
 9439SOL    HW140348   8.643   5.881   2.793
 9439SOL    HW240349   8.791   5.877   2.862
 9440SOL     OW40350   8.842   6.055   3.536
 9440SOL    HW140351   8.822   6.098   3.624
 9440SOL    HW240352   8.920   5.993   3.545
 9441SOL     OW40353   8.439   5.996   3.104
 9441SOL    HW140354   8.362   6.030   3.158
 9441SOL    HW240355   8.405   5.945   3.025
 9442SOL     OW40356   7.578   7.407   3.433
 9442SOL    HW140357   7.568   7.392   3.532
 9442SOL    HW240358   7.492   7.443   3.397
 9443SOL     OW40359   8.456   7.042   2.339
 9443SOL    HW140360   8.410   7.114   2.287
 9443SOL    HW240361   8.452   7.062   2.437
 9444SOL     OW40362   7.799   7.387   2.715
 9444SOL    HW140363   7.849   7.301   2.721
 9444SOL    HW240364   7.864   7.464   2.712
 9445SOL     OW40365   9.080   6.963   1.943
 9445SOL    HW140366   9.048   7.057   1.933
 9445SOL    HW240367   9.004   6.900   1.931
 9446SOL     OW40368   8.388   7.284   2.766
 9446SOL    HW140369   8.468   7.227   2.787
 9446SOL    HW240370   8.339   7.244   2.689
 9447SOL     OW40371   8.882   6.774   1.903
 9447SOL    HW140372   8.914   6.698   1.960
 9447SOL    HW240373   8.790   6.801   1.933
 9448SOL     OW40374   8.383   5.822   2.342
 9448SOL    HW140375   8.335   5.863   2.264
 9448SOL    HW240376   8.482   5.820   2.323
 9449SOL     OW40377   8.480   6.135   1.878
 9449SOL    HW140378   8.439   6.217   1.839
 9449SOL    HW240379   8.544   6.161   1.951
 9450SOL     OW40380   7.526   6.142   3.248
 9450SOL    HW140381   7.618   6.141   3.207
 9450SOL    HW240382   7.520   6.216   3.315
 9451SOL     OW40383   8.009   5.808   3.009
 9451SOL    HW140384   8.047   5.724   3.046
 9451SOL    HW240385   7.921   5.827   3.053
 9452SOL     OW40386   8.877   6.759   2.729
 9452SOL    HW140387   8.822   6.675   2.722
 9452SOL    HW240388   8.903   6.788   2.637
 9453SOL     OW40389   8.914   6.176   2.854
 9453SOL    HW140390   8.884   6.081   2.861
 9453SOL    HW240391   8.987   6.192   2.920
 9454SOL     OW40392   8.428   6.702   3.581
 9454SOL    HW140393   8.329   6.708   3.591
 9454SOL    HW240394   8.451   6.622   3.525
 9455SOL     OW40395   7.858   6.399   3.113
 9455SOL    HW140396   7.944   6.411   3.163
 9455SOL    HW240397   7.816   6.312   3.140
 9456SOL     OW40398   7.815   6.686   2.363
 9456SOL    HW140399   7.808   6.769   2.307
 9456SOL    HW240400   7.819   6.606   2.303
 9457SOL     OW40401   8.014   6.123   2.727
 9457SOL    HW140402   8.026   6.189   2.653
 9457SOL    HW240403   8.060   6.157   2.810
 9458SOL     OW40404   7.850   6.337   3.460
 9458SOL    HW140405   7.918   6.392   3.413
 9458SOL    HW240406   7.890   6.249   3.487
 9459SOL     OW40407   8.021   6.456   2.891
 9459SOL    HW140408   8.065   6.545   2.882
 9459SOL    HW240409   7.958   6.456   2.968
 9460SOL     OW40410   8.180   6.220   2.926
 9460SOL    HW140411   8.239   6.194   2.850
 9460SOL    HW240412   8.152   6.316   2.915
 9461SOL     OW40413   7.798   6.484   3.666
 9461SOL    HW140414   7.874   6.528   3.714
 9461SOL    HW240415   7.833   6.437   3.584
 9462SOL     OW40416   8.988   5.860   1.987
 9462SOL    HW140417   8.927   5.785   2.010
 9462SOL    HW240418   9.010   5.912   2.070
 9463SOL     OW40419   8.516   6.919   2.711
 9463SOL    HW140420   8.523   6.835   2.656
 9463SOL    HW240421   8.578   6.988   2.675
 9464SOL     OW40422   8.586   5.966   3.540
 9464SOL    HW140423   8.541   6.029   3.604
 9464SOL    HW240424   8.679   5.997   3.523
 9465SOL     OW40425   8.608   5.793   3.339
 9465SOL    HW140426   8.608   5.857   3.416
 9465SOL    HW240427   8.636   5.841   3.256
 9466SOL     OW40428   7.952   7.154   2.772
 9466SOL    HW140429   8.018   7.228   2.781
 9466SOL    HW240430   7.996   7.075   2.730
 9467SOL     OW40431   8.450   6.382   3.100
 9467SOL    HW140432   8.491   6.350   3.186
 9467SOL    HW240433   8.354   6.355   3.097
 9468SOL     OW40434   7.488   6.130   2.976
 9468SOL    HW140435   7.573   6.097   2.935
 9468SOL    HW240436   7.501   6.145   3.074
 9469SOL     OW40437   8.817   6.536   3.522
 9469SOL    HW140438   8.856   6.625   3.542
 9469SOL    HW240439   8.827   6.516   3.425
 9470SOL     OW40440   7.700   7.150   3.606
 9470SOL    HW140441   7.670   7.207   3.682
 9470SOL    HW240442   7.693   7.053   3.632
 9471SOL     OW40443   8.119   6.050   3.131
 9471SOL    HW140444   8.085   5.961   3.101
 9471SOL    HW240445   8.145   6.104   3.051
 9472SOL     OW40446   7.531   6.844   2.884
 9472SOL    HW140447   7.526   6.843   2.984
 9472SOL    HW240448   7.448   6.803   2.846
 9473SOL     OW40449   7.711   5.912   2.582
 9473SOL    HW140450   7.632   5.963   2.548
 9473SOL    HW240451   7.702   5.897   2.680
 9474SOL     OW40452   8.364   6.496   2.153
 9474SOL    HW140453   8.427   6.534   2.085
 9474SOL    HW240454   8.404   6.413   2.192
 9475SOL     OW40455   8.462   5.822   2.833
 9475SOL    HW140456   8.454   5.786   2.740
 9475SOL    HW240457   8.460   5.746   2.898
 9476SOL     OW40458   8.038   7.073   2.353
 9476SOL    HW140459   8.080   7.015   2.283
 9476SOL    HW240460   7.994   7.152   2.309
 9477SOL     OW40461   8.120   5.789   3.351
 9477SOL    HW140462   8.210   5.773   3.311
 9477SOL    HW240463   8.128   5.794   3.450
 9478SOL     OW40464   7.523   5.931   1.895
 9478SOL    HW140465   7.431   5.903   1.866
 9478SOL    HW240466   7.554   6.008   1.839
 9479SOL     OW40467   8.941   7.353   2.821
 9479SOL    HW140468   8.974   7.417   2.752
 9479SOL    HW240469   9.007   7.347   2.896
 9480SOL     OW40470   8.898   6.806   3.495
 9480SOL    HW140471   8.889   6.796   3.594
 9480SOL    HW240472   8.994   6.799   3.469
 9481SOL     OW40473   7.838   7.327   3.422
 9481SOL    HW140474   7.747   7.368   3.420
 9481SOL    HW240475   7.831   7.233   3.454
 9482SOL     OW40476   8.109   7.376   2.815
 9482SOL    HW140477   8.063   7.464   2.802
 9482SOL    HW240478   8.208   7.388   2.808
 9483SOL     OW40479   9.309   7.155   2.713
 9483SOL    HW140480   9.238   7.143   2.643
 9483SOL    HW240481   9.310   7.076   2.773
 9484SOL     OW40482   7.527   6.826   2.515
 9484SOL    HW140483   7.526   6.779   2.603
 9484SOL    HW240484   7.609   6.798   2.464
 9485SOL     OW40485   9.272   5.778   3.089
 9485SOL    HW140486   9.268   5.688   3.133
 9485SOL    HW240487   9.275   5.767   2.990
 9486SOL     OW40488   8.872   5.800   2.974
 9486SOL    HW140489   8.924   5.735   3.029
 9486SOL    HW240490   8.823   5.863   3.035
 9487SOL     OW40491   8.800   5.638   2.030
 9487SOL    HW140492   8.835   5.597   1.946
 9487SOL    HW240493   8.710   5.600   2.050
 9488SOL     OW40494   7.467   5.954   4.371
 9488SOL    HW140495   7.385   5.997   4.410
 9488SOL    HW240496   7.439   5.881   4.308
 9489SOL     OW40497   8.017   6.861   4.889
 9489SOL    HW140498   7.924   6.854   4.852
 9489SOL    HW240499   8.028   6.950   4.933
 9490SOL     OW40500   9.203   6.193   3.955
 9490SOL    HW140501   9.191   6.180   3.856
 9490SOL    HW240502   9.173   6.112   4.004
 9491SOL     OW40503   8.216   6.730   4.747
 9491SOL    HW140504   8.138   6.747   4.807
 9491SOL    HW240505   8.250   6.817   4.711
 9492SOL     OW40506   8.298   6.384   5.547
 9492SOL    HW140507   8.294   6.460   5.612
 9492SOL    HW240508   8.320   6.420   5.456
 9493SOL     OW40509   8.134   6.747   5.527
 9493SOL    HW140510   8.194   6.826   5.541
 9493SOL    HW240511   8.048   6.778   5.486
 9494SOL     OW40512   8.908   7.091   5.063
 9494SOL    HW140513   8.932   7.185   5.089
 9494SOL    HW240514   8.892   7.037   5.145
 9495SOL     OW40515   7.886   5.978   5.223
 9495SOL    HW140516   7.968   5.922   5.232
 9495SOL    HW240517   7.805   5.920   5.227
 9496SOL     OW40518   8.575   6.927   5.414
 9496SOL    HW140519   8.622   6.927   5.502
 9496SOL    HW240520   8.527   6.840   5.403
 9497SOL     OW40521   7.678   7.020   4.262
 9497SOL    HW140522   7.652   7.116   4.262
 9497SOL    HW240523   7.607   6.966   4.307
 9498SOL     OW40524   8.068   7.372   5.163
 9498SOL    HW140525   7.976   7.355   5.198
 9498SOL    HW240526   8.096   7.464   5.189
 9499SOL     OW40527   7.475   7.182   3.841
 9499SOL    HW140528   7.456   7.086   3.862
 9499SOL    HW240529   7.442   7.240   3.916
 9500SOL     OW40530   9.137   6.508   4.336
 9500SOL    HW140531   9.232   6.479   4.344
 9500SOL    HW240532   9.129   6.573   4.261
 9501SOL     OW40533   7.561   6.323   5.321
 9501SOL    HW140534   7.649   6.310   5.366
 9501SOL    HW240535   7.548   6.420   5.299
 9502SOL     OW40536   8.741   6.814   5.147
 9502SOL    HW140537   8.778   6.741   5.089
 9502SOL    HW240538   8.793   6.819   5.232
 9503SOL     OW40539   7.645   6.562   4.988
 9503SOL    HW140540   7.734   6.517   4.974
 9503SOL    HW240541   7.572   6.497   4.969
 9504SOL     OW40542   8.635   7.378   5.340
 9504SOL    HW140543   8.659   7.438   5.264
 9504SOL    HW240544   8.642   7.283   5.310
 9505SOL     OW40545   7.765   5.837   5.525
 9505SOL    HW140546   7.836   5.908   5.531
 9505SOL    HW240547   7.677   5.876   5.553
 9506SOL     OW40548   8.842   6.055   5.398
 9506SOL    HW140549   8.822   6.098   5.486
 9506SOL    HW240550   8.920   5.993   5.407
 9507SOL     OW40551   7.578   7.407   5.295
 9507SOL    HW140552   7.568   7.392   5.394
 9507SOL    HW240553   7.492   7.443   5.259
 9508SOL     OW40554   8.313   5.934   3.919
 9508SOL    HW140555   8.372   5.997   3.870
 9508SOL    HW240556   8.332   5.840   3.890
 9509SOL     OW40557   9.167   6.171   5.555
 9509SOL    HW140558   9.141   6.260   5.519
 9509SOL    HW240559   9.165   6.103   5.482
 9510SOL     OW40560   7.998   5.782   4.609
 9510SOL    HW140561   7.993   5.777   4.709
 9510SOL    HW240562   8.000   5.878   4.580
 9511SOL     OW40563   7.799   7.387   4.577
 9511SOL    HW140564   7.849   7.301   4.583
 9511SOL    HW240565   7.864   7.464   4.574
 9512SOL     OW40566   9.243   6.652   4.597
 9512SOL    HW140567   9.181   6.637   4.521
 9512SOL    HW240568   9.191   6.663   4.682
 9513SOL     OW40569   8.675   7.136   5.230
 9513SOL    HW140570   8.681   7.059   5.294
 9513SOL    HW240571   8.623   7.110   5.150
 9514SOL     OW40572   7.769   6.529   3.966
 9514SOL    HW140573   7.851   6.568   3.924
 9514SOL    HW240574   7.742   6.447   3.917
 9515SOL     OW40575   7.650   5.871   5.222
 9515SOL    HW140576   7.570   5.931   5.209
 9515SOL    HW240577   7.640   5.822   5.308
 9516SOL     OW40578   7.912   7.329   4.047
 9516SOL    HW140579   7.945   7.368   4.133
 9516SOL    HW240580   7.988   7.322   3.982
 9517SOL     OW40581   7.697   7.371   4.965
 9517SOL    HW140582   7.754   7.306   5.015
 9517SOL    HW240583   7.681   7.338   4.872
 9518SOL     OW40584   8.995   5.808   5.453
 9518SOL    HW140585   8.990   5.845   5.545
 9518SOL    HW240586   8.923   5.739   5.441
 9519SOL     OW40587   8.336   7.100   4.919
 9519SOL    HW140588   8.313   7.075   4.825
 9519SOL    HW240589   8.397   7.031   4.958
 9520SOL     OW40590   8.799   6.176   5.157
 9520SOL    HW140591   8.827   6.133   5.242
 9520SOL    HW240592   8.824   6.272   5.158
 9521SOL     OW40593   8.251   6.988   4.648
 9521SOL    HW140594   8.341   7.002   4.606
 9521SOL    HW240595   8.180   6.990   4.577
 9522SOL     OW40596   8.370   6.089   4.623
 9522SOL    HW140597   8.345   6.080   4.527
 9522SOL    HW240598   8.418   6.007   4.654
 9523SOL     OW40599   7.987   5.650   4.236
 9523SOL    HW140600   7.906   5.651   4.294
 9523SOL    HW240601   7.990   5.733   4.181
 9524SOL     OW40602   8.383   5.822   4.204
 9524SOL    HW140603   8.335   5.863   4.126
 9524SOL    HW240604   8.482   5.820   4.185
 9525SOL     OW40605   8.719   7.383   4.315
 9525SOL    HW140606   8.763   7.447   4.251
 9525SOL    HW240607   8.669   7.435   4.385
 9526SOL     OW40608   8.480   6.135   3.740
 9526SOL    HW140609   8.439   6.217   3.701
 9526SOL    HW240610   8.544   6.161   3.813
 9527SOL     OW40611   8.838   6.161   3.802
 9527SOL    HW140612   8.784   6.140   3.883
 9527SOL    HW240613   8.929   6.120   3.811
 9528SOL     OW40614   9.202   6.809   5.312
 9528SOL    HW140615   9.293   6.770   5.299
 9528SOL    HW240616   9.210   6.905   5.336
 9529SOL     OW40617   8.512   6.933   5.064
 9529SOL    HW140618   8.432   6.910   5.119
 9529SOL    HW240619   8.595   6.907   5.113
 9530SOL     OW40620   9.040   7.215   5.349
 9530SOL    HW140621   9.067   7.249   5.259
 9530SOL    HW240622   9.119   7.177   5.395
 9531SOL     OW40623   8.559   6.781   4.824
 9531SOL    HW140624   8.519   6.825   4.905
 9531SOL    HW240625   8.518   6.818   4.741
 9532SOL     OW40626   8.428   6.702   5.443
 9532SOL    HW140627   8.329   6.708   5.453
 9532SOL    HW240628   8.451   6.622   5.387
 9533SOL     OW40629   8.722   5.972   4.986
 9533SOL    HW140630   8.743   6.046   5.050
 9533SOL    HW240631   8.633   5.989   4.943
 9534SOL     OW40632   8.700   6.934   4.112
 9534SOL    HW140633   8.750   7.011   4.152
 9534SOL    HW240634   8.605   6.936   4.144
 9535SOL     OW40635   8.720   7.031   4.866
 9535SOL    HW140636   8.767   7.044   4.953
 9535SOL    HW240637   8.654   6.957   4.875
 9536SOL     OW40638   9.030   6.225   4.196
 9536SOL    HW140639   8.999   6.286   4.269
 9536SOL    HW240640   9.080   6.277   4.127
 9537SOL     OW40641   9.035   6.365   5.394
 9537SOL    HW140642   8.943   6.403   5.389
 9537SOL    HW240643   9.095   6.412   5.329
 9538SOL     OW40644   8.461   5.691   5.494
 9538SOL    HW140645   8.467   5.776   5.442
 9538SOL    HW240646   8.493   5.615   5.437
 9539SOL     OW40647   8.808   6.448   4.769
 9539SOL    HW140648   8.733   6.448   4.703
 9539SOL    HW240649   8.845   6.356   4.778
 9540SOL     OW40650   9.176   6.521   5.578
 9540SOL    HW140651   9.130   6.514   5.489
 9540SOL    HW240652   9.114   6.565   5.644
 9541SOL     OW40653   7.755   5.649   4.342
 9541SOL    HW140654   7.744   5.743   4.375
 9541SOL    HW240655   7.750   5.586   4.419
 9542SOL     OW40656   9.070   5.953   4.098
 9542SOL    HW140657   9.072   5.877   4.162
 9542SOL    HW240658   9.022   6.030   4.138
 9543SOL     OW40659   8.428   7.159   5.424
 9543SOL    HW140660   8.408   7.203   5.336
 9543SOL    HW240661   8.467   7.068   5.408
 9544SOL     OW40662   9.307   7.104   5.329
 9544SOL    HW140663   9.321   7.131   5.234
 9544SOL    HW240664   9.390   7.126   5.382
 9545SOL     OW40665   7.767   6.396   4.673
 9545SOL    HW140666   7.860   6.432   4.678
 9545SOL    HW240667   7.761   6.311   4.725
 9546SOL     OW40668   8.586   5.966   5.402
 9546SOL    HW140669   8.541   6.029   5.466
 9546SOL    HW240670   8.679   5.997   5.385
 9547SOL     OW40671   7.536   7.387   4.651
 9547SOL    HW140672   7.494   7.301   4.624
 9547SOL    HW240673   7.630   7.390   4.617
 9548SOL     OW40674   7.952   7.154   4.634
 9548SOL    HW140675   8.018   7.228   4.643
 9548SOL    HW240676   7.996   7.075   4.592
 9549SOL     OW40677   8.450   6.382   4.962
 9549SOL    HW140678   8.491   6.350   5.048
 9549SOL    HW240679   8.354   6.355   4.959
 9550SOL     OW40680   7.637   6.106   5.446
 9550SOL    HW140681   7.696   6.066   5.376
 9550SOL    HW240682   7.579   6.177   5.405
 9551SOL     OW40683   8.817   6.536   5.384
 9551SOL    HW140684   8.856   6.625   5.404
 9551SOL    HW240685   8.827   6.516   5.287
 9552SOL     OW40686   9.105   6.190   4.930
 9552SOL    HW140687   9.067   6.121   4.992
 9552SOL    HW240688   9.187   6.154   4.886
 9553SOL     OW40689   8.378   7.264   5.189
 9553SOL    HW140690   8.354   7.246   5.094
 9553SOL    HW240691   8.408   7.358   5.199
 9554SOL     OW40692   8.795   6.645   4.958
 9554SOL    HW140693   8.819   6.582   4.884
 9554SOL    HW240694   8.705   6.685   4.940
 9555SOL     OW40695   8.700   7.317   4.852
 9555SOL    HW140696   8.784   7.322   4.798
 9555SOL    HW240697   8.677   7.221   4.870
 9556SOL     OW40698   8.136   7.248   5.440
 9556SOL    HW140699   8.080   7.329   5.449
 9556SOL    HW240700   8.188   7.252   5.354
 9557SOL     OW40701   7.578   7.380   5.575
 9557SOL    HW140702   7.537   7.306   5.628
 9557SOL    HW240703   7.642   7.431   5.633
 9558SOL     OW40704   8.278   6.859   5.146
 9558SOL    HW140705   8.273   6.892   5.241
 9558SOL    HW240706   8.192   6.878   5.100
 9559SOL     OW40707   9.098   7.306   5.118
 9559SOL    HW140708   9.151   7.316   5.034
 9559SOL    HW240709   9.071   7.396   5.152
 9560SOL     OW40710   8.270   6.588   5.096
 9560SOL    HW140711   8.310   6.587   5.004
 9560SOL    HW240712   8.280   6.680   5.136
 9561SOL     OW40713   8.364   6.496   4.015
 9561SOL    HW140714   8.427   6.534   3.947
 9561SOL    HW240715   8.404   6.413   4.054
 9562SOL     OW40716   8.952   7.193   3.768
 9562SOL    HW140717   8.860   7.230   3.775
 9562SOL    HW240718   8.990   7.213   3.678
 9563SOL     OW40719   9.157   5.971   5.105
 9563SOL    HW140720   9.230   6.040   5.109
 9563SOL    HW240721   9.185   5.896   5.046
 9564SOL     OW40722   7.703   6.934   4.014
 9564SOL    HW140723   7.607   6.935   3.987
 9564SOL    HW240724   7.715   6.987   4.098
 9565SOL     OW40725   7.553   6.599   5.450
 9565SOL    HW140726   7.476   6.566   5.504
 9565SOL    HW240727   7.638   6.569   5.492
 9566SOL     OW40728   8.888   6.442   5.122
 9566SOL    HW140729   8.831   6.494   5.059
 9566SOL    HW240730   8.984   6.454   5.098
 9567SOL     OW40731   7.520   5.752   4.042
 9567SOL    HW140732   7.503   5.835   3.988
 9567SOL    HW240733   7.610   5.715   4.020
 9568SOL     OW40734   8.164   6.151   5.432
 9568SOL    HW140735   8.183   6.216   5.506
 9568SOL    HW240736   8.224   6.071   5.441
 9569SOL     OW40737   8.898   6.806   5.357
 9569SOL    HW140738   8.889   6.796   5.456
 9569SOL    HW240739   8.994   6.799   5.331
 9570SOL     OW40740   8.673   5.911   4.173
 9570SOL    HW140741   8.738   5.837   4.162
 9570SOL    HW240742   8.693   5.961   4.257
 9571SOL     OW40743   9.225   5.928   5.366
 9571SOL    HW140744   9.208   5.959   5.272
 9571SOL    HW240745   9.141   5.891   5.404
 9572SOL     OW40746   9.178   6.520   5.241
 9572SOL    HW140747   9.216   6.611   5.256
 9572SOL    HW240748   9.170   6.503   5.142
 9573SOL     OW40749   8.307   6.960   3.740
 9573SOL    HW140750   8.261   6.975   3.828
 9573SOL    HW240751   8.351   7.045   3.710
 9574SOL     OW40752   8.531   6.570   3.811
 9574SOL    HW140753   8.508   6.623   3.729
 9574SOL    HW240754   8.612   6.514   3.792
 9575SOL     OW40755   7.669   6.900   5.568
 9575SOL    HW140756   7.604   6.827   5.547
 9575SOL    HW240757   7.673   6.914   5.666
 9576SOL     OW40758   8.120   6.977   5.348
 9576SOL    HW140759   8.042   6.927   5.386
 9576SOL    HW240760   8.117   7.072   5.379
 9577SOL     OW40761   9.272   5.778   4.951
 9577SOL    HW140762   9.268   5.688   4.995
 9577SOL    HW240763   9.275   5.767   4.852
 9578SOL     OW40764   8.066   7.153   5.008
 9578SOL    HW140765   8.061   7.235   5.065
 9578SOL    HW240766   8.155   7.150   4.963
 9579SOL     OW40767   8.748   6.039   4.415
 9579SOL    HW140768   8.689   6.119   4.419
 9579SOL    HW240769   8.763   6.004   4.508
 9580SOL     OW40770   7.487   6.663   4.024
 9580SOL    HW140771   7.586   6.652   4.015
 9580SOL    HW240772   7.447   6.577   4.056
 9581SOL     OW40773   7.678   6.214   5.699
 9581SOL    HW140774   7.585   6.212   5.736
 9581SOL    HW240775   7.679   6.175   5.607
 9582SOL     OW40776   7.673   5.861   6.582
 9582SOL    HW140777   7.708   5.844   6.674
 9582SOL    HW240778   7.585   5.816   6.570
 9583SOL     OW40779   7.467   5.954   6.233
 9583SOL    HW140780   7.385   5.997   6.272
 9583SOL    HW240781   7.439   5.881   6.170
 9584SOL     OW40782   9.003   7.097   6.289
 9584SOL    HW140783   8.946   7.081   6.370
 9584SOL    HW240784   8.944   7.107   6.209
 9585SOL     OW40785   8.583   6.289   6.303
 9585SOL    HW140786   8.640   6.367   6.278
 9585SOL    HW240787   8.523   6.315   6.379
 9586SOL     OW40788   9.203   6.193   5.817
 9586SOL    HW140789   9.191   6.180   5.718
 9586SOL    HW240790   9.173   6.112   5.866
 9587SOL     OW40791   8.216   6.730   6.609
 9587SOL    HW140792   8.138   6.747   6.669
 9587SOL    HW240793   8.250   6.817   6.573
 9588SOL     OW40794   8.133   6.598   6.251
 9588SOL    HW140795   8.202   6.582   6.321
 9588SOL    HW240796   8.060   6.655   6.289
 9589SOL     OW40797   9.051   6.033   6.323
 9589SOL    HW140798   8.977   6.079   6.273
 9589SOL    HW240799   9.102   6.101   6.376
 9590SOL     OW40800   7.679   7.299   6.069
 9590SOL    HW140801   7.713   7.376   6.123
 9590SOL    HW240802   7.723   7.299   5.979
 9591SOL     OW40803   7.678   7.020   6.124
 9591SOL    HW140804   7.652   7.116   6.124
 9591SOL    HW240805   7.607   6.966   6.169
 9592SOL     OW40806   8.054   6.550   5.709
 9592SOL    HW140807   8.061   6.634   5.655
 9592SOL    HW240808   8.100   6.563   5.797
 9593SOL     OW40809   7.570   6.229   6.149
 9593SOL    HW140810   7.525   6.141   6.166
 9593SOL    HW240811   7.569   6.283   6.233
 9594SOL     OW40812   9.290   7.353   5.945
 9594SOL    HW140813   9.344   7.324   6.025
 9594SOL    HW240814   9.320   7.443   5.916
 9595SOL     OW40815   7.475   7.182   5.703
 9595SOL    HW140816   7.456   7.086   5.724
 9595SOL    HW240817   7.442   7.240   5.778
 9596SOL     OW40818   9.137   6.508   6.198
 9596SOL    HW140819   9.232   6.479   6.206
 9596SOL    HW240820   9.129   6.573   6.123
 9597SOL     OW40821   9.089   6.694   6.018
 9597SOL    HW140822   9.175   6.696   5.966
 9597SOL    HW240823   9.103   6.741   6.106
 9598SOL     OW40824   8.061   6.951   6.312
 9598SOL    HW140825   8.012   6.864   6.321
 9598SOL    HW240826   8.038   6.994   6.225
 9599SOL     OW40827   8.257   5.590   6.088
 9599SOL    HW140828   8.297   5.681   6.079
 9599SOL    HW240829   8.157   5.598   6.094
 9600SOL     OW40830   7.645   6.562   6.850
 9600SOL    HW140831   7.734   6.517   6.836
 9600SOL    HW240832   7.572   6.497   6.831
 9601SOL     OW40833   8.973   6.585   5.776
 9601SOL    HW140834   8.910   6.509   5.789
 9601SOL    HW240835   9.021   6.603   5.862
 9602SOL     OW40836   8.914   7.003   6.539
 9602SOL    HW140837   8.855   7.009   6.619
 9602SOL    HW240838   8.899   6.915   6.493
 9603SOL     OW40839   9.115   7.300   6.158
 9603SOL    HW140840   9.074   7.277   6.070
 9603SOL    HW240841   9.097   7.226   6.223
 9604SOL     OW40842   8.046   6.315   5.856
 9604SOL    HW140843   8.070   6.384   5.788
 9604SOL    HW240844   7.968   6.348   5.910
 9605SOL     OW40845   8.729   5.931   6.530
 9605SOL    HW140846   8.643   5.881   6.517
 9605SOL    HW240847   8.791   5.877   6.586
 9606SOL     OW40848   9.024   7.248   5.893
 9606SOL    HW140849   9.113   7.294   5.896
 9606SOL    HW240850   9.003   7.224   5.798
 9607SOL     OW40851   8.439   5.996   6.828
 9607SOL    HW140852   8.362   6.030   6.882
 9607SOL    HW240853   8.405   5.945   6.749
 9608SOL     OW40854   8.489   6.287   6.015
 9608SOL    HW140855   8.515   6.283   6.111
 9608SOL    HW240856   8.404   6.236   6.001
 9609SOL     OW40857   7.524   6.397   6.375
 9609SOL    HW140858   7.623   6.385   6.384
 9609SOL    HW240859   7.500   6.492   6.396
 9610SOL     OW40860   8.313   5.934   5.781
 9610SOL    HW140861   8.372   5.997   5.732
 9610SOL    HW240862   8.332   5.840   5.752
 9611SOL     OW40863   8.810   6.730   6.131
 9611SOL    HW140864   8.893   6.701   6.083
 9611SOL    HW240865   8.761   6.797   6.075
 9612SOL     OW40866   7.998   5.782   6.471
 9612SOL    HW140867   7.993   5.777   6.571
 9612SOL    HW240868   8.000   5.878   6.442
 9613SOL     OW40869   8.456   7.042   6.063
 9613SOL    HW140870   8.410   7.114   6.011
 9613SOL    HW240871   8.452   7.062   6.161
 9614SOL     OW40872   7.799   7.387   6.439
 9614SOL    HW140873   7.849   7.301   6.445
 9614SOL    HW240874   7.864   7.464   6.436
 9615SOL     OW40875   9.243   6.652   6.459
 9615SOL    HW140876   9.181   6.637   6.383
 9615SOL    HW240877   9.191   6.663   6.544
 9616SOL     OW40878   7.769   6.529   5.828
 9616SOL    HW140879   7.851   6.568   5.786
 9616SOL    HW240880   7.742   6.447   5.779
 9617SOL     OW40881   8.559   7.362   5.823
 9617SOL    HW140882   8.499   7.300   5.873
 9617SOL    HW240883   8.590   7.318   5.738
 9618SOL     OW40884   9.080   6.963   5.667
 9618SOL    HW140885   9.048   7.057   5.657
 9618SOL    HW240886   9.004   6.900   5.655
 9619SOL     OW40887   7.912   7.329   5.909
 9619SOL    HW140888   7.945   7.368   5.995
 9619SOL    HW240889   7.988   7.322   5.844
 9620SOL     OW40890   8.848   5.693   6.012
 9620SOL    HW140891   8.824   5.656   5.922
 9620SOL    HW240892   8.947   5.709   6.016
 9621SOL     OW40893   8.388   7.284   6.490
 9621SOL    HW140894   8.468   7.227   6.511
 9621SOL    HW240895   8.339   7.244   6.413
 9622SOL     OW40896   7.830   6.286   6.066
 9622SOL    HW140897   7.875   6.196   6.063
 9622SOL    HW240898   7.736   6.275   6.099
 9623SOL     OW40899   8.251   6.988   6.510
 9623SOL    HW140900   8.341   7.002   6.468
 9623SOL    HW240901   8.180   6.990   6.439
 9624SOL     OW40902   8.370   6.089   6.485
 9624SOL    HW140903   8.345   6.080   6.389
 9624SOL    HW240904   8.418   6.007   6.516
 9625SOL     OW40905   7.987   5.650   6.098
 9625SOL    HW140906   7.906   5.651   6.156
 9625SOL    HW240907   7.990   5.733   6.043
 9626SOL     OW40908   8.882   6.774   5.627
 9626SOL    HW140909   8.914   6.698   5.684
 9626SOL    HW240910   8.790   6.801   5.657
 9627SOL     OW40911   7.745   5.621   5.757
 9627SOL    HW140912   7.794   5.705   5.736
 9627SOL    HW240913   7.807   5.556   5.802
 9628SOL     OW40914   8.383   5.822   6.066
 9628SOL    HW140915   8.335   5.863   5.988
 9628SOL    HW240916   8.482   5.820   6.047
 9629SOL     OW40917   8.675   7.156   6.379
 9629SOL    HW140918   8.696   7.230   6.314
 9629SOL    HW240919   8.743   7.156   6.452
 9630SOL     OW40920   7.907   6.738   6.327
 9630SOL    HW140921   7.836   6.711   6.392
 9630SOL    HW240922   7.881   6.710   6.234
 9631SOL     OW40923   8.480   6.135   5.602
 9631SOL    HW140924   8.439   6.217   5.563
 9631SOL    HW240925   8.544   6.161   5.675
 9632SOL     OW40926   8.009   5.808   6.733
 9632SOL    HW140927   8.047   5.724   6.770
 9632SOL    HW240928   7.921   5.827   6.777
 9633SOL     OW40929   8.314   6.040   6.228
 9633SOL    HW140930   8.282   6.112   6.166
 9633SOL    HW240931   8.338   5.959   6.175
 9634SOL     OW40932   8.465   5.625   6.339
 9634SOL    HW140933   8.393   5.630   6.270
 9634SOL    HW240934   8.441   5.556   6.408
 9635SOL     OW40935   8.914   6.176   6.578
 9635SOL    HW140936   8.884   6.081   6.585
 9635SOL    HW240937   8.987   6.192   6.644
 9636SOL     OW40938   9.305   6.419   5.963
 9636SOL    HW140939   9.347   6.355   6.027
 9636SOL    HW240940   9.267   6.368   5.885
 9637SOL     OW40941   7.936   6.971   5.760
 9637SOL    HW140942   7.849   6.956   5.807
 9637SOL    HW240943   7.919   6.997   5.665
 9638SOL     OW40944   9.112   6.866   6.243
 9638SOL    HW140945   9.211   6.874   6.257
 9638SOL    HW240946   9.067   6.950   6.274
 9639SOL     OW40947   8.838   6.161   5.664
 9639SOL    HW140948   8.784   6.140   5.745
 9639SOL    HW240949   8.929   6.120   5.673
 9640SOL     OW40950   7.975   5.842   5.914
 9640SOL    HW140951   8.002   5.783   5.839
 9640SOL    HW240952   7.975   5.937   5.883
 9641SOL     OW40953   9.202   6.809   7.174
 9641SOL    HW140954   9.293   6.770   7.161
 9641SOL    HW240955   9.210   6.905   7.198
 9642SOL     OW40956   8.153   6.636   5.954
 9642SOL    HW140957   8.139   6.643   6.053
 9642SOL    HW240958   8.237   6.585   5.936
 9643SOL     OW40959   7.858   6.399   6.837
 9643SOL    HW140960   7.944   6.411   6.887
 9643SOL    HW240961   7.816   6.312   6.864
 9644SOL     OW40962   8.722   5.972   6.848
 9644SOL    HW140963   8.743   6.046   6.912
 9644SOL    HW240964   8.633   5.989   6.805
 9645SOL     OW40965   7.815   6.686   6.087
 9645SOL    HW140966   7.808   6.769   6.031
 9645SOL    HW240967   7.819   6.606   6.027
 9646SOL     OW40968   8.014   6.123   6.451
 9646SOL    HW140969   8.026   6.189   6.377
 9646SOL    HW240970   8.060   6.157   6.534
 9647SOL     OW40971   8.700   6.934   5.974
 9647SOL    HW140972   8.750   7.011   6.014
 9647SOL    HW240973   8.605   6.936   6.006
 9648SOL     OW40974   8.021   6.456   6.615
 9648SOL    HW140975   8.065   6.545   6.606
 9648SOL    HW240976   7.958   6.456   6.692
 9649SOL     OW40977   8.657   6.111   5.861
 9649SOL    HW140978   8.670   6.027   5.915
 9649SOL    HW240979   8.628   6.185   5.921
 9650SOL     OW40980   7.755   5.799   6.817
 9650SOL    HW140981   7.732   5.836   6.907
 9650SOL    HW240982   7.725   5.704   6.811
 9651SOL     OW40983   7.485   6.896   6.868
 9651SOL    HW140984   7.538   6.847   6.936
 9651SOL    HW240985   7.507   6.994   6.873
 9652SOL     OW40986   8.180   6.220   6.650
 9652SOL    HW140987   8.239   6.194   6.574
 9652SOL    HW240988   8.152   6.316   6.639
 9653SOL     OW40989   7.755   5.649   6.204
 9653SOL    HW140990   7.744   5.743   6.237
 9653SOL    HW240991   7.750   5.586   6.281
 9654SOL     OW40992   9.070   5.953   5.960
 9654SOL    HW140993   9.072   5.877   6.024
 9654SOL    HW240994   9.022   6.030   6.000
 9655SOL     OW40995   8.471   6.352   6.552
 9655SOL    HW140996   8.486   6.373   6.648
 9655SOL    HW240997   8.441   6.257   6.543
 9656SOL     OW40998   8.988   5.860   5.711
 9656SOL    HW140999   8.927   5.785   5.734
 9656SOL    HW241000   9.010   5.912   5.794
 9657SOL     OW41001   8.751   6.424   5.628
 9657SOL    HW141002   8.785   6.331   5.643
 9657SOL    HW241003   8.769   6.451   5.533
 9658SOL     OW41004   8.516   6.919   6.435
 9658SOL    HW141005   8.523   6.835   6.380
 9658SOL    HW241006   8.578   6.988   6.399
 9659SOL     OW41007   7.767   6.396   6.535
 9659SOL    HW141008   7.860   6.432   6.540
 9659SOL    HW241009   7.761   6.311   6.587
 9660SOL     OW41010   7.787   6.095   6.592
 9660SOL    HW141011   7.735   6.012   6.575
 9660SOL    HW241012   7.864   6.100   6.528
 9661SOL     OW41013   8.608   5.793   7.063
 9661SOL    HW141014   8.608   5.857   7.140
 9661SOL    HW241015   8.636   5.841   6.980
 9662SOL     OW41016   7.456   6.912   5.786
 9662SOL    HW141017   7.363   6.933   5.755
 9662SOL    HW241018   7.466   6.813   5.799
 9663SOL     OW41019   7.536   7.387   6.513
 9663SOL    HW141020   7.494   7.301   6.486
 9663SOL    HW241021   7.630   7.390   6.479
 9664SOL     OW41022   7.952   7.154   6.496
 9664SOL    HW141023   8.018   7.228   6.505
 9664SOL    HW241024   7.996   7.075   6.454
 9665SOL     OW41025   8.450   6.382   6.824
 9665SOL    HW141026   8.491   6.350   6.910
 9665SOL    HW241027   8.354   6.355   6.821
 9666SOL     OW41028   7.488   6.130   6.700
 9666SOL    HW141029   7.573   6.097   6.659
 9666SOL    HW241030   7.501   6.145   6.798
 9667SOL     OW41031   8.263   6.158   5.911
 9667SOL    HW141032   8.270   6.069   5.865
 9667SOL    HW241033   8.169   6.192   5.903
 9668SOL     OW41034   8.119   6.050   6.855
 9668SOL    HW141035   8.085   5.961   6.825
 9668SOL    HW241036   8.145   6.104   6.775
 9669SOL     OW41037   8.378   7.264   7.051
 9669SOL    HW141038   8.354   7.246   6.956
 9669SOL    HW241039   8.408   7.358   7.061
 9670SOL     OW41040   7.921   6.086   5.777
 9670SOL    HW141041   7.982   6.166   5.781
 9670SOL    HW241042   7.826   6.117   5.784
 9671SOL     OW41043   8.750   6.441   5.895
 9671SOL    HW141044   8.664   6.410   5.937
 9671SOL    HW241045   8.746   6.427   5.796
 9672SOL     OW41046   9.207   7.333   6.740
 9672SOL    HW141047   9.268   7.363   6.667
 9672SOL    HW241048   9.169   7.244   6.718
 9673SOL     OW41049   8.700   7.317   6.714
 9673SOL    HW141050   8.784   7.322   6.660
 9673SOL    HW241051   8.677   7.221   6.732
 9674SOL     OW41052   7.531   6.844   6.608
 9674SOL    HW141053   7.526   6.843   6.708
 9674SOL    HW241054   7.448   6.803   6.570
 9675SOL     OW41055   9.174   5.721   6.109
 9675SOL    HW141056   9.247   5.704   6.042
 9675SOL    HW241057   9.143   5.634   6.147
 9676SOL     OW41058   8.836   7.159   6.063
 9676SOL    HW141059   8.903   7.171   5.989
 9676SOL    HW241060   8.796   7.248   6.086
 9677SOL     OW41061   8.120   7.202   5.740
 9677SOL    HW141062   8.129   7.212   5.641
 9677SOL    HW241063   8.080   7.113   5.761
 9678SOL     OW41064   9.098   7.306   6.980
 9678SOL    HW141065   9.151   7.316   6.896
 9678SOL    HW241066   9.071   7.396   7.014
 9679SOL     OW41067   9.289   5.761   6.549
 9679SOL    HW141068   9.328   5.676   6.513
 9679SOL    HW241069   9.191   5.763   6.530
 9680SOL     OW41070   7.711   5.912   6.306
 9680SOL    HW141071   7.632   5.963   6.272
 9680SOL    HW241072   7.702   5.897   6.404
 9681SOL     OW41073   8.642   7.198   5.617
 9681SOL    HW141074   8.648   7.105   5.654
 9681SOL    HW241075   8.583   7.198   5.537
 9682SOL     OW41076   8.270   6.588   6.958
 9682SOL    HW141077   8.310   6.587   6.866
 9682SOL    HW241078   8.280   6.680   6.998
 9683SOL     OW41079   8.364   6.496   5.877
 9683SOL    HW141080   8.427   6.534   5.809
 9683SOL    HW241081   8.404   6.413   5.916
 9684SOL     OW41082   8.952   7.193   5.630
 9684SOL    HW141083   8.860   7.230   5.637
 9684SOL    HW241084   8.990   7.213   5.540
 9685SOL     OW41085   8.487   6.684   6.282
 9685SOL    HW141086   8.417   6.637   6.336
 9685SOL    HW241087   8.546   6.616   6.239
 9686SOL     OW41088   8.462   5.822   6.557
 9686SOL    HW141089   8.454   5.786   6.464
 9686SOL    HW241090   8.460   5.746   6.622
 9687SOL     OW41091   8.038   7.073   6.077
 9687SOL    HW141092   8.080   7.015   6.007
 9687SOL    HW241093   7.994   7.152   6.033
 9688SOL     OW41094   9.157   5.971   6.967
 9688SOL    HW141095   9.230   6.040   6.971
 9688SOL    HW241096   9.185   5.896   6.908
 9689SOL     OW41097   7.703   6.934   5.876
 9689SOL    HW141098   7.607   6.935   5.849
 9689SOL    HW241099   7.715   6.987   5.960
 9690SOL     OW41100   7.523   5.931   5.619
 9690SOL    HW141101   7.431   5.903   5.590
 9690SOL    HW241102   7.554   6.008   5.563
 9691SOL     OW41103   7.520   5.752   5.904
 9691SOL    HW141104   7.503   5.835   5.850
 9691SOL    HW241105   7.610   5.715   5.882
 9692SOL     OW41106   8.631   6.921   5.705
 9692SOL    HW141107   8.532   6.910   5.707
 9692SOL    HW241108   8.665   6.936   5.798
 9693SOL     OW41109   8.941   7.353   6.545
 9693SOL    HW141110   8.974   7.417   6.476
 9693SOL    HW241111   9.007   7.347   6.620
 9694SOL     OW41112   8.898   6.806   7.219
 9694SOL    HW141113   8.889   6.796   7.318
 9694SOL    HW241114   8.994   6.799   7.193
 9695SOL     OW41115   8.673   5.911   6.035
 9695SOL    HW141116   8.738   5.837   6.024
 9695SOL    HW241117   8.693   5.961   6.119
 9696SOL     OW41118   8.042   6.331   6.238
 9696SOL    HW141119   8.092   6.416   6.219
 9696SOL    HW241120   7.954   6.333   6.190
 9697SOL     OW41121   9.178   6.520   7.103
 9697SOL    HW141122   9.216   6.611   7.118
 9697SOL    HW241123   9.170   6.503   7.004
 9698SOL     OW41124   8.307   6.960   5.602
 9698SOL    HW141125   8.261   6.975   5.690
 9698SOL    HW241126   8.351   7.045   5.572
 9699SOL     OW41127   8.109   7.376   6.539
 9699SOL    HW141128   8.063   7.464   6.526
 9699SOL    HW241129   8.208   7.388   6.532
 9700SOL     OW41130   8.307   6.542   6.447
 9700SOL    HW141131   8.361   6.473   6.495
 9700SOL    HW241132   8.275   6.611   6.513
 9701SOL     OW41133   8.531   6.570   5.673
 9701SOL    HW141134   8.508   6.623   5.591
 9701SOL    HW241135   8.612   6.514   5.654
 9702SOL     OW41136   9.309   7.155   6.437
 9702SOL    HW141137   9.238   7.143   6.367
 9702SOL    HW241138   9.310   7.076   6.497
 9703SOL     OW41139   7.527   6.826   6.239
 9703SOL    HW141140   7.526   6.779   6.327
 9703SOL    HW241141   7.609   6.798   6.188
 9704SOL     OW41142   9.272   5.778   6.813
 9704SOL    HW141143   9.268   5.688   6.857
 9704SOL    HW241144   9.275   5.767   6.714
 9705SOL     OW41145   7.876   6.010   6.106
 9705SOL    HW141146   7.906   5.938   6.044
 9705SOL    HW241147   7.837   5.970   6.189
 9706SOL     OW41148   9.153   7.073   6.690
 9706SOL    HW141149   9.060   7.048   6.663
 9706SOL    HW241150   9.179   7.023   6.772
 9707SOL     OW41151   8.260   7.172   6.273
 9707SOL    HW141152   8.292   7.182   6.179
 9707SOL    HW241153   8.181   7.110   6.275
 9708SOL     OW41154   8.872   5.800   6.698
 9708SOL    HW141155   8.924   5.735   6.753
 9708SOL    HW241156   8.823   5.863   6.759
 9709SOL     OW41157   8.449   5.620   6.740
 9709SOL    HW141158   8.386   5.548   6.709
 9709SOL    HW241159   8.542   5.584   6.740
 9710SOL     OW41160   8.218   6.916   5.887
 9710SOL    HW141161   8.172   6.829   5.904
 9710SOL    HW241162   8.309   6.913   5.928
 9711SOL     OW41163   8.800   5.638   5.754
 9711SOL    HW141164   8.835   5.597   5.670
 9711SOL    HW241165   8.710   5.600   5.774
 9712SOL     OW41166   8.748   6.039   6.277
 9712SOL    HW141167   8.689   6.119   6.281
 9712SOL    HW241168   8.763   6.004   6.370
 9713SOL     OW41169   9.041   5.807   6.468
 9713SOL    HW141170   8.957   5.806   6.522
 9713SOL    HW241171   9.043   5.890   6.412
 9714SOL     OW41172   7.487   6.663   5.886
 9714SOL    HW141173   7.586   6.652   5.877
 9714SOL    HW241174   7.447   6.577   5.918
 9715SOL     OW41175   8.323   7.232   5.923
 9715SOL    HW141176   8.246   7.197   5.869
 9715SOL    HW241177   8.291   7.303   5.985
 9716SOL     OW41178   7.678   8.076   0.113
 9716SOL    HW141179   7.585   8.074   0.150
 9716SOL    HW241180   7.679   8.037   0.021
 9717SOL     OW41181   7.673   7.723   0.996
 9717SOL    HW141182   7.708   7.706   1.088
 9717SOL    HW241183   7.585   7.678   0.984
 9718SOL     OW41184   7.467   7.816   0.647
 9718SOL    HW141185   7.385   7.859   0.686
 9718SOL    HW241186   7.439   7.743   0.584
 9719SOL     OW41187   8.583   8.151   0.717
 9719SOL    HW141188   8.640   8.229   0.692
 9719SOL    HW241189   8.523   8.177   0.793
 9720SOL     OW41190   9.203   8.055   0.231
 9720SOL    HW141191   9.191   8.042   0.132
 9720SOL    HW241192   9.173   7.974   0.280
 9721SOL     OW41193   8.133   8.460   0.665
 9721SOL    HW141194   8.202   8.444   0.735
 9721SOL    HW241195   8.060   8.517   0.703
 9722SOL     OW41196   9.051   7.895   0.737
 9722SOL    HW141197   8.977   7.941   0.687
 9722SOL    HW241198   9.102   7.963   0.790
 9723SOL     OW41199   9.042   7.562   1.480
 9723SOL    HW141200   9.024   7.629   1.408
 9723SOL    HW241201   9.039   7.608   1.569
 9724SOL     OW41202   7.570   8.091   0.563
 9724SOL    HW141203   7.525   8.003   0.580
 9724SOL    HW241204   7.569   8.145   0.647
 9725SOL     OW41205   8.257   7.452   0.502
 9725SOL    HW141206   8.297   7.543   0.493
 9725SOL    HW241207   8.157   7.460   0.508
 9726SOL     OW41208   8.973   8.447   0.190
 9726SOL    HW141209   8.910   8.371   0.203
 9726SOL    HW241210   9.021   8.465   0.276
 9727SOL     OW41211   7.765   7.699   1.801
 9727SOL    HW141212   7.836   7.770   1.807
 9727SOL    HW241213   7.677   7.738   1.829
 9728SOL     OW41214   8.046   8.177   0.270
 9728SOL    HW141215   8.070   8.246   0.202
 9728SOL    HW241216   7.968   8.210   0.324
 9729SOL     OW41217   8.729   7.793   0.944
 9729SOL    HW141218   8.643   7.743   0.931
 9729SOL    HW241219   8.791   7.739   1.000
 9730SOL     OW41220   8.255   8.053   1.465
 9730SOL    HW141221   8.208   8.050   1.554
 9730SOL    HW241222   8.204   7.998   1.399
 9731SOL     OW41223   8.842   7.917   1.674
 9731SOL    HW141224   8.822   7.960   1.762
 9731SOL    HW241225   8.920   7.855   1.683
 9732SOL     OW41226   8.439   7.858   1.242
 9732SOL    HW141227   8.362   7.892   1.296
 9732SOL    HW241228   8.405   7.807   1.163
 9733SOL     OW41229   8.489   8.149   0.429
 9733SOL    HW141230   8.515   8.145   0.525
 9733SOL    HW241231   8.404   8.098   0.415
 9734SOL     OW41232   7.524   8.259   0.789
 9734SOL    HW141233   7.623   8.247   0.798
 9734SOL    HW241234   7.500   8.354   0.810
 9735SOL     OW41235   7.998   7.644   0.885
 9735SOL    HW141236   7.993   7.639   0.985
 9735SOL    HW241237   8.000   7.740   0.856
 9736SOL     OW41238   8.906   8.183   0.728
 9736SOL    HW141239   8.901   8.118   0.803
 9736SOL    HW241240   8.986   8.242   0.741
 9737SOL     OW41241   8.848   7.555   0.426
 9737SOL    HW141242   8.824   7.518   0.336
 9737SOL    HW241243   8.947   7.571   0.430
 9738SOL     OW41244   7.830   8.148   0.480
 9738SOL    HW141245   7.875   8.058   0.477
 9738SOL    HW241246   7.736   8.137   0.513
 9739SOL     OW41247   8.799   8.038   1.433
 9739SOL    HW141248   8.827   7.995   1.518
 9739SOL    HW241249   8.824   8.134   1.434
 9740SOL     OW41250   8.370   7.951   0.899
 9740SOL    HW141251   8.345   7.942   0.803
 9740SOL    HW241252   8.418   7.869   0.930
 9741SOL     OW41253   7.987   7.512   0.512
 9741SOL    HW141254   7.906   7.513   0.570
 9741SOL    HW241255   7.990   7.595   0.457
 9742SOL     OW41256   8.383   7.684   0.480
 9742SOL    HW141257   8.335   7.725   0.402
 9742SOL    HW241258   8.482   7.682   0.461
 9743SOL     OW41259   8.524   8.131   1.464
 9743SOL    HW141260   8.444   8.070   1.467
 9743SOL    HW241261   8.605   8.078   1.440
 9744SOL     OW41262   8.480   7.997   0.016
 9744SOL    HW141263   8.439   8.079  -0.023
 9744SOL    HW241264   8.544   8.023   0.089
 9745SOL     OW41265   8.009   7.670   1.147
 9745SOL    HW141266   8.047   7.586   1.184
 9745SOL    HW241267   7.921   7.689   1.191
 9746SOL     OW41268   8.465   7.487   0.753
 9746SOL    HW141269   8.393   7.492   0.684
 9746SOL    HW241270   8.441   7.418   0.822
 9747SOL     OW41271   9.305   8.281   0.377
 9747SOL    HW141272   9.347   8.217   0.441
 9747SOL    HW241273   9.267   8.230   0.299
 9748SOL     OW41274   8.838   8.023   0.078
 9748SOL    HW141275   8.784   8.002   0.159
 9748SOL    HW241276   8.929   7.982   0.087
 9749SOL     OW41277   9.086   8.547   1.079
 9749SOL    HW141278   9.091   8.628   1.138
 9749SOL    HW241279   9.000   8.549   1.028
 9750SOL     OW41280   8.722   7.834   1.262
 9750SOL    HW141281   8.743   7.908   1.326
 9750SOL    HW241282   8.633   7.851   1.219
 9751SOL     OW41283   8.014   7.985   0.865
 9751SOL    HW141284   8.026   8.051   0.791
 9751SOL    HW241285   8.060   8.019   0.948
 9752SOL     OW41286   9.030   8.087   0.472
 9752SOL    HW141287   8.999   8.148   0.545
 9752SOL    HW241288   9.080   8.139   0.403
 9753SOL     OW41289   8.657   7.973   0.275
 9753SOL    HW141290   8.670   7.889   0.329
 9753SOL    HW241291   8.628   8.047   0.335
 9754SOL     OW41292   7.755   7.661   1.231
 9754SOL    HW141293   7.732   7.698   1.321
 9754SOL    HW241294   7.725   7.566   1.225
 9755SOL     OW41295   8.180   8.082   1.064
 9755SOL    HW141296   8.239   8.056   0.988
 9755SOL    HW241297   8.152   8.178   1.053
 9756SOL     OW41298   7.755   7.511   0.618
 9756SOL    HW141299   7.744   7.605   0.651
 9756SOL    HW241300   7.750   7.448   0.695
 9757SOL     OW41301   9.070   7.815   0.374
 9757SOL    HW141302   9.072   7.739   0.438
 9757SOL    HW241303   9.022   7.892   0.414
 9758SOL     OW41304   8.471   8.214   0.966
 9758SOL    HW141305   8.486   8.235   1.062
 9758SOL    HW241306   8.441   8.119   0.957
 9759SOL     OW41307   8.988   7.722   0.125
 9759SOL    HW141308   8.927   7.647   0.148
 9759SOL    HW241309   9.010   7.774   0.208
 9760SOL     OW41310   8.751   8.286   0.042
 9760SOL    HW141311   8.785   8.193   0.057
 9760SOL    HW241312   8.769   8.313  -0.053
 9761SOL     OW41313   7.787   7.957   1.006
 9761SOL    HW141314   7.735   7.874   0.989
 9761SOL    HW241315   7.864   7.962   0.942
 9762SOL     OW41316   8.608   7.655   1.477
 9762SOL    HW141317   8.608   7.719   1.554
 9762SOL    HW241318   8.636   7.703   1.394
 9763SOL     OW41319   8.450   8.244   1.238
 9763SOL    HW141320   8.491   8.212   1.324
 9763SOL    HW241321   8.354   8.217   1.235
 9764SOL     OW41322   7.488   7.992   1.114
 9764SOL    HW141323   7.573   7.959   1.073
 9764SOL    HW241324   7.501   8.007   1.212
 9765SOL     OW41325   9.105   8.052   1.206
 9765SOL    HW141326   9.067   7.983   1.268
 9765SOL    HW241327   9.187   8.016   1.162
 9766SOL     OW41328   8.119   7.912   1.269
 9766SOL    HW141329   8.085   7.823   1.239
 9766SOL    HW241330   8.145   7.966   1.189
 9767SOL     OW41331   8.750   8.303   0.309
 9767SOL    HW141332   8.664   8.272   0.351
 9767SOL    HW241333   8.746   8.289   0.210
 9768SOL     OW41334   9.174   7.583   0.523
 9768SOL    HW141335   9.247   7.566   0.456
 9768SOL    HW241336   9.143   7.496   0.561
 9769SOL     OW41337   8.728   8.375   0.672
 9769SOL    HW141338   8.788   8.294   0.674
 9769SOL    HW241339   8.768   8.444   0.612
 9770SOL     OW41340   9.289   7.623   0.963
 9770SOL    HW141341   9.328   7.538   0.927
 9770SOL    HW241342   9.191   7.625   0.944
 9771SOL     OW41343   7.711   7.774   0.720
 9771SOL    HW141344   7.632   7.825   0.686
 9771SOL    HW241345   7.702   7.759   0.818
 9772SOL     OW41346   8.364   8.358   0.291
 9772SOL    HW141347   8.427   8.396   0.223
 9772SOL    HW241348   8.404   8.275   0.330
 9773SOL     OW41349   8.462   7.684   0.971
 9773SOL    HW141350   8.454   7.648   0.878
 9773SOL    HW241351   8.460   7.608   1.036
 9774SOL     OW41352   7.520   7.614   0.318
 9774SOL    HW141353   7.503   7.697   0.264
 9774SOL    HW241354   7.610   7.577   0.296
 9775SOL     OW41355   9.122   8.331   1.254
 9775SOL    HW141356   9.095   8.242   1.217
 9775SOL    HW241357   9.123   8.399   1.181
 9776SOL     OW41358   8.673   7.773   0.449
 9776SOL    HW141359   8.738   7.699   0.438
 9776SOL    HW241360   8.693   7.823   0.533
 9777SOL     OW41361   8.042   8.193   0.652
 9777SOL    HW141362   8.092   8.278   0.633
 9777SOL    HW241363   7.954   8.195   0.604
 9778SOL     OW41364   9.225   7.790   1.642
 9778SOL    HW141365   9.208   7.821   1.548
 9778SOL    HW241366   9.141   7.753   1.680
 9779SOL     OW41367   9.178   8.382   1.517
 9779SOL    HW141368   9.216   8.473   1.532
 9779SOL    HW241369   9.170   8.365   1.418
 9780SOL     OW41370   8.531   8.432   0.087
 9780SOL    HW141371   8.508   8.485   0.005
 9780SOL    HW241372   8.612   8.376   0.068
 9781SOL     OW41373   7.765   7.995   1.280
 9781SOL    HW141374   7.803   7.936   1.352
 9781SOL    HW241375   7.805   7.969   1.192
 9782SOL     OW41376   8.872   7.662   1.112
 9782SOL    HW141377   8.924   7.597   1.167
 9782SOL    HW241378   8.823   7.725   1.173
 9783SOL     OW41379   8.449   7.482   1.154
 9783SOL    HW141380   8.386   7.410   1.123
 9783SOL    HW241381   8.542   7.446   1.154
 9784SOL     OW41382   8.800   7.500   0.168
 9784SOL    HW141383   8.835   7.459   0.084
 9784SOL    HW241384   8.710   7.462   0.188
 9785SOL     OW41385   8.748   7.901   0.691
 9785SOL    HW141386   8.689   7.981   0.695
 9785SOL    HW241387   8.763   7.866   0.784
 9786SOL     OW41388   9.041   7.669   0.882
 9786SOL    HW141389   8.957   7.668   0.936
 9786SOL    HW241390   9.043   7.752   0.826
 9787SOL     OW41391   7.487   8.525   0.300
 9787SOL    HW141392   7.586   8.514   0.291
 9787SOL    HW241393   7.447   8.439   0.332
 9788SOL     OW41394   8.298   8.246   3.685
 9788SOL    HW141395   8.294   8.322   3.750
 9788SOL    HW241396   8.320   8.282   3.594
 9789SOL     OW41397   7.561   8.185   3.459
 9789SOL    HW141398   7.649   8.172   3.504
 9789SOL    HW241399   7.548   8.282   3.437
 9790SOL     OW41400   8.255   8.053   3.327
 9790SOL    HW141401   8.208   8.050   3.416
 9790SOL    HW241402   8.204   7.998   3.261
 9791SOL     OW41403   8.842   7.917   3.536
 9791SOL    HW141404   8.822   7.960   3.624
 9791SOL    HW241405   8.920   7.855   3.545
 9792SOL     OW41406   7.524   8.259   2.651
 9792SOL    HW141407   7.623   8.247   2.660
 9792SOL    HW241408   7.500   8.354   2.672
 9793SOL     OW41409   7.998   7.644   2.747
 9793SOL    HW141410   7.993   7.639   2.847
 9793SOL    HW241411   8.000   7.740   2.718
 9794SOL     OW41412   7.526   8.004   3.248
 9794SOL    HW141413   7.618   8.003   3.207
 9794SOL    HW241414   7.520   8.078   3.315
 9795SOL     OW41415   8.914   8.038   2.854
 9795SOL    HW141416   8.884   7.943   2.861
 9795SOL    HW241417   8.987   8.054   2.920
 9796SOL     OW41418   9.305   8.281   2.239
 9796SOL    HW141419   9.347   8.217   2.303
 9796SOL    HW241420   9.267   8.230   2.161
 9797SOL     OW41421   8.838   8.023   1.940
 9797SOL    HW141422   8.784   8.002   2.021
 9797SOL    HW241423   8.929   7.982   1.949
 9798SOL     OW41424   8.014   7.985   2.727
 9798SOL    HW141425   8.026   8.051   2.653
 9798SOL    HW241426   8.060   8.019   2.810
 9799SOL     OW41427   9.030   8.087   2.334
 9799SOL    HW141428   8.999   8.148   2.407
 9799SOL    HW241429   9.080   8.139   2.265
 9800SOL     OW41430   8.461   7.553   3.632
 9800SOL    HW141431   8.467   7.638   3.580
 9800SOL    HW241432   8.493   7.477   3.575
 9801SOL     OW41433   8.021   8.318   2.891
 9801SOL    HW141434   8.065   8.407   2.882
 9801SOL    HW241435   7.958   8.318   2.968
 9802SOL     OW41436   7.755   7.661   3.093
 9802SOL    HW141437   7.732   7.698   3.183
 9802SOL    HW241438   7.725   7.566   3.087
 9803SOL     OW41439   8.180   8.082   2.926
 9803SOL    HW141440   8.239   8.056   2.850
 9803SOL    HW241441   8.152   8.178   2.915
 9804SOL     OW41442   9.176   8.383   3.716
 9804SOL    HW141443   9.130   8.376   3.627
 9804SOL    HW241444   9.114   8.427   3.782
 9805SOL     OW41445   9.070   7.815   2.236
 9805SOL    HW141446   9.072   7.739   2.300
 9805SOL    HW241447   9.022   7.892   2.276
 9806SOL     OW41448   8.608   7.655   3.339
 9806SOL    HW141449   8.608   7.719   3.416
 9806SOL    HW241450   8.636   7.703   3.256
 9807SOL     OW41451   8.450   8.244   3.100
 9807SOL    HW141452   8.491   8.212   3.186
 9807SOL    HW241453   8.354   8.217   3.097
 9808SOL     OW41454   7.488   7.992   2.976
 9808SOL    HW141455   7.573   7.959   2.935
 9808SOL    HW241456   7.501   8.007   3.074
 9809SOL     OW41457   7.921   7.948   2.053
 9809SOL    HW141458   7.982   8.028   2.057
 9809SOL    HW241459   7.826   7.979   2.060
 9810SOL     OW41460   9.157   7.833   3.243
 9810SOL    HW141461   9.230   7.902   3.247
 9810SOL    HW241462   9.185   7.758   3.184
 9811SOL     OW41463   8.888   8.304   3.260
 9811SOL    HW141464   8.831   8.356   3.197
 9811SOL    HW241465   8.984   8.316   3.236
 9812SOL     OW41466   8.061   8.290   3.293
 9812SOL    HW141467   8.117   8.371   3.276
 9812SOL    HW241468   8.120   8.210   3.296
 9813SOL     OW41469   8.164   8.013   3.570
 9813SOL    HW141470   8.183   8.078   3.644
 9813SOL    HW241471   8.224   7.933   3.579
 9814SOL     OW41472   9.122   8.331   3.116
 9814SOL    HW141473   9.095   8.242   3.079
 9814SOL    HW241474   9.123   8.399   3.043
 9815SOL     OW41475   8.042   8.193   2.514
 9815SOL    HW141476   8.092   8.278   2.495
 9815SOL    HW241477   7.954   8.195   2.466
 9816SOL     OW41478   9.178   8.382   3.379
 9816SOL    HW141479   9.216   8.473   3.394
 9816SOL    HW241480   9.170   8.365   3.280
 9817SOL     OW41481   8.531   8.432   1.949
 9817SOL    HW141482   8.508   8.485   1.867
 9817SOL    HW241483   8.612   8.376   1.930
 9818SOL     OW41484   9.272   7.640   3.089
 9818SOL    HW141485   9.268   7.550   3.133
 9818SOL    HW241486   9.275   7.629   2.990
 9819SOL     OW41487   8.449   7.482   3.016
 9819SOL    HW141488   8.386   7.410   2.985
 9819SOL    HW241489   8.542   7.446   3.016
 9820SOL     OW41490   8.298   8.246   5.547
 9820SOL    HW141491   8.294   8.322   5.612
 9820SOL    HW241492   8.320   8.282   5.456
 9821SOL     OW41493   7.561   8.185   5.321
 9821SOL    HW141494   7.649   8.172   5.366
 9821SOL    HW241495   7.548   8.282   5.299
 9822SOL     OW41496   8.421   8.338   5.296
 9822SOL    HW141497   8.467   8.254   5.267
 9822SOL    HW241498   8.365   8.372   5.221
 9823SOL     OW41499   8.439   7.858   4.966
 9823SOL    HW141500   8.362   7.892   5.020
 9823SOL    HW241501   8.405   7.807   4.887
 9824SOL     OW41502   7.524   8.259   4.513
 9824SOL    HW141503   7.623   8.247   4.522
 9824SOL    HW241504   7.500   8.354   4.534
 9825SOL     OW41505   8.313   7.796   3.919
 9825SOL    HW141506   8.372   7.859   3.870
 9825SOL    HW241507   8.332   7.702   3.890
 9826SOL     OW41508   8.906   8.183   4.452
 9826SOL    HW141509   8.901   8.118   4.527
 9826SOL    HW241510   8.986   8.242   4.465
 9827SOL     OW41511   7.650   7.733   5.222
 9827SOL    HW141512   7.570   7.793   5.209
 9827SOL    HW241513   7.640   7.684   5.308
 9828SOL     OW41514   7.830   8.148   4.204
 9828SOL    HW141515   7.875   8.058   4.201
 9828SOL    HW241516   7.736   8.137   4.237
 9829SOL     OW41517   8.062   7.570   3.841
 9829SOL    HW141518   8.160   7.548   3.848
 9829SOL    HW241519   8.031   7.553   3.748
 9830SOL     OW41520   8.229   7.712   5.473
 9830SOL    HW141521   8.296   7.651   5.516
 9830SOL    HW241522   8.156   7.731   5.538
 9831SOL     OW41523   8.370   7.951   4.623
 9831SOL    HW141524   8.345   7.942   4.527
 9831SOL    HW241525   8.418   7.869   4.654
 9832SOL     OW41526   8.383   7.684   4.204
 9832SOL    HW141527   8.335   7.725   4.126
 9832SOL    HW241528   8.482   7.682   4.185
 9833SOL     OW41529   8.465   7.487   4.477
 9833SOL    HW141530   8.393   7.492   4.408
 9833SOL    HW241531   8.441   7.418   4.546
 9834SOL     OW41532   9.305   8.281   4.101
 9834SOL    HW141533   9.347   8.217   4.165
 9834SOL    HW241534   9.267   8.230   4.023
 9835SOL     OW41535   8.363   7.537   5.126
 9835SOL    HW141536   8.388   7.517   5.031
 9835SOL    HW241537   8.435   7.593   5.168
 9836SOL     OW41538   9.035   8.227   5.394
 9836SOL    HW141539   8.943   8.265   5.389
 9836SOL    HW241540   9.095   8.274   5.329
 9837SOL     OW41541   8.461   7.553   5.494
 9837SOL    HW141542   8.467   7.638   5.442
 9837SOL    HW241543   8.493   7.477   5.437
 9838SOL     OW41544   7.952   7.498   5.464
 9838SOL    HW141545   7.910   7.441   5.394
 9838SOL    HW241546   7.886   7.567   5.496
 9839SOL     OW41547   7.755   7.661   4.955
 9839SOL    HW141548   7.732   7.698   5.045
 9839SOL    HW241549   7.725   7.566   4.949
 9840SOL     OW41550   9.176   8.383   5.578
 9840SOL    HW141551   9.130   8.376   5.489
 9840SOL    HW241552   9.114   8.427   5.644
 9841SOL     OW41553   7.798   8.346   5.528
 9841SOL    HW141554   7.874   8.390   5.576
 9841SOL    HW241555   7.833   8.299   5.446
 9842SOL     OW41556   8.988   7.722   3.849
 9842SOL    HW141557   8.927   7.647   3.872
 9842SOL    HW241558   9.010   7.774   3.932
 9843SOL     OW41559   8.586   7.828   5.402
 9843SOL    HW141560   8.541   7.891   5.466
 9843SOL    HW241561   8.679   7.859   5.385
 9844SOL     OW41562   8.608   7.655   5.201
 9844SOL    HW141563   8.608   7.719   5.278
 9844SOL    HW241564   8.636   7.703   5.118
 9845SOL     OW41565   8.817   8.398   5.384
 9845SOL    HW141566   8.856   8.487   5.404
 9845SOL    HW241567   8.827   8.378   5.287
 9846SOL     OW41568   7.607   8.585   5.190
 9846SOL    HW141569   7.629   8.524   5.266
 9846SOL    HW241570   7.617   8.536   5.104
 9847SOL     OW41571   7.553   8.461   5.450
 9847SOL    HW141572   7.476   8.428   5.504
 9847SOL    HW241573   7.638   8.431   5.492
 9848SOL     OW41574   8.120   7.651   5.213
 9848SOL    HW141575   8.210   7.635   5.173
 9848SOL    HW241576   8.128   7.656   5.312
 9849SOL     OW41577   8.042   8.193   4.376
 9849SOL    HW141578   8.092   8.278   4.357
 9849SOL    HW241579   7.954   8.195   4.328
 9850SOL     OW41580   9.178   8.382   5.241
 9850SOL    HW141581   9.216   8.473   5.256
 9850SOL    HW241582   9.170   8.365   5.142
 9851SOL     OW41583   7.876   7.872   4.244
 9851SOL    HW141584   7.906   7.800   4.182
 9851SOL    HW241585   7.837   7.832   4.327
 9852SOL     OW41586   9.041   7.669   4.606
 9852SOL    HW141587   8.957   7.668   4.660
 9852SOL    HW241588   9.043   7.752   4.550
 9853SOL     OW41589   7.678   8.076   5.699
 9853SOL    HW141590   7.585   8.074   5.736
 9853SOL    HW241591   7.679   8.037   5.607
 9854SOL     OW41592   7.467   7.816   6.233
 9854SOL    HW141593   7.385   7.859   6.272
 9854SOL    HW241594   7.439   7.743   6.170
 9855SOL     OW41595   8.583   8.151   6.303
 9855SOL    HW141596   8.640   8.229   6.278
 9855SOL    HW241597   8.523   8.177   6.379
 9856SOL     OW41598   9.203   8.055   5.817
 9856SOL    HW141599   9.191   8.042   5.718
 9856SOL    HW241600   9.173   7.974   5.866
 9857SOL     OW41601   8.216   8.592   6.609
 9857SOL    HW141602   8.138   8.609   6.669
 9857SOL    HW241603   8.250   8.679   6.573
 9858SOL     OW41604   8.133   8.460   6.251
 9858SOL    HW141605   8.202   8.444   6.321
 9858SOL    HW241606   8.060   8.517   6.289
 9859SOL     OW41607   7.688   8.539   6.472
 9859SOL    HW141608   7.702   8.455   6.524
 9859SOL    HW241609   7.633   8.603   6.527
 9860SOL     OW41610   7.570   8.091   6.149
 9860SOL    HW141611   7.525   8.003   6.166
 9860SOL    HW241612   7.569   8.145   6.233
 9861SOL     OW41613   8.257   7.452   6.088
 9861SOL    HW141614   8.297   7.543   6.079
 9861SOL    HW241615   8.157   7.460   6.094
 9862SOL     OW41616   7.645   8.424   6.850
 9862SOL    HW141617   7.734   8.379   6.836
 9862SOL    HW241618   7.572   8.359   6.831
 9863SOL     OW41619   8.973   8.447   5.776
 9863SOL    HW141620   8.910   8.371   5.789
 9863SOL    HW241621   9.021   8.465   5.862
 9864SOL     OW41622   8.046   8.177   5.856
 9864SOL    HW141623   8.070   8.246   5.788
 9864SOL    HW241624   7.968   8.210   5.910
 9865SOL     OW41625   8.489   8.149   6.015
 9865SOL    HW141626   8.515   8.145   6.111
 9865SOL    HW241627   8.404   8.098   6.001
 9866SOL     OW41628   7.524   8.259   6.375
 9866SOL    HW141629   7.623   8.247   6.384
 9866SOL    HW241630   7.500   8.354   6.396
 9867SOL     OW41631   8.313   7.796   5.781
 9867SOL    HW141632   8.372   7.859   5.732
 9867SOL    HW241633   8.332   7.702   5.752
 9868SOL     OW41634   8.906   8.183   6.314
 9868SOL    HW141635   8.901   8.118   6.389
 9868SOL    HW241636   8.986   8.242   6.327
 9869SOL     OW41637   8.848   7.555   6.012
 9869SOL    HW141638   8.824   7.518   5.922
 9869SOL    HW241639   8.947   7.571   6.016
 9870SOL     OW41640   7.830   8.148   6.066
 9870SOL    HW141641   7.875   8.058   6.063
 9870SOL    HW241642   7.736   8.137   6.099
 9871SOL     OW41643   8.062   7.570   5.703
 9871SOL    HW141644   8.160   7.548   5.710
 9871SOL    HW241645   8.031   7.553   5.610
 9872SOL     OW41646   8.370   7.951   6.485
 9872SOL    HW141647   8.345   7.942   6.389
 9872SOL    HW241648   8.418   7.869   6.516
 9873SOL     OW41649   7.987   7.512   6.098
 9873SOL    HW141650   7.906   7.513   6.156
 9873SOL    HW241651   7.990   7.595   6.043
 9874SOL     OW41652   7.745   7.483   5.757
 9874SOL    HW141653   7.794   7.567   5.736
 9874SOL    HW241654   7.807   7.418   5.802
 9875SOL     OW41655   8.383   7.684   6.066
 9875SOL    HW141656   8.335   7.725   5.988
 9875SOL    HW241657   8.482   7.682   6.047
 9876SOL     OW41658   8.480   7.997   5.602
 9876SOL    HW141659   8.439   8.079   5.563
 9876SOL    HW241660   8.544   8.023   5.675
 9877SOL     OW41661   8.314   7.902   6.228
 9877SOL    HW141662   8.282   7.974   6.166
 9877SOL    HW241663   8.338   7.821   6.175
 9878SOL     OW41664   9.305   8.281   5.963
 9878SOL    HW141665   9.347   8.217   6.027
 9878SOL    HW241666   9.267   8.230   5.885
 9879SOL     OW41667   8.838   8.023   5.664
 9879SOL    HW141668   8.784   8.002   5.745
 9879SOL    HW241669   8.929   7.982   5.673
 9880SOL     OW41670   7.975   7.704   5.914
 9880SOL    HW141671   8.002   7.645   5.839
 9880SOL    HW241672   7.975   7.799   5.883
 9881SOL     OW41673   9.086   8.547   6.665
 9881SOL    HW141674   9.091   8.628   6.724
 9881SOL    HW241675   9.000   8.549   6.614
 9882SOL     OW41676   7.858   8.261   6.837
 9882SOL    HW141677   7.944   8.273   6.887
 9882SOL    HW241678   7.816   8.174   6.864
 9883SOL     OW41679   8.014   7.985   6.451
 9883SOL    HW141680   8.026   8.051   6.377
 9883SOL    HW241681   8.060   8.019   6.534
 9884SOL     OW41682   9.030   8.087   6.058
 9884SOL    HW141683   8.999   8.148   6.131
 9884SOL    HW241684   9.080   8.139   5.989
 9885SOL     OW41685   8.021   8.318   6.615
 9885SOL    HW141686   8.065   8.407   6.606
 9885SOL    HW241687   7.958   8.318   6.692
 9886SOL     OW41688   8.808   8.310   6.631
 9886SOL    HW141689   8.733   8.310   6.565
 9886SOL    HW241690   8.845   8.218   6.640
 9887SOL     OW41691   8.657   7.973   5.861
 9887SOL    HW141692   8.670   7.889   5.915
 9887SOL    HW241693   8.628   8.047   5.921
 9888SOL     OW41694   7.755   7.511   6.204
 9888SOL    HW141695   7.744   7.605   6.237
 9888SOL    HW241696   7.750   7.448   6.281
 9889SOL     OW41697   9.070   7.815   5.960
 9889SOL    HW141698   9.072   7.739   6.024
 9889SOL    HW241699   9.022   7.892   6.000
 9890SOL     OW41700   8.471   8.214   6.552
 9890SOL    HW141701   8.486   8.235   6.648
 9890SOL    HW241702   8.441   8.119   6.543
 9891SOL     OW41703   8.988   7.722   5.711
 9891SOL    HW141704   8.927   7.647   5.734
 9891SOL    HW241705   9.010   7.774   5.794
 9892SOL     OW41706   8.751   8.286   5.628
 9892SOL    HW141707   8.785   8.193   5.643
 9892SOL    HW241708   8.769   8.313   5.533
 9893SOL     OW41709   7.767   8.258   6.535
 9893SOL    HW141710   7.860   8.294   6.540
 9893SOL    HW241711   7.761   8.173   6.587
 9894SOL     OW41712   7.787   7.957   6.592
 9894SOL    HW141713   7.735   7.874   6.575
 9894SOL    HW241714   7.864   7.962   6.528
 9895SOL     OW41715   8.450   8.244   6.824
 9895SOL    HW141716   8.491   8.212   6.910
 9895SOL    HW241717   8.354   8.217   6.821
 9896SOL     OW41718   7.488   7.992   6.700
 9896SOL    HW141719   7.573   7.959   6.659
 9896SOL    HW241720   7.501   8.007   6.798
 9897SOL     OW41721   8.263   8.020   5.911
 9897SOL    HW141722   8.270   7.931   5.865
 9897SOL    HW241723   8.169   8.054   5.903
 9898SOL     OW41724   9.105   8.052   6.792
 9898SOL    HW141725   9.067   7.983   6.854
 9898SOL    HW241726   9.187   8.016   6.748
 9899SOL     OW41727   8.795   8.507   6.820
 9899SOL    HW141728   8.819   8.444   6.746
 9899SOL    HW241729   8.705   8.547   6.802
 9900SOL     OW41730   8.750   8.303   5.895
 9900SOL    HW141731   8.664   8.272   5.937
 9900SOL    HW241732   8.746   8.289   5.796
 9901SOL     OW41733   9.174   7.583   6.109
 9901SOL    HW141734   9.247   7.566   6.042
 9901SOL    HW241735   9.143   7.496   6.147
 9902SOL     OW41736   8.728   8.375   6.258
 9902SOL    HW141737   8.788   8.294   6.260
 9902SOL    HW241738   8.768   8.444   6.198
 9903SOL     OW41739   9.289   7.623   6.549
 9903SOL    HW141740   9.328   7.538   6.513
 9903SOL    HW241741   9.191   7.625   6.530
 9904SOL     OW41742   7.711   7.774   6.306
 9904SOL    HW141743   7.632   7.825   6.272
 9904SOL    HW241744   7.702   7.759   6.404
 9905SOL     OW41745   8.364   8.358   5.877
 9905SOL    HW141746   8.427   8.396   5.809
 9905SOL    HW241747   8.404   8.275   5.916
 9906SOL     OW41748   9.157   7.833   6.967
 9906SOL    HW141749   9.230   7.902   6.971
 9906SOL    HW241750   9.185   7.758   6.908
 9907SOL     OW41751   7.523   7.793   5.619
 9907SOL    HW141752   7.431   7.765   5.590
 9907SOL    HW241753   7.554   7.870   5.563
 9908SOL     OW41754   7.520   7.614   5.904
 9908SOL    HW141755   7.503   7.697   5.850
 9908SOL    HW241756   7.610   7.577   5.882
 9909SOL     OW41757   9.122   8.331   6.840
 9909SOL    HW141758   9.095   8.242   6.803
 9909SOL    HW241759   9.123   8.399   6.767
 9910SOL     OW41760   8.673   7.773   6.035
 9910SOL    HW141761   8.738   7.699   6.024
 9910SOL    HW241762   8.693   7.823   6.119
 9911SOL     OW41763   8.042   8.193   6.238
 9911SOL    HW141764   8.092   8.278   6.219
 9911SOL    HW241765   7.954   8.195   6.190
 9912SOL     OW41766   9.178   8.382   7.103
 9912SOL    HW141767   9.216   8.473   7.118
 9912SOL    HW241768   9.170   8.365   7.004
 9913SOL     OW41769   8.531   8.432   5.673
 9913SOL    HW141770   8.508   8.485   5.591
 9913SOL    HW241771   8.612   8.376   5.654
 9914SOL     OW41772   9.272   7.640   6.813
 9914SOL    HW141773   9.268   7.550   6.857
 9914SOL    HW241774   9.275   7.629   6.714
 9915SOL     OW41775   7.876   7.872   6.106
 9915SOL    HW141776   7.906   7.800   6.044
 9915SOL    HW241777   7.837   7.832   6.189
 9916SOL     OW41778   8.800   7.500   5.754
 9916SOL    HW141779   8.835   7.459   5.670
 9916SOL    HW241780   8.710   7.462   5.774
 9917SOL     OW41781   9.432   0.643   0.563
 9917SOL    HW141782   9.387   0.555   0.580
 9917SOL    HW241783   9.431   0.697   0.647
 9918SOL     OW41784   9.337   1.596   0.117
 9918SOL    HW141785   9.318   1.500   0.138
 9918SOL    HW241786   9.304   1.654   0.192
 9919SOL     OW41787   9.617   0.063   0.618
 9919SOL    HW141788   9.606   0.157   0.651
 9919SOL    HW241789   9.612   0.000   0.695
 9920SOL     OW41790   9.469   1.137   1.466
 9920SOL    HW141791   9.491   1.076   1.542
 9920SOL    HW241792   9.479   1.088   1.380
 9921SOL     OW41793   9.541   1.713   2.345
 9921SOL    HW141794   9.575   1.790   2.399
 9921SOL    HW241795   9.585   1.713   2.255
 9922SOL     OW41796   9.432   0.643   2.425
 9922SOL    HW141797   9.387   0.555   2.442
 9922SOL    HW241798   9.431   0.697   2.509
 9923SOL     OW41799   9.617   0.063   2.480
 9923SOL    HW141800   9.606   0.157   2.513
 9923SOL    HW241801   9.612   0.000   2.557
 9924SOL     OW41802   9.469   1.137   3.328
 9924SOL    HW141803   9.491   1.076   3.404
 9924SOL    HW241804   9.479   1.088   3.242
 9925SOL     OW41805   9.617   0.063   4.342
 9925SOL    HW141806   9.606   0.157   4.375
 9925SOL    HW241807   9.612   0.000   4.419
 9926SOL     OW41808   9.562   1.564   5.468
 9926SOL    HW141809   9.532   1.621   5.544
 9926SOL    HW241810   9.555   1.467   5.494
 9927SOL     OW41811   9.541   1.713   6.069
 9927SOL    HW141812   9.575   1.790   6.123
 9927SOL    HW241813   9.585   1.713   5.979
 9928SOL     OW41814   9.337   1.596   5.703
 9928SOL    HW141815   9.318   1.500   5.724
 9928SOL    HW241816   9.304   1.654   5.778
 9929SOL     OW41817   9.423   0.737   7.183
 9929SOL    HW141818   9.511   0.724   7.228
 9929SOL    HW241819   9.410   0.834   7.161
 9930SOL     OW41820   9.388   0.556   6.972
 9930SOL    HW141821   9.480   0.555   6.931
 9930SOL    HW241822   9.382   0.630   7.039
 9931SOL     OW41823   9.617   0.063   6.204
 9931SOL    HW141824   9.606   0.157   6.237
 9931SOL    HW241825   9.612   0.000   6.281
 9932SOL     OW41826   9.432   2.505   0.563
 9932SOL    HW141827   9.387   2.417   0.580
 9932SOL    HW241828   9.431   2.559   0.647
 9933SOL     OW41829   9.337   3.458   0.117
 9933SOL    HW141830   9.318   3.362   0.138
 9933SOL    HW241831   9.304   3.516   0.192
 9934SOL     OW41832   9.617   2.075   1.231
 9934SOL    HW141833   9.594   2.112   1.321
 9934SOL    HW241834   9.587   1.980   1.225
 9935SOL     OW41835   9.617   1.925   0.618
 9935SOL    HW141836   9.606   2.019   0.651
 9935SOL    HW241837   9.612   1.862   0.695
 9936SOL     OW41838   9.541   3.575   2.345
 9936SOL    HW141839   9.575   3.652   2.399
 9936SOL    HW241840   9.585   3.575   2.255
 9937SOL     OW41841   9.337   3.458   1.979
 9937SOL    HW141842   9.318   3.362   2.000
 9937SOL    HW241843   9.304   3.516   2.054
 9938SOL     OW41844   9.562   3.426   3.606
 9938SOL    HW141845   9.532   3.483   3.682
 9938SOL    HW241846   9.555   3.329   3.632
 9939SOL     OW41847   9.541   3.575   4.207
 9939SOL    HW141848   9.575   3.652   4.261
 9939SOL    HW241849   9.585   3.575   4.117
 9940SOL     OW41850   9.432   2.505   6.149
 9940SOL    HW141851   9.387   2.417   6.166
 9940SOL    HW241852   9.431   2.559   6.233
 9941SOL     OW41853   9.423   2.599   7.183
 9941SOL    HW141854   9.511   2.586   7.228
 9941SOL    HW241855   9.410   2.696   7.161
 9942SOL     OW41856   9.388   2.418   6.972
 9942SOL    HW141857   9.480   2.417   6.931
 9942SOL    HW241858   9.382   2.492   7.039
 9943SOL     OW41859   9.617   1.925   6.204
 9943SOL    HW141860   9.606   2.019   6.237
 9943SOL    HW241861   9.612   1.862   6.281
 9944SOL     OW41862   9.432   4.367   0.563
 9944SOL    HW141863   9.387   4.279   0.580
 9944SOL    HW241864   9.431   4.421   0.647
 9945SOL     OW41865   9.337   5.320   0.117
 9945SOL    HW141866   9.318   5.224   0.138
 9945SOL    HW241867   9.304   5.378   0.192
 9946SOL     OW41868   9.617   3.937   1.231
 9946SOL    HW141869   9.594   3.974   1.321
 9946SOL    HW241870   9.587   3.842   1.225
 9947SOL     OW41871   9.617   3.787   0.618
 9947SOL    HW141872   9.606   3.881   0.651
 9947SOL    HW241873   9.612   3.724   0.695
 9948SOL     OW41874   9.562   5.288   1.744
 9948SOL    HW141875   9.532   5.345   1.820
 9948SOL    HW241876   9.555   5.191   1.770
 9949SOL     OW41877   9.541   5.437   2.345
 9949SOL    HW141878   9.575   5.514   2.399
 9949SOL    HW241879   9.585   5.437   2.255
 9950SOL     OW41880   9.617   3.937   3.093
 9950SOL    HW141881   9.594   3.974   3.183
 9950SOL    HW241882   9.587   3.842   3.087
 9951SOL     OW41883   9.617   3.787   2.480
 9951SOL    HW141884   9.606   3.881   2.513
 9951SOL    HW241885   9.612   3.724   2.557
 9952SOL     OW41886   9.469   4.861   3.328
 9952SOL    HW141887   9.491   4.800   3.404
 9952SOL    HW241888   9.479   4.812   3.242
 9953SOL     OW41889   9.432   4.367   4.287
 9953SOL    HW141890   9.387   4.279   4.304
 9953SOL    HW241891   9.431   4.421   4.371
 9954SOL     OW41892   9.337   5.320   3.841
 9954SOL    HW141893   9.318   5.224   3.862
 9954SOL    HW241894   9.304   5.378   3.916
 9955SOL     OW41895   9.562   5.288   5.468
 9955SOL    HW141896   9.532   5.345   5.544
 9955SOL    HW241897   9.555   5.191   5.494
 9956SOL     OW41898   9.469   4.861   5.190
 9956SOL    HW141899   9.491   4.800   5.266
 9956SOL    HW241900   9.479   4.812   5.104
 9957SOL     OW41901   9.541   5.437   6.069
 9957SOL    HW141902   9.575   5.514   6.123
 9957SOL    HW241903   9.585   5.437   5.979
 9958SOL     OW41904   9.432   4.367   6.149
 9958SOL    HW141905   9.387   4.279   6.166
 9958SOL    HW241906   9.431   4.421   6.233
 9959SOL     OW41907   9.337   5.320   5.703
 9959SOL    HW141908   9.318   5.224   5.724
 9959SOL    HW241909   9.304   5.378   5.778
 9960SOL     OW41910   9.423   4.461   7.183
 9960SOL    HW141911   9.511   4.448   7.228
 9960SOL    HW241912   9.410   4.558   7.161
 9961SOL     OW41913   9.388   4.280   6.972
 9961SOL    HW141914   9.480   4.279   6.931
 9961SOL    HW241915   9.382   4.354   7.039
 9962SOL     OW41916   9.617   3.787   6.204
 9962SOL    HW141917   9.606   3.881   6.237
 9962SOL    HW241918   9.612   3.724   6.281
 9963SOL     OW41919   9.337   7.182   0.117
 9963SOL    HW141920   9.318   7.086   0.138
 9963SOL    HW241921   9.304   7.240   0.192
 9964SOL     OW41922   9.617   5.799   1.231
 9964SOL    HW141923   9.594   5.836   1.321
 9964SOL    HW241924   9.587   5.704   1.225
 9965SOL     OW41925   9.617   5.649   0.618
 9965SOL    HW141926   9.606   5.743   0.651
 9965SOL    HW241927   9.612   5.586   0.695
 9966SOL     OW41928   9.469   6.723   1.466
 9966SOL    HW141929   9.491   6.662   1.542
 9966SOL    HW241930   9.479   6.674   1.380
 9967SOL     OW41931   9.617   5.649   2.480
 9967SOL    HW141932   9.606   5.743   2.513
 9967SOL    HW241933   9.612   5.586   2.557
 9968SOL     OW41934   9.617   5.799   4.955
 9968SOL    HW141935   9.594   5.836   5.045
 9968SOL    HW241936   9.587   5.704   4.949
 9969SOL     OW41937   9.562   7.150   5.468
 9969SOL    HW141938   9.532   7.207   5.544
 9969SOL    HW241939   9.555   7.053   5.494
 9970SOL     OW41940   9.469   6.723   5.190
 9970SOL    HW141941   9.491   6.662   5.266
 9970SOL    HW241942   9.479   6.674   5.104
 9971SOL     OW41943   9.541   7.299   6.069
 9971SOL    HW141944   9.575   7.376   6.123
 9971SOL    HW241945   9.585   7.299   5.979
 9972SOL     OW41946   9.432   6.229   6.149
 9972SOL    HW141947   9.387   6.141   6.166
 9972SOL    HW241948   9.431   6.283   6.233
 9973SOL     OW41949   9.337   7.182   5.703
 9973SOL    HW141950   9.318   7.086   5.724
 9973SOL    HW241951   9.304   7.240   5.778
 9974SOL     OW41952   9.423   6.323   7.183
 9974SOL    HW141953   9.511   6.310   7.228
 9974SOL    HW241954   9.410   6.420   7.161
 9975SOL     OW41955   9.388   6.142   6.972
 9975SOL    HW141956   9.480   6.141   6.931
 9975SOL    HW241957   9.382   6.216   7.039
 9976SOL     OW41958   9.617   5.649   6.204
 9976SOL    HW141959   9.606   5.743   6.237
 9976SOL    HW241960   9.612   5.586   6.281
 9977SOL     OW41961   9.432   8.091   0.563
 9977SOL    HW141962   9.387   8.003   0.580
 9977SOL    HW241963   9.431   8.145   0.647
 9978SOL     OW41964   9.617   7.661   1.231
 9978SOL    HW141965   9.594   7.698   1.321
 9978SOL    HW241966   9.587   7.566   1.225
 9979SOL     OW41967   9.617   7.511   0.618
 9979SOL    HW141968   9.606   7.605   0.651
 9979SOL    HW241969   9.612   7.448   0.695
 9980SOL     OW41970   9.469   8.585   1.466
 9980SOL    HW141971   9.491   8.524   1.542
 9980SOL    HW241972   9.479   8.536   1.380
 9981SOL     OW41973   9.349   8.525   0.300
 9981SOL    HW141974   9.448   8.514   0.291
 9981SOL    HW241975   9.309   8.439   0.332
 9982SOL     OW41976   9.617   7.511   2.480
 9982SOL    HW141977   9.606   7.605   2.513
 9982SOL    HW241978   9.612   7.448   2.557
 9983SOL     OW41979   9.469   8.585   3.328
 9983SOL    HW141980   9.491   8.524   3.404
 9983SOL    HW241981   9.479   8.536   3.242
 9984SOL     OW41982   9.349   8.525   2.162
 9984SOL    HW141983   9.448   8.514   2.153
 9984SOL    HW241984   9.309   8.439   2.194
 9985SOL     OW41985   9.617   7.661   4.955
 9985SOL    HW141986   9.594   7.698   5.045
 9985SOL    HW241987   9.587   7.566   4.949
 9986SOL     OW41988   9.318   8.774   3.924
 9986SOL    HW141989   9.225   8.795   3.893
 9986SOL    HW241990   9.328   8.675   3.937
 9987SOL     OW41991   9.432   8.091   6.149
 9987SOL    HW141992   9.387   8.003   6.166
 9987SOL    HW241993   9.431   8.145   6.233
 9988SOL     OW41994   9.423   8.185   7.183
 9988SOL    HW141995   9.511   8.172   7.228
 9988SOL    HW241996   9.410   8.282   7.161
 9989SOL     OW41997   9.388   8.004   6.972
 9989SOL    HW141998   9.480   8.003   6.931
 9989SOL    HW241999   9.382   8.078   7.039
 9990SOL     OW42000   9.712   8.199   7.184
 9990SOL    HW142001   9.780   8.254   7.137
 9990SOL    HW242002   9.752   8.111   7.211
 9991SOL     OW42003   9.617   7.511   6.204
 9991SOL    HW142004   9.606   7.605   6.237
 9991SOL    HW242005   9.612   7.448   6.281
 9992SOL     OW42006   9.318   8.774   5.786
 9992SOL    HW142007   9.225   8.795   5.755
 9992SOL    HW242008   9.328   8.675   5.799
 9993SOL     OW42009   9.349   8.525   5.886
 9993SOL    HW142010   9.448   8.514   5.877
 9993SOL    HW242011   9.309   8.439   5.918
 9994X2IT   H1842012   1.339   0.184   0.722
 9994X2IT    N442013   1.299   0.274   0.744
 9994X2IT   H1742014   1.338   0.324   0.822
 9994X2IT   C1442015   1.246   0.344   0.640
 9994X2IT    O542016   1.218   0.297   0.530
 9994X2IT    O442017   1.223   0.473   0.677
 9994X2IT   C1342018   1.161   0.558   0.578
 9994X2IT   C1042019   1.008   0.541   0.578
 9994X2IT    C942020   0.938   0.634   0.481
 9994X2IT    C442021   0.847   0.714   0.548
 9994X2IT    C542022   0.762   0.817   0.481
 9994X2IT    O142023   0.680   0.882   0.548
 9994X2IT    C642024   0.780   0.834   0.339
 9994X2IT   C1242025   0.697   0.937   0.265
 9994X2IT    C742026   0.870   0.753   0.272
 9994X2IT    C842027   0.957   0.648   0.341
 9994X2IT    O242028   1.038   0.584   0.272
 9994X2IT    N342029   0.893   0.760   0.140
 9994X2IT   H1542030   0.847   0.826   0.079
 9994X2IT   H1642031   0.964   0.697   0.101
 9994X2IT    N242032   0.839   0.682   0.680
 9994X2IT    C342033   0.812   0.772   0.793
 9994X2IT    C242034   0.937   0.756   0.878
 9994X2IT    H242035   0.934   0.783   0.983
 9994X2IT    N142036   1.061   0.775   0.800
 9994X2IT   H1442037   1.138   0.798   0.863
 9994X2IT    C142038   1.014   0.639   0.829
 9994X2IT    H142039   1.071   0.574   0.895
 9994X2IT   C1142040   0.937   0.575   0.715
 9994X2IT    O342041   0.874   0.463   0.774
 9994X2IT   C1542042   0.763   0.405   0.702
 9995X2IT   H1842043   5.614   2.455   0.439
 9995X2IT    N442044   5.583   2.373   0.390
 9995X2IT   H1742045   5.646   2.294   0.389
 9995X2IT   C1442046   5.448   2.351   0.386
 9995X2IT    O542047   5.363   2.434   0.411
 9995X2IT    O442048   5.423   2.223   0.345
 9995X2IT   C1342049   5.284   2.188   0.330
 9995X2IT   C1042050   5.229   2.233   0.193
 9995X2IT    C942051   5.086   2.191   0.170
 9995X2IT    C442052   5.076   2.113   0.056
 9995X2IT    C542053   4.948   2.055   0.005
 9995X2IT    O142054   4.948   1.989  -0.100
 9995X2IT    C642055   4.830   2.081   0.084
 9995X2IT   C1242056   4.696   2.024   0.039
 9995X2IT    C742057   4.839   2.159   0.197
 9995X2IT    C842058   4.971   2.219   0.248
 9995X2IT    O242059   4.968   2.284   0.353
 9995X2IT    N342060   4.735   2.190   0.276
 9995X2IT   H1542061   4.641   2.158   0.258
 9995X2IT   H1642062   4.753   2.248   0.358
 9995X2IT    N242063   5.195   2.103  -0.009
 9995X2IT    C342064   5.246   1.988  -0.086
 9995X2IT    C242065   5.374   1.953  -0.010
 9995X2IT    H242066   5.451   1.895  -0.060
 9995X2IT    N142067   5.350   1.935   0.135
 9995X2IT   H1442068   5.426   1.879   0.175
 9995X2IT    C142069   5.407   2.062   0.085
 9995X2IT    H142070   5.508   2.091   0.109
 9995X2IT   C1142071   5.303   2.172   0.068
 9995X2IT    O342072   5.369   2.270  -0.011
 9995X2IT   C1542073   5.286   2.367  -0.076
 9996X2IT   H1842074   5.303   8.693   0.825
 9996X2IT    N442075   5.269   8.613   0.876
 9996X2IT   H1742076   5.287   8.611   0.975
 9996X2IT   C1442077   5.156   8.553   0.828
 9996X2IT    O542078   5.110   8.569   0.716
 9996X2IT    O442079   5.105   8.468   0.922
 9996X2IT   C1342080   4.989   8.392   0.882
 9996X2IT   C1042081   5.028   8.266   0.804
 9996X2IT    C942082   4.910   8.180   0.766
 9996X2IT    C442083   4.925   8.053   0.818
 9996X2IT    C542084   4.824   7.943   0.800
 9996X2IT    O142085   4.848   7.830   0.847
 9996X2IT    C642086   4.705   7.976   0.727
 9996X2IT   C1242087   4.599   7.869   0.705
 9996X2IT    C742088   4.690   8.103   0.674
 9996X2IT    C842089   4.794   8.214   0.693
 9996X2IT    O242090   4.768   8.326   0.645
 9996X2IT    N342091   4.583   8.142   0.603
 9996X2IT   H1542092   4.505   8.082   0.583
 9996X2IT   H1642093   4.582   8.239   0.570
 9996X2IT    N242094   5.044   8.037   0.880
 9996X2IT    C342095   5.075   7.953   0.997
 9996X2IT    C242096   5.126   8.055   1.098
 9996X2IT    H242097   5.187   8.023   1.182
 9996X2IT    N142098   5.032   8.168   1.115
 9996X2IT   H1442099   5.050   8.214   1.205
 9996X2IT    C142100   5.151   8.184   1.029
 9996X2IT    H142101   5.230   8.252   1.057
 9996X2IT   C1142102   5.121   8.165   0.881
 9996X2IT    O342103   5.249   8.151   0.822
 9996X2IT   C1542104   5.254   8.093   0.691
 9997X2IT   H1842105   9.232   7.959   6.368
 9997X2IT    N442106   9.160   7.890   6.374
 9997X2IT   H1742107   9.168   7.809   6.314
 9997X2IT   C1442108   9.099   7.876   6.496
 9997X2IT    O542109   9.104   7.957   6.586
 9997X2IT    O442110   9.027   7.760   6.499
 9997X2IT   C1342111   8.951   7.736   6.619
 9997X2IT   C1042112   8.816   7.810   6.617
 9997X2IT    C942113   8.730   7.781   6.738
 9997X2IT    C442114   8.609   7.728   6.700
 9997X2IT    C542115   8.501   7.687   6.796
 9997X2IT    O142116   8.393   7.643   6.752
 9997X2IT    C642117   8.530   7.704   6.936
 9997X2IT   C1242118   8.425   7.664   7.039
 9997X2IT    C742119   8.651   7.758   6.975
 9997X2IT    C842120   8.760   7.800   6.875
 9997X2IT    O242121   8.867   7.844   6.921
 9997X2IT    N342122   8.686   7.779   7.102
 9997X2IT   H1542123   8.627   7.756   7.180
 9997X2IT   H1642124   8.779   7.819   7.119
 9997X2IT    N242125   8.595   7.723   6.565
 9997X2IT    C342126   8.524   7.623   6.484
 9997X2IT    C242127   8.634   7.567   6.396
 9997X2IT    H242128   8.609   7.515   6.303
 9997X2IT    N142129   8.752   7.523   6.475
 9997X2IT   H1442130   8.806   7.456   6.420
 9997X2IT    C142131   8.754   7.654   6.406
 9997X2IT    H142132   8.822   7.671   6.324
 9997X2IT   C1142133   8.720   7.770   6.498
 9997X2IT    O342134   8.695   7.878   6.409
 9997X2IT   C1542135   8.623   7.990   6.461
 9998X2IT   H1842136   2.910   5.894   0.381
 9998X2IT    N442137   2.969   5.815   0.398
 9998X2IT   H1742138   2.939   5.726   0.361
 9998X2IT   C1442139   3.103   5.840   0.411
 9998X2IT    O542140   3.152   5.950   0.429
 9998X2IT    O442141   3.173   5.724   0.403
 9998X2IT   C1342142   3.316   5.734   0.421
 9998X2IT   C1042143   3.354   5.737   0.570
 9998X2IT    C942144   3.503   5.741   0.593
 9998X2IT    C442145   3.542   5.633   0.670
 9998X2IT    C542146   3.684   5.606   0.710
 9998X2IT    O142147   3.710   5.508   0.782
 9998X2IT    C642148   3.784   5.699   0.663
 9998X2IT   C1242149   3.929   5.678   0.700
 9998X2IT    C742150   3.744   5.808   0.587
 9998X2IT    C842151   3.599   5.834   0.547
 9998X2IT    O242152   3.575   5.933   0.475
 9998X2IT    N342153   3.829   5.901   0.540
 9998X2IT   H1542154   3.928   5.898   0.555
 9998X2IT   H1642155   3.788   5.976   0.483
 9998X2IT    N242156   3.437   5.558   0.711
 9998X2IT    C342157   3.432   5.412   0.732
 9998X2IT    C242158   3.324   5.369   0.634
 9998X2IT    H242159   3.273   5.273   0.648
 9998X2IT    N142160   3.349   5.419   0.497
 9998X2IT   H1442161   3.298   5.362   0.430
 9998X2IT    C142162   3.252   5.488   0.584
 9998X2IT    H142163   3.146   5.488   0.560
 9998X2IT   C1142164   3.310   5.610   0.653
 9998X2IT    O342165   3.215   5.641   0.754
 9998X2IT   C1542166   3.258   5.726   0.861
 9999X2IT   H1842167   3.611   1.513   1.194
 9999X2IT    N442168   3.526   1.561   1.170
 9999X2IT   H1742169   3.518   1.597   1.076
 9999X2IT   C1442170   3.413   1.519   1.234
 9999X2IT    O542171   3.410   1.451   1.335
 9999X2IT    O442172   3.302   1.569   1.171
 9999X2IT   C1342173   3.175   1.539   1.232
 9999X2IT   C1042174   3.143   1.638   1.346
 9999X2IT    C942175   3.007   1.614   1.408
 9999X2IT    C442176   2.930   1.728   1.399
 9999X2IT    C542177   2.789   1.738   1.450
 9999X2IT    O142178   2.728   1.846   1.440
 9999X2IT    C642179   2.733   1.619   1.509
 9999X2IT   C1242180   2.591   1.622   1.562
 9999X2IT    C742181   2.811   1.505   1.520
 9999X2IT    C842182   2.955   1.496   1.468
 9999X2IT    O242183   3.014   1.388   1.479
 9999X2IT    N342184   2.768   1.390   1.575
 9999X2IT   H1542185   2.676   1.378   1.612
 9999X2IT   H1642186   2.834   1.312   1.576
 9999X2IT    N242187   2.998   1.832   1.345
 9999X2IT    C342188   2.946   1.940   1.260
 9999X2IT    C242189   3.028   1.923   1.132
 9999X2IT    H242190   3.037   2.006   1.063
 9999X2IT    N142191   3.022   1.784   1.081
 9999X2IT   H1442192   3.047   1.784   0.981
 9999X2IT    C142193   3.140   1.829   1.158
 9999X2IT    H142194   3.237   1.839   1.110
 9999X2IT   C1142195   3.135   1.789   1.304
 9999X2IT    O342196   3.235   1.869   1.365
 9999X2IT   C1542197   3.230   1.883   1.508
10000X2IT   H1842198   8.348   7.934   0.549
10000X2IT    N442199   8.259   7.925   0.504
10000X2IT   H1742200   8.178   7.958   0.554
10000X2IT   C1442201   8.258   7.930   0.367
10000X2IT    O542202   8.357   7.917   0.296
10000X2IT    O442203   8.131   7.946   0.321
10000X2IT   C1342204   8.114   7.947   0.178
10000X2IT   C1042205   8.106   7.804   0.122
10000X2IT    C942206   8.081   7.800  -0.027
10000X2IT    C442207   7.966   7.730  -0.055
10000X2IT    C542208   7.912   7.708  -0.193
10000X2IT    O142209   7.809   7.640  -0.209
10000X2IT    C642210   7.987   7.767  -0.301
10000X2IT   C1242211   7.938   7.749  -0.444
10000X2IT    C742212   8.103   7.837  -0.274
10000X2IT    C842213   8.157   7.858  -0.132
10000X2IT    O242214   8.260   7.925  -0.119
10000X2IT    N342215   8.180   7.894  -0.368
10000X2IT   H1542216   8.158   7.891  -0.466
10000X2IT   H1642217   8.263   7.944  -0.336
10000X2IT    N242218   7.910   7.676   0.057
10000X2IT    C342219   7.768   7.655   0.086
10000X2IT    C242220   7.748   7.739   0.212
10000X2IT    H242221   7.663   7.719   0.277
10000X2IT    N142222   7.796   7.878   0.195
10000X2IT   H1442223   7.751   7.938   0.264
10000X2IT    C142224   7.880   7.779   0.266
10000X2IT    H142225   7.900   7.789   0.372
10000X2IT   C1142226   7.987   7.716   0.178
10000X2IT    O342227   8.032   7.604   0.253
10000X2IT   C1542228   8.104   7.503   0.181
10001X2IT   H1842229   7.399   4.564   7.255
10001X2IT    N442230   7.459   4.533   7.181
10001X2IT   H1742231   7.537   4.475   7.206
10001X2IT   C1442232   7.400   4.515   7.058
10001X2IT    O542233   7.291   4.560   7.026
10001X2IT    O442234   7.483   4.444   6.977
10001X2IT   C1342235   7.437   4.424   6.841
10001X2IT   C1042236   7.468   4.546   6.752
10001X2IT    C942237   7.428   4.525   6.608
10001X2IT    C442238   7.538   4.540   6.525
10001X2IT    C542239   7.532   4.526   6.376
10001X2IT    O142240   7.635   4.544   6.309
10001X2IT    C642241   7.404   4.491   6.319
10001X2IT   C1242242   7.392   4.474   6.169
10001X2IT    C742243   7.294   4.477   6.402
10001X2IT    C842244   7.301   4.493   6.554
10001X2IT    O242245   7.197   4.474   6.619
10001X2IT    N342246   7.171   4.447   6.358
10001X2IT   H1542247   7.150   4.431   6.261
10001X2IT   H1642248   7.098   4.438   6.429
10001X2IT    N242249   7.649   4.577   6.594
10001X2IT    C342250   7.789   4.541   6.565
10001X2IT    C242251   7.830   4.469   6.692
10001X2IT    H242252   7.936   4.459   6.717
10001X2IT    N142253   7.736   4.360   6.728
10001X2IT   H1442254   7.783   4.294   6.790
10001X2IT    C142255   7.728   4.491   6.797
10001X2IT    H142256   7.752   4.499   6.903
10001X2IT   C1142257   7.621   4.583   6.740
10001X2IT    O342258   7.652   4.710   6.795
10001X2IT   C1542259   7.594   4.824   6.731
10002X2IT   H1842260   5.665   7.878   6.355
10002X2IT    N442261   5.688   7.889   6.452
10002X2IT   H1742262   5.620   7.857   6.520
10002X2IT   C1442263   5.821   7.885   6.484
10002X2IT    O542264   5.913   7.896   6.405
10002X2IT    O442265   5.836   7.870   6.619
10002X2IT   C1342266   5.972   7.871   6.668
10002X2IT   C1042267   6.024   8.014   6.687
10002X2IT    C942268   6.164   8.019   6.745
10002X2IT    C442269   6.164   8.091   6.863
10002X2IT    C542270   6.286   8.115   6.947
10002X2IT    O142271   6.277   8.184   7.049
10002X2IT    C642272   6.408   8.054   6.900
10002X2IT   C1242273   6.536   8.074   6.980
10002X2IT    C742274   6.409   7.983   6.782
10002X2IT    C842275   6.283   7.961   6.697
10002X2IT    O242276   6.294   7.891   6.595
10002X2IT    N342277   6.518   7.925   6.730
10002X2IT   H1542278   6.608   7.928   6.774
10002X2IT   H1642279   6.506   7.873   6.642
10002X2IT    N242280   6.042   8.145   6.890
10002X2IT    C342281   5.981   8.168   7.022
10002X2IT    C242282   5.854   8.084   7.014
10002X2IT    H242283   5.771   8.105   7.081
10002X2IT    N142284   5.882   7.945   6.973
10002X2IT   H1442285   5.804   7.884   7.001
10002X2IT    C142286   5.832   8.042   6.873
10002X2IT    H142287   5.733   8.031   6.830
10002X2IT   C1142288   5.942   8.103   6.788
10002X2IT    O342289   5.880   8.214   6.726
10002X2IT   C1542290   5.966   8.314   6.670
10003X2IT   H1842291   4.652   3.919   1.244
10003X2IT    N442292   4.641   4.012   1.209
10003X2IT   H1742293   4.706   4.082   1.243
10003X2IT   C1442294   4.591   4.024   1.083
10003X2IT    O542295   4.533   3.936   1.022
10003X2IT    O442296   4.611   4.151   1.037
10003X2IT   C1342297   4.556   4.180   0.906
10003X2IT   C1042298   4.407   4.216   0.915
10003X2IT    C942299   4.347   4.255   0.781
10003X2IT    C442300   4.294   4.382   0.787
10003X2IT    C542301   4.228   4.451   0.671
10003X2IT    O142302   4.180   4.564   0.687
10003X2IT    C642303   4.225   4.378   0.546
10003X2IT   C1242304   4.160   4.442   0.425
10003X2IT    C742305   4.277   4.251   0.541
10003X2IT    C842306   4.343   4.181   0.660
10003X2IT    O242307   4.391   4.068   0.642
10003X2IT    N342308   4.277   4.175   0.430
10003X2IT   H1542309   4.239   4.206   0.342
10003X2IT   H1642310   4.319   4.082   0.437
10003X2IT    N242311   4.301   4.435   0.912
10003X2IT    C342312   4.320   4.576   0.950
10003X2IT    C242313   4.450   4.571   1.030
10003X2IT    H242314   4.474   4.651   1.099
10003X2IT    N142315   4.559   4.502   0.956
10003X2IT   H1442316   4.649   4.531   0.995
10003X2IT    C142317   4.483   4.429   1.060
10003X2IT    H142318   4.532   4.398   1.152
10003X2IT   C1142319   4.373   4.342   1.004
10003X2IT    O342320   4.294   4.309   1.117
10003X2IT   C1542321   4.161   4.260   1.093
10004X2IT   H1842322   4.079   6.611   0.299
10004X2IT    N442323   4.073   6.525   0.249
10004X2IT   H1742324   4.160   6.481   0.223
10004X2IT   C1442325   3.964   6.447   0.274
10004X2IT    O542326   3.862   6.485   0.330
10004X2IT    O442327   3.983   6.322   0.224
10004X2IT   C1342328   3.873   6.230   0.238
10004X2IT   C1042329   3.769   6.249   0.125
10004X2IT    C942330   3.655   6.150   0.132
10004X2IT    C442331   3.648   6.077   0.014
10004X2IT    C542332   3.547   5.970  -0.012
10004X2IT    O142333   3.545   5.912  -0.122
10004X2IT    C642334   3.455   5.941   0.095
10004X2IT   C1242335   3.350   5.833   0.076
10004X2IT    C742336   3.461   6.014   0.212
10004X2IT    C842337   3.565   6.124   0.237
10004X2IT    O242338   3.564   6.180   0.348
10004X2IT    N342339   3.379   5.995   0.317
10004X2IT   H1542340   3.306   5.926   0.318
10004X2IT   H1642341   3.394   6.054   0.399
10004X2IT    N242342   3.738   6.120  -0.078
10004X2IT    C342343   3.809   6.040  -0.179
10004X2IT    C242344   3.955   6.062  -0.142
10004X2IT    H242345   4.033   6.044  -0.216
10004X2IT    N142346   3.981   6.034   0.001
10004X2IT   H1442347   4.081   6.015   0.014
10004X2IT    C142348   3.965   6.173  -0.044
10004X2IT    H142349   4.048   6.242  -0.041
10004X2IT   C1142350   3.824   6.228  -0.021
10004X2IT    O342351   3.820   6.346  -0.099
10004X2IT   C1542352   3.691   6.399  -0.130
10005X2IT   H1842353   1.141   6.175   4.804
10005X2IT    N442354   1.107   6.145   4.893
10005X2IT   H1742355   1.130   6.051   4.922
10005X2IT   C1442356   1.090   6.241   4.989
10005X2IT    O542357   1.087   6.361   4.967
10005X2IT    O442358   1.073   6.183   5.111
10005X2IT   C1342359   1.048   6.273   5.221
10005X2IT   C1042360   0.899   6.312   5.229
10005X2IT    C942361   0.867   6.401   5.347
10005X2IT    C442362   0.771   6.342   5.427
10005X2IT    C542363   0.717   6.403   5.553
10005X2IT    O142364   0.628   6.344   5.616
10005X2IT    C642365   0.773   6.530   5.592
10005X2IT   C1242366   0.724   6.597   5.718
10005X2IT    C742367   0.868   6.590   5.511
10005X2IT    C842368   0.922   6.527   5.383
10005X2IT    O242369   1.011   6.587   5.321
10005X2IT    N342370   0.925   6.709   5.538
10005X2IT   H1542371   0.903   6.763   5.620
10005X2IT   H1642372   0.996   6.743   5.472
10005X2IT    N242373   0.725   6.225   5.374
10005X2IT    C342374   0.680   6.105   5.446
10005X2IT    C242375   0.777   5.999   5.394
10005X2IT    H242376   0.750   5.893   5.402
10005X2IT    N142377   0.918   6.040   5.408
10005X2IT   H1442378   0.978   5.957   5.407
10005X2IT    C142379   0.851   6.052   5.277
10005X2IT    H142380   0.882   5.990   5.194
10005X2IT   C1142381   0.799   6.192   5.249
10005X2IT    O342382   0.711   6.174   5.139
10005X2IT   C1542383   0.618   6.280   5.113
10006X2IT   H1842384   3.305   1.717   7.046
10006X2IT    N442385   3.233   1.650   7.027
10006X2IT   H1742386   3.140   1.673   7.058
10006X2IT   C1442387   3.249   1.573   6.915
10006X2IT    O542388   3.354   1.560   6.854
10006X2IT    O442389   3.132   1.510   6.885
10006X2IT   C1342390   3.136   1.420   6.773
10006X2IT   C1042391   3.190   1.281   6.813
10006X2IT    C942392   3.189   1.182   6.699
10006X2IT    C442393   3.113   1.071   6.733
10006X2IT    C542394   3.091   0.954   6.642
10006X2IT    O142395   3.024   0.857   6.683
10006X2IT    C642396   3.151   0.961   6.511
10006X2IT   C1242397   3.132   0.846   6.415
10006X2IT    C742398   3.227   1.071   6.478
10006X2IT    C842399   3.250   1.190   6.572
10006X2IT    O242400   3.317   1.286   6.530
10006X2IT    N342401   3.288   1.086   6.359
10006X2IT   H1542402   3.282   1.019   6.285
10006X2IT   H1642403   3.341   1.173   6.345
10006X2IT    N242404   3.068   1.077   6.861
10006X2IT    C342405   2.941   1.025   6.915
10006X2IT    C242406   2.874   1.151   6.968
10006X2IT    H242407   2.795   1.143   7.043
10006X2IT    N142408   2.869   1.259   6.867
10006X2IT   H1442409   2.795   1.326   6.893
10006X2IT    C142410   2.973   1.262   6.971
10006X2IT    H142411   2.973   1.339   7.047
10006X2IT   C1142412   3.107   1.207   6.924
10006X2IT    O342413   3.180   1.187   7.044
10006X2IT   C1542414   3.294   1.101   7.037
10007X2IT   H1842415   5.476   6.738   6.399
10007X2IT    N442416   5.397   6.798   6.387
10007X2IT   H1742417   5.393   6.881   6.443
10007X2IT   C1442418   5.342   6.800   6.262
10007X2IT    O542419   5.361   6.717   6.175
10007X2IT    O442420   5.257   6.907   6.250
10007X2IT   C1342421   5.186   6.918   6.125
10007X2IT   C1042422   5.060   6.829   6.124
10007X2IT    C942423   4.979   6.844   5.997
10007X2IT    C442424   4.850   6.884   6.027
10007X2IT    C542425   4.744   6.909   5.924
10007X2IT    O142426   4.630   6.942   5.960
10007X2IT    C642427   4.782   6.891   5.786
10007X2IT   C1242428   4.680   6.914   5.677
10007X2IT    C742429   4.910   6.849   5.756
10007X2IT    C842430   5.018   6.824   5.862
10007X2IT    O242431   5.131   6.791   5.824
10007X2IT    N342432   4.955   6.828   5.631
10007X2IT   H1542433   4.898   6.842   5.550
10007X2IT   H1642434   5.053   6.799   5.621
10007X2IT    N242435   4.829   6.892   6.161
10007X2IT    C342436   4.742   6.986   6.233
10007X2IT    C242437   4.840   7.058   6.325
10007X2IT    H242438   4.804   7.109   6.414
10007X2IT    N142439   4.956   7.112   6.250
10007X2IT   H1442440   5.000   7.186   6.305
10007X2IT    C142441   4.970   6.985   6.324
10007X2IT    H142442   5.034   6.978   6.411
10007X2IT   C1142443   4.954   6.862   6.236
10007X2IT    O342444   4.936   6.756   6.328
10007X2IT   C1542445   4.881   6.634   6.277
10008X2IT   H1842446   4.180   1.659   5.791
10008X2IT    N442447   4.168   1.727   5.863
10008X2IT   H1742448   4.122   1.814   5.838
10008X2IT   C1442449   4.155   1.680   5.991
10008X2IT    O542450   4.184   1.567   6.027
10008X2IT    O442451   4.110   1.779   6.073
10008X2IT   C1342452   4.098   1.745   6.213
10008X2IT   C1042453   4.232   1.758   6.286
10008X2IT    C942454   4.222   1.730   6.434
10008X2IT    C442455   4.266   1.839   6.507
10008X2IT    C542456   4.268   1.845   6.657
10008X2IT    O142457   4.312   1.946   6.713
10008X2IT    C642458   4.218   1.729   6.726
10008X2IT   C1242459   4.217   1.728   6.878
10008X2IT    C742460   4.176   1.619   6.654
10008X2IT    C842461   4.175   1.614   6.501
10008X2IT    O242462   4.131   1.512   6.446
10008X2IT    N342463   4.130   1.506   6.710
10008X2IT   H1542464   4.122   1.492   6.809
10008X2IT   H1642465   4.100   1.431   6.646
10008X2IT    N242466   4.313   1.938   6.427
10008X2IT    C342467   4.306   2.084   6.448
10008X2IT    C242468   4.227   2.131   6.327
10008X2IT    H242469   4.233   2.235   6.296
10008X2IT    N142470   4.101   2.056   6.309
10008X2IT   H1442471   4.037   2.111   6.251
10008X2IT    C142472   4.219   2.020   6.228
10008X2IT    H142473   4.219   2.037   6.121
10008X2IT   C1142474   4.297   1.902   6.283
10008X2IT    O342475   4.420   1.906   6.213
10008X2IT   C1542476   4.529   1.832   6.269
10009X2IT   H1842477   1.093   1.085   6.402
10009X2IT    N442478   0.999   1.069   6.370
10009X2IT   H1742479   0.963   0.975   6.376
10009X2IT   C1442480   0.913   1.175   6.383
10009X2IT    O542481   0.945   1.290   6.403
10009X2IT    O442482   0.784   1.131   6.367
10009X2IT   C1342483   0.682   1.233   6.371
10009X2IT   C1042484   0.667   1.304   6.235
10009X2IT    C942485   0.556   1.406   6.234
10009X2IT    C442486   0.463   1.376   6.136
10009X2IT    C542487   0.340   1.457   6.109
10009X2IT    O142488   0.264   1.424   6.016
10009X2IT    C642489   0.318   1.571   6.194
10009X2IT   C1242490   0.195   1.657   6.172
10009X2IT    C742491   0.411   1.603   6.291
10009X2IT    C842492   0.537   1.519   6.317
10009X2IT    O242493   0.611   1.554   6.410
10009X2IT    N342494   0.400   1.708   6.373
10009X2IT   H1542495   0.323   1.772   6.371
10009X2IT   H1642496   0.474   1.721   6.443
10009X2IT    N242497   0.501   1.268   6.062
10009X2IT    C342498   0.414   1.166   6.000
10009X2IT    C242499   0.463   1.038   6.067
10009X2IT    H242500   0.443   0.942   6.020
10009X2IT    N142501   0.464   1.049   6.215
10009X2IT   H1442502   0.462   0.955   6.256
10009X2IT    C142503   0.590   1.065   6.139
10009X2IT    H142504   0.669   0.992   6.148
10009X2IT   C1142505   0.628   1.210   6.115
10009X2IT    O342506   0.728   1.203   6.015
10009X2IT   C1542507   0.757   1.324   5.944
10010X2IT   H1842508   1.434   1.595   7.370
10010X2IT    N442509   1.494   1.645   7.308
10010X2IT   H1742510   1.521   1.739   7.335
10010X2IT   C1442511   1.581   1.571   7.234
10010X2IT    O542512   1.573   1.450   7.216
10010X2IT    O442513   1.676   1.651   7.178
10010X2IT   C1342514   1.772   1.587   7.091
10010X2IT   C1042515   1.716   1.570   6.949
10010X2IT    C942516   1.815   1.509   6.853
10010X2IT    C442517   1.837   1.594   6.746
10010X2IT    C542518   1.931   1.564   6.632
10010X2IT    O142519   1.941   1.645   6.539
10010X2IT    C642520   2.003   1.440   6.640
10010X2IT   C1242521   2.100   1.403   6.529
10010X2IT    C742522   1.981   1.354   6.746
10010X2IT    C842523   1.884   1.386   6.861
10010X2IT    O242524   1.875   1.304   6.954
10010X2IT    N342525   2.042   1.236   6.761
10010X2IT   H1542526   2.110   1.200   6.696
10010X2IT   H1642527   2.019   1.181   6.845
10010X2IT    N242528   1.757   1.704   6.751
10010X2IT    C342529   1.789   1.840   6.705
10010X2IT    C242530   1.776   1.922   6.833
10010X2IT    H242531   1.760   2.029   6.828
10010X2IT    N142532   1.856   1.865   6.944
10010X2IT   H1442533   1.873   1.937   7.014
10010X2IT    C142534   1.711   1.839   6.938
10010X2IT    H142535   1.644   1.880   7.012
10010X2IT   C1142536   1.676   1.704   6.876
10010X2IT    O342537   1.537   1.713   6.849
10010X2IT   C1542538   1.483   1.619   6.756
10011X2IT   H1842539   1.527   6.417   0.027
10011X2IT    N442540   1.455   6.356   0.059
10011X2IT   H1742541   1.382   6.396   0.117
10011X2IT   C1442542   1.425   6.250  -0.022
10011X2IT    O542543   1.495   6.209  -0.113
10011X2IT    O442544   1.307   6.193   0.017
10011X2IT   C1342545   1.266   6.076  -0.056
10011X2IT   C1042546   1.334   5.949  -0.002
10011X2IT    C942547   1.288   5.823  -0.071
10011X2IT    C442548   1.234   5.735   0.021
10011X2IT    C542549   1.178   5.600  -0.015
10011X2IT    O142550   1.136   5.525   0.074
10011X2IT    C642551   1.179   5.565  -0.155
10011X2IT   C1242552   1.124   5.431  -0.199
10011X2IT    C742553   1.233   5.653  -0.247
10011X2IT    C842554   1.291   5.790  -0.209
10011X2IT    O242555   1.333   5.863  -0.300
10011X2IT    N342556   1.240   5.629  -0.379
10011X2IT   H1542557   1.205   5.544  -0.421
10011X2IT   H1642558   1.281   5.702  -0.438
10011X2IT    N242559   1.245   5.780   0.148
10011X2IT    C342560   1.153   5.758   0.260
10011X2IT    C242561   1.112   5.901   0.296
10011X2IT    H242562   1.071   5.922   0.395
10011X2IT    N142563   1.063   5.977   0.179
10011X2IT   H1442564   1.006   6.055   0.211
10011X2IT    C142565   1.201   5.997   0.227
10011X2IT    H142566   1.232   6.091   0.271
10011X2IT   C1142567   1.305   5.917   0.150
10011X2IT    O342568   1.421   5.923   0.230
10011X2IT   C1542569   1.524   5.827   0.204
10012X2IT   H1842570   1.171   6.009   0.899
10012X2IT    N442571   1.136   6.044   0.812
10012X2IT   H1742572   1.140   5.982   0.732
10012X2IT   C1442573   1.035   6.136   0.820
10012X2IT    O542574   1.003   6.198   0.920
10012X2IT    O442575   0.976   6.152   0.697
10012X2IT   C1342576   0.872   6.251   0.688
10012X2IT   C1042577   0.930   6.392   0.669
10012X2IT    C942578   0.823   6.498   0.652
10012X2IT    C442579   0.840   6.564   0.531
10012X2IT    C542580   0.750   6.674   0.484
10012X2IT    O142581   0.774   6.730   0.376
10012X2IT    C642582   0.640   6.709   0.569
10012X2IT   C1242583   0.545   6.820   0.527
10012X2IT    C742584   0.624   6.645   0.691
10012X2IT    C842585   0.717   6.533   0.739
10012X2IT    O242586   0.691   6.478   0.847
10012X2IT    N342587   0.526   6.672   0.778
10012X2IT   H1542588   0.455   6.741   0.761
10012X2IT   H1642589   0.523   6.616   0.864
10012X2IT    N242590   0.950   6.522   0.465
10012X2IT    C342591   0.970   6.512   0.320
10012X2IT    C242592   1.000   6.363   0.301
10012X2IT    H242593   1.051   6.329   0.211
10012X2IT    N142594   0.897   6.278   0.365
10012X2IT   H1442595   0.900   6.184   0.322
10012X2IT    C142596   1.025   6.302   0.434
10012X2IT    H142597   1.096   6.221   0.449
10012X2IT   C1142598   1.017   6.411   0.539
10012X2IT    O342599   1.153   6.441   0.568
10012X2IT   C1542600   1.180   6.566   0.633
10013X2IT   H1842601   4.231   7.989   1.146
10013X2IT    N442602   4.242   7.889   1.143
10013X2IT   H1742603   4.295   7.850   1.066
10013X2IT   C1442604   4.243   7.825   1.264
10013X2IT    O542605   4.205   7.873   1.370
10013X2IT    O442606   4.289   7.697   1.248
10013X2IT   C1342607   4.289   7.615   1.366
10013X2IT   C1042608   4.151   7.552   1.392
10013X2IT    C942609   4.149   7.460   1.512
10013X2IT    C442610   4.108   7.333   1.474
10013X2IT    C542611   4.096   7.217   1.568
10013X2IT    O142612   4.055   7.108   1.526
10013X2IT    C642613   4.134   7.241   1.705
10013X2IT   C1242614   4.124   7.128   1.805
10013X2IT    C742615   4.174   7.368   1.743
10013X2IT    C842616   4.185   7.486   1.647
10013X2IT    O242617   4.227   7.594   1.691
10013X2IT    N342618   4.209   7.400   1.869
10013X2IT   H1542619   4.209   7.334   1.945
10013X2IT   H1642620   4.239   7.497   1.886
10013X2IT    N242621   4.072   7.328   1.343
10013X2IT    C342622   4.087   7.216   1.249
10013X2IT    C242623   4.176   7.275   1.141
10013X2IT    H242624   4.179   7.230   1.042
10013X2IT    N142625   4.299   7.337   1.197
10013X2IT   H1442626   4.370   7.343   1.124
10013X2IT    C142627   4.185   7.422   1.159
10013X2IT    H142628   4.193   7.492   1.077
10013X2IT   C1142629   4.096   7.460   1.277
10013X2IT    O342630   3.979   7.511   1.217
10013X2IT   C1542631   3.861   7.519   1.299
10014X2IT   H1842632   4.412   8.211   6.090
10014X2IT    N442633   4.389   8.134   6.150
10014X2IT   H1742634   4.358   8.157   6.244
10014X2IT   C1442635   4.341   8.021   6.089
10014X2IT    O542636   4.350   7.996   5.970
10014X2IT    O442637   4.285   7.938   6.183
10014X2IT   C1342638   4.236   7.812   6.134
10014X2IT   C1042639   4.349   7.708   6.122
10014X2IT    C942640   4.300   7.572   6.078
10014X2IT    C442641   4.333   7.477   6.172
10014X2IT    C542642   4.299   7.331   6.159
10014X2IT    O142643   4.336   7.252   6.247
10014X2IT    C642644   4.224   7.292   6.042
10014X2IT   C1242645   4.186   7.147   6.023
10014X2IT    C742646   4.192   7.388   5.948
10014X2IT    C842647   4.228   7.536   5.961
10014X2IT    O242648   4.190   7.614   5.872
10014X2IT    N342649   4.124   7.361   5.835
10014X2IT   H1542650   4.091   7.270   5.811
10014X2IT   H1642651   4.104   7.440   5.773
10014X2IT    N242652   4.408   7.528   6.273
10014X2IT    C342653   4.408   7.488   6.415
10014X2IT    C242654   4.366   7.616   6.485
10014X2IT    H242655   4.388   7.630   6.591
10014X2IT    N142656   4.242   7.673   6.429
10014X2IT   H1442657   4.199   7.736   6.497
10014X2IT    C142658   4.373   7.729   6.389
10014X2IT    H142659   4.401   7.830   6.418
10014X2IT   C1142660   4.424   7.675   6.257
10014X2IT    O342661   4.561   7.713   6.254
10014X2IT   C1542662   4.646   7.645   6.162
10015X2IT   H1842663   2.930   5.420   6.501
10015X2IT    N442664   3.024   5.388   6.491
10015X2IT   H1742665   3.038   5.288   6.481
10015X2IT   C1442666   3.111   5.473   6.429
10015X2IT    O542667   3.092   5.593   6.411
10015X2IT    O442668   3.225   5.407   6.394
10015X2IT   C1342669   3.329   5.486   6.333
10015X2IT   C1042670   3.415   5.558   6.439
10015X2IT    C942671   3.529   5.636   6.379
10015X2IT    C442672   3.650   5.592   6.431
10015X2IT    C542673   3.783   5.648   6.392
10015X2IT    O142674   3.886   5.605   6.446
10015X2IT    C642675   3.783   5.753   6.293
10015X2IT   C1242676   3.914   5.814   6.249
10015X2IT    C742677   3.662   5.798   6.242
10015X2IT    C842678   3.527   5.740   6.283
10015X2IT    O242679   3.425   5.785   6.228
10015X2IT    N342680   3.651   5.896   6.151
10015X2IT   H1542681   3.731   5.944   6.112
10015X2IT   H1642682   3.557   5.920   6.119
10015X2IT    N242683   3.632   5.497   6.526
10015X2IT    C342684   3.720   5.382   6.557
10015X2IT    C242685   3.627   5.264   6.533
10015X2IT    H242686   3.651   5.167   6.578
10015X2IT    N142687   3.562   5.269   6.401
10015X2IT   H1442688   3.530   5.175   6.375
10015X2IT    C142689   3.488   5.312   6.521
10015X2IT    H142690   3.402   5.256   6.556
10015X2IT   C1142691   3.488   5.463   6.541
10015X2IT    O342692   3.443   5.480   6.674
10015X2IT   C1542693   3.469   5.606   6.736
10016X2IT   H1842694   6.719   3.432   7.066
10016X2IT    N442695   6.779   3.512   7.073
10016X2IT   H1742696   6.797   3.548   7.166
10016X2IT   C1442697   6.874   3.526   6.976
10016X2IT    O542698   6.875   3.467   6.869
10016X2IT    O442699   6.966   3.620   7.015
10016X2IT   C1342700   7.070   3.650   6.919
10016X2IT   C1042701   7.022   3.753   6.815
10016X2IT    C942702   7.130   3.792   6.717
10016X2IT    C442703   7.152   3.929   6.722
10016X2IT    C542704   7.253   4.001   6.638
10016X2IT    O142705   7.263   4.124   6.646
10016X2IT    C642706   7.333   3.920   6.550
10016X2IT   C1242707   7.438   3.986   6.463
10016X2IT    C742708   7.312   3.783   6.544
10016X2IT    C842709   7.207   3.711   6.630
10016X2IT    O242710   7.199   3.588   6.620
10016X2IT    N342711   7.380   3.700   6.465
10016X2IT   H1542712   7.453   3.730   6.403
10016X2IT   H1642713   7.356   3.600   6.470
10016X2IT    N242714   7.065   3.991   6.806
10016X2IT    C342715   7.089   4.111   6.889
10016X2IT    C242716   7.064   4.058   7.029
10016X2IT    H242717   7.041   4.128   7.110
10016X2IT    N142718   7.142   3.935   7.058
10016X2IT   H1442719   7.151   3.923   7.159
10016X2IT    C142720   7.000   3.924   7.021
10016X2IT    H142721   6.926   3.890   7.093
10016X2IT   C1142722   6.977   3.892   6.874
10016X2IT    O342723   6.840   3.919   6.853
10016X2IT   C1542724   6.797   3.935   6.718
10017X2IT   H1842725   3.112   7.047   0.688
10017X2IT    N442726   3.031   7.066   0.633
10017X2IT   H1742727   2.957   7.120   0.677
10017X2IT   C1442728   3.049   7.078   0.498
10017X2IT    O542729   3.148   7.040   0.438
10017X2IT    O442730   2.939   7.134   0.441
10017X2IT   C1342731   2.941   7.146   0.297
10017X2IT   C1042732   2.899   7.014   0.229
10017X2IT    C942733   2.894   7.025   0.078
10017X2IT    C442734   2.768   6.993   0.032
10017X2IT    C542735   2.728   6.995  -0.113
10017X2IT    O142736   2.613   6.961  -0.145
10017X2IT    C642737   2.830   7.035  -0.207
10017X2IT   C1242738   2.796   7.039  -0.355
10017X2IT    C742739   2.956   7.066  -0.161
10017X2IT    C842740   2.996   7.063  -0.013
10017X2IT    O242741   3.111   7.097   0.017
10017X2IT    N342742   3.058   7.103  -0.241
10017X2IT   H1542743   3.049   7.111  -0.341
10017X2IT   H1642744   3.147   7.125  -0.196
10017X2IT    N242745   2.686   6.953   0.133
10017X2IT    C342746   2.540   6.974   0.144
10017X2IT    C242747   2.529   7.053   0.274
10017X2IT    H242748   2.435   7.056   0.328
10017X2IT    N142749   2.617   7.172   0.274
10017X2IT   H1442750   2.583   7.240   0.343
10017X2IT    C142751   2.660   7.050   0.345
10017X2IT    H142752   2.668   7.049   0.453
10017X2IT   C1142753   2.755   6.963   0.264
10017X2IT    O342754   2.755   6.840   0.333
10017X2IT   C1542755   2.805   6.725   0.262
10018X2IT   H1842756   7.438   5.728   0.316
10018X2IT    N442757   7.426   5.630   0.298
10018X2IT   H1742758   7.439   5.598   0.203
10018X2IT   C1442759   7.457   5.545   0.401
10018X2IT    O542760   7.471   5.578   0.517
10018X2IT    O442761   7.466   5.417   0.354
10018X2IT   C1342762   7.492   5.315   0.453
10018X2IT   C1042763   7.362   5.271   0.523
10018X2IT    C942764   7.384   5.159   0.623
10018X2IT    C442765   7.306   5.050   0.590
10018X2IT    C542766   7.304   4.921   0.668
10018X2IT    O142767   7.228   4.830   0.633
10018X2IT    C642768   7.393   4.914   0.781
10018X2IT   C1242769   7.396   4.787   0.864
10018X2IT    C742770   7.470   5.024   0.815
10018X2IT    C842771   7.470   5.154   0.735
10018X2IT    O242772   7.546   5.245   0.772
10018X2IT    N342773   7.553   5.027   0.920
10018X2IT   H1542774   7.567   4.949   0.982
10018X2IT   H1642775   7.607   5.113   0.935
10018X2IT    N242776   7.225   5.075   0.483
10018X2IT    C342777   7.181   4.980   0.379
10018X2IT    C242778   7.236   5.044   0.252
10018X2IT    H242779   7.194   5.018   0.156
10018X2IT    N142780   7.381   5.075   0.263
10018X2IT   H1442781   7.421   5.084   0.169
10018X2IT    C142782   7.282   5.183   0.282
10018X2IT    H142783   7.274   5.264   0.212
10018X2IT   C1142784   7.251   5.211   0.429
10018X2IT    O342785   7.134   5.290   0.425
10018X2IT   C1542786   7.058   5.300   0.546
10019X2IT   H1842787   8.578   6.931   6.638
10019X2IT    N442788   8.618   6.851   6.684
10019X2IT   H1742789   8.572   6.817   6.767
10019X2IT   C1442790   8.682   6.761   6.603
10019X2IT    O542791   8.719   6.783   6.489
10019X2IT    O442792   8.703   6.644   6.671
10019X2IT   C1342793   8.776   6.542   6.600
10019X2IT   C1042794   8.928   6.565   6.610
10019X2IT    C942795   9.009   6.456   6.542
10019X2IT    C442796   9.094   6.397   6.633
10019X2IT    C542797   9.188   6.284   6.600
10019X2IT    O142798   9.264   6.240   6.687
10019X2IT    C642799   9.184   6.235   6.464
10019X2IT   C1242800   9.275   6.122   6.423
10019X2IT    C742801   9.099   6.295   6.373
10019X2IT    C842802   9.004   6.410   6.408
10019X2IT    O242803   8.929   6.453   6.320
10019X2IT    N342804   9.089   6.258   6.244
10019X2IT   H1542805   9.142   6.182   6.205
10019X2IT   H1642806   9.021   6.308   6.186
10019X2IT    N242807   9.090   6.457   6.755
10019X2IT    C342808   9.107   6.396   6.887
10019X2IT    C242809   8.974   6.426   6.955
10019X2IT    H242810   8.967   6.424   7.064
10019X2IT    N142811   8.859   6.384   6.873
10019X2IT   H1442812   8.776   6.373   6.933
10019X2IT    C142813   8.900   6.526   6.874
10019X2IT    H142814   8.836   6.602   6.918
10019X2IT   C1142815   8.987   6.565   6.756
10019X2IT    O342816   9.042   6.690   6.793
10019X2IT   C1542817   9.157   6.735   6.721
10020X2IT   H1842818   2.180   4.255   7.168
10020X2IT    N442819   2.106   4.309   7.128
10020X2IT   H1742820   2.046   4.360   7.192
10020X2IT   C1442821   2.128   4.360   7.003
10020X2IT    O542822   2.215   4.323   6.926
10020X2IT    O442823   2.034   4.455   6.974
10020X2IT   C1342824   2.041   4.513   6.842
10020X2IT   C1042825   1.969   4.425   6.738
10020X2IT    C942826   1.968   4.485   6.600
10020X2IT    C442827   1.838   4.500   6.555
10020X2IT    C542828   1.801   4.558   6.422
10020X2IT    O142829   1.682   4.564   6.389
10020X2IT    C642830   1.910   4.603   6.339
10020X2IT   C1242831   1.880   4.663   6.203
10020X2IT    C742832   2.040   4.587   6.383
10020X2IT    C842833   2.076   4.527   6.519
10020X2IT    O242834   2.196   4.522   6.550
10020X2IT    N342835   2.148   4.624   6.312
10020X2IT   H1542836   2.142   4.667   6.221
10020X2IT   H1642837   2.239   4.609   6.355
10020X2IT    N242838   1.748   4.449   6.643
10020X2IT    C342839   1.611   4.497   6.671
10020X2IT    C242840   1.619   4.530   6.820
10020X2IT    H242841   1.527   4.537   6.878
10020X2IT    N142842   1.733   4.619   6.852
10020X2IT   H1442843   1.715   4.666   6.941
10020X2IT    C142844   1.744   4.474   6.877
10020X2IT    H142845   1.751   4.436   6.978
10020X2IT   C1142846   1.816   4.399   6.766
10020X2IT    O342847   1.787   4.263   6.791
10020X2IT   C1542848   1.807   4.170   6.684
10021X2IT   H1842849   5.956   5.148   6.173
10021X2IT    N442850   6.005   5.199   6.244
10021X2IT   H1742851   6.038   5.292   6.220
10021X2IT   C1442852   5.967   5.175   6.374
10021X2IT    O542853   5.903   5.078   6.411
10021X2IT    O442854   6.017   5.272   6.456
10021X2IT   C1342855   5.991   5.255   6.597
10021X2IT   C1042856   6.094   5.160   6.662
10021X2IT    C942857   6.074   5.145   6.811
10021X2IT    C442858   6.189   5.182   6.878
10021X2IT    C542859   6.203   5.180   7.028
10021X2IT    O142860   6.311   5.212   7.079
10021X2IT    C642861   6.087   5.139   7.103
10021X2IT   C1242862   6.094   5.135   7.254
10021X2IT    C742863   5.972   5.101   7.036
10021X2IT    C842864   5.960   5.103   6.883
10021X2IT    O242865   5.851   5.071   6.834
10021X2IT    N342866   5.860   5.060   7.097
10021X2IT   H1542867   5.851   5.054   7.197
10021X2IT   H1642868   5.781   5.035   7.037
10021X2IT    N242869   6.290   5.214   6.793
10021X2IT    C342870   6.396   5.314   6.812
10021X2IT    C242871   6.373   5.407   6.694
10021X2IT    H242872   6.454   5.472   6.660
10021X2IT    N142873   6.233   5.454   6.685
10021X2IT   H1442874   6.229   5.540   6.630
10021X2IT    C142875   6.279   5.344   6.598
10021X2IT    H142876   6.285   5.357   6.491
10021X2IT   C1142877   6.244   5.206   6.652
10021X2IT    O342878   6.323   5.118   6.575
10021X2IT   C1542879   6.342   4.985   6.626
10022X2IT   H1842880   2.362   8.496   0.721
10022X2IT    N442881   2.346   8.425   0.652
10022X2IT   H1742882   2.262   8.370   0.662
10022X2IT   C1442883   2.395   8.448   0.527
10022X2IT    O542884   2.479   8.532   0.499
10022X2IT    O442885   2.341   8.360   0.438
10022X2IT   C1342886   2.389   8.369   0.302
10022X2IT   C1042887   2.520   8.291   0.284
10022X2IT    C942888   2.571   8.292   0.142
10022X2IT    C442889   2.583   8.162   0.095
10022X2IT    C542890   2.630   8.128  -0.044
10022X2IT    O142891   2.642   8.009  -0.076
10022X2IT    C642892   2.660   8.238  -0.131
10022X2IT   C1242893   2.707   8.210  -0.272
10022X2IT    C742894   2.648   8.368  -0.084
10022X2IT    C842895   2.601   8.402   0.058
10022X2IT    O242896   2.590   8.522   0.088
10022X2IT    N342897   2.676   8.477  -0.157
10022X2IT   H1542898   2.706   8.472  -0.253
10022X2IT   H1642899   2.662   8.568  -0.112
10022X2IT    N242900   2.556   8.070   0.191
10022X2IT    C342901   2.494   7.938   0.174
10022X2IT    C242902   2.369   7.949   0.260
10022X2IT    H242903   2.320   7.858   0.295
10022X2IT    N142904   2.289   8.068   0.227
10022X2IT   H1442905   2.193   8.055   0.259
10022X2IT    C142906   2.378   8.071   0.344
10022X2IT    H142907   2.337   8.077   0.444
10022X2IT   C1142908   2.512   8.137   0.317
10022X2IT    O342909   2.592   8.100   0.427
10022X2IT   C1542910   2.734   8.114   0.412
10023X2IT   H1842911   3.800   2.807   1.344
10023X2IT    N442912   3.756   2.886   1.302
10023X2IT   H1742913   3.732   2.963   1.362
10023X2IT   C1442914   3.788   2.911   1.172
10023X2IT    O542915   3.843   2.833   1.096
10023X2IT    O442916   3.746   3.037   1.137
10023X2IT   C1342917   3.768   3.075   0.999
10023X2IT   C1042918   3.656   3.022   0.908
10023X2IT    C942919   3.671   3.066   0.764
10023X2IT    C442920   3.559   3.136   0.723
10023X2IT    C542921   3.542   3.194   0.586
10023X2IT    O142922   3.436   3.252   0.557
10023X2IT    C642923   3.652   3.177   0.494
10023X2IT   C1242924   3.642   3.234   0.354
10023X2IT    C742925   3.764   3.106   0.535
10023X2IT    C842926   3.780   3.046   0.675
10023X2IT    O242927   3.886   2.989   0.702
10023X2IT    N342928   3.871   3.083   0.457
10023X2IT   H1542929   3.878   3.117   0.362
10023X2IT   H1642930   3.949   3.031   0.498
10023X2IT    N242931   3.463   3.139   0.819
10023X2IT    C342932   3.366   3.246   0.847
10023X2IT    C242933   3.400   3.283   0.991
10023X2IT    H242934   3.326   3.336   1.052
10023X2IT    N142935   3.544   3.311   1.009
10023X2IT   H1442936   3.557   3.368   1.094
10023X2IT    C142937   3.490   3.180   1.049
10023X2IT    H142938   3.487   3.150   1.153
10023X2IT   C1142939   3.511   3.072   0.943
10023X2IT    O342940   3.425   2.967   0.984
10023X2IT   C1542941   3.392   2.868   0.886
10024X2IT   H1842942   0.360   2.646   0.787
10024X2IT    N442943   0.447   2.656   0.738
10024X2IT   H1742944   0.478   2.576   0.684
10024X2IT   C1442945   0.481   2.781   0.697
10024X2IT    O542946   0.430   2.885   0.737
10024X2IT    O442947   0.583   2.775   0.607
10024X2IT   C1342948   0.634   2.901   0.560
10024X2IT   C1042949   0.736   2.961   0.658
10024X2IT    C942950   0.797   3.091   0.609
10024X2IT    C442951   0.935   3.079   0.601
10024X2IT    C542952   1.026   3.189   0.555
10024X2IT    O142953   1.149   3.170   0.555
10024X2IT    C642954   0.963   3.312   0.514
10024X2IT   C1242955   1.050   3.426   0.466
10024X2IT    C742956   0.826   3.324   0.522
10024X2IT    C842957   0.734   3.211   0.570
10024X2IT    O242958   0.612   3.232   0.569
10024X2IT    N342959   0.758   3.435   0.488
10024X2IT   H1542960   0.803   3.517   0.452
10024X2IT   H1642961   0.656   3.432   0.497
10024X2IT    N242962   0.979   2.959   0.648
10024X2IT    C342963   1.094   2.880   0.602
10024X2IT    C242964   1.029   2.750   0.557
10024X2IT    H242965   1.090   2.660   0.549
10024X2IT    N142966   0.918   2.773   0.463
10024X2IT   H1442967   0.900   2.687   0.409
10024X2IT    C142968   0.889   2.746   0.605
10024X2IT    H142969   0.839   2.655   0.635
10024X2IT   C1142970   0.863   2.872   0.686
10024X2IT    O342971   0.872   2.829   0.821
10024X2IT   C1542972   0.891   2.930   0.921
10025X2IT   H1842973   6.001   2.411   0.330
10025X2IT    N442974   5.972   2.507   0.339
10025X2IT   H1742975   5.986   2.567   0.259
10025X2IT   C1442976   5.867   2.531   0.423
10025X2IT    O542977   5.824   2.453   0.506
10025X2IT    O442978   5.819   2.657   0.403
10025X2IT   C1342979   5.712   2.699   0.490
10025X2IT   C1042980   5.765   2.751   0.625
10025X2IT    C942981   5.656   2.802   0.716
10025X2IT    C442982   5.680   2.934   0.749
10025X2IT    C542983   5.590   3.016   0.838
10025X2IT    O142984   5.621   3.132   0.866
10025X2IT    C642985   5.471   2.950   0.886
10025X2IT   C1242986   5.376   3.027   0.976
10025X2IT    C742987   5.447   2.818   0.854
10025X2IT    C842988   5.540   2.736   0.764
10025X2IT    O242989   5.507   2.619   0.737
10025X2IT    N342990   5.341   2.749   0.896
10025X2IT   H1542991   5.269   2.788   0.954
10025X2IT   H1642992   5.332   2.652   0.864
10025X2IT    N242993   5.798   2.979   0.699
10025X2IT    C342994   5.831   3.115   0.654
10025X2IT    C242995   5.869   3.091   0.508
10025X2IT    H242996   5.929   3.165   0.455
10025X2IT    N142997   5.764   3.016   0.434
10025X2IT   H1442998   5.775   3.032   0.334
10025X2IT    C142999   5.885   2.946   0.484
10025X2IT    H143000   5.957   2.905   0.414
10025X2IT   C1143001   5.863   2.874   0.616
10025X2IT    O343002   5.993   2.844   0.661
10025X2IT   C1543003   6.009   2.811   0.799
   9.48825   8.49895   6.94186
