UNITED ATOM STRUCTURE FOR MOLECULE UNK
12529
    0X2IT   H18    1   3.092   2.352   2.583
    0X2IT    N4    2   3.026   2.419   2.548
    0X2IT   H17    3   3.059   2.484   2.478
    0X2IT   C14    4   2.895   2.380   2.546
    0X2IT    O5    5   2.849   2.285   2.607
    0X2IT    O4    6   2.822   2.466   2.469
    0X2IT   C13    7   2.680   2.441   2.463
    0X2IT   C10    8   2.607   2.502   2.584
    0X2IT    C9    9   2.457   2.484   2.578
    0X2IT    C4   10   2.394   2.607   2.582
    0X2IT    C5   11   2.245   2.625   2.577
    0X2IT    O1   12   2.197   2.739   2.585
    0X2IT    C6   13   2.166   2.505   2.564
    0X2IT   C12   14   2.015   2.516   2.558
    0X2IT    C7   15   2.229   2.382   2.561
    0X2IT    C8   16   2.381   2.365   2.567
    0X2IT    O2   17   2.427   2.250   2.559
    0X2IT    N3   18   2.164   2.265   2.551
    0X2IT   H15   19   2.064   2.258   2.544
    0X2IT   H16   20   2.221   2.180   2.548
    0X2IT    N2   21   2.482   2.709   2.599
    0X2IT    C3   22   2.473   2.846   2.546
    0X2IT    C2   23   2.599   2.856   2.461
    0X2IT    H2   24   2.639   2.954   2.435
    0X2IT    N1   25   2.611   2.744   2.365
    0X2IT   H14   26   2.674   2.771   2.289
    0X2IT    C1   27   2.688   2.741   2.491
    0X2IT    H1   28   2.796   2.748   2.490
    0X2IT   C11   29   2.622   2.658   2.600
    0X2IT    O3   30   2.691   2.695   2.718
    0X2IT   C15   31   2.628   2.664   2.843
    1X2IT   H18   32   1.024   1.962   1.735
    1X2IT    N4   33   1.045   1.867   1.712
    1X2IT   H17   34   1.007   1.796   1.774
    1X2IT   C14   35   1.062   1.837   1.580
    1X2IT    O5   36   1.081   1.919   1.492
    1X2IT    O4   37   1.058   1.702   1.561
    1X2IT   C13   38   1.081   1.656   1.426
    1X2IT   C10   39   1.231   1.647   1.395
    1X2IT    C9   40   1.260   1.592   1.257
    1X2IT    C4   41   1.339   1.479   1.266
    1X2IT    C5   42   1.385   1.399   1.147
    1X2IT    O1   43   1.458   1.301   1.164
    1X2IT    C6   44   1.340   1.445   1.018
    1X2IT   C12   45   1.382   1.369   0.894
    1X2IT    C7   46   1.262   1.559   1.009
    1X2IT    C8   47   1.216   1.639   1.131
    1X2IT    O2   48   1.143   1.737   1.111
    1X2IT    N3   49   1.217   1.610   0.893
    1X2IT   H15   50   1.236   1.568   0.804
    1X2IT   H16   51   1.158   1.693   0.899
    1X2IT    N2   52   1.376   1.452   1.394
    1X2IT    C3   53   1.398   1.321   1.456
    1X2IT    C2   54   1.296   1.321   1.569
    1X2IT    H2   55   1.309   1.254   1.654
    1X2IT    N1   56   1.160   1.355   1.522
    1X2IT   H14   57   1.092   1.321   1.590
    1X2IT    C1   58   1.243   1.459   1.587
    1X2IT    H1   59   1.215   1.499   1.683
    1X2IT   C11   60   1.314   1.550   1.488
    1X2IT    O3   61   1.411   1.617   1.566
    1X2IT   C15   62   1.518   1.681   1.496
    2X2IT   H18   63   2.856   1.564   4.192
    2X2IT    N4   64   2.810   1.498   4.253
    2X2IT   H17   65   2.761   1.535   4.333
    2X2IT   C14   66   2.763   1.384   4.194
    2X2IT    O5   67   2.796   1.343   4.084
    2X2IT    O4   68   2.678   1.319   4.280
    2X2IT   C13   69   2.625   1.193   4.234
    2X2IT   C10   70   2.724   1.078   4.261
    2X2IT    C9   71   2.670   0.943   4.220
    2X2IT    C4   72   2.668   0.858   4.329
    2X2IT    C5   73   2.619   0.716   4.324
    2X2IT    O1   74   2.625   0.645   4.426
    2X2IT    C6   75   2.569   0.670   4.197
    2X2IT   C12   76   2.518   0.528   4.185
    2X2IT    C7   77   2.571   0.755   4.088
    2X2IT    C8   78   2.622   0.899   4.095
    2X2IT    O2   79   2.616   0.968   3.991
    2X2IT    N3   80   2.529   0.720   3.965
    2X2IT   H15   81   2.490   0.630   3.944
    2X2IT   H16   82   2.534   0.792   3.892
    2X2IT    N2   83   2.723   0.915   4.440
    2X2IT    C3   84   2.686   0.893   4.581
    2X2IT    C2   85   2.646   1.034   4.625
    2X2IT    H2   86   2.645   1.059   4.731
    2X2IT    N1   87   2.546   1.095   4.534
    2X2IT   H14   88   2.497   1.170   4.583
    2X2IT    C1   89   2.688   1.132   4.522
    2X2IT    H1   90   2.722   1.232   4.546
    2X2IT   C11   91   2.761   1.056   4.412
    2X2IT    O3   92   2.898   1.080   4.439
    2X2IT   C15   93   2.993   0.992   4.378
    3X2IT   H18   94   2.691   0.363   3.545
    3X2IT    N4   95   2.780   0.357   3.501
    3X2IT   H17   96   2.855   0.314   3.555
    3X2IT   C14   97   2.781   0.344   3.365
    3X2IT    O5   98   2.686   0.367   3.292
    3X2IT    O4   99   2.905   0.305   3.322
    3X2IT   C13  100   2.922   0.294   3.180
    3X2IT   C10  101   2.952   0.431   3.116
    3X2IT    C9  102   2.978   0.423   2.967
    3X2IT    C4  103   3.103   0.473   2.938
    3X2IT    C5  104   3.161   0.479   2.799
    3X2IT    O1  105   3.273   0.529   2.781
    3X2IT    C6  106   3.079   0.425   2.693
    3X2IT   C12  107   3.131   0.428   2.551
    3X2IT    C7  108   2.953   0.376   2.723
    3X2IT    C8  109   2.896   0.371   2.864
    3X2IT    O2  110   2.783   0.321   2.880
    3X2IT    N3  111   2.869   0.326   2.631
    3X2IT   H15  112   2.892   0.319   2.533
    3X2IT   H16  113   2.779   0.291   2.664
    3X2IT    N2  114   3.165   0.524   3.047
    3X2IT    C3  115   3.310   0.525   3.077
    3X2IT    C2  116   3.316   0.446   3.208
    3X2IT    H2  117   3.402   0.456   3.273
    3X2IT    N1  118   3.247   0.316   3.198
    3X2IT   H14  119   3.281   0.253   3.271
    3X2IT    C1  120   3.178   0.430   3.262
    3X2IT    H1  121   3.157   0.428   3.368
    3X2IT   C11  122   3.083   0.503   3.169
    3X2IT    O3  123   3.055   0.624   3.236
    3X2IT   C15  124   2.999   0.731   3.159
    4X2IT   H18  125   0.981   2.406   2.461
    4X2IT    N4  126   0.918   2.475   2.499
    4X2IT   H17  127   0.828   2.442   2.531
    4X2IT   C14  128   0.977   2.581   2.561
    4X2IT    O5  129   1.094   2.614   2.551
    4X2IT    O4  130   0.883   2.649   2.634
    4X2IT   C13  131   0.929   2.769   2.701
    4X2IT   C10  132   0.929   2.890   2.606
    4X2IT    C9  133   0.970   3.018   2.673
    4X2IT    C4  134   0.870   3.113   2.661
    4X2IT    C5  135   0.878   3.252   2.718
    4X2IT    O1  136   0.785   3.331   2.699
    4X2IT    C6  137   0.997   3.284   2.792
    4X2IT   C12  138   1.012   3.422   2.852
    4X2IT    C7  139   1.098   3.190   2.803
    4X2IT    C8  140   1.089   3.049   2.744
    4X2IT    O2  141   1.183   2.971   2.765
    4X2IT    N3  142   1.213   3.212   2.869
    4X2IT   H15  143   1.235   3.298   2.915
    4X2IT   H16  144   1.280   3.134   2.872
    4X2IT    N2  145   0.767   3.068   2.585
    4X2IT    C3  146   0.624   3.100   2.598
    4X2IT    C2  147   0.562   2.963   2.622
    4X2IT    H2  148   0.456   2.948   2.604
    4X2IT    N1  149   0.628   2.890   2.733
    4X2IT   H14  150   0.565   2.818   2.768
    4X2IT    C1  151   0.662   2.858   2.593
    4X2IT    H1  152   0.636   2.762   2.550
    4X2IT   C11  153   0.789   2.927   2.544
    4X2IT    O3  154   0.785   2.911   2.403
    4X2IT   C15  155   0.869   2.997   2.325
    5X2IT   H18  156   5.172   2.232   3.228
    5X2IT    N4  157   5.090   2.287   3.247
    5X2IT   H17  158   5.085   2.378   3.205
    5X2IT   C14  159   4.975   2.217   3.271
    5X2IT    O5  160   4.969   2.098   3.297
    5X2IT    O4  161   4.868   2.301   3.264
    5X2IT   C13  162   4.739   2.243   3.294
    5X2IT   C10  163   4.713   2.236   3.445
    5X2IT    C9  164   4.577   2.182   3.480
    5X2IT    C4  165   4.506   2.274   3.555
    5X2IT    C5  166   4.366   2.252   3.605
    5X2IT    O1  167   4.312   2.339   3.675
    5X2IT    C6  168   4.304   2.127   3.569
    5X2IT   C12  169   4.163   2.098   3.616
    5X2IT    C7  170   4.375   2.034   3.494
    5X2IT    C8  171   4.517   2.058   3.444
    5X2IT    O2  172   4.570   1.970   3.375
    5X2IT    N3  173   4.325   1.915   3.457
    5X2IT   H15  174   4.233   1.884   3.480
    5X2IT   H16  175   4.386   1.855   3.401
    5X2IT    N2  176   4.581   2.383   3.585
    5X2IT    C3  177   4.535   2.522   3.600
    5X2IT    C2  178   4.615   2.595   3.492
    5X2IT    H2  179   4.629   2.703   3.499
    5X2IT    N1  180   4.601   2.530   3.360
    5X2IT   H14  181   4.625   2.598   3.287
    5X2IT    C1  182   4.721   2.505   3.441
    5X2IT    H1  183   4.818   2.541   3.409
    5X2IT   C11  184   4.715   2.375   3.520
    5X2IT    O3  185   4.820   2.386   3.614
    5X2IT   C15  186   4.816   2.298   3.727
    6X2IT   H18  187   4.772   3.309   1.066
    6X2IT    N4  188   4.759   3.340   0.972
    6X2IT   H17  189   4.838   3.382   0.925
    6X2IT   C14  190   4.667   3.271   0.898
    6X2IT    O5  191   4.583   3.195   0.943
    6X2IT    O4  192   4.682   3.301   0.765
    6X2IT   C13  193   4.587   3.240   0.675
    6X2IT   C10  194   4.455   3.320   0.670
    6X2IT    C9  195   4.355   3.263   0.572
    6X2IT    C4  196   4.321   3.358   0.478
    6X2IT    C5  197   4.224   3.334   0.366
    6X2IT    O1  198   4.197   3.427   0.288
    6X2IT    C6  199   4.169   3.202   0.356
    6X2IT   C12  200   4.071   3.170   0.244
    6X2IT    C7  201   4.202   3.106   0.450
    6X2IT    C8  202   4.300   3.132   0.565
    6X2IT    O2  203   4.327   3.038   0.641
    6X2IT    N3  204   4.154   2.981   0.450
    6X2IT   H15  205   4.090   2.946   0.380
    6X2IT   H16  206   4.187   2.918   0.524
    6X2IT    N2  207   4.378   3.479   0.504
    6X2IT    C3  208   4.423   3.580   0.408
    6X2IT    C2  209   4.572   3.591   0.440
    6X2IT    H2  210   4.627   3.680   0.410
    6X2IT    N1  211   4.639   3.459   0.440
    6X2IT   H14  212   4.740   3.472   0.427
    6X2IT    C1  213   4.600   3.522   0.568
    6X2IT    H1  214   4.675   3.555   0.638
    6X2IT   C11  215   4.468   3.469   0.623
    6X2IT    O3  216   4.433   3.562   0.723
    6X2IT   C15  217   4.297   3.563   0.767
    7X2IT   H18  218   3.597   3.579   4.931
    7X2IT    N4  219   3.598   3.509   4.859
    7X2IT   H17  220   3.682   3.503   4.802
    7X2IT   C14  221   3.525   3.396   4.881
    7X2IT    O5  222   3.439   3.384   4.966
    7X2IT    O4  223   3.560   3.299   4.791
    7X2IT   C13  224   3.486   3.176   4.799
    7X2IT   C10  225   3.353   3.185   4.723
    7X2IT    C9  226   3.275   3.055   4.723
    7X2IT    C4  227   3.252   3.014   4.593
    7X2IT    C5  228   3.178   2.888   4.557
    7X2IT    O1  229   3.159   2.860   4.438
    7X2IT    C6  230   3.133   2.806   4.667
    7X2IT   C12  231   3.059   2.677   4.638
    7X2IT    C7  232   3.156   2.848   4.797
    7X2IT    C8  233   3.230   2.977   4.832
    7X2IT    O2  234   3.249   3.003   4.952
    7X2IT    N3  235   3.116   2.780   4.906
    7X2IT   H15  236   3.067   2.692   4.901
    7X2IT   H16  237   3.140   2.820   4.997
    7X2IT    N2  238   3.297   3.104   4.502
    7X2IT    C3  239   3.352   3.077   4.368
    7X2IT    C2  240   3.491   3.137   4.378
    7X2IT    H2  241   3.546   3.163   4.287
    7X2IT    N1  242   3.565   3.086   4.496
    7X2IT   H14  243   3.666   3.100   4.481
    7X2IT    C1  244   3.501   3.219   4.501
    7X2IT    H1  245   3.561   3.309   4.508
    7X2IT   C11  246   3.365   3.218   4.569
    7X2IT    O3  247   3.308   3.342   4.535
    7X2IT   C15  248   3.166   3.355   4.551
    8X2IT   H18  249  -0.185   3.935   2.869
    8X2IT    N4  250  -0.126   4.003   2.914
    8X2IT   H17  251  -0.105   3.987   3.012
    8X2IT   C14  252  -0.035   4.067   2.836
    8X2IT    O5  253  -0.037   4.070   2.714
    8X2IT    O4  254   0.057   4.131   2.914
    8X2IT   C13  255   0.157   4.209   2.844
    8X2IT   C10  256   0.103   4.349   2.808
    8X2IT    C9  257   0.207   4.436   2.740
    8X2IT    C4  258   0.226   4.552   2.813
    8X2IT    C5  259   0.323   4.660   2.774
    8X2IT    O1  260   0.331   4.763   2.843
    8X2IT    C6  261   0.401   4.637   2.655
    8X2IT   C12  262   0.501   4.742   2.611
    8X2IT    C7  263   0.382   4.521   2.582
    8X2IT    C8  264   0.282   4.412   2.622
    8X2IT    O2  265   0.276   4.310   2.552
    8X2IT    N3  266   0.448   4.492   2.470
    8X2IT   H15  267   0.519   4.551   2.430
    8X2IT   H16  268   0.427   4.402   2.425
    8X2IT    N2  269   0.141   4.560   2.919
    8X2IT    C3  270   0.167   4.623   3.050
    8X2IT    C2  271   0.148   4.505   3.145
    8X2IT    H2  272   0.127   4.524   3.251
    8X2IT    N1  273   0.229   4.388   3.106
    8X2IT   H14  274   0.242   4.327   3.187
    8X2IT    C1  275   0.086   4.392   3.072
    8X2IT    H1  276   0.016   4.323   3.119
    8X2IT   C11  277   0.058   4.437   2.930
    8X2IT    O3  278  -0.080   4.466   2.929
    8X2IT   C15  279  -0.129   4.547   2.821
    9X2IT   H18  280   3.972   1.691   5.341
    9X2IT    N4  281   4.045   1.697   5.273
    9X2IT   H17  282   4.117   1.626   5.276
    9X2IT   C14  283   4.012   1.751   5.152
    9X2IT    O5  284   3.912   1.817   5.130
    9X2IT    O4  285   4.109   1.724   5.060
    9X2IT   C13  286   4.090   1.781   4.929
    9X2IT   C10  287   4.138   1.927   4.924
    9X2IT    C9  288   4.127   1.989   4.786
    9X2IT    C4  289   4.250   2.032   4.743
    9X2IT    C5  290   4.274   2.098   4.609
    9X2IT    O1  291   4.388   2.137   4.580
    9X2IT    C6  292   4.160   2.111   4.523
    9X2IT   C12  293   4.177   2.176   4.387
    9X2IT    C7  294   4.036   2.068   4.567
    9X2IT    C8  295   4.013   2.003   4.703
    9X2IT    O2  296   3.898   1.964   4.730
    9X2IT    N3  297   3.923   2.078   4.494
    9X2IT   H15  298   3.921   2.117   4.401
    9X2IT   H16  299   3.837   2.041   4.536
    9X2IT    N2  300   4.346   2.017   4.837
    9X2IT    C3  301   4.489   1.987   4.818
    9X2IT    C2  302   4.505   1.855   4.892
    9X2IT    H2  303   4.604   1.823   4.925
    9X2IT    N1  304   4.405   1.754   4.850
    9X2IT   H14  305   4.439   1.661   4.874
    9X2IT    C1  306   4.384   1.830   4.975
    9X2IT    H1  307   4.387   1.781   5.071
    9X2IT   C11  308   4.291   1.949   4.958
    9X2IT    O3  309   4.310   2.026   5.075
    9X2IT   C15  310   4.266   2.162   5.073
   10X2IT   H18  311   3.790   0.776  -0.463
   10X2IT    N4  312   3.819   0.824  -0.380
   10X2IT   H17  313   3.853   0.919  -0.391
   10X2IT   C14  314   3.756   0.789  -0.264
   10X2IT    O5  315   3.689   0.688  -0.248
   10X2IT    O4  316   3.781   0.881  -0.167
   10X2IT   C13  317   3.726   0.854  -0.037
   10X2IT   C10  318   3.816   0.758   0.043
   10X2IT    C9  319   3.765   0.732   0.183
   10X2IT    C4  320   3.861   0.769   0.277
   10X2IT    C5  321   3.842   0.756   0.425
   10X2IT    O1  322   3.934   0.788   0.501
   10X2IT    C6  323   3.714   0.706   0.470
   10X2IT   C12  324   3.688   0.692   0.618
   10X2IT    C7  325   3.619   0.669   0.377
   10X2IT    C8  326   3.640   0.681   0.225
   10X2IT    O2  327   3.546   0.649   0.151
   10X2IT    N3  328   3.498   0.620   0.409
   10X2IT   H15  329   3.467   0.607   0.503
   10X2IT   H16  330   3.435   0.597   0.331
   10X2IT    N2  331   3.976   0.809   0.218
   10X2IT    C3  332   4.071   0.911   0.266
   10X2IT    C2  333   4.070   1.012   0.152
   10X2IT    H2  334   4.153   1.082   0.141
   10X2IT    N1  335   3.933   1.054   0.115
   10X2IT   H14  336   3.937   1.144   0.066
   10X2IT    C1  337   4.002   0.952   0.034
   10X2IT    H1  338   4.031   0.974  -0.068
   10X2IT   C11  339   3.963   0.810   0.070
   10X2IT    O3  340   4.061   0.730   0.007
   10X2IT   C15  341   4.075   0.595   0.053
   11X2IT   H18  342   2.660   1.885   3.980
   11X2IT    N4  343   2.568   1.911   4.008
   11X2IT   H17  344   2.494   1.842   3.995
   11X2IT   C14  345   2.558   1.998   4.112
   11X2IT    O5  346   2.649   2.067   4.155
   11X2IT    O4  347   2.430   2.001   4.160
   11X2IT   C13  348   2.403   2.094   4.266
   11X2IT   C10  349   2.376   2.235   4.212
   11X2IT    C9  350   2.341   2.335   4.320
   11X2IT    C4  351   2.216   2.390   4.295
   11X2IT    C5  352   2.151   2.493   4.383
   11X2IT    O1  353   2.041   2.540   4.351
   11X2IT    C6  354   2.223   2.531   4.502
   11X2IT   C12  355   2.163   2.633   4.596
   11X2IT    C7  356   2.348   2.476   4.527
   11X2IT    C8  357   2.414   2.372   4.435
   11X2IT    O2  358   2.524   2.327   4.469
   11X2IT    N3  359   2.423   2.506   4.633
   11X2IT   H15  360   2.394   2.571   4.705
   11X2IT   H16  361   2.513   2.458   4.642
   11X2IT    N2  362   2.164   2.348   4.177
   11X2IT    C3  363   2.022   2.326   4.144
   11X2IT    C2  364   2.020   2.178   4.108
   11X2IT    H2  365   1.939   2.138   4.047
   11X2IT    N1  366   2.082   2.094   4.213
   11X2IT   H14  367   2.049   1.997   4.203
   11X2IT    C1  368   2.160   2.129   4.092
   11X2IT    H1  369   2.188   2.053   4.020
   11X2IT   C11  370   2.253   2.247   4.113
   11X2IT    O3  371   2.291   2.285   3.982
   11X2IT   C15  372   2.347   2.416   3.966
   12X2IT   H18  373   1.823   4.671   2.129
   12X2IT    N4  374   1.836   4.678   2.228
   12X2IT   H17  375   1.925   4.712   2.261
   12X2IT   C14  376   1.724   4.705   2.302
   12X2IT    O5  377   1.609   4.693   2.262
   12X2IT    O4  378   1.759   4.742   2.428
   12X2IT   C13  379   1.650   4.767   2.520
   12X2IT   C10  380   1.599   4.637   2.583
   12X2IT    C9  381   1.489   4.659   2.685
   12X2IT    C4  382   1.526   4.607   2.807
   12X2IT    C5  383   1.441   4.614   2.930
   12X2IT    O1  384   1.481   4.561   3.035
   12X2IT    C6  385   1.314   4.681   2.918
   12X2IT   C12  386   1.223   4.691   3.038
   12X2IT    C7  387   1.276   4.732   2.795
   12X2IT    C8  388   1.364   4.724   2.670
   12X2IT    O2  389   1.322   4.777   2.566
   12X2IT    N3  390   1.160   4.795   2.772
   12X2IT   H15  391   1.091   4.810   2.844
   12X2IT   H16  392   1.143   4.830   2.678
   12X2IT    N2  393   1.646   4.543   2.801
   12X2IT    C3  394   1.749   4.534   2.906
   12X2IT    C2  395   1.869   4.598   2.839
   12X2IT    H2  396   1.970   4.578   2.877
   12X2IT    N1  397   1.838   4.732   2.784
   12X2IT   H14  398   1.924   4.785   2.772
   12X2IT    C1  399   1.842   4.614   2.694
   12X2IT    H1  400   1.919   4.606   2.619
   12X2IT   C11  401   1.705   4.555   2.665
   12X2IT    O3  402   1.734   4.429   2.609
   12X2IT   C15  403   1.627   4.333   2.606
   13X2IT   H18  404   1.358   3.404   0.614
   13X2IT    N4  405   1.272   3.450   0.592
   13X2IT   H17  406   1.257   3.477   0.496
   13X2IT   C14  407   1.164   3.416   0.669
   13X2IT    O5  408   1.169   3.357   0.776
   13X2IT    O4  409   1.049   3.460   0.610
   13X2IT   C13  410   0.927   3.437   0.683
   13X2IT   C10  411   0.904   3.545   0.790
   13X2IT    C9  412   0.773   3.529   0.865
   13X2IT    C4  413   0.695   3.642   0.851
   13X2IT    C5  414   0.559   3.658   0.911
   13X2IT    O1  415   0.497   3.764   0.897
   13X2IT    C6  416   0.508   3.545   0.986
   13X2IT   C12  417   0.371   3.554   1.050
   13X2IT    C7  418   0.586   3.432   1.001
   13X2IT    C8  419   0.725   3.418   0.939
   13X2IT    O2  420   0.785   3.310   0.955
   13X2IT    N3  421   0.548   3.323   1.069
   13X2IT   H15  422   0.459   3.315   1.115
   13X2IT   H16  423   0.614   3.245   1.072
   13X2IT    N2  424   0.759   3.740   0.782
   13X2IT    C3  425   0.701   3.840   0.692
   13X2IT    C2  426   0.772   3.811   0.560
   13X2IT    H2  427   0.776   3.887   0.483
   13X2IT    N1  428   0.763   3.668   0.522
   13X2IT   H14  429   0.779   3.658   0.422
   13X2IT    C1  430   0.886   3.719   0.586
   13X2IT    H1  431   0.979   3.724   0.530
   13X2IT   C11  432   0.893   3.693   0.735
   13X2IT    O3  433   0.997   3.777   0.780
   13X2IT   C15  434   1.003   3.804   0.921
   14X2IT   H18  435   2.655   1.166   1.073
   14X2IT    N4  436   2.626   1.258   1.046
   14X2IT   H17  437   2.626   1.279   0.947
   14X2IT   C14  438   2.534   1.319   1.127
   14X2IT    O5  439   2.507   1.285   1.240
   14X2IT    O4  440   2.481   1.428   1.063
   14X2IT   C13  441   2.388   1.507   1.139
   14X2IT   C10  442   2.460   1.607   1.230
   14X2IT    C9  443   2.365   1.697   1.307
   14X2IT    C4  444   2.391   1.829   1.278
   14X2IT    C5  445   2.314   1.944   1.336
   14X2IT    O1  446   2.347   2.061   1.308
   14X2IT    C6  447   2.205   1.911   1.425
   14X2IT   C12  448   2.124   2.022   1.488
   14X2IT    C7  449   2.180   1.778   1.455
   14X2IT    C8  450   2.260   1.662   1.395
   14X2IT    O2  451   2.226   1.547   1.425
   14X2IT    N3  452   2.083   1.737   1.538
   14X2IT   H15  453   2.020   1.801   1.584
   14X2IT   H16  454   2.072   1.636   1.551
   14X2IT    N2  455   2.499   1.844   1.197
   14X2IT    C3  456   2.521   1.947   1.094
   14X2IT    C2  457   2.536   1.863   0.967
   14X2IT    H2  458   2.586   1.906   0.880
   14X2IT    N1  459   2.424   1.769   0.949
   14X2IT   H14  460   2.418   1.741   0.851
   14X2IT    C1  461   2.552   1.720   1.004
   14X2IT    H1  462   2.614   1.651   0.948
   14X2IT   C11  463   2.552   1.711   1.156
   14X2IT    O3  464   2.689   1.697   1.189
   14X2IT   C15  465   2.727   1.724   1.325
   15X2IT   H18  466   2.425   3.578   4.219
   15X2IT    N4  467   2.462   3.565   4.312
   15X2IT   H17  468   2.559   3.589   4.327
   15X2IT   C14  469   2.374   3.579   4.415
   15X2IT    O5  470   2.252   3.578   4.404
   15X2IT    O4  471   2.441   3.589   4.533
   15X2IT   C13  472   2.360   3.598   4.652
   15X2IT   C10  473   2.316   3.459   4.701
   15X2IT    C9  474   2.237   3.463   4.829
   15X2IT    C4  475   2.299   3.386   4.926
   15X2IT    C5  476   2.246   3.370   5.066
   15X2IT    O1  477   2.307   3.296   5.145
   15X2IT    C6  478   2.126   3.442   5.099
   15X2IT   C12  479   2.068   3.430   5.238
   15X2IT    C7  480   2.063   3.517   5.001
   15X2IT    C8  481   2.117   3.533   4.859
   15X2IT    O2  482   2.055   3.607   4.781
   15X2IT    N3  483   1.950   3.586   5.022
   15X2IT   H15  484   1.902   3.589   5.110
   15X2IT   H16  485   1.913   3.640   4.943
   15X2IT    N2  486   2.408   3.322   4.878
   15X2IT    C3  487   2.532   3.289   4.950
   15X2IT    C2  488   2.637   3.363   4.868
   15X2IT    H2  489   2.742   3.332   4.874
   15X2IT    N1  490   2.603   3.505   4.848
   15X2IT   H14  491   2.688   3.558   4.825
   15X2IT    C1  492   2.577   3.408   4.740
   15X2IT    H1  493   2.632   3.413   4.647
   15X2IT   C11  494   2.433   3.360   4.736
   15X2IT    O3  495   2.437   3.246   4.651
   15X2IT   C15  496   2.327   3.156   4.658
   16X2IT   H18  497   4.248   3.155   3.242
   16X2IT    N4  498   4.196   3.215   3.181
   16X2IT   H17  499   4.186   3.311   3.210
   16X2IT   C14  500   4.200   3.185   3.048
   16X2IT    O5  501   4.237   3.079   3.001
   16X2IT    O4  502   4.152   3.291   2.975
   16X2IT   C13  503   4.145   3.271   2.832
   16X2IT   C10  504   4.015   3.197   2.793
   16X2IT    C9  505   4.000   3.180   2.643
   16X2IT    C4  506   3.882   3.239   2.601
   16X2IT    C5  507   3.837   3.241   2.458
   16X2IT    O1  508   3.727   3.292   2.429
   16X2IT    C6  509   3.925   3.181   2.361
   16X2IT   C12  510   3.885   3.180   2.215
   16X2IT    C7  511   4.042   3.121   2.404
   16X2IT    C8  512   4.087   3.119   2.550
   16X2IT    O2  513   4.197   3.067   2.577
   16X2IT    N3  514   4.130   3.061   2.322
   16X2IT   H15  515   4.117   3.055   2.222
   16X2IT   H16  516   4.214   3.022   2.364
   16X2IT    N2  517   3.809   3.287   2.704
   16X2IT    C3  518   3.720   3.405   2.706
   16X2IT    C2  519   3.784   3.491   2.814
   16X2IT    H2  520   3.725   3.569   2.862
   16X2IT    N1  521   3.929   3.512   2.791
   16X2IT   H14  522   3.960   3.595   2.842
   16X2IT    C1  523   3.884   3.411   2.889
   16X2IT    H1  524   3.902   3.424   2.995
   16X2IT   C11  525   3.881   3.269   2.833
   16X2IT    O3  526   3.805   3.196   2.928
   16X2IT   C15  527   3.753   3.070   2.885
   17X2IT   H18  528   3.237   1.656   3.597
   17X2IT    N4  529   3.232   1.555   3.599
   17X2IT   H17  530   3.242   1.508   3.510
   17X2IT   C14  531   3.274   1.494   3.713
   17X2IT    O5  532   3.291   1.548   3.820
   17X2IT    O4  533   3.291   1.360   3.690
   17X2IT   C13  534   3.330   1.280   3.804
   17X2IT   C10  535   3.207   1.241   3.889
   17X2IT    C9  536   3.243   1.152   4.006
   17X2IT    C4  537   3.173   1.033   3.998
   17X2IT    C5  538   3.185   0.922   4.098
   17X2IT    O1  539   3.115   0.820   4.085
   17X2IT    C6  540   3.279   0.942   4.206
   17X2IT   C12  541   3.297   0.833   4.310
   17X2IT    C7  542   3.348   1.061   4.214
   17X2IT    C8  543   3.334   1.174   4.112
   17X2IT    O2  544   3.405   1.275   4.127
   17X2IT    N3  545   3.436   1.089   4.311
   17X2IT   H15  546   3.459   1.025   4.385
   17X2IT   H16  547   3.483   1.180   4.306
   17X2IT    N2  548   3.085   1.032   3.894
   17X2IT    C3  549   3.044   0.917   3.812
   17X2IT    C2  550   3.087   0.960   3.672
   17X2IT    H2  551   3.042   0.913   3.585
   17X2IT    N1  552   3.229   1.002   3.668
   17X2IT   H14  553   3.264   0.996   3.572
   17X2IT    C1  554   3.123   1.104   3.674
   17X2IT    H1  555   3.105   1.170   3.590
   17X2IT   C11  556   3.097   1.157   3.814
   17X2IT    O3  557   2.974   1.225   3.803
   17X2IT   C15  558   2.904   1.253   3.925
   18X2IT   H18  559   3.944   4.272   0.046
   18X2IT    N4  560   3.991   4.204   0.103
   18X2IT   H17  561   3.932   4.141   0.156
   18X2IT   C14  562   4.113   4.161   0.059
   18X2IT    O5  563   4.181   4.217  -0.025
   18X2IT    O4  564   4.150   4.049   0.127
   18X2IT   C13  565   4.280   3.996   0.096
   18X2IT   C10  566   4.391   4.068   0.175
   18X2IT    C9  567   4.528   4.011   0.151
   18X2IT    C4  568   4.585   3.969   0.270
   18X2IT    C5  569   4.721   3.907   0.281
   18X2IT    O1  570   4.765   3.876   0.393
   18X2IT    C6  571   4.793   3.887   0.158
   18X2IT   C12  572   4.931   3.824   0.162
   18X2IT    C7  573   4.737   3.930   0.038
   18X2IT    C8  574   4.599   3.994   0.029
   18X2IT    O2  575   4.556   4.024  -0.084
   18X2IT    N3  576   4.797   3.918  -0.081
   18X2IT   H15  577   4.888   3.876  -0.093
   18X2IT   H16  578   4.746   3.951  -0.163
   18X2IT    N2  579   4.506   3.999   0.376
   18X2IT    C3  580   4.491   3.923   0.501
   18X2IT    C2  581   4.342   3.890   0.501
   18X2IT    H2  582   4.292   3.863   0.594
   18X2IT    N1  583   4.299   3.827   0.374
   18X2IT   H14  584   4.212   3.776   0.390
   18X2IT    C1  585   4.274   3.970   0.397
   18X2IT    H1  586   4.173   4.008   0.408
   18X2IT   C11  587   4.378   4.060   0.332
   18X2IT    O3  588   4.356   4.187   0.392
   18X2IT   C15  589   4.462   4.283   0.381
   19X2IT   H18  590   2.253   4.629   0.807
   19X2IT    N4  591   2.185   4.594   0.872
   19X2IT   H17  592   2.190   4.495   0.894
   19X2IT   C14  593   2.141   4.681   0.968
   19X2IT    O5  594   2.154   4.802   0.964
   19X2IT    O4  595   2.075   4.613   1.066
   19X2IT   C13  596   2.016   4.694   1.171
   19X2IT   C10  597   1.879   4.748   1.129
   19X2IT    C9  598   1.811   4.827   1.239
   19X2IT    C4  599   1.688   4.771   1.269
   19X2IT    C5  600   1.595   4.825   1.374
   19X2IT    O1  601   1.485   4.771   1.392
   19X2IT    C6  602   1.641   4.940   1.448
   19X2IT   C12  603   1.553   4.999   1.556
   19X2IT    C7  604   1.763   4.997   1.417
   19X2IT    C8  605   1.857   4.941   1.309
   19X2IT    O2  606   1.966   4.998   1.293
   19X2IT    N3  607   1.814   5.105   1.479
   19X2IT   H15  608   1.766   5.152   1.554
   19X2IT   H16  609   1.906   5.137   1.449
   19X2IT    N2  610   1.658   4.667   1.188
   19X2IT    C3  611   1.581   4.546   1.221
   19X2IT    C2  612   1.683   4.435   1.194
   19X2IT    H2  613   1.648   4.333   1.177
   19X2IT    N1  614   1.811   4.459   1.264
   19X2IT   H14  615   1.861   4.370   1.272
   19X2IT    C1  616   1.799   4.492   1.120
   19X2IT    H1  617   1.854   4.436   1.046
   19X2IT   C11  618   1.771   4.639   1.094
   19X2IT    O3  619   1.730   4.643   0.959
   19X2IT   C15  620   1.660   4.760   0.915
   20X2IT   H18  621   1.596   0.918   3.789
   20X2IT    N4  622   1.620   1.004   3.836
   20X2IT   H17  623   1.574   1.088   3.803
   20X2IT   C14  624   1.654   0.993   3.967
   20X2IT    O5  625   1.685   0.890   4.024
   20X2IT    O4  626   1.653   1.117   4.026
   20X2IT   C13  627   1.695   1.122   4.164
   20X2IT   C10  628   1.848   1.128   4.176
   20X2IT    C9  629   1.895   1.141   4.319
   20X2IT    C4  630   1.972   1.255   4.334
   20X2IT    C5  631   2.034   1.298   4.464
   20X2IT    O1  632   2.105   1.399   4.467
   20X2IT    C6  633   2.007   1.215   4.579
   20X2IT   C12  634   2.066   1.252   4.713
   20X2IT    C7  635   1.931   1.100   4.564
   20X2IT    C8  636   1.869   1.057   4.431
   20X2IT    O2  637   1.799   0.955   4.430
   20X2IT    N3  638   1.902   1.016   4.664
   20X2IT   H15  639   1.933   1.030   4.759
   20X2IT   H16  640   1.843   0.935   4.642
   20X2IT    N2  641   1.992   1.319   4.216
   20X2IT    C3  642   2.006   1.463   4.193
   20X2IT    C2  643   1.889   1.492   4.099
   20X2IT    H2  644   1.891   1.582   4.037
   20X2IT    N1  645   1.761   1.441   4.152
   20X2IT   H14  646   1.684   1.491   4.106
   20X2IT    C1  647   1.834   1.364   4.049
   20X2IT    H1  648   1.793   1.352   3.949
   20X2IT   C11  649   1.917   1.251   4.106
   20X2IT    O3  650   2.002   1.213   4.000
   20X2IT   C15  651   2.118   1.136   4.033
   21X2IT   H18  652   3.426   5.014   3.847
   21X2IT    N4  653   3.522   4.998   3.822
   21X2IT   H17  654   3.591   5.009   3.895
   21X2IT   C14  655   3.545   4.908   3.722
   21X2IT    O5  656   3.462   4.867   3.644
   21X2IT    O4  657   3.678   4.873   3.720
   21X2IT   C13  658   3.718   4.783   3.615
   21X2IT   C10  659   3.745   4.858   3.484
   21X2IT    C9  660   3.795   4.768   3.373
   21X2IT    C4  661   3.918   4.811   3.327
   21X2IT    C5  662   3.995   4.744   3.218
   21X2IT    O1  663   4.103   4.792   3.181
   21X2IT    C6  664   3.937   4.625   3.162
   21X2IT   C12  665   4.010   4.551   3.051
   21X2IT    C7  666   3.813   4.582   3.207
   21X2IT    C8  667   3.735   4.652   3.317
   21X2IT    O2  668   3.627   4.602   3.353
   21X2IT    N3  669   3.750   4.473   3.159
   21X2IT   H15  670   3.788   4.414   3.087
   21X2IT   H16  671   3.659   4.450   3.201
   21X2IT    N2  672   3.957   4.927   3.387
   21X2IT    C3  673   4.093   4.970   3.420
   21X2IT    C2  674   4.086   4.986   3.572
   21X2IT    H2  675   4.160   5.048   3.623
   21X2IT    N1  676   4.032   4.866   3.639
   21X2IT   H14  677   4.061   4.866   3.737
   21X2IT    C1  678   3.944   4.982   3.615
   21X2IT    H1  679   3.906   5.040   3.698
   21X2IT   C11  680   3.858   4.968   3.491
   21X2IT    O3  681   3.809   5.099   3.468
   21X2IT   C15  682   3.756   5.127   3.338
   22X2IT   H18  683   4.432  -0.175   3.650
   22X2IT    N4  684   4.442  -0.093   3.707
   22X2IT   H17  685   4.481  -0.010   3.663
   22X2IT   C14  686   4.350  -0.077   3.807
   22X2IT    O5  687   4.278  -0.165   3.850
   22X2IT    O4  688   4.355   0.051   3.855
   22X2IT   C13  689   4.268   0.080   3.966
   22X2IT   C10  690   4.332   0.038   4.100
   22X2IT    C9  691   4.247   0.073   4.220
   22X2IT    C4  692   4.318   0.154   4.306
   22X2IT    C5  693   4.262   0.208   4.435
   22X2IT    O1  694   4.334   0.277   4.508
   22X2IT    C6  695   4.125   0.174   4.465
   22X2IT   C12  696   4.063   0.226   4.594
   22X2IT    C7  697   4.055   0.092   4.379
   22X2IT    C8  698   4.113   0.037   4.249
   22X2IT    O2  699   4.039  -0.032   4.177
   22X2IT    N3  700   3.928   0.054   4.400
   22X2IT   H15  701   3.874   0.082   4.480
   22X2IT   H16  702   3.885  -0.006   4.329
   22X2IT    N2  703   4.446   0.173   4.265
   22X2IT    C3  704   4.530   0.292   4.283
   22X2IT    C2  705   4.562   0.331   4.139
   22X2IT    H2  706   4.648   0.394   4.118
   22X2IT    N1  707   4.440   0.342   4.056
   22X2IT   H14  708   4.460   0.400   3.974
   22X2IT    C1  709   4.522   0.220   4.049
   22X2IT    H1  710   4.577   0.196   3.958
   22X2IT   C11  711   4.469   0.106   4.134
   22X2IT    O3  712   4.577   0.014   4.140
   22X2IT   C15  713   4.573  -0.085   4.243
   23X2IT   H18  714   4.913   0.701   4.824
   23X2IT    N4  715   4.881   0.795   4.809
   23X2IT   H17  716   4.945   0.870   4.831
   23X2IT   C14  717   4.790   0.813   4.709
   23X2IT    O5  718   4.725   0.725   4.656
   23X2IT    O4  719   4.779   0.946   4.680
   23X2IT   C13  720   4.680   0.981   4.580
   23X2IT   C10  721   4.540   0.992   4.641
   23X2IT    C9  722   4.435   1.036   4.541
   23X2IT    C4  723   4.373   1.152   4.583
   23X2IT    C5  724   4.265   1.222   4.507
   23X2IT    O1  725   4.213   1.324   4.554
   23X2IT    C6  726   4.228   1.165   4.380
   23X2IT   C12  727   4.119   1.231   4.297
   23X2IT    C7  728   4.289   1.048   4.338
   23X2IT    C8  729   4.398   0.977   4.417
   23X2IT    O2  730   4.449   0.875   4.368
   23X2IT    N3  731   4.259   0.986   4.222
   23X2IT   H15  732   4.191   1.020   4.157
   23X2IT   H16  733   4.312   0.901   4.200
   23X2IT    N2  734   4.416   1.191   4.706
   23X2IT    C3  735   4.431   1.328   4.758
   23X2IT    C2  736   4.580   1.334   4.791
   23X2IT    H2  737   4.617   1.409   4.861
   23X2IT    N1  738   4.664   1.292   4.676
   23X2IT   H14  739   4.759   1.330   4.689
   23X2IT    C1  740   4.637   1.197   4.786
   23X2IT    H1  741   4.717   1.164   4.851
   23X2IT   C11  742   4.524   1.100   4.755
   23X2IT    O3  743   4.492   1.043   4.880
   23X2IT   C15  744   4.365   0.977   4.892
   24X2IT   H18  745   1.530   4.469   0.370
   24X2IT    N4  746   1.438   4.446   0.337
   24X2IT   H17  747   1.391   4.515   0.280
   24X2IT   C14  748   1.411   4.314   0.316
   24X2IT    O5  749   1.478   4.221   0.358
   24X2IT    O4  750   1.297   4.300   0.243
   24X2IT   C13  751   1.253   4.165   0.218
   24X2IT   C10  752   1.173   4.109   0.337
   24X2IT    C9  753   1.119   3.970   0.312
   24X2IT    C4  754   0.981   3.969   0.325
   24X2IT    C5  755   0.896   3.847   0.306
   24X2IT    O1  756   0.774   3.855   0.324
   24X2IT    C6  757   0.965   3.726   0.269
   24X2IT   C12  758   0.885   3.599   0.248
   24X2IT    C7  759   1.103   3.726   0.257
   24X2IT    C8  760   1.188   3.851   0.278
   24X2IT    O2  761   1.311   3.842   0.260
   24X2IT    N3  762   1.175   3.618   0.225
   24X2IT   H15  763   1.135   3.528   0.206
   24X2IT   H16  764   1.277   3.631   0.217
   24X2IT    N2  765   0.933   4.090   0.365
   24X2IT    C3  766   0.804   4.152   0.330
   24X2IT    C2  767   0.848   4.280   0.261
   24X2IT    H2  768   0.778   4.364   0.253
   24X2IT    N1  769   0.946   4.256   0.153
   24X2IT   H14  770   0.947   4.335   0.089
   24X2IT    C1  771   0.993   4.302   0.286
   24X2IT    H1  772   1.037   4.401   0.297
   24X2IT   C11  773   1.043   4.190   0.375
   24X2IT    O3  774   1.050   4.249   0.504
   24X2IT   C15  775   1.056   4.160   0.616
   25X2IT   H18  776   0.415   0.398   2.082
   25X2IT    N4  777   0.477   0.452   2.025
   25X2IT   H17  778   0.564   0.484   2.067
   25X2IT   C14  779   0.475   0.426   1.891
   25X2IT    O5  780   0.387   0.364   1.833
   25X2IT    O4  781   0.584   0.483   1.830
   25X2IT   C13  782   0.591   0.469   1.687
   25X2IT   C10  783   0.506   0.576   1.616
   25X2IT    C9  784   0.517   0.569   1.465
   25X2IT    C4  785   0.563   0.689   1.415
   25X2IT    C5  786   0.586   0.716   1.269
   25X2IT    O1  787   0.624   0.828   1.232
   25X2IT    C6  788   0.560   0.606   1.178
   25X2IT   C12  789   0.581   0.626   1.030
   25X2IT    C7  790   0.513   0.486   1.229
   25X2IT    C8  791   0.489   0.461   1.378
   25X2IT    O2  792   0.451   0.348   1.412
   25X2IT    N3  793   0.484   0.379   1.152
   25X2IT   H15  794   0.496   0.378   1.053
   25X2IT   H16  795   0.452   0.295   1.201
   25X2IT    N2  796   0.578   0.783   1.512
   25X2IT    C3  797   0.678   0.891   1.519
   25X2IT    C2  798   0.751   0.858   1.649
   25X2IT    H2  799   0.807   0.936   1.700
   25X2IT    N1  800   0.798   0.718   1.653
   25X2IT   H14  801   0.873   0.710   1.722
   25X2IT    C1  802   0.674   0.756   1.724
   25X2IT    H1  803   0.669   0.754   1.832
   25X2IT   C11  804   0.548   0.725   1.646
   25X2IT    O3  805   0.446   0.797   1.713
   25X2IT   C15  806   0.324   0.820   1.642
   26X2IT   H18  807   3.876   2.251   3.246
   26X2IT    N4  808   3.894   2.233   3.149
   26X2IT   H17  809   3.922   2.139   3.124
   26X2IT   C14  810   3.823   2.307   3.059
   26X2IT    O5  811   3.762   2.410   3.085
   26X2IT    O4  812   3.835   2.253   2.934
   26X2IT   C13  813   3.770   2.325   2.827
   26X2IT   C10  814   3.859   2.439   2.775
   26X2IT    C9  815   3.798   2.513   2.658
   26X2IT    C4  816   3.882   2.507   2.549
   26X2IT    C5  817   3.852   2.570   2.416
   26X2IT    O1  818   3.935   2.563   2.325
   26X2IT    C6  819   3.724   2.636   2.404
   26X2IT   C12  820   3.686   2.701   2.272
   26X2IT    C7  821   3.640   2.642   2.513
   26X2IT    C8  822   3.673   2.579   2.648
   26X2IT    O2  823   3.588   2.586   2.739
   26X2IT    N3  824   3.520   2.703   2.512
   26X2IT   H15  825   3.482   2.748   2.431
   26X2IT   H16  826   3.465   2.700   2.599
   26X2IT    N2  827   4.000   2.446   2.578
   26X2IT    C3  828   4.084   2.364   2.490
   26X2IT    C2  829   4.086   2.230   2.563
   26X2IT    H2  830   4.165   2.158   2.541
   26X2IT    N1  831   3.950   2.182   2.596
   26X2IT   H14  832   3.953   2.081   2.612
   26X2IT    C1  833   4.032   2.248   2.700
   26X2IT    H1  834   4.069   2.192   2.785
   26X2IT   C11  835   3.999   2.395   2.718
   26X2IT    O3  836   4.108   2.446   2.794
   26X2IT   C15  837   4.126   2.588   2.795
   27X2IT   H18  838   1.959   4.965   2.467
   27X2IT    N4  839   2.036   4.995   2.410
   27X2IT   H17  840   2.121   5.021   2.459
   27X2IT   C14  841   2.046   4.940   2.286
   27X2IT    O5  842   1.956   4.881   2.228
   27X2IT    O4  843   2.169   4.964   2.233
   27X2IT   C13  844   2.192   4.917   2.098
   27X2IT   C10  845   2.138   5.018   1.995
   27X2IT    C9  846   2.166   4.976   1.852
   27X2IT    C4  847   2.239   5.073   1.787
   27X2IT    C5  848   2.284   5.063   1.644
   27X2IT    O1  849   2.347   5.157   1.593
   27X2IT    C6  850   2.250   4.941   1.575
   27X2IT   C12  851   2.293   4.924   1.430
   27X2IT    C7  852   2.176   4.844   1.639
   27X2IT    C8  853   2.130   4.856   1.785
   27X2IT    O2  854   2.067   4.761   1.834
   27X2IT    N3  855   2.137   4.729   1.582
   27X2IT   H15  856   2.161   4.704   1.488
   27X2IT   H16  857   2.084   4.663   1.640
   27X2IT    N2  858   2.259   5.183   1.865
   27X2IT    C3  859   2.376   5.272   1.866
   27X2IT    C2  860   2.424   5.259   2.010
   27X2IT    H2  861   2.488   5.336   2.053
   27X2IT    N1  862   2.444   5.118   2.050
   27X2IT   H14  863   2.507   5.113   2.130
   27X2IT    C1  864   2.321   5.189   2.091
   27X2IT    H1  865   2.303   5.212   2.195
   27X2IT   C11  866   2.202   5.161   2.001
   27X2IT    O3  867   2.109   5.262   2.035
   27X2IT   C15  868   2.002   5.287   1.943
   28SOL     OW  869   0.230   0.628   0.113
   28SOL    HW1  870   0.137   0.626   0.150
   28SOL    HW2  871   0.231   0.589   0.021
   29SOL     OW  872   0.225   0.275   0.996
   29SOL    HW1  873   0.260   0.258   1.088
   29SOL    HW2  874   0.137   0.230   0.984
   30SOL     OW  875   0.019   0.368   0.647
   30SOL    HW1  876  -0.063   0.411   0.686
   30SOL    HW2  877  -0.009   0.295   0.584
   31SOL     OW  878   0.569   1.275   1.165
   31SOL    HW1  879   0.476   1.268   1.128
   31SOL    HW2  880   0.580   1.364   1.209
   32SOL     OW  881   1.555   1.511   0.703
   32SOL    HW1  882   1.498   1.495   0.784
   32SOL    HW2  883   1.496   1.521   0.623
   33SOL     OW  884   1.135   0.703   0.717
   33SOL    HW1  885   1.192   0.781   0.692
   33SOL    HW2  886   1.075   0.729   0.793
   34SOL     OW  887   1.755   0.607   0.231
   34SOL    HW1  888   1.743   0.594   0.132
   34SOL    HW2  889   1.725   0.526   0.280
   35SOL     OW  890   0.768   1.144   1.023
   35SOL    HW1  891   0.690   1.161   1.083
   35SOL    HW2  892   0.802   1.231   0.987
   36SOL     OW  893   0.685   1.012   0.665
   36SOL    HW1  894   0.754   0.996   0.735
   36SOL    HW2  895   0.612   1.069   0.703
   37SOL     OW  896   0.686   1.161   1.803
   37SOL    HW1  897   0.746   1.240   1.817
   37SOL    HW2  898   0.600   1.192   1.762
   38SOL     OW  899   0.335   1.435   1.061
   38SOL    HW1  900   0.257   1.404   1.008
   38SOL    HW2  901   0.393   1.493   1.004
   39SOL     OW  902   1.603   0.447   0.737
   39SOL    HW1  903   1.529   0.493   0.687
   39SOL    HW2  904   1.654   0.515   0.790
   40SOL     OW  905   0.231   1.713   0.483
   40SOL    HW1  906   0.265   1.790   0.537
   40SOL    HW2  907   0.275   1.713   0.393
   41SOL     OW  908   0.230   1.434   0.538
   41SOL    HW1  909   0.204   1.530   0.538
   41SOL    HW2  910   0.159   1.380   0.583
   42SOL     OW  911   0.240   1.091   0.886
   42SOL    HW1  912   0.254   1.007   0.938
   42SOL    HW2  913   0.185   1.155   0.941
   43SOL     OW  914   0.620   1.786   1.439
   43SOL    HW1  915   0.528   1.769   1.474
   43SOL    HW2  916   0.648   1.878   1.465
   44SOL     OW  917   0.606   0.964   0.123
   44SOL    HW1  918   0.613   1.048   0.069
   44SOL    HW2  919   0.652   0.977   0.211
   45SOL     OW  920   1.594   0.114   1.480
   45SOL    HW1  921   1.576   0.181   1.408
   45SOL    HW2  922   1.591   0.160   1.569
   46SOL     OW  923   0.122   0.643   0.563
   46SOL    HW1  924   0.077   0.555   0.580
   46SOL    HW2  925   0.121   0.697   0.647
   47SOL     OW  926   1.842   1.767   0.359
   47SOL    HW1  927   1.896   1.738   0.439
   47SOL    HW2  928   1.872   1.857   0.330
   48SOL     OW  929   0.027   1.596   0.117
   48SOL    HW1  930   0.008   1.500   0.138
   48SOL    HW2  931  -0.006   1.654   0.192
   49SOL     OW  932   1.689   0.922   0.612
   49SOL    HW1  933   1.784   0.893   0.620
   49SOL    HW2  934   1.681   0.987   0.537
   50SOL     OW  935   1.641   1.108   0.432
   50SOL    HW1  936   1.727   1.110   0.380
   50SOL    HW2  937   1.655   1.155   0.520
   51SOL     OW  938   0.613   1.365   0.726
   51SOL    HW1  939   0.564   1.278   0.735
   51SOL    HW2  940   0.590   1.408   0.639
   52SOL     OW  941   0.809   0.004   0.502
   52SOL    HW1  942   0.849   0.095   0.493
   52SOL    HW2  943   0.709   0.012   0.508
   53SOL     OW  944   0.197   0.976   1.264
   53SOL    HW1  945   0.286   0.931   1.250
   53SOL    HW2  946   0.124   0.911   1.245
   54SOL     OW  947   1.525   0.999   0.190
   54SOL    HW1  948   1.462   0.923   0.203
   54SOL    HW2  949   1.573   1.017   0.276
   55SOL     OW  950   1.667   1.714   0.572
   55SOL    HW1  951   1.626   1.691   0.484
   55SOL    HW2  952   1.649   1.640   0.637
   56SOL     OW  953   0.598   0.729   0.270
   56SOL    HW1  954   0.622   0.798   0.202
   56SOL    HW2  955   0.520   0.762   0.324
   57SOL     OW  956   1.281   0.345   0.944
   57SOL    HW1  957   1.195   0.295   0.931
   57SOL    HW2  958   1.343   0.291   1.000
   58SOL     OW  959   1.576   1.662   0.307
   58SOL    HW1  960   1.665   1.708   0.310
   58SOL    HW2  961   1.555   1.638   0.212
   59SOL     OW  962   0.807   0.605   1.465
   59SOL    HW1  963   0.760   0.602   1.554
   59SOL    HW2  964   0.756   0.550   1.399
   60SOL     OW  965   1.394   0.469   1.674
   60SOL    HW1  966   1.374   0.512   1.762
   60SOL    HW2  967   1.472   0.407   1.683
   61SOL     OW  968   0.973   0.890   1.572
   61SOL    HW1  969   1.019   0.806   1.543
   61SOL    HW2  970   0.917   0.924   1.497
   62SOL     OW  971   0.991   0.410   1.242
   62SOL    HW1  972   0.914   0.444   1.296
   62SOL    HW2  973   0.957   0.359   1.163
   63SOL     OW  974   1.041   0.701   0.429
   63SOL    HW1  975   1.067   0.697   0.525
   63SOL    HW2  976   0.956   0.650   0.415
   64SOL     OW  977   0.076   0.811   0.789
   64SOL    HW1  978   0.175   0.799   0.798
   64SOL    HW2  979   0.052   0.906   0.810
   65SOL     OW  980   0.130   1.821   1.571
   65SOL    HW1  981   0.120   1.806   1.670
   65SOL    HW2  982   0.044   1.857   1.535
   66SOL     OW  983   0.865   0.348   0.195
   66SOL    HW1  984   0.924   0.411   0.146
   66SOL    HW2  985   0.884   0.254   0.166
   67SOL     OW  986   1.719   0.585   1.831
   67SOL    HW1  987   1.693   0.674   1.795
   67SOL    HW2  988   1.717   0.517   1.758
   68SOL     OW  989   1.362   1.144   0.545
   68SOL    HW1  990   1.445   1.115   0.497
   68SOL    HW2  991   1.313   1.211   0.489
   69SOL     OW  992   0.550   0.196   0.885
   69SOL    HW1  993   0.545   0.191   0.985
   69SOL    HW2  994   0.552   0.292   0.856
   70SOL     OW  995   1.008   1.456   0.477
   70SOL    HW1  996   0.962   1.528   0.425
   70SOL    HW2  997   1.004   1.476   0.575
   71SOL     OW  998   0.351   1.801   0.853
   71SOL    HW1  999   0.401   1.715   0.859
   71SOL    HW2 1000   0.416   1.878   0.850
   72SOL     OW 1001   1.795   1.066   0.873
   72SOL    HW1 1002   1.733   1.051   0.797
   72SOL    HW2 1003   1.743   1.077   0.958
   73SOL     OW 1004   0.321   0.943   0.242
   73SOL    HW1 1005   0.403   0.982   0.200
   73SOL    HW2 1006   0.294   0.861   0.193
   74SOL     OW 1007   1.458   0.735   0.728
   74SOL    HW1 1008   1.453   0.670   0.803
   74SOL    HW2 1009   1.538   0.794   0.741
   75SOL     OW 1010   0.461   1.266   1.727
   75SOL    HW1 1011   0.411   1.267   1.641
   75SOL    HW2 1012   0.398   1.248   1.803
   76SOL     OW 1013   1.111   1.776   0.237
   76SOL    HW1 1014   1.051   1.714   0.287
   76SOL    HW2 1015   1.142   1.732   0.152
   77SOL     OW 1016   0.202   0.285   1.498
   77SOL    HW1 1017   0.122   0.345   1.485
   77SOL    HW2 1018   0.192   0.236   1.584
   78SOL     OW 1019   1.632   1.377   0.081
   78SOL    HW1 1020   1.600   1.471   0.071
   78SOL    HW2 1021   1.556   1.314   0.069
   79SOL     OW 1022   0.464   1.743   0.323
   79SOL    HW1 1023   0.497   1.782   0.409
   79SOL    HW2 1024   0.540   1.736   0.258
   80SOL     OW 1025   1.400   0.107   0.426
   80SOL    HW1 1026   1.376   0.070   0.336
   80SOL    HW2 1027   1.499   0.123   0.430
   81SOL     OW 1028   0.249   1.785   1.241
   81SOL    HW1 1029   0.306   1.720   1.291
   81SOL    HW2 1030   0.233   1.752   1.148
   82SOL     OW 1031   0.940   1.698   0.904
   82SOL    HW1 1032   1.020   1.641   0.925
   82SOL    HW2 1033   0.891   1.658   0.827
   83SOL     OW 1034   0.382   0.700   0.480
   83SOL    HW1 1035   0.427   0.610   0.477
   83SOL    HW2 1036   0.288   0.689   0.513
   84SOL     OW 1037   1.547   0.222   1.729
   84SOL    HW1 1038   1.542   0.259   1.821
   84SOL    HW2 1039   1.475   0.153   1.717
   85SOL     OW 1040   0.614   0.122   0.117
   85SOL    HW1 1041   0.712   0.100   0.124
   85SOL    HW2 1042   0.583   0.105   0.024
   86SOL     OW 1043   0.781   0.264   1.749
   86SOL    HW1 1044   0.848   0.203   1.792
   86SOL    HW2 1045   0.708   0.283   1.814
   87SOL     OW 1046   0.888   1.514   1.195
   87SOL    HW1 1047   0.865   1.489   1.101
   87SOL    HW2 1048   0.949   1.445   1.234
   88SOL     OW 1049   1.351   0.590   1.433
   88SOL    HW1 1050   1.379   0.547   1.518
   88SOL    HW2 1051   1.376   0.686   1.434
   89SOL     OW 1052   0.803   1.402   0.924
   89SOL    HW1 1053   0.893   1.416   0.882
   89SOL    HW2 1054   0.732   1.404   0.853
   90SOL     OW 1055   0.922   0.503   0.899
   90SOL    HW1 1056   0.897   0.494   0.803
   90SOL    HW2 1057   0.970   0.421   0.930
   91SOL     OW 1058   0.539   0.064   0.512
   91SOL    HW1 1059   0.458   0.065   0.570
   91SOL    HW2 1060   0.542   0.147   0.457
   92SOL     OW 1061   1.434   1.188   0.041
   92SOL    HW1 1062   1.466   1.112   0.098
   92SOL    HW2 1063   1.342   1.215   0.071
   93SOL     OW 1064   0.297   0.035   0.171
   93SOL    HW1 1065   0.346   0.119   0.150
   93SOL    HW2 1066   0.359  -0.030   0.216
   94SOL     OW 1067   0.935   0.236   0.480
   94SOL    HW1 1068   0.887   0.277   0.402
   94SOL    HW2 1069   1.034   0.234   0.461
   95SOL     OW 1070   1.076   0.683   1.464
   95SOL    HW1 1071   0.996   0.622   1.467
   95SOL    HW2 1072   1.157   0.630   1.440
   96SOL     OW 1073   0.459   1.152   0.741
   96SOL    HW1 1074   0.388   1.125   0.806
   96SOL    HW2 1075   0.433   1.124   0.648
   97SOL     OW 1076   1.271   1.797   0.591
   97SOL    HW1 1077   1.315   1.861   0.527
   97SOL    HW2 1078   1.221   1.849   0.661
   98SOL     OW 1079   1.032   0.549   0.016
   98SOL    HW1 1080   0.991   0.631  -0.023
   98SOL    HW2 1081   1.096   0.575   0.089
   99SOL     OW 1082   0.078   0.556   1.386
   99SOL    HW1 1083   0.170   0.555   1.345
   99SOL    HW2 1084   0.072   0.630   1.453
  100SOL     OW 1085   0.866   0.454   0.642
  100SOL    HW1 1086   0.834   0.526   0.580
  100SOL    HW2 1087   0.890   0.373   0.589
  101SOL     OW 1088   1.017   0.039   0.753
  101SOL    HW1 1089   0.945   0.044   0.684
  101SOL    HW2 1090   0.993  -0.030   0.822
  102SOL     OW 1091   1.429   1.173   0.867
  102SOL    HW1 1092   1.374   1.089   0.860
  102SOL    HW2 1093   1.455   1.202   0.775
  103SOL     OW 1094   1.466   0.590   0.992
  103SOL    HW1 1095   1.436   0.495   0.999
  103SOL    HW2 1096   1.539   0.606   1.058
  104SOL     OW 1097   1.857   0.833   0.377
  104SOL    HW1 1098   1.899   0.769   0.441
  104SOL    HW2 1099   1.819   0.782   0.299
  105SOL     OW 1100   0.488   1.385   0.174
  105SOL    HW1 1101   0.401   1.370   0.221
  105SOL    HW2 1102   0.471   1.411   0.079
  106SOL     OW 1103   1.664   1.280   0.657
  106SOL    HW1 1104   1.763   1.288   0.671
  106SOL    HW2 1105   1.619   1.364   0.688
  107SOL     OW 1106   1.390   0.575   0.078
  107SOL    HW1 1107   1.336   0.554   0.159
  107SOL    HW2 1108   1.481   0.534   0.087
  108SOL     OW 1109   0.527   0.256   0.328
  108SOL    HW1 1110   0.554   0.197   0.253
  108SOL    HW2 1111   0.527   0.351   0.297
  109SOL     OW 1112   1.754   1.223   1.588
  109SOL    HW1 1113   1.845   1.184   1.575
  109SOL    HW2 1114   1.762   1.319   1.612
  110SOL     OW 1115   1.111   1.195   1.100
  110SOL    HW1 1116   1.071   1.239   1.181
  110SOL    HW2 1117   1.070   1.232   1.017
  111SOL     OW 1118   1.638   1.099   1.079
  111SOL    HW1 1119   1.643   1.180   1.138
  111SOL    HW2 1120   1.552   1.101   1.028
  112SOL     OW 1121   0.915   0.089   1.402
  112SOL    HW1 1122   0.940   0.069   1.307
  112SOL    HW2 1123   0.987   0.145   1.444
  113SOL     OW 1124   0.980   1.116   1.719
  113SOL    HW1 1125   0.881   1.122   1.729
  113SOL    HW2 1126   1.003   1.036   1.663
  114SOL     OW 1127   0.705   1.050   0.368
  114SOL    HW1 1128   0.691   1.057   0.467
  114SOL    HW2 1129   0.789   0.999   0.350
  115SOL     OW 1130   1.274   0.386   1.262
  115SOL    HW1 1131   1.295   0.460   1.326
  115SOL    HW2 1132   1.185   0.403   1.219
  116SOL     OW 1133   0.064   1.564   1.331
  116SOL    HW1 1134   0.018   1.646   1.297
  116SOL    HW2 1135   0.162   1.583   1.340
  117SOL     OW 1136   0.367   1.100   0.501
  117SOL    HW1 1137   0.360   1.183   0.445
  117SOL    HW2 1138   0.371   1.020   0.441
  118SOL     OW 1139   1.252   1.348   0.388
  118SOL    HW1 1140   1.302   1.425   0.428
  118SOL    HW2 1141   1.157   1.350   0.420
  119SOL     OW 1142   1.582   0.639   0.472
  119SOL    HW1 1143   1.551   0.700   0.545
  119SOL    HW2 1144   1.632   0.691   0.403
  120SOL     OW 1145   0.354   1.510   1.329
  120SOL    HW1 1146   0.333   1.466   1.242
  120SOL    HW2 1147   0.451   1.536   1.332
  121SOL     OW 1148   1.587   0.779   1.670
  121SOL    HW1 1149   1.495   0.817   1.665
  121SOL    HW2 1150   1.647   0.826   1.605
  122SOL     OW 1151   1.013   0.105   1.770
  122SOL    HW1 1152   1.019   0.190   1.718
  122SOL    HW2 1153   1.045   0.029   1.713
  123SOL     OW 1154   0.504   0.050   1.740
  123SOL    HW1 1155   0.462  -0.007   1.670
  123SOL    HW2 1156   0.438   0.119   1.772
  124SOL     OW 1157   0.573   0.870   1.029
  124SOL    HW1 1158   0.617   0.959   1.020
  124SOL    HW2 1159   0.510   0.870   1.106
  125SOL     OW 1160   1.360   0.862   1.045
  125SOL    HW1 1161   1.285   0.862   0.979
  125SOL    HW2 1162   1.397   0.770   1.054
  126SOL     OW 1163   1.209   0.525   0.275
  126SOL    HW1 1164   1.222   0.441   0.329
  126SOL    HW2 1165   1.180   0.599   0.335
  127SOL     OW 1166   0.307   0.213   1.231
  127SOL    HW1 1167   0.284   0.250   1.321
  127SOL    HW2 1168   0.277   0.118   1.225
  128SOL     OW 1169   0.037   1.310   1.282
  128SOL    HW1 1170   0.090   1.261   1.350
  128SOL    HW2 1171   0.059   1.408   1.287
  129SOL     OW 1172   1.728   0.935   1.854
  129SOL    HW1 1173   1.682   0.928   1.765
  129SOL    HW2 1174   1.666   0.979   1.920
  130SOL     OW 1175   0.307   0.063   0.618
  130SOL    HW1 1176   0.296   0.157   0.651
  130SOL    HW2 1177   0.302   0.000   0.695
  131SOL     OW 1178   1.622   0.367   0.374
  131SOL    HW1 1179   1.624   0.291   0.438
  131SOL    HW2 1180   1.574   0.444   0.414
  132SOL     OW 1181   1.023   0.766   0.966
  132SOL    HW1 1182   1.038   0.787   1.062
  132SOL    HW2 1183   0.993   0.671   0.957
  133SOL     OW 1184   1.859   1.518   1.605
  133SOL    HW1 1185   1.873   1.545   1.510
  133SOL    HW2 1186   1.942   1.540   1.658
  134SOL     OW 1187   1.540   0.274   0.125
  134SOL    HW1 1188   1.479   0.199   0.148
  134SOL    HW2 1189   1.562   0.326   0.208
  135SOL     OW 1190   1.303   0.838   0.042
  135SOL    HW1 1191   1.337   0.745   0.057
  135SOL    HW2 1192   1.321   0.865  -0.053
  136SOL     OW 1193   1.068   1.333   0.849
  136SOL    HW1 1194   1.075   1.249   0.794
  136SOL    HW2 1195   1.130   1.402   0.813
  137SOL     OW 1196   0.319   0.810   0.949
  137SOL    HW1 1197   0.412   0.846   0.954
  137SOL    HW2 1198   0.313   0.725   1.001
  138SOL     OW 1199   0.339   0.509   1.006
  138SOL    HW1 1200   0.287   0.426   0.989
  138SOL    HW2 1201   0.416   0.514   0.942
  139SOL     OW 1202   1.138   0.380   1.678
  139SOL    HW1 1203   1.093   0.443   1.742
  139SOL    HW2 1204   1.231   0.411   1.661
  140SOL     OW 1205   1.160   0.207   1.477
  140SOL    HW1 1206   1.160   0.271   1.554
  140SOL    HW2 1207   1.188   0.255   1.394
  141SOL     OW 1208   0.008   1.326   0.200
  141SOL    HW1 1209  -0.085   1.347   0.169
  141SOL    HW2 1210   0.018   1.227   0.213
  142SOL     OW 1211   0.088   1.801   0.927
  142SOL    HW1 1212   0.046   1.715   0.900
  142SOL    HW2 1213   0.182   1.804   0.893
  143SOL     OW 1214   0.504   1.568   0.910
  143SOL    HW1 1215   0.570   1.642   0.919
  143SOL    HW2 1216   0.548   1.489   0.868
  144SOL     OW 1217   1.002   0.796   1.238
  144SOL    HW1 1218   1.043   0.764   1.324
  144SOL    HW2 1219   0.906   0.769   1.235
  145SOL     OW 1220   0.040   0.544   1.114
  145SOL    HW1 1221   0.125   0.511   1.073
  145SOL    HW2 1222   0.053   0.559   1.212
  146SOL     OW 1223   0.189   0.520   1.722
  146SOL    HW1 1224   0.248   0.480   1.652
  146SOL    HW2 1225   0.131   0.591   1.681
  147SOL     OW 1226   1.369   0.950   1.660
  147SOL    HW1 1227   1.408   1.039   1.680
  147SOL    HW2 1228   1.379   0.930   1.563
  148SOL     OW 1229   0.815   0.572   0.325
  148SOL    HW1 1230   0.822   0.483   0.279
  148SOL    HW2 1231   0.721   0.606   0.317
  149SOL     OW 1232   1.657   0.604   1.206
  149SOL    HW1 1233   1.619   0.535   1.268
  149SOL    HW2 1234   1.739   0.568   1.162
  150SOL     OW 1235   0.252   1.564   1.744
  150SOL    HW1 1236   0.222   1.621   1.820
  150SOL    HW2 1237   0.245   1.467   1.770
  151SOL     OW 1238   0.473   0.500   0.191
  151SOL    HW1 1239   0.534   0.580   0.195
  151SOL    HW2 1240   0.378   0.531   0.198
  152SOL     OW 1241   0.159   1.137   1.466
  152SOL    HW1 1242   0.181   1.076   1.542
  152SOL    HW2 1243   0.169   1.088   1.380
  153SOL     OW 1244   1.347   1.059   1.234
  153SOL    HW1 1245   1.371   0.996   1.160
  153SOL    HW2 1246   1.257   1.099   1.216
  154SOL     OW 1247   1.302   0.855   0.309
  154SOL    HW1 1248   1.216   0.824   0.351
  154SOL    HW2 1249   1.298   0.841   0.210
  155SOL     OW 1250   1.759   1.747   1.154
  155SOL    HW1 1251   1.820   1.777   1.081
  155SOL    HW2 1252   1.721   1.658   1.132
  156SOL     OW 1253   0.083   1.258   1.022
  156SOL    HW1 1254   0.078   1.257   1.122
  156SOL    HW2 1255   0.000   1.217   0.984
  157SOL     OW 1256   0.688   1.662   1.716
  157SOL    HW1 1257   0.632   1.743   1.725
  157SOL    HW2 1258   0.740   1.666   1.630
  158SOL     OW 1259   0.903   0.086   0.133
  158SOL    HW1 1260   0.954   0.087   0.047
  158SOL    HW2 1261   0.959   0.044   0.204
  159SOL     OW 1262   1.726   0.135   0.523
  159SOL    HW1 1263   1.799   0.118   0.456
  159SOL    HW2 1264   1.695   0.048   0.561
  160SOL     OW 1265   1.388   1.573   0.477
  160SOL    HW1 1266   1.455   1.585   0.403
  160SOL    HW2 1267   1.348   1.662   0.500
  161SOL     OW 1268   0.130   1.794   1.851
  161SOL    HW1 1269   0.089   1.720   1.904
  161SOL    HW2 1270   0.194   1.845   1.909
  162SOL     OW 1271   1.280   0.927   0.672
  162SOL    HW1 1272   1.340   0.846   0.674
  162SOL    HW2 1273   1.320   0.996   0.612
  163SOL     OW 1274   0.830   1.273   1.422
  163SOL    HW1 1275   0.825   1.306   1.517
  163SOL    HW2 1276   0.744   1.292   1.376
  164SOL     OW 1277   0.672   1.616   0.154
  164SOL    HW1 1278   0.681   1.626   0.055
  164SOL    HW2 1279   0.632   1.527   0.175
  165SOL     OW 1280   1.841   0.175   0.963
  165SOL    HW1 1281   1.880   0.090   0.927
  165SOL    HW2 1282   1.743   0.177   0.944
  166SOL     OW 1283   0.263   0.326   0.720
  166SOL    HW1 1284   0.184   0.377   0.686
  166SOL    HW2 1285   0.254   0.311   0.818
  167SOL     OW 1286   1.194   1.612   0.031
  167SOL    HW1 1287   1.200   1.519   0.068
  167SOL    HW2 1288   1.135   1.612  -0.049
  168SOL     OW 1289   0.822   1.002   1.372
  168SOL    HW1 1290   0.862   1.001   1.280
  168SOL    HW2 1291   0.832   1.094   1.412
  169SOL     OW 1292   0.916   0.910   0.291
  169SOL    HW1 1293   0.979   0.948   0.223
  169SOL    HW2 1294   0.956   0.827   0.330
  170SOL     OW 1295   1.504   1.607   0.044
  170SOL    HW1 1296   1.412   1.644   0.051
  170SOL    HW2 1297   1.542   1.627  -0.046
  171SOL     OW 1298   0.372   1.288   1.490
  171SOL    HW1 1299   0.359   1.381   1.456
  171SOL    HW2 1300   0.288   1.236   1.477
  172SOL     OW 1301   1.614   1.292   1.289
  172SOL    HW1 1302   1.674   1.295   1.369
  172SOL    HW2 1303   1.539   1.356   1.302
  173SOL     OW 1304   1.039   1.098   0.696
  173SOL    HW1 1305   0.969   1.051   0.750
  173SOL    HW2 1306   1.098   1.030   0.653
  174SOL     OW 1307   1.014   0.236   0.971
  174SOL    HW1 1308   1.006   0.200   0.878
  174SOL    HW2 1309   1.012   0.160   1.036
  175SOL     OW 1310   0.590   1.487   0.491
  175SOL    HW1 1311   0.632   1.429   0.421
  175SOL    HW2 1312   0.546   1.566   0.447
  176SOL     OW 1313   1.709   0.385   1.381
  176SOL    HW1 1314   1.782   0.454   1.385
  176SOL    HW2 1315   1.737   0.310   1.322
  177SOL     OW 1316   0.255   1.348   0.290
  177SOL    HW1 1317   0.159   1.349   0.263
  177SOL    HW2 1318   0.267   1.401   0.374
  178SOL     OW 1319   0.105   1.013   1.726
  178SOL    HW1 1320   0.028   0.980   1.780
  178SOL    HW2 1321   0.190   0.983   1.768
  179SOL     OW 1322   0.672   0.203   1.489
  179SOL    HW1 1323   0.762   0.187   1.449
  179SOL    HW2 1324   0.680   0.208   1.588
  180SOL     OW 1325   0.075   0.345   0.033
  180SOL    HW1 1326  -0.017   0.317   0.004
  180SOL    HW2 1327   0.106   0.422  -0.023
  181SOL     OW 1328   1.440   0.856   1.398
  181SOL    HW1 1329   1.383   0.908   1.335
  181SOL    HW2 1330   1.536   0.868   1.374
  182SOL     OW 1331   0.072   0.166   0.318
  182SOL    HW1 1332   0.055   0.249   0.264
  182SOL    HW2 1333   0.162   0.129   0.296
  183SOL     OW 1334   1.183   1.335   0.119
  183SOL    HW1 1335   1.084   1.324   0.121
  183SOL    HW2 1336   1.217   1.350   0.212
  184SOL     OW 1337   1.493   1.767   0.959
  184SOL    HW1 1338   1.526   1.831   0.890
  184SOL    HW2 1339   1.559   1.761   1.034
  185SOL     OW 1340   0.390   1.741   1.560
  185SOL    HW1 1341   0.299   1.782   1.558
  185SOL    HW2 1342   0.383   1.647   1.592
  186SOL     OW 1343   1.674   0.883   1.254
  186SOL    HW1 1344   1.647   0.794   1.217
  186SOL    HW2 1345   1.675   0.951   1.181
  187SOL     OW 1346   1.225   0.325   0.449
  187SOL    HW1 1347   1.290   0.251   0.438
  187SOL    HW2 1348   1.245   0.375   0.533
  188SOL     OW 1349   0.594   0.745   0.652
  188SOL    HW1 1350   0.644   0.830   0.633
  188SOL    HW2 1351   0.506   0.747   0.604
  189SOL     OW 1352   1.777   0.342   1.642
  189SOL    HW1 1353   1.760   0.373   1.548
  189SOL    HW2 1354   1.693   0.305   1.680
  190SOL     OW 1355   1.730   0.934   1.517
  190SOL    HW1 1356   1.768   1.025   1.532
  190SOL    HW2 1357   1.722   0.917   1.418
  191SOL     OW 1358   0.859   1.374   0.016
  191SOL    HW1 1359   0.813   1.389   0.104
  191SOL    HW2 1360   0.903   1.459  -0.014
  192SOL     OW 1361   0.661   1.790   0.953
  192SOL    HW1 1362   0.615   1.878   0.940
  192SOL    HW2 1363   0.760   1.802   0.946
  193SOL     OW 1364   0.859   0.956   0.861
  193SOL    HW1 1365   0.913   0.887   0.909
  193SOL    HW2 1366   0.827   1.025   0.927
  194SOL     OW 1367   1.083   0.984   0.087
  194SOL    HW1 1368   1.060   1.037   0.005
  194SOL    HW2 1369   1.164   0.928   0.068
  195SOL     OW 1370   1.861   1.569   0.851
  195SOL    HW1 1371   1.790   1.557   0.781
  195SOL    HW2 1372   1.862   1.490   0.911
  196SOL     OW 1373   0.221   1.314   1.844
  196SOL    HW1 1374   0.156   1.241   1.823
  196SOL    HW2 1375   0.225   1.328   1.942
  197SOL     OW 1376   0.079   1.240   0.653
  197SOL    HW1 1377   0.078   1.193   0.741
  197SOL    HW2 1378   0.161   1.212   0.602
  198SOL     OW 1379   0.672   1.391   1.624
  198SOL    HW1 1380   0.594   1.341   1.662
  198SOL    HW2 1381   0.669   1.486   1.655
  199SOL     OW 1382   1.824   0.192   1.227
  199SOL    HW1 1383   1.820   0.102   1.271
  199SOL    HW2 1384   1.827   0.181   1.128
  200SOL     OW 1385   0.428   0.424   0.520
  200SOL    HW1 1386   0.458   0.352   0.458
  200SOL    HW2 1387   0.389   0.384   0.603
  201SOL     OW 1388   1.705   1.487   1.104
  201SOL    HW1 1389   1.612   1.462   1.077
  201SOL    HW2 1390   1.731   1.437   1.186
  202SOL     OW 1391   0.812   1.586   0.687
  202SOL    HW1 1392   0.844   1.596   0.593
  202SOL    HW2 1393   0.733   1.524   0.689
  203SOL     OW 1394   1.424   0.214   1.112
  203SOL    HW1 1395   1.476   0.149   1.167
  203SOL    HW2 1396   1.375   0.277   1.173
  204SOL     OW 1397   1.001   0.034   1.154
  204SOL    HW1 1398   0.938  -0.038   1.123
  204SOL    HW2 1399   1.094  -0.002   1.154
  205SOL     OW 1400   0.770   1.330   0.301
  205SOL    HW1 1401   0.724   1.243   0.318
  205SOL    HW2 1402   0.861   1.327   0.342
  206SOL     OW 1403   0.618   1.567   1.284
  206SOL    HW1 1404   0.613   1.649   1.341
  206SOL    HW2 1405   0.707   1.564   1.239
  207SOL     OW 1406   1.352   0.052   0.168
  207SOL    HW1 1407   1.387   0.011   0.084
  207SOL    HW2 1408   1.262   0.014   0.188
  208SOL     OW 1409   1.300   0.453   0.691
  208SOL    HW1 1410   1.241   0.533   0.695
  208SOL    HW2 1411   1.315   0.418   0.784
  209SOL     OW 1412   1.593   0.221   0.882
  209SOL    HW1 1413   1.509   0.220   0.936
  209SOL    HW2 1414   1.595   0.304   0.826
  210SOL     OW 1415   0.039   1.077   0.300
  210SOL    HW1 1416   0.138   1.066   0.291
  210SOL    HW2 1417  -0.001   0.991   0.332
  211SOL     OW 1418   0.875   1.646   0.337
  211SOL    HW1 1419   0.798   1.611   0.283
  211SOL    HW2 1420   0.843   1.717   0.399
  212SOL     OW 1421   0.230   0.628   1.975
  212SOL    HW1 1422   0.137   0.626   2.012
  212SOL    HW2 1423   0.231   0.589   1.883
  213SOL     OW 1424   0.225   0.275   2.858
  213SOL    HW1 1425   0.260   0.258   2.950
  213SOL    HW2 1426   0.137   0.230   2.846
  214SOL     OW 1427   0.019   0.368   2.509
  214SOL    HW1 1428  -0.063   0.411   2.548
  214SOL    HW2 1429  -0.009   0.295   2.446
  215SOL     OW 1430   0.569   1.275   3.027
  215SOL    HW1 1431   0.476   1.268   2.990
  215SOL    HW2 1432   0.580   1.364   3.071
  216SOL     OW 1433   1.555   1.511   2.565
  216SOL    HW1 1434   1.498   1.495   2.646
  216SOL    HW2 1435   1.496   1.521   2.485
  217SOL     OW 1436   1.135   0.703   2.579
  217SOL    HW1 1437   1.192   0.781   2.554
  217SOL    HW2 1438   1.075   0.729   2.655
  218SOL     OW 1439   1.755   0.607   2.093
  218SOL    HW1 1440   1.743   0.594   1.994
  218SOL    HW2 1441   1.725   0.526   2.142
  219SOL     OW 1442   0.768   1.144   2.885
  219SOL    HW1 1443   0.690   1.161   2.945
  219SOL    HW2 1444   0.802   1.231   2.849
  220SOL     OW 1445   0.850   0.798   3.685
  220SOL    HW1 1446   0.846   0.874   3.750
  220SOL    HW2 1447   0.872   0.834   3.594
  221SOL     OW 1448   0.685   1.012   2.527
  221SOL    HW1 1449   0.754   0.996   2.597
  221SOL    HW2 1450   0.612   1.069   2.565
  222SOL     OW 1451   0.686   1.161   3.665
  222SOL    HW1 1452   0.746   1.240   3.679
  222SOL    HW2 1453   0.600   1.192   3.624
  223SOL     OW 1454   0.335   1.435   2.923
  223SOL    HW1 1455   0.257   1.404   2.870
  223SOL    HW2 1456   0.393   1.493   2.866
  224SOL     OW 1457   1.460   1.505   3.201
  224SOL    HW1 1458   1.484   1.599   3.227
  224SOL    HW2 1459   1.444   1.451   3.283
  225SOL     OW 1460   0.438   0.392   3.361
  225SOL    HW1 1461   0.520   0.336   3.370
  225SOL    HW2 1462   0.357   0.334   3.365
  226SOL     OW 1463   1.603   0.447   2.599
  226SOL    HW1 1464   1.529   0.493   2.549
  226SOL    HW2 1465   1.654   0.515   2.652
  227SOL     OW 1466   0.231   1.713   2.345
  227SOL    HW1 1467   0.265   1.790   2.399
  227SOL    HW2 1468   0.275   1.713   2.255
  228SOL     OW 1469   1.127   1.341   3.552
  228SOL    HW1 1470   1.174   1.341   3.640
  228SOL    HW2 1471   1.079   1.254   3.541
  229SOL     OW 1472   0.230   1.434   2.400
  229SOL    HW1 1473   0.204   1.530   2.400
  229SOL    HW2 1474   0.159   1.380   2.445
  230SOL     OW 1475   0.240   1.091   2.748
  230SOL    HW1 1476   0.254   1.007   2.800
  230SOL    HW2 1477   0.185   1.155   2.803
  231SOL     OW 1478   0.620   1.786   3.301
  231SOL    HW1 1479   0.528   1.769   3.336
  231SOL    HW2 1480   0.648   1.878   3.327
  232SOL     OW 1481   0.606   0.964   1.985
  232SOL    HW1 1482   0.613   1.048   1.931
  232SOL    HW2 1483   0.652   0.977   2.073
  233SOL     OW 1484   1.594   0.114   3.342
  233SOL    HW1 1485   1.576   0.181   3.270
  233SOL    HW2 1486   1.591   0.160   3.431
  234SOL     OW 1487   0.122   0.643   2.425
  234SOL    HW1 1488   0.077   0.555   2.442
  234SOL    HW2 1489   0.121   0.697   2.509
  235SOL     OW 1490   1.842   1.767   2.221
  235SOL    HW1 1491   1.896   1.738   2.301
  235SOL    HW2 1492   1.872   1.857   2.192
  236SOL     OW 1493   0.027   1.596   1.979
  236SOL    HW1 1494   0.008   1.500   2.000
  236SOL    HW2 1495  -0.006   1.654   2.054
  237SOL     OW 1496   1.689   0.922   2.474
  237SOL    HW1 1497   1.784   0.893   2.482
  237SOL    HW2 1498   1.681   0.987   2.399
  238SOL     OW 1499   1.641   1.108   2.294
  238SOL    HW1 1500   1.727   1.110   2.242
  238SOL    HW2 1501   1.655   1.155   2.382
  239SOL     OW 1502   0.113   0.737   3.459
  239SOL    HW1 1503   0.201   0.724   3.504
  239SOL    HW2 1504   0.100   0.834   3.437
  240SOL     OW 1505   0.613   1.365   2.588
  240SOL    HW1 1506   0.564   1.278   2.597
  240SOL    HW2 1507   0.590   1.408   2.501
  241SOL     OW 1508   1.293   1.228   3.285
  241SOL    HW1 1509   1.330   1.155   3.227
  241SOL    HW2 1510   1.345   1.233   3.370
  242SOL     OW 1511   0.809   0.004   2.364
  242SOL    HW1 1512   0.849   0.095   2.355
  242SOL    HW2 1513   0.709   0.012   2.370
  243SOL     OW 1514   0.197   0.976   3.126
  243SOL    HW1 1515   0.286   0.931   3.112
  243SOL    HW2 1516   0.124   0.911   3.107
  244SOL     OW 1517   1.525   0.999   2.052
  244SOL    HW1 1518   1.462   0.923   2.065
  244SOL    HW2 1519   1.573   1.017   2.138
  245SOL     OW 1520   1.187   1.792   3.478
  245SOL    HW1 1521   1.211   1.852   3.402
  245SOL    HW2 1522   1.194   1.697   3.448
  246SOL     OW 1523   0.317   0.251   3.663
  246SOL    HW1 1524   0.388   0.322   3.669
  246SOL    HW2 1525   0.229   0.290   3.691
  247SOL     OW 1526   1.466   1.417   2.815
  247SOL    HW1 1527   1.407   1.423   2.895
  247SOL    HW2 1528   1.451   1.329   2.769
  248SOL     OW 1529   1.667   1.714   2.434
  248SOL    HW1 1530   1.626   1.691   2.346
  248SOL    HW2 1531   1.649   1.640   2.499
  249SOL     OW 1532   0.598   0.729   2.132
  249SOL    HW1 1533   0.622   0.798   2.064
  249SOL    HW2 1534   0.520   0.762   2.186
  250SOL     OW 1535   1.281   0.345   2.806
  250SOL    HW1 1536   1.195   0.295   2.793
  250SOL    HW2 1537   1.343   0.291   2.862
  251SOL     OW 1538   1.576   1.662   2.169
  251SOL    HW1 1539   1.665   1.708   2.172
  251SOL    HW2 1540   1.555   1.638   2.074
  252SOL     OW 1541   0.807   0.605   3.327
  252SOL    HW1 1542   0.760   0.602   3.416
  252SOL    HW2 1543   0.756   0.550   3.261
  253SOL     OW 1544   1.394   0.469   3.536
  253SOL    HW1 1545   1.374   0.512   3.624
  253SOL    HW2 1546   1.472   0.407   3.545
  254SOL     OW 1547   0.973   0.890   3.434
  254SOL    HW1 1548   1.019   0.806   3.405
  254SOL    HW2 1549   0.917   0.924   3.359
  255SOL     OW 1550   0.991   0.410   3.104
  255SOL    HW1 1551   0.914   0.444   3.158
  255SOL    HW2 1552   0.957   0.359   3.025
  256SOL     OW 1553   1.041   0.701   2.291
  256SOL    HW1 1554   1.067   0.697   2.387
  256SOL    HW2 1555   0.956   0.650   2.277
  257SOL     OW 1556   0.076   0.811   2.651
  257SOL    HW1 1557   0.175   0.799   2.660
  257SOL    HW2 1558   0.052   0.906   2.672
  258SOL     OW 1559   0.130   1.821   3.433
  258SOL    HW1 1560   0.120   1.806   3.532
  258SOL    HW2 1561   0.044   1.857   3.397
  259SOL     OW 1562   0.865   0.348   2.057
  259SOL    HW1 1563   0.924   0.411   2.008
  259SOL    HW2 1564   0.884   0.254   2.028
  260SOL     OW 1565   1.719   0.585   3.693
  260SOL    HW1 1566   1.693   0.674   3.657
  260SOL    HW2 1567   1.717   0.517   3.620
  261SOL     OW 1568   1.362   1.144   2.407
  261SOL    HW1 1569   1.445   1.115   2.359
  261SOL    HW2 1570   1.313   1.211   2.351
  262SOL     OW 1571   0.550   0.196   2.747
  262SOL    HW1 1572   0.545   0.191   2.847
  262SOL    HW2 1573   0.552   0.292   2.718
  263SOL     OW 1574   1.008   1.456   2.339
  263SOL    HW1 1575   0.962   1.528   2.287
  263SOL    HW2 1576   1.004   1.476   2.437
  264SOL     OW 1577   0.351   1.801   2.715
  264SOL    HW1 1578   0.401   1.715   2.721
  264SOL    HW2 1579   0.416   1.878   2.712
  265SOL     OW 1580   1.795   1.066   2.735
  265SOL    HW1 1581   1.733   1.051   2.659
  265SOL    HW2 1582   1.743   1.077   2.820
  266SOL     OW 1583   1.227   1.550   3.368
  266SOL    HW1 1584   1.233   1.473   3.432
  266SOL    HW2 1585   1.175   1.524   3.288
  267SOL     OW 1586   0.321   0.943   2.104
  267SOL    HW1 1587   0.403   0.982   2.062
  267SOL    HW2 1588   0.294   0.861   2.055
  268SOL     OW 1589   1.458   0.735   2.590
  268SOL    HW1 1590   1.453   0.670   2.665
  268SOL    HW2 1591   1.538   0.794   2.603
  269SOL     OW 1592   0.461   1.266   3.589
  269SOL    HW1 1593   0.411   1.267   3.503
  269SOL    HW2 1594   0.398   1.248   3.665
  270SOL     OW 1595   1.111   1.776   2.099
  270SOL    HW1 1596   1.051   1.714   2.149
  270SOL    HW2 1597   1.142   1.732   2.014
  271SOL     OW 1598   0.202   0.285   3.360
  271SOL    HW1 1599   0.122   0.345   3.347
  271SOL    HW2 1600   0.192   0.236   3.446
  272SOL     OW 1601   1.632   1.377   1.943
  272SOL    HW1 1602   1.600   1.471   1.933
  272SOL    HW2 1603   1.556   1.314   1.931
  273SOL     OW 1604   0.464   1.743   2.185
  273SOL    HW1 1605   0.497   1.782   2.271
  273SOL    HW2 1606   0.540   1.736   2.120
  274SOL     OW 1607   1.400   0.107   2.288
  274SOL    HW1 1608   1.376   0.070   2.198
  274SOL    HW2 1609   1.499   0.123   2.292
  275SOL     OW 1610   0.249   1.785   3.103
  275SOL    HW1 1611   0.306   1.720   3.153
  275SOL    HW2 1612   0.233   1.752   3.010
  276SOL     OW 1613   0.940   1.698   2.766
  276SOL    HW1 1614   1.020   1.641   2.787
  276SOL    HW2 1615   0.891   1.658   2.689
  277SOL     OW 1616   0.382   0.700   2.342
  277SOL    HW1 1617   0.427   0.610   2.339
  277SOL    HW2 1618   0.288   0.689   2.375
  278SOL     OW 1619   1.547   0.222   3.591
  278SOL    HW1 1620   1.542   0.259   3.683
  278SOL    HW2 1621   1.475   0.153   3.579
  279SOL     OW 1622   0.614   0.122   1.979
  279SOL    HW1 1623   0.712   0.100   1.986
  279SOL    HW2 1624   0.583   0.105   1.886
  280SOL     OW 1625   0.781   0.264   3.611
  280SOL    HW1 1626   0.848   0.203   3.654
  280SOL    HW2 1627   0.708   0.283   3.676
  281SOL     OW 1628   0.888   1.514   3.057
  281SOL    HW1 1629   0.865   1.489   2.963
  281SOL    HW2 1630   0.949   1.445   3.096
  282SOL     OW 1631   1.351   0.590   3.295
  282SOL    HW1 1632   1.379   0.547   3.380
  282SOL    HW2 1633   1.376   0.686   3.296
  283SOL     OW 1634   0.803   1.402   2.786
  283SOL    HW1 1635   0.893   1.416   2.744
  283SOL    HW2 1636   0.732   1.404   2.715
  284SOL     OW 1637   0.922   0.503   2.761
  284SOL    HW1 1638   0.897   0.494   2.665
  284SOL    HW2 1639   0.970   0.421   2.792
  285SOL     OW 1640   0.539   0.064   2.374
  285SOL    HW1 1641   0.458   0.065   2.432
  285SOL    HW2 1642   0.542   0.147   2.319
  286SOL     OW 1643   1.434   1.188   1.903
  286SOL    HW1 1644   1.466   1.112   1.960
  286SOL    HW2 1645   1.342   1.215   1.933
  287SOL     OW 1646   0.297   0.035   2.033
  287SOL    HW1 1647   0.346   0.119   2.012
  287SOL    HW2 1648   0.359  -0.030   2.078
  288SOL     OW 1649   0.935   0.236   2.342
  288SOL    HW1 1650   0.887   0.277   2.264
  288SOL    HW2 1651   1.034   0.234   2.323
  289SOL     OW 1652   1.076   0.683   3.326
  289SOL    HW1 1653   0.996   0.622   3.329
  289SOL    HW2 1654   1.157   0.630   3.302
  290SOL     OW 1655   1.227   1.570   2.655
  290SOL    HW1 1656   1.248   1.644   2.590
  290SOL    HW2 1657   1.295   1.570   2.728
  291SOL     OW 1658   0.459   1.152   2.603
  291SOL    HW1 1659   0.388   1.125   2.668
  291SOL    HW2 1660   0.433   1.124   2.510
  292SOL     OW 1661   1.271   1.797   2.453
  292SOL    HW1 1662   1.315   1.861   2.389
  292SOL    HW2 1663   1.221   1.849   2.523
  293SOL     OW 1664   1.032   0.549   1.878
  293SOL    HW1 1665   0.991   0.631   1.839
  293SOL    HW2 1666   1.096   0.575   1.951
  294SOL     OW 1667   0.078   0.556   3.248
  294SOL    HW1 1668   0.170   0.555   3.207
  294SOL    HW2 1669   0.072   0.630   3.315
  295SOL     OW 1670   0.561   0.222   3.009
  295SOL    HW1 1671   0.599   0.138   3.046
  295SOL    HW2 1672   0.473   0.241   3.053
  296SOL     OW 1673   0.866   0.454   2.504
  296SOL    HW1 1674   0.834   0.526   2.442
  296SOL    HW2 1675   0.890   0.373   2.451
  297SOL     OW 1676   1.017   0.039   2.615
  297SOL    HW1 1677   0.945   0.044   2.546
  297SOL    HW2 1678   0.993  -0.030   2.684
  298SOL     OW 1679   1.429   1.173   2.729
  298SOL    HW1 1680   1.374   1.089   2.722
  298SOL    HW2 1681   1.455   1.202   2.637
  299SOL     OW 1682   1.466   0.590   2.854
  299SOL    HW1 1683   1.436   0.495   2.861
  299SOL    HW2 1684   1.539   0.606   2.920
  300SOL     OW 1685   1.857   0.833   2.239
  300SOL    HW1 1686   1.899   0.769   2.303
  300SOL    HW2 1687   1.819   0.782   2.161
  301SOL     OW 1688   0.488   1.385   2.036
  301SOL    HW1 1689   0.401   1.370   2.083
  301SOL    HW2 1690   0.471   1.411   1.941
  302SOL     OW 1691   1.664   1.280   2.519
  302SOL    HW1 1692   1.763   1.288   2.533
  302SOL    HW2 1693   1.619   1.364   2.550
  303SOL     OW 1694   1.390   0.575   1.940
  303SOL    HW1 1695   1.336   0.554   2.021
  303SOL    HW2 1696   1.481   0.534   1.949
  304SOL     OW 1697   0.527   0.256   2.190
  304SOL    HW1 1698   0.554   0.197   2.115
  304SOL    HW2 1699   0.527   0.351   2.159
  305SOL     OW 1700   1.754   1.223   3.450
  305SOL    HW1 1701   1.845   1.184   3.437
  305SOL    HW2 1702   1.762   1.319   3.474
  306SOL     OW 1703   1.064   1.347   3.202
  306SOL    HW1 1704   0.984   1.324   3.257
  306SOL    HW2 1705   1.147   1.321   3.251
  307SOL     OW 1706   1.592   1.629   3.487
  307SOL    HW1 1707   1.619   1.663   3.397
  307SOL    HW2 1708   1.671   1.591   3.533
  308SOL     OW 1709   1.111   1.195   2.962
  308SOL    HW1 1710   1.071   1.239   3.043
  308SOL    HW2 1711   1.070   1.232   2.879
  309SOL     OW 1712   1.638   1.099   2.941
  309SOL    HW1 1713   1.643   1.180   3.000
  309SOL    HW2 1714   1.552   1.101   2.890
  310SOL     OW 1715   0.915   0.089   3.264
  310SOL    HW1 1716   0.940   0.069   3.169
  310SOL    HW2 1717   0.987   0.145   3.306
  311SOL     OW 1718   0.980   1.116   3.581
  311SOL    HW1 1719   0.881   1.122   3.591
  311SOL    HW2 1720   1.003   1.036   3.525
  312SOL     OW 1721   0.705   1.050   2.230
  312SOL    HW1 1722   0.691   1.057   2.329
  312SOL    HW2 1723   0.789   0.999   2.212
  313SOL     OW 1724   0.410   0.813   3.113
  313SOL    HW1 1725   0.496   0.825   3.163
  313SOL    HW2 1726   0.368   0.726   3.140
  314SOL     OW 1727   1.274   0.386   3.124
  314SOL    HW1 1728   1.295   0.460   3.188
  314SOL    HW2 1729   1.185   0.403   3.081
  315SOL     OW 1730   0.064   1.564   3.193
  315SOL    HW1 1731   0.018   1.646   3.159
  315SOL    HW2 1732   0.162   1.583   3.202
  316SOL     OW 1733   0.367   1.100   2.363
  316SOL    HW1 1734   0.360   1.183   2.307
  316SOL    HW2 1735   0.371   1.020   2.303
  317SOL     OW 1736   0.566   0.537   2.727
  317SOL    HW1 1737   0.578   0.603   2.653
  317SOL    HW2 1738   0.612   0.571   2.810
  318SOL     OW 1739   1.252   1.348   2.250
  318SOL    HW1 1740   1.302   1.425   2.290
  318SOL    HW2 1741   1.157   1.350   2.282
  319SOL     OW 1742   1.272   1.445   3.004
  319SOL    HW1 1743   1.319   1.458   3.091
  319SOL    HW2 1744   1.206   1.371   3.013
  320SOL     OW 1745   1.582   0.639   2.334
  320SOL    HW1 1746   1.551   0.700   2.407
  320SOL    HW2 1747   1.632   0.691   2.265
  321SOL     OW 1748   0.354   1.510   3.191
  321SOL    HW1 1749   0.333   1.466   3.104
  321SOL    HW2 1750   0.451   1.536   3.194
  322SOL     OW 1751   0.402   0.751   3.460
  322SOL    HW1 1752   0.470   0.806   3.413
  322SOL    HW2 1753   0.442   0.663   3.487
  323SOL     OW 1754   1.587   0.779   3.532
  323SOL    HW1 1755   1.495   0.817   3.527
  323SOL    HW2 1756   1.647   0.826   3.467
  324SOL     OW 1757   1.013   0.105   3.632
  324SOL    HW1 1758   1.019   0.190   3.580
  324SOL    HW2 1759   1.045   0.029   3.575
  325SOL     OW 1760   0.504   0.050   3.602
  325SOL    HW1 1761   0.462  -0.007   3.532
  325SOL    HW2 1762   0.438   0.119   3.634
  326SOL     OW 1763   0.573   0.870   2.891
  326SOL    HW1 1764   0.617   0.959   2.882
  326SOL    HW2 1765   0.510   0.870   2.968
  327SOL     OW 1766   1.360   0.862   2.907
  327SOL    HW1 1767   1.285   0.862   2.841
  327SOL    HW2 1768   1.397   0.770   2.916
  328SOL     OW 1769   1.209   0.525   2.137
  328SOL    HW1 1770   1.222   0.441   2.191
  328SOL    HW2 1771   1.180   0.599   2.197
  329SOL     OW 1772   0.307   0.213   3.093
  329SOL    HW1 1773   0.284   0.250   3.183
  329SOL    HW2 1774   0.277   0.118   3.087
  330SOL     OW 1775   0.037   1.310   3.144
  330SOL    HW1 1776   0.090   1.261   3.212
  330SOL    HW2 1777   0.059   1.408   3.149
  331SOL     OW 1778   0.732   0.634   2.926
  331SOL    HW1 1779   0.791   0.608   2.850
  331SOL    HW2 1780   0.704   0.730   2.915
  332SOL     OW 1781   0.307   0.063   2.480
  332SOL    HW1 1782   0.296   0.157   2.513
  332SOL    HW2 1783   0.302   0.000   2.557
  333SOL     OW 1784   1.622   0.367   2.236
  333SOL    HW1 1785   1.624   0.291   2.300
  333SOL    HW2 1786   1.574   0.444   2.276
  334SOL     OW 1787   1.023   0.766   2.828
  334SOL    HW1 1788   1.038   0.787   2.924
  334SOL    HW2 1789   0.993   0.671   2.819
  335SOL     OW 1790   0.980   1.573   3.562
  335SOL    HW1 1791   0.960   1.617   3.474
  335SOL    HW2 1792   1.019   1.482   3.546
  336SOL     OW 1793   1.859   1.518   3.467
  336SOL    HW1 1794   1.873   1.545   3.372
  336SOL    HW2 1795   1.942   1.540   3.520
  337SOL     OW 1796   0.350   0.898   3.666
  337SOL    HW1 1797   0.426   0.942   3.714
  337SOL    HW2 1798   0.385   0.851   3.584
  338SOL     OW 1799   1.540   0.274   1.987
  338SOL    HW1 1800   1.479   0.199   2.010
  338SOL    HW2 1801   1.562   0.326   2.070
  339SOL     OW 1802   1.303   0.838   1.904
  339SOL    HW1 1803   1.337   0.745   1.919
  339SOL    HW2 1804   1.321   0.865   1.809
  340SOL     OW 1805   1.068   1.333   2.711
  340SOL    HW1 1806   1.075   1.249   2.656
  340SOL    HW2 1807   1.130   1.402   2.675
  341SOL     OW 1808   0.319   0.810   2.811
  341SOL    HW1 1809   0.412   0.846   2.816
  341SOL    HW2 1810   0.313   0.725   2.863
  342SOL     OW 1811   0.339   0.509   2.868
  342SOL    HW1 1812   0.287   0.426   2.851
  342SOL    HW2 1813   0.416   0.514   2.804
  343SOL     OW 1814   1.138   0.380   3.540
  343SOL    HW1 1815   1.093   0.443   3.604
  343SOL    HW2 1816   1.231   0.411   3.523
  344SOL     OW 1817   1.160   0.207   3.339
  344SOL    HW1 1818   1.160   0.271   3.416
  344SOL    HW2 1819   1.188   0.255   3.256
  345SOL     OW 1820   0.008   1.326   2.062
  345SOL    HW1 1821  -0.085   1.347   2.031
  345SOL    HW2 1822   0.018   1.227   2.075
  346SOL     OW 1823   0.088   1.801   2.789
  346SOL    HW1 1824   0.046   1.715   2.762
  346SOL    HW2 1825   0.182   1.804   2.755
  347SOL     OW 1826   0.504   1.568   2.772
  347SOL    HW1 1827   0.570   1.642   2.781
  347SOL    HW2 1828   0.548   1.489   2.730
  348SOL     OW 1829   1.002   0.796   3.100
  348SOL    HW1 1830   1.043   0.764   3.186
  348SOL    HW2 1831   0.906   0.769   3.097
  349SOL     OW 1832   0.040   0.544   2.976
  349SOL    HW1 1833   0.125   0.511   2.935
  349SOL    HW2 1834   0.053   0.559   3.074
  350SOL     OW 1835   0.189   0.520   3.584
  350SOL    HW1 1836   0.248   0.480   3.514
  350SOL    HW2 1837   0.131   0.591   3.543
  351SOL     OW 1838   1.369   0.950   3.522
  351SOL    HW1 1839   1.408   1.039   3.542
  351SOL    HW2 1840   1.379   0.930   3.425
  352SOL     OW 1841   0.815   0.572   2.187
  352SOL    HW1 1842   0.822   0.483   2.141
  352SOL    HW2 1843   0.721   0.606   2.179
  353SOL     OW 1844   1.657   0.604   3.068
  353SOL    HW1 1845   1.619   0.535   3.130
  353SOL    HW2 1846   1.739   0.568   3.024
  354SOL     OW 1847   0.252   1.564   3.606
  354SOL    HW1 1848   0.222   1.621   3.682
  354SOL    HW2 1849   0.245   1.467   3.632
  355SOL     OW 1850   0.671   0.464   3.131
  355SOL    HW1 1851   0.637   0.375   3.101
  355SOL    HW2 1852   0.697   0.518   3.051
  356SOL     OW 1853   0.930   1.678   3.327
  356SOL    HW1 1854   0.906   1.660   3.232
  356SOL    HW2 1855   0.960   1.772   3.337
  357SOL     OW 1856   0.159   1.137   3.328
  357SOL    HW1 1857   0.181   1.076   3.404
  357SOL    HW2 1858   0.169   1.088   3.242
  358SOL     OW 1859   1.347   1.059   3.096
  358SOL    HW1 1860   1.371   0.996   3.022
  358SOL    HW2 1861   1.257   1.099   3.078
  359SOL     OW 1862   1.302   0.855   2.171
  359SOL    HW1 1863   1.216   0.824   2.213
  359SOL    HW2 1864   1.298   0.841   2.072
  360SOL     OW 1865   1.759   1.747   3.016
  360SOL    HW1 1866   1.820   1.777   2.943
  360SOL    HW2 1867   1.721   1.658   2.994
  361SOL     OW 1868   1.252   1.731   2.990
  361SOL    HW1 1869   1.336   1.736   2.936
  361SOL    HW2 1870   1.229   1.635   3.008
  362SOL     OW 1871   0.083   1.258   2.884
  362SOL    HW1 1872   0.078   1.257   2.984
  362SOL    HW2 1873   0.000   1.217   2.846
  363SOL     OW 1874   0.688   1.662   3.578
  363SOL    HW1 1875   0.632   1.743   3.587
  363SOL    HW2 1876   0.740   1.666   3.492
  364SOL     OW 1877   1.726   0.135   2.385
  364SOL    HW1 1878   1.799   0.118   2.318
  364SOL    HW2 1879   1.695   0.048   2.423
  365SOL     OW 1880   1.388   1.573   2.339
  365SOL    HW1 1881   1.455   1.585   2.265
  365SOL    HW2 1882   1.348   1.662   2.362
  366SOL     OW 1883   0.130   1.794   3.713
  366SOL    HW1 1884   0.089   1.720   3.766
  366SOL    HW2 1885   0.194   1.845   3.771
  367SOL     OW 1886   1.280   0.927   2.534
  367SOL    HW1 1887   1.340   0.846   2.536
  367SOL    HW2 1888   1.320   0.996   2.474
  368SOL     OW 1889   0.830   1.273   3.284
  368SOL    HW1 1890   0.825   1.306   3.379
  368SOL    HW2 1891   0.744   1.292   3.238
  369SOL     OW 1892   0.672   1.616   2.016
  369SOL    HW1 1893   0.681   1.626   1.917
  369SOL    HW2 1894   0.632   1.527   2.037
  370SOL     OW 1895   1.650   1.720   3.256
  370SOL    HW1 1896   1.703   1.730   3.172
  370SOL    HW2 1897   1.623   1.810   3.290
  371SOL     OW 1898   1.841   0.175   2.825
  371SOL    HW1 1899   1.880   0.090   2.789
  371SOL    HW2 1900   1.743   0.177   2.806
  372SOL     OW 1901   0.263   0.326   2.582
  372SOL    HW1 1902   0.184   0.377   2.548
  372SOL    HW2 1903   0.254   0.311   2.680
  373SOL     OW 1904   1.194   1.612   1.893
  373SOL    HW1 1905   1.200   1.519   1.930
  373SOL    HW2 1906   1.135   1.612   1.813
  374SOL     OW 1907   0.822   1.002   3.234
  374SOL    HW1 1908   0.862   1.001   3.142
  374SOL    HW2 1909   0.832   1.094   3.274
  375SOL     OW 1910   0.916   0.910   2.153
  375SOL    HW1 1911   0.979   0.948   2.085
  375SOL    HW2 1912   0.956   0.827   2.192
  376SOL     OW 1913   1.504   1.607   1.906
  376SOL    HW1 1914   1.412   1.644   1.913
  376SOL    HW2 1915   1.542   1.627   1.816
  377SOL     OW 1916   0.372   1.288   3.352
  377SOL    HW1 1917   0.359   1.381   3.318
  377SOL    HW2 1918   0.288   1.236   3.339
  378SOL     OW 1919   1.614   1.292   3.151
  378SOL    HW1 1920   1.674   1.295   3.231
  378SOL    HW2 1921   1.539   1.356   3.164
  379SOL     OW 1922   1.039   1.098   2.558
  379SOL    HW1 1923   0.969   1.051   2.612
  379SOL    HW2 1924   1.098   1.030   2.515
  380SOL     OW 1925   1.014   0.236   2.833
  380SOL    HW1 1926   1.006   0.200   2.740
  380SOL    HW2 1927   1.012   0.160   2.898
  381SOL     OW 1928   0.590   1.487   2.353
  381SOL    HW1 1929   0.632   1.429   2.283
  381SOL    HW2 1930   0.546   1.566   2.309
  382SOL     OW 1931   1.709   0.385   3.243
  382SOL    HW1 1932   1.782   0.454   3.247
  382SOL    HW2 1933   1.737   0.310   3.184
  383SOL     OW 1934   0.255   1.348   2.152
  383SOL    HW1 1935   0.159   1.349   2.125
  383SOL    HW2 1936   0.267   1.401   2.236
  384SOL     OW 1937   0.105   1.013   3.588
  384SOL    HW1 1938   0.028   0.980   3.642
  384SOL    HW2 1939   0.190   0.983   3.630
  385SOL     OW 1940   0.672   0.203   3.351
  385SOL    HW1 1941   0.762   0.187   3.311
  385SOL    HW2 1942   0.680   0.208   3.450
  386SOL     OW 1943   0.075   0.345   1.895
  386SOL    HW1 1944  -0.017   0.317   1.866
  386SOL    HW2 1945   0.106   0.422   1.839
  387SOL     OW 1946   1.440   0.856   3.260
  387SOL    HW1 1947   1.383   0.908   3.197
  387SOL    HW2 1948   1.536   0.868   3.236
  388SOL     OW 1949   0.072   0.166   2.180
  388SOL    HW1 1950   0.055   0.249   2.126
  388SOL    HW2 1951   0.162   0.129   2.158
  389SOL     OW 1952   1.183   1.335   1.981
  389SOL    HW1 1953   1.084   1.324   1.983
  389SOL    HW2 1954   1.217   1.350   2.074
  390SOL     OW 1955   0.613   0.842   3.293
  390SOL    HW1 1956   0.669   0.923   3.276
  390SOL    HW2 1957   0.672   0.762   3.296
  391SOL     OW 1958   1.493   1.767   2.821
  391SOL    HW1 1959   1.526   1.831   2.752
  391SOL    HW2 1960   1.559   1.761   2.896
  392SOL     OW 1961   0.716   0.565   3.570
  392SOL    HW1 1962   0.735   0.630   3.644
  392SOL    HW2 1963   0.776   0.485   3.579
  393SOL     OW 1964   1.450   1.220   3.495
  393SOL    HW1 1965   1.441   1.210   3.594
  393SOL    HW2 1966   1.546   1.213   3.469
  394SOL     OW 1967   0.390   1.741   3.422
  394SOL    HW1 1968   0.299   1.782   3.420
  394SOL    HW2 1969   0.383   1.647   3.454
  395SOL     OW 1970   1.674   0.883   3.116
  395SOL    HW1 1971   1.647   0.794   3.079
  395SOL    HW2 1972   1.675   0.951   3.043
  396SOL     OW 1973   1.225   0.325   2.311
  396SOL    HW1 1974   1.290   0.251   2.300
  396SOL    HW2 1975   1.245   0.375   2.395
  397SOL     OW 1976   0.594   0.745   2.514
  397SOL    HW1 1977   0.644   0.830   2.495
  397SOL    HW2 1978   0.506   0.747   2.466
  398SOL     OW 1979   1.777   0.342   3.504
  398SOL    HW1 1980   1.760   0.373   3.410
  398SOL    HW2 1981   1.693   0.305   3.542
  399SOL     OW 1982   1.730   0.934   3.379
  399SOL    HW1 1983   1.768   1.025   3.394
  399SOL    HW2 1984   1.722   0.917   3.280
  400SOL     OW 1985   0.859   1.374   1.878
  400SOL    HW1 1986   0.813   1.389   1.966
  400SOL    HW2 1987   0.903   1.459   1.848
  401SOL     OW 1988   0.661   1.790   2.815
  401SOL    HW1 1989   0.615   1.878   2.802
  401SOL    HW2 1990   0.760   1.802   2.808
  402SOL     OW 1991   0.859   0.956   2.723
  402SOL    HW1 1992   0.913   0.887   2.771
  402SOL    HW2 1993   0.827   1.025   2.789
  403SOL     OW 1994   1.083   0.984   1.949
  403SOL    HW1 1995   1.060   1.037   1.867
  403SOL    HW2 1996   1.164   0.928   1.930
  404SOL     OW 1997   1.861   1.569   2.713
  404SOL    HW1 1998   1.790   1.557   2.643
  404SOL    HW2 1999   1.862   1.490   2.773
  405SOL     OW 2000   0.221   1.314   3.706
  405SOL    HW1 2001   0.156   1.241   3.685
  405SOL    HW2 2002   0.225   1.328   3.804
  406SOL     OW 2003   0.079   1.240   2.515
  406SOL    HW1 2004   0.078   1.193   2.603
  406SOL    HW2 2005   0.161   1.212   2.464
  407SOL     OW 2006   0.672   1.391   3.486
  407SOL    HW1 2007   0.594   1.341   3.524
  407SOL    HW2 2008   0.669   1.486   3.517
  408SOL     OW 2009   1.824   0.192   3.089
  408SOL    HW1 2010   1.820   0.102   3.133
  408SOL    HW2 2011   1.827   0.181   2.990
  409SOL     OW 2012   0.428   0.424   2.382
  409SOL    HW1 2013   0.458   0.352   2.320
  409SOL    HW2 2014   0.389   0.384   2.465
  410SOL     OW 2015   1.705   1.487   2.966
  410SOL    HW1 2016   1.612   1.462   2.939
  410SOL    HW2 2017   1.731   1.437   3.048
  411SOL     OW 2018   0.317   0.547   3.142
  411SOL    HW1 2019   0.355   0.488   3.214
  411SOL    HW2 2020   0.357   0.521   3.054
  412SOL     OW 2021   0.812   1.586   2.549
  412SOL    HW1 2022   0.844   1.596   2.455
  412SOL    HW2 2023   0.733   1.524   2.551
  413SOL     OW 2024   1.424   0.214   2.974
  413SOL    HW1 2025   1.476   0.149   3.029
  413SOL    HW2 2026   1.375   0.277   3.035
  414SOL     OW 2027   1.001   0.034   3.016
  414SOL    HW1 2028   0.938  -0.038   2.985
  414SOL    HW2 2029   1.094  -0.002   3.016
  415SOL     OW 2030   0.770   1.330   2.163
  415SOL    HW1 2031   0.724   1.243   2.180
  415SOL    HW2 2032   0.861   1.327   2.204
  416SOL     OW 2033   0.618   1.567   3.146
  416SOL    HW1 2034   0.613   1.649   3.203
  416SOL    HW2 2035   0.707   1.564   3.101
  417SOL     OW 2036   1.352   0.052   2.030
  417SOL    HW1 2037   1.387   0.011   1.946
  417SOL    HW2 2038   1.262   0.014   2.050
  418SOL     OW 2039   1.300   0.453   2.553
  418SOL    HW1 2040   1.241   0.533   2.557
  418SOL    HW2 2041   1.315   0.418   2.646
  419SOL     OW 2042   1.593   0.221   2.744
  419SOL    HW1 2043   1.509   0.220   2.798
  419SOL    HW2 2044   1.595   0.304   2.688
  420SOL     OW 2045   0.039   1.077   2.162
  420SOL    HW1 2046   0.138   1.066   2.153
  420SOL    HW2 2047  -0.001   0.991   2.194
  421SOL     OW 2048   0.875   1.646   2.199
  421SOL    HW1 2049   0.798   1.611   2.145
  421SOL    HW2 2050   0.843   1.717   2.261
  422SOL     OW 2051   0.230   0.628   3.837
  422SOL    HW1 2052   0.137   0.626   3.874
  422SOL    HW2 2053   0.231   0.589   3.745
  423SOL     OW 2054   0.225   0.275   4.720
  423SOL    HW1 2055   0.260   0.258   4.812
  423SOL    HW2 2056   0.137   0.230   4.708
  424SOL     OW 2057   0.019   0.368   4.371
  424SOL    HW1 2058  -0.063   0.411   4.410
  424SOL    HW2 2059  -0.009   0.295   4.308
  425SOL     OW 2060   0.569   1.275   4.889
  425SOL    HW1 2061   0.476   1.268   4.852
  425SOL    HW2 2062   0.580   1.364   4.933
  426SOL     OW 2063   1.555   1.511   4.427
  426SOL    HW1 2064   1.498   1.495   4.508
  426SOL    HW2 2065   1.496   1.521   4.347
  427SOL     OW 2066   1.135   0.703   4.441
  427SOL    HW1 2067   1.192   0.781   4.416
  427SOL    HW2 2068   1.075   0.729   4.517
  428SOL     OW 2069   1.755   0.607   3.955
  428SOL    HW1 2070   1.743   0.594   3.856
  428SOL    HW2 2071   1.725   0.526   4.004
  429SOL     OW 2072   0.768   1.144   4.747
  429SOL    HW1 2073   0.690   1.161   4.807
  429SOL    HW2 2074   0.802   1.231   4.711
  430SOL     OW 2075   0.685   1.012   4.389
  430SOL    HW1 2076   0.754   0.996   4.459
  430SOL    HW2 2077   0.612   1.069   4.427
  431SOL     OW 2078   0.335   1.435   4.785
  431SOL    HW1 2079   0.257   1.404   4.732
  431SOL    HW2 2080   0.393   1.493   4.728
  432SOL     OW 2081   1.603   0.447   4.461
  432SOL    HW1 2082   1.529   0.493   4.411
  432SOL    HW2 2083   1.654   0.515   4.514
  433SOL     OW 2084   0.231   1.713   4.207
  433SOL    HW1 2085   0.265   1.790   4.261
  433SOL    HW2 2086   0.275   1.713   4.117
  434SOL     OW 2087   0.230   1.434   4.262
  434SOL    HW1 2088   0.204   1.530   4.262
  434SOL    HW2 2089   0.159   1.380   4.307
  435SOL     OW 2090   0.240   1.091   4.610
  435SOL    HW1 2091   0.254   1.007   4.662
  435SOL    HW2 2092   0.185   1.155   4.665
  436SOL     OW 2093   0.620   1.786   5.163
  436SOL    HW1 2094   0.528   1.769   5.198
  436SOL    HW2 2095   0.648   1.878   5.189
  437SOL     OW 2096   0.606   0.964   3.847
  437SOL    HW1 2097   0.613   1.048   3.793
  437SOL    HW2 2098   0.652   0.977   3.935
  438SOL     OW 2099   0.122   0.643   4.287
  438SOL    HW1 2100   0.077   0.555   4.304
  438SOL    HW2 2101   0.121   0.697   4.371
  439SOL     OW 2102   1.842   1.767   4.083
  439SOL    HW1 2103   1.896   1.738   4.163
  439SOL    HW2 2104   1.872   1.857   4.054
  440SOL     OW 2105   0.027   1.596   3.841
  440SOL    HW1 2106   0.008   1.500   3.862
  440SOL    HW2 2107  -0.006   1.654   3.916
  441SOL     OW 2108   0.613   1.365   4.450
  441SOL    HW1 2109   0.564   1.278   4.459
  441SOL    HW2 2110   0.590   1.408   4.363
  442SOL     OW 2111   0.809   0.004   4.226
  442SOL    HW1 2112   0.849   0.095   4.217
  442SOL    HW2 2113   0.709   0.012   4.232
  443SOL     OW 2114   0.197   0.976   4.988
  443SOL    HW1 2115   0.286   0.931   4.974
  443SOL    HW2 2116   0.124   0.911   4.969
  444SOL     OW 2117   1.466   1.417   4.677
  444SOL    HW1 2118   1.407   1.423   4.757
  444SOL    HW2 2119   1.451   1.329   4.631
  445SOL     OW 2120   1.667   1.714   4.296
  445SOL    HW1 2121   1.626   1.691   4.208
  445SOL    HW2 2122   1.649   1.640   4.361
  446SOL     OW 2123   0.598   0.729   3.994
  446SOL    HW1 2124   0.622   0.798   3.926
  446SOL    HW2 2125   0.520   0.762   4.048
  447SOL     OW 2126   1.281   0.345   4.668
  447SOL    HW1 2127   1.195   0.295   4.655
  447SOL    HW2 2128   1.343   0.291   4.724
  448SOL     OW 2129   1.576   1.662   4.031
  448SOL    HW1 2130   1.665   1.708   4.034
  448SOL    HW2 2131   1.555   1.638   3.936
  449SOL     OW 2132   0.991   0.410   4.966
  449SOL    HW1 2133   0.914   0.444   5.020
  449SOL    HW2 2134   0.957   0.359   4.887
  450SOL     OW 2135   1.041   0.701   4.153
  450SOL    HW1 2136   1.067   0.697   4.249
  450SOL    HW2 2137   0.956   0.650   4.139
  451SOL     OW 2138   0.076   0.811   4.513
  451SOL    HW1 2139   0.175   0.799   4.522
  451SOL    HW2 2140   0.052   0.906   4.534
  452SOL     OW 2141   0.130   1.821   5.295
  452SOL    HW1 2142   0.120   1.806   5.394
  452SOL    HW2 2143   0.044   1.857   5.259
  453SOL     OW 2144   0.865   0.348   3.919
  453SOL    HW1 2145   0.924   0.411   3.870
  453SOL    HW2 2146   0.884   0.254   3.890
  454SOL     OW 2147   1.362   1.144   4.269
  454SOL    HW1 2148   1.445   1.115   4.221
  454SOL    HW2 2149   1.313   1.211   4.213
  455SOL     OW 2150   0.550   0.196   4.609
  455SOL    HW1 2151   0.545   0.191   4.709
  455SOL    HW2 2152   0.552   0.292   4.580
  456SOL     OW 2153   1.008   1.456   4.201
  456SOL    HW1 2154   0.962   1.528   4.149
  456SOL    HW2 2155   1.004   1.476   4.299
  457SOL     OW 2156   0.351   1.801   4.577
  457SOL    HW1 2157   0.401   1.715   4.583
  457SOL    HW2 2158   0.416   1.878   4.574
  458SOL     OW 2159   0.321   0.943   3.966
  458SOL    HW1 2160   0.403   0.982   3.924
  458SOL    HW2 2161   0.294   0.861   3.917
  459SOL     OW 2162   1.458   0.735   4.452
  459SOL    HW1 2163   1.453   0.670   4.527
  459SOL    HW2 2164   1.538   0.794   4.465
  460SOL     OW 2165   1.111   1.776   3.961
  460SOL    HW1 2166   1.051   1.714   4.011
  460SOL    HW2 2167   1.142   1.732   3.876
  461SOL     OW 2168   1.632   1.377   3.805
  461SOL    HW1 2169   1.600   1.471   3.795
  461SOL    HW2 2170   1.556   1.314   3.793
  462SOL     OW 2171   0.464   1.743   4.047
  462SOL    HW1 2172   0.497   1.782   4.133
  462SOL    HW2 2173   0.540   1.736   3.982
  463SOL     OW 2174   1.400   0.107   4.150
  463SOL    HW1 2175   1.376   0.070   4.060
  463SOL    HW2 2176   1.499   0.123   4.154
  464SOL     OW 2177   0.249   1.785   4.965
  464SOL    HW1 2178   0.306   1.720   5.015
  464SOL    HW2 2179   0.233   1.752   4.872
  465SOL     OW 2180   0.940   1.698   4.628
  465SOL    HW1 2181   1.020   1.641   4.649
  465SOL    HW2 2182   0.891   1.658   4.551
  466SOL     OW 2183   0.382   0.700   4.204
  466SOL    HW1 2184   0.427   0.610   4.201
  466SOL    HW2 2185   0.288   0.689   4.237
  467SOL     OW 2186   0.614   0.122   3.841
  467SOL    HW1 2187   0.712   0.100   3.848
  467SOL    HW2 2188   0.583   0.105   3.748
  468SOL     OW 2189   0.803   1.402   4.648
  468SOL    HW1 2190   0.893   1.416   4.606
  468SOL    HW2 2191   0.732   1.404   4.577
  469SOL     OW 2192   0.922   0.503   4.623
  469SOL    HW1 2193   0.897   0.494   4.527
  469SOL    HW2 2194   0.970   0.421   4.654
  470SOL     OW 2195   0.539   0.064   4.236
  470SOL    HW1 2196   0.458   0.065   4.294
  470SOL    HW2 2197   0.542   0.147   4.181
  471SOL     OW 2198   0.297   0.035   3.895
  471SOL    HW1 2199   0.346   0.119   3.874
  471SOL    HW2 2200   0.359  -0.030   3.940
  472SOL     OW 2201   0.935   0.236   4.204
  472SOL    HW1 2202   0.887   0.277   4.126
  472SOL    HW2 2203   1.034   0.234   4.185
  473SOL     OW 2204   1.227   1.570   4.517
  473SOL    HW1 2205   1.248   1.644   4.452
  473SOL    HW2 2206   1.295   1.570   4.590
  474SOL     OW 2207   0.459   1.152   4.465
  474SOL    HW1 2208   0.388   1.125   4.530
  474SOL    HW2 2209   0.433   1.124   4.372
  475SOL     OW 2210   1.271   1.797   4.315
  475SOL    HW1 2211   1.315   1.861   4.251
  475SOL    HW2 2212   1.221   1.849   4.385
  476SOL     OW 2213   1.032   0.549   3.740
  476SOL    HW1 2214   0.991   0.631   3.701
  476SOL    HW2 2215   1.096   0.575   3.813
  477SOL     OW 2216   0.561   0.222   4.871
  477SOL    HW1 2217   0.599   0.138   4.908
  477SOL    HW2 2218   0.473   0.241   4.915
  478SOL     OW 2219   0.866   0.454   4.366
  478SOL    HW1 2220   0.834   0.526   4.304
  478SOL    HW2 2221   0.890   0.373   4.313
  479SOL     OW 2222   1.017   0.039   4.477
  479SOL    HW1 2223   0.945   0.044   4.408
  479SOL    HW2 2224   0.993  -0.030   4.546
  480SOL     OW 2225   1.429   1.173   4.591
  480SOL    HW1 2226   1.374   1.089   4.584
  480SOL    HW2 2227   1.455   1.202   4.499
  481SOL     OW 2228   1.466   0.590   4.716
  481SOL    HW1 2229   1.436   0.495   4.723
  481SOL    HW2 2230   1.539   0.606   4.782
  482SOL     OW 2231   1.857   0.833   4.101
  482SOL    HW1 2232   1.899   0.769   4.165
  482SOL    HW2 2233   1.819   0.782   4.023
  483SOL     OW 2234   0.488   1.385   3.898
  483SOL    HW1 2235   0.401   1.370   3.945
  483SOL    HW2 2236   0.471   1.411   3.803
  484SOL     OW 2237   1.664   1.280   4.381
  484SOL    HW1 2238   1.763   1.288   4.395
  484SOL    HW2 2239   1.619   1.364   4.412
  485SOL     OW 2240   1.390   0.575   3.802
  485SOL    HW1 2241   1.336   0.554   3.883
  485SOL    HW2 2242   1.481   0.534   3.811
  486SOL     OW 2243   0.527   0.256   4.052
  486SOL    HW1 2244   0.554   0.197   3.977
  486SOL    HW2 2245   0.527   0.351   4.021
  487SOL     OW 2246   1.111   1.195   4.824
  487SOL    HW1 2247   1.071   1.239   4.905
  487SOL    HW2 2248   1.070   1.232   4.741
  488SOL     OW 2249   1.638   1.099   4.803
  488SOL    HW1 2250   1.643   1.180   4.862
  488SOL    HW2 2251   1.552   1.101   4.752
  489SOL     OW 2252   0.705   1.050   4.092
  489SOL    HW1 2253   0.691   1.057   4.191
  489SOL    HW2 2254   0.789   0.999   4.074
  490SOL     OW 2255   0.410   0.813   4.975
  490SOL    HW1 2256   0.496   0.825   5.025
  490SOL    HW2 2257   0.368   0.726   5.002
  491SOL     OW 2258   1.274   0.386   4.986
  491SOL    HW1 2259   1.295   0.460   5.050
  491SOL    HW2 2260   1.185   0.403   4.943
  492SOL     OW 2261   0.367   1.100   4.225
  492SOL    HW1 2262   0.360   1.183   4.169
  492SOL    HW2 2263   0.371   1.020   4.165
  493SOL     OW 2264   0.566   0.537   4.589
  493SOL    HW1 2265   0.578   0.603   4.515
  493SOL    HW2 2266   0.612   0.571   4.672
  494SOL     OW 2267   1.252   1.348   4.112
  494SOL    HW1 2268   1.302   1.425   4.152
  494SOL    HW2 2269   1.157   1.350   4.144
  495SOL     OW 2270   1.272   1.445   4.866
  495SOL    HW1 2271   1.319   1.458   4.953
  495SOL    HW2 2272   1.206   1.371   4.875
  496SOL     OW 2273   1.582   0.639   4.196
  496SOL    HW1 2274   1.551   0.700   4.269
  496SOL    HW2 2275   1.632   0.691   4.127
  497SOL     OW 2276   0.354   1.510   5.053
  497SOL    HW1 2277   0.333   1.466   4.966
  497SOL    HW2 2278   0.451   1.536   5.056
  498SOL     OW 2279   0.573   0.870   4.753
  498SOL    HW1 2280   0.617   0.959   4.744
  498SOL    HW2 2281   0.510   0.870   4.830
  499SOL     OW 2282   1.360   0.862   4.769
  499SOL    HW1 2283   1.285   0.862   4.703
  499SOL    HW2 2284   1.397   0.770   4.778
  500SOL     OW 2285   1.209   0.525   3.999
  500SOL    HW1 2286   1.222   0.441   4.053
  500SOL    HW2 2287   1.180   0.599   4.059
  501SOL     OW 2288   0.307   0.213   4.955
  501SOL    HW1 2289   0.284   0.250   5.045
  501SOL    HW2 2290   0.277   0.118   4.949
  502SOL     OW 2291   0.037   1.310   5.006
  502SOL    HW1 2292   0.090   1.261   5.074
  502SOL    HW2 2293   0.059   1.408   5.011
  503SOL     OW 2294   0.732   0.634   4.788
  503SOL    HW1 2295   0.791   0.608   4.712
  503SOL    HW2 2296   0.704   0.730   4.777
  504SOL     OW 2297   0.307   0.063   4.342
  504SOL    HW1 2298   0.296   0.157   4.375
  504SOL    HW2 2299   0.302   0.000   4.419
  505SOL     OW 2300   1.622   0.367   4.098
  505SOL    HW1 2301   1.624   0.291   4.162
  505SOL    HW2 2302   1.574   0.444   4.138
  506SOL     OW 2303   1.023   0.766   4.690
  506SOL    HW1 2304   1.038   0.787   4.786
  506SOL    HW2 2305   0.993   0.671   4.681
  507SOL     OW 2306   1.540   0.274   3.849
  507SOL    HW1 2307   1.479   0.199   3.872
  507SOL    HW2 2308   1.562   0.326   3.932
  508SOL     OW 2309   1.303   0.838   3.766
  508SOL    HW1 2310   1.337   0.745   3.781
  508SOL    HW2 2311   1.321   0.865   3.671
  509SOL     OW 2312   1.068   1.333   4.573
  509SOL    HW1 2313   1.075   1.249   4.518
  509SOL    HW2 2314   1.130   1.402   4.537
  510SOL     OW 2315   0.319   0.810   4.673
  510SOL    HW1 2316   0.412   0.846   4.678
  510SOL    HW2 2317   0.313   0.725   4.725
  511SOL     OW 2318   0.339   0.509   4.730
  511SOL    HW1 2319   0.287   0.426   4.713
  511SOL    HW2 2320   0.416   0.514   4.666
  512SOL     OW 2321   1.160   0.207   5.201
  512SOL    HW1 2322   1.160   0.271   5.278
  512SOL    HW2 2323   1.188   0.255   5.118
  513SOL     OW 2324   0.008   1.326   3.924
  513SOL    HW1 2325  -0.085   1.347   3.893
  513SOL    HW2 2326   0.018   1.227   3.937
  514SOL     OW 2327   0.088   1.801   4.651
  514SOL    HW1 2328   0.046   1.715   4.624
  514SOL    HW2 2329   0.182   1.804   4.617
  515SOL     OW 2330   0.504   1.568   4.634
  515SOL    HW1 2331   0.570   1.642   4.643
  515SOL    HW2 2332   0.548   1.489   4.592
  516SOL     OW 2333   1.002   0.796   4.962
  516SOL    HW1 2334   1.043   0.764   5.048
  516SOL    HW2 2335   0.906   0.769   4.959
  517SOL     OW 2336   0.040   0.544   4.838
  517SOL    HW1 2337   0.125   0.511   4.797
  517SOL    HW2 2338   0.053   0.559   4.936
  518SOL     OW 2339   0.815   0.572   4.049
  518SOL    HW1 2340   0.822   0.483   4.003
  518SOL    HW2 2341   0.721   0.606   4.041
  519SOL     OW 2342   1.657   0.604   4.930
  519SOL    HW1 2343   1.619   0.535   4.992
  519SOL    HW2 2344   1.739   0.568   4.886
  520SOL     OW 2345   0.671   0.464   4.993
  520SOL    HW1 2346   0.637   0.375   4.963
  520SOL    HW2 2347   0.697   0.518   4.913
  521SOL     OW 2348   0.930   1.678   5.189
  521SOL    HW1 2349   0.906   1.660   5.094
  521SOL    HW2 2350   0.960   1.772   5.199
  522SOL     OW 2351   0.473   0.500   3.915
  522SOL    HW1 2352   0.534   0.580   3.919
  522SOL    HW2 2353   0.378   0.531   3.922
  523SOL     OW 2354   1.347   1.059   4.958
  523SOL    HW1 2355   1.371   0.996   4.884
  523SOL    HW2 2356   1.257   1.099   4.940
  524SOL     OW 2357   1.302   0.855   4.033
  524SOL    HW1 2358   1.216   0.824   4.075
  524SOL    HW2 2359   1.298   0.841   3.934
  525SOL     OW 2360   1.759   1.747   4.878
  525SOL    HW1 2361   1.820   1.777   4.805
  525SOL    HW2 2362   1.721   1.658   4.856
  526SOL     OW 2363   1.252   1.731   4.852
  526SOL    HW1 2364   1.336   1.736   4.798
  526SOL    HW2 2365   1.229   1.635   4.870
  527SOL     OW 2366   0.083   1.258   4.746
  527SOL    HW1 2367   0.078   1.257   4.846
  527SOL    HW2 2368   0.000   1.217   4.708
  528SOL     OW 2369   1.726   0.135   4.247
  528SOL    HW1 2370   1.799   0.118   4.180
  528SOL    HW2 2371   1.695   0.048   4.285
  529SOL     OW 2372   1.388   1.573   4.201
  529SOL    HW1 2373   1.455   1.585   4.127
  529SOL    HW2 2374   1.348   1.662   4.224
  530SOL     OW 2375   1.280   0.927   4.396
  530SOL    HW1 2376   1.340   0.846   4.398
  530SOL    HW2 2377   1.320   0.996   4.336
  531SOL     OW 2378   0.672   1.616   3.878
  531SOL    HW1 2379   0.681   1.626   3.779
  531SOL    HW2 2380   0.632   1.527   3.899
  532SOL     OW 2381   1.650   1.720   5.118
  532SOL    HW1 2382   1.703   1.730   5.034
  532SOL    HW2 2383   1.623   1.810   5.152
  533SOL     OW 2384   1.841   0.175   4.687
  533SOL    HW1 2385   1.880   0.090   4.651
  533SOL    HW2 2386   1.743   0.177   4.668
  534SOL     OW 2387   0.263   0.326   4.444
  534SOL    HW1 2388   0.184   0.377   4.410
  534SOL    HW2 2389   0.254   0.311   4.542
  535SOL     OW 2390   1.194   1.612   3.755
  535SOL    HW1 2391   1.200   1.519   3.792
  535SOL    HW2 2392   1.135   1.612   3.675
  536SOL     OW 2393   0.822   1.002   5.096
  536SOL    HW1 2394   0.862   1.001   5.004
  536SOL    HW2 2395   0.832   1.094   5.136
  537SOL     OW 2396   0.916   0.910   4.015
  537SOL    HW1 2397   0.979   0.948   3.947
  537SOL    HW2 2398   0.956   0.827   4.054
  538SOL     OW 2399   1.504   1.607   3.768
  538SOL    HW1 2400   1.412   1.644   3.775
  538SOL    HW2 2401   1.542   1.627   3.678
  539SOL     OW 2402   1.039   1.098   4.420
  539SOL    HW1 2403   0.969   1.051   4.474
  539SOL    HW2 2404   1.098   1.030   4.377
  540SOL     OW 2405   1.014   0.236   4.695
  540SOL    HW1 2406   1.006   0.200   4.602
  540SOL    HW2 2407   1.012   0.160   4.760
  541SOL     OW 2408   0.590   1.487   4.215
  541SOL    HW1 2409   0.632   1.429   4.145
  541SOL    HW2 2410   0.546   1.566   4.171
  542SOL     OW 2411   1.709   0.385   5.105
  542SOL    HW1 2412   1.782   0.454   5.109
  542SOL    HW2 2413   1.737   0.310   5.046
  543SOL     OW 2414   0.255   1.348   4.014
  543SOL    HW1 2415   0.159   1.349   3.987
  543SOL    HW2 2416   0.267   1.401   4.098
  544SOL     OW 2417   0.075   0.345   3.757
  544SOL    HW1 2418  -0.017   0.317   3.728
  544SOL    HW2 2419   0.106   0.422   3.701
  545SOL     OW 2420   0.072   0.166   4.042
  545SOL    HW1 2421   0.055   0.249   3.988
  545SOL    HW2 2422   0.162   0.129   4.020
  546SOL     OW 2423   1.183   1.335   3.843
  546SOL    HW1 2424   1.084   1.324   3.845
  546SOL    HW2 2425   1.217   1.350   3.936
  547SOL     OW 2426   1.493   1.767   4.683
  547SOL    HW1 2427   1.526   1.831   4.614
  547SOL    HW2 2428   1.559   1.761   4.758
  548SOL     OW 2429   1.450   1.220   5.357
  548SOL    HW1 2430   1.441   1.210   5.456
  548SOL    HW2 2431   1.546   1.213   5.331
  549SOL     OW 2432   1.674   0.883   4.978
  549SOL    HW1 2433   1.647   0.794   4.941
  549SOL    HW2 2434   1.675   0.951   4.905
  550SOL     OW 2435   1.225   0.325   4.173
  550SOL    HW1 2436   1.290   0.251   4.162
  550SOL    HW2 2437   1.245   0.375   4.257
  551SOL     OW 2438   0.594   0.745   4.376
  551SOL    HW1 2439   0.644   0.830   4.357
  551SOL    HW2 2440   0.506   0.747   4.328
  552SOL     OW 2441   1.730   0.934   5.241
  552SOL    HW1 2442   1.768   1.025   5.256
  552SOL    HW2 2443   1.722   0.917   5.142
  553SOL     OW 2444   0.859   1.374   3.740
  553SOL    HW1 2445   0.813   1.389   3.828
  553SOL    HW2 2446   0.903   1.459   3.710
  554SOL     OW 2447   0.661   1.790   4.677
  554SOL    HW1 2448   0.615   1.878   4.664
  554SOL    HW2 2449   0.760   1.802   4.670
  555SOL     OW 2450   0.859   0.956   4.585
  555SOL    HW1 2451   0.913   0.887   4.633
  555SOL    HW2 2452   0.827   1.025   4.651
  556SOL     OW 2453   1.083   0.984   3.811
  556SOL    HW1 2454   1.060   1.037   3.729
  556SOL    HW2 2455   1.164   0.928   3.792
  557SOL     OW 2456   1.861   1.569   4.575
  557SOL    HW1 2457   1.790   1.557   4.505
  557SOL    HW2 2458   1.862   1.490   4.635
  558SOL     OW 2459   0.079   1.240   4.377
  558SOL    HW1 2460   0.078   1.193   4.465
  558SOL    HW2 2461   0.161   1.212   4.326
  559SOL     OW 2462   1.824   0.192   4.951
  559SOL    HW1 2463   1.820   0.102   4.995
  559SOL    HW2 2464   1.827   0.181   4.852
  560SOL     OW 2465   0.428   0.424   4.244
  560SOL    HW1 2466   0.458   0.352   4.182
  560SOL    HW2 2467   0.389   0.384   4.327
  561SOL     OW 2468   1.705   1.487   4.828
  561SOL    HW1 2469   1.612   1.462   4.801
  561SOL    HW2 2470   1.731   1.437   4.910
  562SOL     OW 2471   0.812   1.586   4.411
  562SOL    HW1 2472   0.844   1.596   4.317
  562SOL    HW2 2473   0.733   1.524   4.413
  563SOL     OW 2474   1.424   0.214   4.836
  563SOL    HW1 2475   1.476   0.149   4.891
  563SOL    HW2 2476   1.375   0.277   4.897
  564SOL     OW 2477   1.001   0.034   4.878
  564SOL    HW1 2478   0.938  -0.038   4.847
  564SOL    HW2 2479   1.094  -0.002   4.878
  565SOL     OW 2480   0.770   1.330   4.025
  565SOL    HW1 2481   0.724   1.243   4.042
  565SOL    HW2 2482   0.861   1.327   4.066
  566SOL     OW 2483   1.352   0.052   3.892
  566SOL    HW1 2484   1.387   0.011   3.808
  566SOL    HW2 2485   1.262   0.014   3.912
  567SOL     OW 2486   1.300   0.453   4.415
  567SOL    HW1 2487   1.241   0.533   4.419
  567SOL    HW2 2488   1.315   0.418   4.508
  568SOL     OW 2489   1.593   0.221   4.606
  568SOL    HW1 2490   1.509   0.220   4.660
  568SOL    HW2 2491   1.595   0.304   4.550
  569SOL     OW 2492   0.039   1.077   4.024
  569SOL    HW1 2493   0.138   1.066   4.015
  569SOL    HW2 2494  -0.001   0.991   4.056
  570SOL     OW 2495   0.875   1.646   4.061
  570SOL    HW1 2496   0.798   1.611   4.007
  570SOL    HW2 2497   0.843   1.717   4.123
  571SOL     OW 2498   0.230   2.490   0.113
  571SOL    HW1 2499   0.137   2.488   0.150
  571SOL    HW2 2500   0.231   2.451   0.021
  572SOL     OW 2501   0.225   2.137   0.996
  572SOL    HW1 2502   0.260   2.120   1.088
  572SOL    HW2 2503   0.137   2.092   0.984
  573SOL     OW 2504   0.019   2.230   0.647
  573SOL    HW1 2505  -0.063   2.273   0.686
  573SOL    HW2 2506  -0.009   2.157   0.584
  574SOL     OW 2507   1.555   3.373   0.703
  574SOL    HW1 2508   1.498   3.357   0.784
  574SOL    HW2 2509   1.496   3.383   0.623
  575SOL     OW 2510   1.135   2.565   0.717
  575SOL    HW1 2511   1.192   2.643   0.692
  575SOL    HW2 2512   1.075   2.591   0.793
  576SOL     OW 2513   1.755   2.469   0.231
  576SOL    HW1 2514   1.743   2.456   0.132
  576SOL    HW2 2515   1.725   2.388   0.280
  577SOL     OW 2516   0.768   3.006   1.023
  577SOL    HW1 2517   0.690   3.023   1.083
  577SOL    HW2 2518   0.802   3.093   0.987
  578SOL     OW 2519   0.850   2.660   1.823
  578SOL    HW1 2520   0.846   2.736   1.888
  578SOL    HW2 2521   0.872   2.696   1.732
  579SOL     OW 2522   0.685   2.874   0.665
  579SOL    HW1 2523   0.754   2.858   0.735
  579SOL    HW2 2524   0.612   2.931   0.703
  580SOL     OW 2525   0.686   3.023   1.803
  580SOL    HW1 2526   0.746   3.102   1.817
  580SOL    HW2 2527   0.600   3.054   1.762
  581SOL     OW 2528   1.460   3.367   1.339
  581SOL    HW1 2529   1.484   3.461   1.365
  581SOL    HW2 2530   1.444   3.313   1.421
  582SOL     OW 2531   0.438   2.254   1.499
  582SOL    HW1 2532   0.520   2.198   1.508
  582SOL    HW2 2533   0.357   2.196   1.503
  583SOL     OW 2534   1.603   2.309   0.737
  583SOL    HW1 2535   1.529   2.355   0.687
  583SOL    HW2 2536   1.654   2.377   0.790
  584SOL     OW 2537   0.231   3.575   0.483
  584SOL    HW1 2538   0.265   3.652   0.537
  584SOL    HW2 2539   0.275   3.575   0.393
  585SOL     OW 2540   1.127   3.203   1.690
  585SOL    HW1 2541   1.174   3.203   1.778
  585SOL    HW2 2542   1.079   3.116   1.679
  586SOL     OW 2543   0.230   3.296   0.538
  586SOL    HW1 2544   0.204   3.392   0.538
  586SOL    HW2 2545   0.159   3.242   0.583
  587SOL     OW 2546   0.240   2.953   0.886
  587SOL    HW1 2547   0.254   2.869   0.938
  587SOL    HW2 2548   0.185   3.017   0.941
  588SOL     OW 2549   0.620   3.648   1.439
  588SOL    HW1 2550   0.528   3.631   1.474
  588SOL    HW2 2551   0.648   3.740   1.465
  589SOL     OW 2552   0.606   2.826   0.123
  589SOL    HW1 2553   0.613   2.910   0.069
  589SOL    HW2 2554   0.652   2.839   0.211
  590SOL     OW 2555   1.594   1.976   1.480
  590SOL    HW1 2556   1.576   2.043   1.408
  590SOL    HW2 2557   1.591   2.022   1.569
  591SOL     OW 2558   0.122   2.505   0.563
  591SOL    HW1 2559   0.077   2.417   0.580
  591SOL    HW2 2560   0.121   2.559   0.647
  592SOL     OW 2561   1.842   3.629   0.359
  592SOL    HW1 2562   1.896   3.600   0.439
  592SOL    HW2 2563   1.872   3.719   0.330
  593SOL     OW 2564   0.027   3.458   0.117
  593SOL    HW1 2565   0.008   3.362   0.138
  593SOL    HW2 2566  -0.006   3.516   0.192
  594SOL     OW 2567   1.689   2.784   0.612
  594SOL    HW1 2568   1.784   2.755   0.620
  594SOL    HW2 2569   1.681   2.849   0.537
  595SOL     OW 2570   1.641   2.970   0.432
  595SOL    HW1 2571   1.727   2.972   0.380
  595SOL    HW2 2572   1.655   3.017   0.520
  596SOL     OW 2573   0.113   2.599   1.597
  596SOL    HW1 2574   0.201   2.586   1.642
  596SOL    HW2 2575   0.100   2.696   1.575
  597SOL     OW 2576   0.613   3.227   0.726
  597SOL    HW1 2577   0.564   3.140   0.735
  597SOL    HW2 2578   0.590   3.270   0.639
  598SOL     OW 2579   1.293   3.090   1.423
  598SOL    HW1 2580   1.330   3.017   1.365
  598SOL    HW2 2581   1.345   3.095   1.508
  599SOL     OW 2582   0.809   1.866   0.502
  599SOL    HW1 2583   0.849   1.957   0.493
  599SOL    HW2 2584   0.709   1.874   0.508
  600SOL     OW 2585   0.197   2.838   1.264
  600SOL    HW1 2586   0.286   2.793   1.250
  600SOL    HW2 2587   0.124   2.773   1.245
  601SOL     OW 2588   1.525   2.861   0.190
  601SOL    HW1 2589   1.462   2.785   0.203
  601SOL    HW2 2590   1.573   2.879   0.276
  602SOL     OW 2591   1.187   3.654   1.616
  602SOL    HW1 2592   1.211   3.714   1.540
  602SOL    HW2 2593   1.194   3.559   1.586
  603SOL     OW 2594   0.317   2.113   1.801
  603SOL    HW1 2595   0.388   2.184   1.807
  603SOL    HW2 2596   0.229   2.152   1.829
  604SOL     OW 2597   1.466   3.279   0.953
  604SOL    HW1 2598   1.407   3.285   1.033
  604SOL    HW2 2599   1.451   3.191   0.907
  605SOL     OW 2600   1.667   3.576   0.572
  605SOL    HW1 2601   1.626   3.553   0.484
  605SOL    HW2 2602   1.649   3.502   0.637
  606SOL     OW 2603   0.598   2.591   0.270
  606SOL    HW1 2604   0.622   2.660   0.202
  606SOL    HW2 2605   0.520   2.624   0.324
  607SOL     OW 2606   1.281   2.207   0.944
  607SOL    HW1 2607   1.195   2.157   0.931
  607SOL    HW2 2608   1.343   2.153   1.000
  608SOL     OW 2609   1.576   3.524   0.307
  608SOL    HW1 2610   1.665   3.570   0.310
  608SOL    HW2 2611   1.555   3.500   0.212
  609SOL     OW 2612   0.807   2.467   1.465
  609SOL    HW1 2613   0.760   2.464   1.554
  609SOL    HW2 2614   0.756   2.412   1.399
  610SOL     OW 2615   1.394   2.331   1.674
  610SOL    HW1 2616   1.374   2.374   1.762
  610SOL    HW2 2617   1.472   2.269   1.683
  611SOL     OW 2618   0.973   2.752   1.572
  611SOL    HW1 2619   1.019   2.668   1.543
  611SOL    HW2 2620   0.917   2.786   1.497
  612SOL     OW 2621   0.991   2.272   1.242
  612SOL    HW1 2622   0.914   2.306   1.296
  612SOL    HW2 2623   0.957   2.221   1.163
  613SOL     OW 2624   1.041   2.563   0.429
  613SOL    HW1 2625   1.067   2.559   0.525
  613SOL    HW2 2626   0.956   2.512   0.415
  614SOL     OW 2627   0.076   2.673   0.789
  614SOL    HW1 2628   0.175   2.661   0.798
  614SOL    HW2 2629   0.052   2.768   0.810
  615SOL     OW 2630   0.130   3.683   1.571
  615SOL    HW1 2631   0.120   3.668   1.670
  615SOL    HW2 2632   0.044   3.719   1.535
  616SOL     OW 2633   0.865   2.210   0.195
  616SOL    HW1 2634   0.924   2.273   0.146
  616SOL    HW2 2635   0.884   2.116   0.166
  617SOL     OW 2636   1.719   2.447   1.831
  617SOL    HW1 2637   1.693   2.536   1.795
  617SOL    HW2 2638   1.717   2.379   1.758
  618SOL     OW 2639   1.362   3.006   0.545
  618SOL    HW1 2640   1.445   2.977   0.497
  618SOL    HW2 2641   1.313   3.073   0.489
  619SOL     OW 2642   0.550   2.058   0.885
  619SOL    HW1 2643   0.545   2.053   0.985
  619SOL    HW2 2644   0.552   2.154   0.856
  620SOL     OW 2645   1.795   2.928   0.873
  620SOL    HW1 2646   1.733   2.913   0.797
  620SOL    HW2 2647   1.743   2.939   0.958
  621SOL     OW 2648   1.227   3.412   1.506
  621SOL    HW1 2649   1.233   3.335   1.570
  621SOL    HW2 2650   1.175   3.386   1.426
  622SOL     OW 2651   0.321   2.805   0.242
  622SOL    HW1 2652   0.403   2.844   0.200
  622SOL    HW2 2653   0.294   2.723   0.193
  623SOL     OW 2654   1.458   2.597   0.728
  623SOL    HW1 2655   1.453   2.532   0.803
  623SOL    HW2 2656   1.538   2.656   0.741
  624SOL     OW 2657   0.461   3.128   1.727
  624SOL    HW1 2658   0.411   3.129   1.641
  624SOL    HW2 2659   0.398   3.110   1.803
  625SOL     OW 2660   0.202   2.147   1.498
  625SOL    HW1 2661   0.122   2.207   1.485
  625SOL    HW2 2662   0.192   2.098   1.584
  626SOL     OW 2663   1.632   3.239   0.081
  626SOL    HW1 2664   1.600   3.333   0.071
  626SOL    HW2 2665   1.556   3.176   0.069
  627SOL     OW 2666   0.464   3.605   0.323
  627SOL    HW1 2667   0.497   3.644   0.409
  627SOL    HW2 2668   0.540   3.598   0.258
  628SOL     OW 2669   1.400   1.969   0.426
  628SOL    HW1 2670   1.376   1.932   0.336
  628SOL    HW2 2671   1.499   1.985   0.430
  629SOL     OW 2672   0.249   3.647   1.241
  629SOL    HW1 2673   0.306   3.582   1.291
  629SOL    HW2 2674   0.233   3.614   1.148
  630SOL     OW 2675   0.382   2.562   0.480
  630SOL    HW1 2676   0.427   2.472   0.477
  630SOL    HW2 2677   0.288   2.551   0.513
  631SOL     OW 2678   1.547   2.084   1.729
  631SOL    HW1 2679   1.542   2.121   1.821
  631SOL    HW2 2680   1.475   2.015   1.717
  632SOL     OW 2681   0.781   2.126   1.749
  632SOL    HW1 2682   0.848   2.065   1.792
  632SOL    HW2 2683   0.708   2.145   1.814
  633SOL     OW 2684   0.888   3.376   1.195
  633SOL    HW1 2685   0.865   3.351   1.101
  633SOL    HW2 2686   0.949   3.307   1.234
  634SOL     OW 2687   1.351   2.452   1.433
  634SOL    HW1 2688   1.379   2.409   1.518
  634SOL    HW2 2689   1.376   2.548   1.434
  635SOL     OW 2690   0.922   2.365   0.899
  635SOL    HW1 2691   0.897   2.356   0.803
  635SOL    HW2 2692   0.970   2.283   0.930
  636SOL     OW 2693   0.539   1.926   0.512
  636SOL    HW1 2694   0.458   1.927   0.570
  636SOL    HW2 2695   0.542   2.009   0.457
  637SOL     OW 2696   1.434   3.050   0.041
  637SOL    HW1 2697   1.466   2.974   0.098
  637SOL    HW2 2698   1.342   3.077   0.071
  638SOL     OW 2699   0.297   1.897   0.171
  638SOL    HW1 2700   0.346   1.981   0.150
  638SOL    HW2 2701   0.359   1.832   0.216
  639SOL     OW 2702   0.935   2.098   0.480
  639SOL    HW1 2703   0.887   2.139   0.402
  639SOL    HW2 2704   1.034   2.096   0.461
  640SOL     OW 2705   1.076   2.545   1.464
  640SOL    HW1 2706   0.996   2.484   1.467
  640SOL    HW2 2707   1.157   2.492   1.440
  641SOL     OW 2708   0.459   3.014   0.741
  641SOL    HW1 2709   0.388   2.987   0.806
  641SOL    HW2 2710   0.433   2.986   0.648
  642SOL     OW 2711   1.271   3.659   0.591
  642SOL    HW1 2712   1.315   3.723   0.527
  642SOL    HW2 2713   1.221   3.711   0.661
  643SOL     OW 2714   1.032   2.411   0.016
  643SOL    HW1 2715   0.991   2.493  -0.023
  643SOL    HW2 2716   1.096   2.437   0.089
  644SOL     OW 2717   0.078   2.418   1.386
  644SOL    HW1 2718   0.170   2.417   1.345
  644SOL    HW2 2719   0.072   2.492   1.453
  645SOL     OW 2720   0.561   2.084   1.147
  645SOL    HW1 2721   0.599   2.000   1.184
  645SOL    HW2 2722   0.473   2.103   1.191
  646SOL     OW 2723   0.866   2.316   0.642
  646SOL    HW1 2724   0.834   2.388   0.580
  646SOL    HW2 2725   0.890   2.235   0.589
  647SOL     OW 2726   1.017   1.901   0.753
  647SOL    HW1 2727   0.945   1.906   0.684
  647SOL    HW2 2728   0.993   1.832   0.822
  648SOL     OW 2729   1.429   3.035   0.867
  648SOL    HW1 2730   1.374   2.951   0.860
  648SOL    HW2 2731   1.455   3.064   0.775
  649SOL     OW 2732   1.466   2.452   0.992
  649SOL    HW1 2733   1.436   2.357   0.999
  649SOL    HW2 2734   1.539   2.468   1.058
  650SOL     OW 2735   1.857   2.695   0.377
  650SOL    HW1 2736   1.899   2.631   0.441
  650SOL    HW2 2737   1.819   2.644   0.299
  651SOL     OW 2738   0.488   3.247   0.174
  651SOL    HW1 2739   0.401   3.232   0.221
  651SOL    HW2 2740   0.471   3.273   0.079
  652SOL     OW 2741   1.664   3.142   0.657
  652SOL    HW1 2742   1.763   3.150   0.671
  652SOL    HW2 2743   1.619   3.226   0.688
  653SOL     OW 2744   1.390   2.437   0.078
  653SOL    HW1 2745   1.336   2.416   0.159
  653SOL    HW2 2746   1.481   2.396   0.087
  654SOL     OW 2747   0.527   2.118   0.328
  654SOL    HW1 2748   0.554   2.059   0.253
  654SOL    HW2 2749   0.527   2.213   0.297
  655SOL     OW 2750   1.754   3.085   1.588
  655SOL    HW1 2751   1.845   3.046   1.575
  655SOL    HW2 2752   1.762   3.181   1.612
  656SOL     OW 2753   1.064   3.209   1.340
  656SOL    HW1 2754   0.984   3.186   1.395
  656SOL    HW2 2755   1.147   3.183   1.389
  657SOL     OW 2756   1.592   3.491   1.625
  657SOL    HW1 2757   1.619   3.525   1.535
  657SOL    HW2 2758   1.671   3.453   1.671
  658SOL     OW 2759   1.111   3.057   1.100
  658SOL    HW1 2760   1.071   3.101   1.181
  658SOL    HW2 2761   1.070   3.094   1.017
  659SOL     OW 2762   1.638   2.961   1.079
  659SOL    HW1 2763   1.643   3.042   1.138
  659SOL    HW2 2764   1.552   2.963   1.028
  660SOL     OW 2765   0.980   2.978   1.719
  660SOL    HW1 2766   0.881   2.984   1.729
  660SOL    HW2 2767   1.003   2.898   1.663
  661SOL     OW 2768   0.705   2.912   0.368
  661SOL    HW1 2769   0.691   2.919   0.467
  661SOL    HW2 2770   0.789   2.861   0.350
  662SOL     OW 2771   0.410   2.675   1.251
  662SOL    HW1 2772   0.496   2.687   1.301
  662SOL    HW2 2773   0.368   2.588   1.278
  663SOL     OW 2774   1.274   2.248   1.262
  663SOL    HW1 2775   1.295   2.322   1.326
  663SOL    HW2 2776   1.185   2.265   1.219
  664SOL     OW 2777   0.064   3.426   1.331
  664SOL    HW1 2778   0.018   3.508   1.297
  664SOL    HW2 2779   0.162   3.445   1.340
  665SOL     OW 2780   0.367   2.962   0.501
  665SOL    HW1 2781   0.360   3.045   0.445
  665SOL    HW2 2782   0.371   2.882   0.441
  666SOL     OW 2783   0.566   2.399   0.865
  666SOL    HW1 2784   0.578   2.465   0.791
  666SOL    HW2 2785   0.612   2.433   0.948
  667SOL     OW 2786   1.252   3.210   0.388
  667SOL    HW1 2787   1.302   3.287   0.428
  667SOL    HW2 2788   1.157   3.212   0.420
  668SOL     OW 2789   1.272   3.307   1.142
  668SOL    HW1 2790   1.319   3.320   1.229
  668SOL    HW2 2791   1.206   3.233   1.151
  669SOL     OW 2792   1.582   2.501   0.472
  669SOL    HW1 2793   1.551   2.562   0.545
  669SOL    HW2 2794   1.632   2.553   0.403
  670SOL     OW 2795   0.354   3.372   1.329
  670SOL    HW1 2796   0.333   3.328   1.242
  670SOL    HW2 2797   0.451   3.398   1.332
  671SOL     OW 2798   0.402   2.613   1.598
  671SOL    HW1 2799   0.470   2.668   1.551
  671SOL    HW2 2800   0.442   2.525   1.625
  672SOL     OW 2801   1.587   2.641   1.670
  672SOL    HW1 2802   1.495   2.679   1.665
  672SOL    HW2 2803   1.647   2.688   1.605
  673SOL     OW 2804   0.504   1.912   1.740
  673SOL    HW1 2805   0.462   1.855   1.670
  673SOL    HW2 2806   0.438   1.981   1.772
  674SOL     OW 2807   0.573   2.732   1.029
  674SOL    HW1 2808   0.617   2.821   1.020
  674SOL    HW2 2809   0.510   2.732   1.106
  675SOL     OW 2810   1.360   2.724   1.045
  675SOL    HW1 2811   1.285   2.724   0.979
  675SOL    HW2 2812   1.397   2.632   1.054
  676SOL     OW 2813   1.209   2.387   0.275
  676SOL    HW1 2814   1.222   2.303   0.329
  676SOL    HW2 2815   1.180   2.461   0.335
  677SOL     OW 2816   0.307   2.075   1.231
  677SOL    HW1 2817   0.284   2.112   1.321
  677SOL    HW2 2818   0.277   1.980   1.225
  678SOL     OW 2819   0.037   3.172   1.282
  678SOL    HW1 2820   0.090   3.123   1.350
  678SOL    HW2 2821   0.059   3.270   1.287
  679SOL     OW 2822   0.732   2.496   1.064
  679SOL    HW1 2823   0.791   2.470   0.988
  679SOL    HW2 2824   0.704   2.592   1.053
  680SOL     OW 2825   1.728   2.797   1.854
  680SOL    HW1 2826   1.682   2.790   1.765
  680SOL    HW2 2827   1.666   2.841   1.920
  681SOL     OW 2828   0.307   1.925   0.618
  681SOL    HW1 2829   0.296   2.019   0.651
  681SOL    HW2 2830   0.302   1.862   0.695
  682SOL     OW 2831   1.622   2.229   0.374
  682SOL    HW1 2832   1.624   2.153   0.438
  682SOL    HW2 2833   1.574   2.306   0.414
  683SOL     OW 2834   1.023   2.628   0.966
  683SOL    HW1 2835   1.038   2.649   1.062
  683SOL    HW2 2836   0.993   2.533   0.957
  684SOL     OW 2837   0.980   3.435   1.700
  684SOL    HW1 2838   0.960   3.479   1.612
  684SOL    HW2 2839   1.019   3.344   1.684
  685SOL     OW 2840   1.859   3.380   1.605
  685SOL    HW1 2841   1.873   3.407   1.510
  685SOL    HW2 2842   1.942   3.402   1.658
  686SOL     OW 2843   0.350   2.760   1.804
  686SOL    HW1 2844   0.426   2.804   1.852
  686SOL    HW2 2845   0.385   2.713   1.722
  687SOL     OW 2846   1.540   2.136   0.125
  687SOL    HW1 2847   1.479   2.061   0.148
  687SOL    HW2 2848   1.562   2.188   0.208
  688SOL     OW 2849   1.303   2.700   0.042
  688SOL    HW1 2850   1.337   2.607   0.057
  688SOL    HW2 2851   1.321   2.727  -0.053
  689SOL     OW 2852   0.319   2.672   0.949
  689SOL    HW1 2853   0.412   2.708   0.954
  689SOL    HW2 2854   0.313   2.587   1.001
  690SOL     OW 2855   0.339   2.371   1.006
  690SOL    HW1 2856   0.287   2.288   0.989
  690SOL    HW2 2857   0.416   2.376   0.942
  691SOL     OW 2858   1.138   2.242   1.678
  691SOL    HW1 2859   1.093   2.305   1.742
  691SOL    HW2 2860   1.231   2.273   1.661
  692SOL     OW 2861   0.008   3.188   0.200
  692SOL    HW1 2862  -0.085   3.209   0.169
  692SOL    HW2 2863   0.018   3.089   0.213
  693SOL     OW 2864   0.088   3.663   0.927
  693SOL    HW1 2865   0.046   3.577   0.900
  693SOL    HW2 2866   0.182   3.666   0.893
  694SOL     OW 2867   1.002   2.658   1.238
  694SOL    HW1 2868   1.043   2.626   1.324
  694SOL    HW2 2869   0.906   2.631   1.235
  695SOL     OW 2870   0.040   2.406   1.114
  695SOL    HW1 2871   0.125   2.373   1.073
  695SOL    HW2 2872   0.053   2.421   1.212
  696SOL     OW 2873   0.189   2.382   1.722
  696SOL    HW1 2874   0.248   2.342   1.652
  696SOL    HW2 2875   0.131   2.453   1.681
  697SOL     OW 2876   1.369   2.812   1.660
  697SOL    HW1 2877   1.408   2.901   1.680
  697SOL    HW2 2878   1.379   2.792   1.563
  698SOL     OW 2879   0.815   2.434   0.325
  698SOL    HW1 2880   0.822   2.345   0.279
  698SOL    HW2 2881   0.721   2.468   0.317
  699SOL     OW 2882   1.657   2.466   1.206
  699SOL    HW1 2883   1.619   2.397   1.268
  699SOL    HW2 2884   1.739   2.430   1.162
  700SOL     OW 2885   0.252   3.426   1.744
  700SOL    HW1 2886   0.222   3.483   1.820
  700SOL    HW2 2887   0.245   3.329   1.770
  701SOL     OW 2888   0.671   2.326   1.269
  701SOL    HW1 2889   0.637   2.237   1.239
  701SOL    HW2 2890   0.697   2.380   1.189
  702SOL     OW 2891   0.930   3.540   1.465
  702SOL    HW1 2892   0.906   3.522   1.370
  702SOL    HW2 2893   0.960   3.634   1.475
  703SOL     OW 2894   0.473   2.362   0.191
  703SOL    HW1 2895   0.534   2.442   0.195
  703SOL    HW2 2896   0.378   2.393   0.198
  704SOL     OW 2897   0.159   2.999   1.466
  704SOL    HW1 2898   0.181   2.938   1.542
  704SOL    HW2 2899   0.169   2.950   1.380
  705SOL     OW 2900   1.347   2.921   1.234
  705SOL    HW1 2901   1.371   2.858   1.160
  705SOL    HW2 2902   1.257   2.961   1.216
  706SOL     OW 2903   1.302   2.717   0.309
  706SOL    HW1 2904   1.216   2.686   0.351
  706SOL    HW2 2905   1.298   2.703   0.210
  707SOL     OW 2906   1.759   3.609   1.154
  707SOL    HW1 2907   1.820   3.639   1.081
  707SOL    HW2 2908   1.721   3.520   1.132
  708SOL     OW 2909   1.252   3.593   1.128
  708SOL    HW1 2910   1.336   3.598   1.074
  708SOL    HW2 2911   1.229   3.497   1.146
  709SOL     OW 2912   0.083   3.120   1.022
  709SOL    HW1 2913   0.078   3.119   1.122
  709SOL    HW2 2914   0.000   3.079   0.984
  710SOL     OW 2915   0.688   3.524   1.716
  710SOL    HW1 2916   0.632   3.605   1.725
  710SOL    HW2 2917   0.740   3.528   1.630
  711SOL     OW 2918   0.903   1.948   0.133
  711SOL    HW1 2919   0.954   1.949   0.047
  711SOL    HW2 2920   0.959   1.906   0.204
  712SOL     OW 2921   1.726   1.997   0.523
  712SOL    HW1 2922   1.799   1.980   0.456
  712SOL    HW2 2923   1.695   1.910   0.561
  713SOL     OW 2924   0.130   3.656   1.851
  713SOL    HW1 2925   0.089   3.582   1.904
  713SOL    HW2 2926   0.194   3.707   1.909
  714SOL     OW 2927   1.280   2.789   0.672
  714SOL    HW1 2928   1.340   2.708   0.674
  714SOL    HW2 2929   1.320   2.858   0.612
  715SOL     OW 2930   0.830   3.135   1.422
  715SOL    HW1 2931   0.825   3.168   1.517
  715SOL    HW2 2932   0.744   3.154   1.376
  716SOL     OW 2933   0.672   3.478   0.154
  716SOL    HW1 2934   0.681   3.488   0.055
  716SOL    HW2 2935   0.632   3.389   0.175
  717SOL     OW 2936   1.650   3.582   1.394
  717SOL    HW1 2937   1.703   3.592   1.310
  717SOL    HW2 2938   1.623   3.672   1.428
  718SOL     OW 2939   1.841   2.037   0.963
  718SOL    HW1 2940   1.880   1.952   0.927
  718SOL    HW2 2941   1.743   2.039   0.944
  719SOL     OW 2942   0.263   2.188   0.720
  719SOL    HW1 2943   0.184   2.239   0.686
  719SOL    HW2 2944   0.254   2.173   0.818
  720SOL     OW 2945   1.194   3.474   0.031
  720SOL    HW1 2946   1.200   3.381   0.068
  720SOL    HW2 2947   1.135   3.474  -0.049
  721SOL     OW 2948   0.822   2.864   1.372
  721SOL    HW1 2949   0.862   2.863   1.280
  721SOL    HW2 2950   0.832   2.956   1.412
  722SOL     OW 2951   0.916   2.772   0.291
  722SOL    HW1 2952   0.979   2.810   0.223
  722SOL    HW2 2953   0.956   2.689   0.330
  723SOL     OW 2954   1.504   3.469   0.044
  723SOL    HW1 2955   1.412   3.506   0.051
  723SOL    HW2 2956   1.542   3.489  -0.046
  724SOL     OW 2957   0.372   3.150   1.490
  724SOL    HW1 2958   0.359   3.243   1.456
  724SOL    HW2 2959   0.288   3.098   1.477
  725SOL     OW 2960   1.614   3.154   1.289
  725SOL    HW1 2961   1.674   3.157   1.369
  725SOL    HW2 2962   1.539   3.218   1.302
  726SOL     OW 2963   1.039   2.960   0.696
  726SOL    HW1 2964   0.969   2.913   0.750
  726SOL    HW2 2965   1.098   2.892   0.653
  727SOL     OW 2966   1.014   2.098   0.971
  727SOL    HW1 2967   1.006   2.062   0.878
  727SOL    HW2 2968   1.012   2.022   1.036
  728SOL     OW 2969   0.590   3.349   0.491
  728SOL    HW1 2970   0.632   3.291   0.421
  728SOL    HW2 2971   0.546   3.428   0.447
  729SOL     OW 2972   1.709   2.247   1.381
  729SOL    HW1 2973   1.782   2.316   1.385
  729SOL    HW2 2974   1.737   2.172   1.322
  730SOL     OW 2975   0.255   3.210   0.290
  730SOL    HW1 2976   0.159   3.211   0.263
  730SOL    HW2 2977   0.267   3.263   0.374
  731SOL     OW 2978   0.105   2.875   1.726
  731SOL    HW1 2979   0.028   2.842   1.780
  731SOL    HW2 2980   0.190   2.845   1.768
  732SOL     OW 2981   0.672   2.065   1.489
  732SOL    HW1 2982   0.762   2.049   1.449
  732SOL    HW2 2983   0.680   2.070   1.588
  733SOL     OW 2984   0.075   2.207   0.033
  733SOL    HW1 2985  -0.017   2.179   0.004
  733SOL    HW2 2986   0.106   2.284  -0.023
  734SOL     OW 2987   1.440   2.718   1.398
  734SOL    HW1 2988   1.383   2.770   1.335
  734SOL    HW2 2989   1.536   2.730   1.374
  735SOL     OW 2990   0.072   2.028   0.318
  735SOL    HW1 2991   0.055   2.111   0.264
  735SOL    HW2 2992   0.162   1.991   0.296
  736SOL     OW 2993   1.183   3.197   0.119
  736SOL    HW1 2994   1.084   3.186   0.121
  736SOL    HW2 2995   1.217   3.212   0.212
  737SOL     OW 2996   0.613   2.704   1.431
  737SOL    HW1 2997   0.669   2.785   1.414
  737SOL    HW2 2998   0.672   2.624   1.434
  738SOL     OW 2999   1.493   3.629   0.959
  738SOL    HW1 3000   1.526   3.693   0.890
  738SOL    HW2 3001   1.559   3.623   1.034
  739SOL     OW 3002   0.716   2.427   1.708
  739SOL    HW1 3003   0.735   2.492   1.782
  739SOL    HW2 3004   0.776   2.347   1.717
  740SOL     OW 3005   1.450   3.082   1.633
  740SOL    HW1 3006   1.441   3.072   1.732
  740SOL    HW2 3007   1.546   3.075   1.607
  741SOL     OW 3008   0.390   3.603   1.560
  741SOL    HW1 3009   0.299   3.644   1.558
  741SOL    HW2 3010   0.383   3.509   1.592
  742SOL     OW 3011   1.674   2.745   1.254
  742SOL    HW1 3012   1.647   2.656   1.217
  742SOL    HW2 3013   1.675   2.813   1.181
  743SOL     OW 3014   1.225   2.187   0.449
  743SOL    HW1 3015   1.290   2.113   0.438
  743SOL    HW2 3016   1.245   2.237   0.533
  744SOL     OW 3017   0.594   2.607   0.652
  744SOL    HW1 3018   0.644   2.692   0.633
  744SOL    HW2 3019   0.506   2.609   0.604
  745SOL     OW 3020   1.777   2.204   1.642
  745SOL    HW1 3021   1.760   2.235   1.548
  745SOL    HW2 3022   1.693   2.167   1.680
  746SOL     OW 3023   1.730   2.796   1.517
  746SOL    HW1 3024   1.768   2.887   1.532
  746SOL    HW2 3025   1.722   2.779   1.418
  747SOL     OW 3026   0.859   3.236   0.016
  747SOL    HW1 3027   0.813   3.251   0.104
  747SOL    HW2 3028   0.903   3.321  -0.014
  748SOL     OW 3029   0.859   2.818   0.861
  748SOL    HW1 3030   0.913   2.749   0.909
  748SOL    HW2 3031   0.827   2.887   0.927
  749SOL     OW 3032   1.083   2.846   0.087
  749SOL    HW1 3033   1.060   2.899   0.005
  749SOL    HW2 3034   1.164   2.790   0.068
  750SOL     OW 3035   1.861   3.431   0.851
  750SOL    HW1 3036   1.790   3.419   0.781
  750SOL    HW2 3037   1.862   3.352   0.911
  751SOL     OW 3038   0.221   3.176   1.844
  751SOL    HW1 3039   0.156   3.103   1.823
  751SOL    HW2 3040   0.225   3.190   1.942
  752SOL     OW 3041   0.079   3.102   0.653
  752SOL    HW1 3042   0.078   3.055   0.741
  752SOL    HW2 3043   0.161   3.074   0.602
  753SOL     OW 3044   0.672   3.253   1.624
  753SOL    HW1 3045   0.594   3.203   1.662
  753SOL    HW2 3046   0.669   3.348   1.655
  754SOL     OW 3047   1.824   2.054   1.227
  754SOL    HW1 3048   1.820   1.964   1.271
  754SOL    HW2 3049   1.827   2.043   1.128
  755SOL     OW 3050   0.428   2.286   0.520
  755SOL    HW1 3051   0.458   2.214   0.458
  755SOL    HW2 3052   0.389   2.246   0.603
  756SOL     OW 3053   1.705   3.349   1.104
  756SOL    HW1 3054   1.612   3.324   1.077
  756SOL    HW2 3055   1.731   3.299   1.186
  757SOL     OW 3056   0.317   2.409   1.280
  757SOL    HW1 3057   0.355   2.350   1.352
  757SOL    HW2 3058   0.357   2.383   1.192
  758SOL     OW 3059   1.424   2.076   1.112
  758SOL    HW1 3060   1.476   2.011   1.167
  758SOL    HW2 3061   1.375   2.139   1.173
  759SOL     OW 3062   0.770   3.192   0.301
  759SOL    HW1 3063   0.724   3.105   0.318
  759SOL    HW2 3064   0.861   3.189   0.342
  760SOL     OW 3065   0.618   3.429   1.284
  760SOL    HW1 3066   0.613   3.511   1.341
  760SOL    HW2 3067   0.707   3.426   1.239
  761SOL     OW 3068   1.352   1.914   0.168
  761SOL    HW1 3069   1.387   1.873   0.084
  761SOL    HW2 3070   1.262   1.876   0.188
  762SOL     OW 3071   1.300   2.315   0.691
  762SOL    HW1 3072   1.241   2.395   0.695
  762SOL    HW2 3073   1.315   2.280   0.784
  763SOL     OW 3074   1.593   2.083   0.882
  763SOL    HW1 3075   1.509   2.082   0.936
  763SOL    HW2 3076   1.595   2.166   0.826
  764SOL     OW 3077   0.039   2.939   0.300
  764SOL    HW1 3078   0.138   2.928   0.291
  764SOL    HW2 3079  -0.001   2.853   0.332
  765SOL     OW 3080   0.230   2.490   1.975
  765SOL    HW1 3081   0.137   2.488   2.012
  765SOL    HW2 3082   0.231   2.451   1.883
  766SOL     OW 3083   0.225   2.137   2.858
  766SOL    HW1 3084   0.260   2.120   2.950
  766SOL    HW2 3085   0.137   2.092   2.846
  767SOL     OW 3086   0.019   2.230   2.509
  767SOL    HW1 3087  -0.063   2.273   2.548
  767SOL    HW2 3088  -0.009   2.157   2.446
  768SOL     OW 3089   0.569   3.137   3.027
  768SOL    HW1 3090   0.476   3.130   2.990
  768SOL    HW2 3091   0.580   3.226   3.071
  769SOL     OW 3092   1.555   3.373   2.565
  769SOL    HW1 3093   1.498   3.357   2.646
  769SOL    HW2 3094   1.496   3.383   2.485
  770SOL     OW 3095   1.755   2.469   2.093
  770SOL    HW1 3096   1.743   2.456   1.994
  770SOL    HW2 3097   1.725   2.388   2.142
  771SOL     OW 3098   0.768   3.006   2.885
  771SOL    HW1 3099   0.690   3.023   2.945
  771SOL    HW2 3100   0.802   3.093   2.849
  772SOL     OW 3101   0.850   2.660   3.685
  772SOL    HW1 3102   0.846   2.736   3.750
  772SOL    HW2 3103   0.872   2.696   3.594
  773SOL     OW 3104   0.686   3.023   3.665
  773SOL    HW1 3105   0.746   3.102   3.679
  773SOL    HW2 3106   0.600   3.054   3.624
  774SOL     OW 3107   0.335   3.297   2.923
  774SOL    HW1 3108   0.257   3.266   2.870
  774SOL    HW2 3109   0.393   3.355   2.866
  775SOL     OW 3110   1.460   3.367   3.201
  775SOL    HW1 3111   1.484   3.461   3.227
  775SOL    HW2 3112   1.444   3.313   3.283
  776SOL     OW 3113   0.438   2.254   3.361
  776SOL    HW1 3114   0.520   2.198   3.370
  776SOL    HW2 3115   0.357   2.196   3.365
  777SOL     OW 3116   1.603   2.309   2.599
  777SOL    HW1 3117   1.529   2.355   2.549
  777SOL    HW2 3118   1.654   2.377   2.652
  778SOL     OW 3119   0.231   3.575   2.345
  778SOL    HW1 3120   0.265   3.652   2.399
  778SOL    HW2 3121   0.275   3.575   2.255
  779SOL     OW 3122   1.127   3.203   3.552
  779SOL    HW1 3123   1.174   3.203   3.640
  779SOL    HW2 3124   1.079   3.116   3.541
  780SOL     OW 3125   0.230   3.296   2.400
  780SOL    HW1 3126   0.204   3.392   2.400
  780SOL    HW2 3127   0.159   3.242   2.445
  781SOL     OW 3128   0.240   2.953   2.748
  781SOL    HW1 3129   0.254   2.869   2.800
  781SOL    HW2 3130   0.185   3.017   2.803
  782SOL     OW 3131   0.620   3.648   3.301
  782SOL    HW1 3132   0.528   3.631   3.336
  782SOL    HW2 3133   0.648   3.740   3.327
  783SOL     OW 3134   0.606   2.826   1.985
  783SOL    HW1 3135   0.613   2.910   1.931
  783SOL    HW2 3136   0.652   2.839   2.073
  784SOL     OW 3137   1.594   1.976   3.342
  784SOL    HW1 3138   1.576   2.043   3.270
  784SOL    HW2 3139   1.591   2.022   3.431
  785SOL     OW 3140   0.122   2.505   2.425
  785SOL    HW1 3141   0.077   2.417   2.442
  785SOL    HW2 3142   0.121   2.559   2.509
  786SOL     OW 3143   1.842   3.629   2.221
  786SOL    HW1 3144   1.896   3.600   2.301
  786SOL    HW2 3145   1.872   3.719   2.192
  787SOL     OW 3146   0.027   3.458   1.979
  787SOL    HW1 3147   0.008   3.362   2.000
  787SOL    HW2 3148  -0.006   3.516   2.054
  788SOL     OW 3149   1.689   2.784   2.474
  788SOL    HW1 3150   1.784   2.755   2.482
  788SOL    HW2 3151   1.681   2.849   2.399
  789SOL     OW 3152   1.641   2.970   2.294
  789SOL    HW1 3153   1.727   2.972   2.242
  789SOL    HW2 3154   1.655   3.017   2.382
  790SOL     OW 3155   0.113   2.599   3.459
  790SOL    HW1 3156   0.201   2.586   3.504
  790SOL    HW2 3157   0.100   2.696   3.437
  791SOL     OW 3158   1.293   3.090   3.285
  791SOL    HW1 3159   1.330   3.017   3.227
  791SOL    HW2 3160   1.345   3.095   3.370
  792SOL     OW 3161   0.809   1.866   2.364
  792SOL    HW1 3162   0.849   1.957   2.355
  792SOL    HW2 3163   0.709   1.874   2.370
  793SOL     OW 3164   0.197   2.838   3.126
  793SOL    HW1 3165   0.286   2.793   3.112
  793SOL    HW2 3166   0.124   2.773   3.107
  794SOL     OW 3167   1.525   2.861   2.052
  794SOL    HW1 3168   1.462   2.785   2.065
  794SOL    HW2 3169   1.573   2.879   2.138
  795SOL     OW 3170   1.187   3.654   3.478
  795SOL    HW1 3171   1.211   3.714   3.402
  795SOL    HW2 3172   1.194   3.559   3.448
  796SOL     OW 3173   0.317   2.113   3.663
  796SOL    HW1 3174   0.388   2.184   3.669
  796SOL    HW2 3175   0.229   2.152   3.691
  797SOL     OW 3176   1.466   3.279   2.815
  797SOL    HW1 3177   1.407   3.285   2.895
  797SOL    HW2 3178   1.451   3.191   2.769
  798SOL     OW 3179   1.667   3.576   2.434
  798SOL    HW1 3180   1.626   3.553   2.346
  798SOL    HW2 3181   1.649   3.502   2.499
  799SOL     OW 3182   0.598   2.591   2.132
  799SOL    HW1 3183   0.622   2.660   2.064
  799SOL    HW2 3184   0.520   2.624   2.186
  800SOL     OW 3185   1.281   2.207   2.806
  800SOL    HW1 3186   1.195   2.157   2.793
  800SOL    HW2 3187   1.343   2.153   2.862
  801SOL     OW 3188   1.576   3.524   2.169
  801SOL    HW1 3189   1.665   3.570   2.172
  801SOL    HW2 3190   1.555   3.500   2.074
  802SOL     OW 3191   0.807   2.467   3.327
  802SOL    HW1 3192   0.760   2.464   3.416
  802SOL    HW2 3193   0.756   2.412   3.261
  803SOL     OW 3194   1.394   2.331   3.536
  803SOL    HW1 3195   1.374   2.374   3.624
  803SOL    HW2 3196   1.472   2.269   3.545
  804SOL     OW 3197   0.973   2.752   3.434
  804SOL    HW1 3198   1.019   2.668   3.405
  804SOL    HW2 3199   0.917   2.786   3.359
  805SOL     OW 3200   0.991   2.272   3.104
  805SOL    HW1 3201   0.914   2.306   3.158
  805SOL    HW2 3202   0.957   2.221   3.025
  806SOL     OW 3203   1.041   2.563   2.291
  806SOL    HW1 3204   1.067   2.559   2.387
  806SOL    HW2 3205   0.956   2.512   2.277
  807SOL     OW 3206   0.076   2.673   2.651
  807SOL    HW1 3207   0.175   2.661   2.660
  807SOL    HW2 3208   0.052   2.768   2.672
  808SOL     OW 3209   0.130   3.683   3.433
  808SOL    HW1 3210   0.120   3.668   3.532
  808SOL    HW2 3211   0.044   3.719   3.397
  809SOL     OW 3212   0.865   2.210   2.057
  809SOL    HW1 3213   0.924   2.273   2.008
  809SOL    HW2 3214   0.884   2.116   2.028
  810SOL     OW 3215   1.719   2.447   3.693
  810SOL    HW1 3216   1.693   2.536   3.657
  810SOL    HW2 3217   1.717   2.379   3.620
  811SOL     OW 3218   1.362   3.006   2.407
  811SOL    HW1 3219   1.445   2.977   2.359
  811SOL    HW2 3220   1.313   3.073   2.351
  812SOL     OW 3221   0.550   2.058   2.747
  812SOL    HW1 3222   0.545   2.053   2.847
  812SOL    HW2 3223   0.552   2.154   2.718
  813SOL     OW 3224   1.008   3.318   2.339
  813SOL    HW1 3225   0.962   3.390   2.287
  813SOL    HW2 3226   1.004   3.338   2.437
  814SOL     OW 3227   0.351   3.663   2.715
  814SOL    HW1 3228   0.401   3.577   2.721
  814SOL    HW2 3229   0.416   3.740   2.712
  815SOL     OW 3230   1.795   2.928   2.735
  815SOL    HW1 3231   1.733   2.913   2.659
  815SOL    HW2 3232   1.743   2.939   2.820
  816SOL     OW 3233   1.227   3.412   3.368
  816SOL    HW1 3234   1.233   3.335   3.432
  816SOL    HW2 3235   1.175   3.386   3.288
  817SOL     OW 3236   0.321   2.805   2.104
  817SOL    HW1 3237   0.403   2.844   2.062
  817SOL    HW2 3238   0.294   2.723   2.055
  818SOL     OW 3239   1.458   2.597   2.590
  818SOL    HW1 3240   1.453   2.532   2.665
  818SOL    HW2 3241   1.538   2.656   2.603
  819SOL     OW 3242   0.461   3.128   3.589
  819SOL    HW1 3243   0.411   3.129   3.503
  819SOL    HW2 3244   0.398   3.110   3.665
  820SOL     OW 3245   1.111   3.638   2.099
  820SOL    HW1 3246   1.051   3.576   2.149
  820SOL    HW2 3247   1.142   3.594   2.014
  821SOL     OW 3248   1.632   3.239   1.943
  821SOL    HW1 3249   1.600   3.333   1.933
  821SOL    HW2 3250   1.556   3.176   1.931
  822SOL     OW 3251   0.464   3.605   2.185
  822SOL    HW1 3252   0.497   3.644   2.271
  822SOL    HW2 3253   0.540   3.598   2.120
  823SOL     OW 3254   1.400   1.969   2.288
  823SOL    HW1 3255   1.376   1.932   2.198
  823SOL    HW2 3256   1.499   1.985   2.292
  824SOL     OW 3257   0.249   3.647   3.103
  824SOL    HW1 3258   0.306   3.582   3.153
  824SOL    HW2 3259   0.233   3.614   3.010
  825SOL     OW 3260   0.382   2.562   2.342
  825SOL    HW1 3261   0.427   2.472   2.339
  825SOL    HW2 3262   0.288   2.551   2.375
  826SOL     OW 3263   1.547   2.084   3.591
  826SOL    HW1 3264   1.542   2.121   3.683
  826SOL    HW2 3265   1.475   2.015   3.579
  827SOL     OW 3266   0.614   1.984   1.979
  827SOL    HW1 3267   0.712   1.962   1.986
  827SOL    HW2 3268   0.583   1.967   1.886
  828SOL     OW 3269   0.781   2.126   3.611
  828SOL    HW1 3270   0.848   2.065   3.654
  828SOL    HW2 3271   0.708   2.145   3.676
  829SOL     OW 3272   0.888   3.376   3.057
  829SOL    HW1 3273   0.865   3.351   2.963
  829SOL    HW2 3274   0.949   3.307   3.096
  830SOL     OW 3275   1.351   2.452   3.295
  830SOL    HW1 3276   1.379   2.409   3.380
  830SOL    HW2 3277   1.376   2.548   3.296
  831SOL     OW 3278   0.922   2.365   2.761
  831SOL    HW1 3279   0.897   2.356   2.665
  831SOL    HW2 3280   0.970   2.283   2.792
  832SOL     OW 3281   0.539   1.926   2.374
  832SOL    HW1 3282   0.458   1.927   2.432
  832SOL    HW2 3283   0.542   2.009   2.319
  833SOL     OW 3284   1.434   3.050   1.903
  833SOL    HW1 3285   1.466   2.974   1.960
  833SOL    HW2 3286   1.342   3.077   1.933
  834SOL     OW 3287   0.297   1.897   2.033
  834SOL    HW1 3288   0.346   1.981   2.012
  834SOL    HW2 3289   0.359   1.832   2.078
  835SOL     OW 3290   0.935   2.098   2.342
  835SOL    HW1 3291   0.887   2.139   2.264
  835SOL    HW2 3292   1.034   2.096   2.323
  836SOL     OW 3293   1.076   2.545   3.326
  836SOL    HW1 3294   0.996   2.484   3.329
  836SOL    HW2 3295   1.157   2.492   3.302
  837SOL     OW 3296   1.227   3.432   2.655
  837SOL    HW1 3297   1.248   3.506   2.590
  837SOL    HW2 3298   1.295   3.432   2.728
  838SOL     OW 3299   1.271   3.659   2.453
  838SOL    HW1 3300   1.315   3.723   2.389
  838SOL    HW2 3301   1.221   3.711   2.523
  839SOL     OW 3302   1.032   2.411   1.878
  839SOL    HW1 3303   0.991   2.493   1.839
  839SOL    HW2 3304   1.096   2.437   1.951
  840SOL     OW 3305   0.561   2.084   3.009
  840SOL    HW1 3306   0.599   2.000   3.046
  840SOL    HW2 3307   0.473   2.103   3.053
  841SOL     OW 3308   1.017   1.901   2.615
  841SOL    HW1 3309   0.945   1.906   2.546
  841SOL    HW2 3310   0.993   1.832   2.684
  842SOL     OW 3311   1.429   3.035   2.729
  842SOL    HW1 3312   1.374   2.951   2.722
  842SOL    HW2 3313   1.455   3.064   2.637
  843SOL     OW 3314   1.466   2.452   2.854
  843SOL    HW1 3315   1.436   2.357   2.861
  843SOL    HW2 3316   1.539   2.468   2.920
  844SOL     OW 3317   1.857   2.695   2.239
  844SOL    HW1 3318   1.899   2.631   2.303
  844SOL    HW2 3319   1.819   2.644   2.161
  845SOL     OW 3320   0.488   3.247   2.036
  845SOL    HW1 3321   0.401   3.232   2.083
  845SOL    HW2 3322   0.471   3.273   1.941
  846SOL     OW 3323   1.664   3.142   2.519
  846SOL    HW1 3324   1.763   3.150   2.533
  846SOL    HW2 3325   1.619   3.226   2.550
  847SOL     OW 3326   1.390   2.437   1.940
  847SOL    HW1 3327   1.336   2.416   2.021
  847SOL    HW2 3328   1.481   2.396   1.949
  848SOL     OW 3329   0.527   2.118   2.190
  848SOL    HW1 3330   0.554   2.059   2.115
  848SOL    HW2 3331   0.527   2.213   2.159
  849SOL     OW 3332   1.754   3.085   3.450
  849SOL    HW1 3333   1.845   3.046   3.437
  849SOL    HW2 3334   1.762   3.181   3.474
  850SOL     OW 3335   1.064   3.209   3.202
  850SOL    HW1 3336   0.984   3.186   3.257
  850SOL    HW2 3337   1.147   3.183   3.251
  851SOL     OW 3338   1.592   3.491   3.487
  851SOL    HW1 3339   1.619   3.525   3.397
  851SOL    HW2 3340   1.671   3.453   3.533
  852SOL     OW 3341   1.638   2.961   2.941
  852SOL    HW1 3342   1.643   3.042   3.000
  852SOL    HW2 3343   1.552   2.963   2.890
  853SOL     OW 3344   0.915   1.951   3.264
  853SOL    HW1 3345   0.940   1.931   3.169
  853SOL    HW2 3346   0.987   2.007   3.306
  854SOL     OW 3347   0.980   2.978   3.581
  854SOL    HW1 3348   0.881   2.984   3.591
  854SOL    HW2 3349   1.003   2.898   3.525
  855SOL     OW 3350   0.410   2.675   3.113
  855SOL    HW1 3351   0.496   2.687   3.163
  855SOL    HW2 3352   0.368   2.588   3.140
  856SOL     OW 3353   1.274   2.248   3.124
  856SOL    HW1 3354   1.295   2.322   3.188
  856SOL    HW2 3355   1.185   2.265   3.081
  857SOL     OW 3356   0.064   3.426   3.193
  857SOL    HW1 3357   0.018   3.508   3.159
  857SOL    HW2 3358   0.162   3.445   3.202
  858SOL     OW 3359   0.367   2.962   2.363
  858SOL    HW1 3360   0.360   3.045   2.307
  858SOL    HW2 3361   0.371   2.882   2.303
  859SOL     OW 3362   0.566   2.399   2.727
  859SOL    HW1 3363   0.578   2.465   2.653
  859SOL    HW2 3364   0.612   2.433   2.810
  860SOL     OW 3365   1.252   3.210   2.250
  860SOL    HW1 3366   1.302   3.287   2.290
  860SOL    HW2 3367   1.157   3.212   2.282
  861SOL     OW 3368   1.582   2.501   2.334
  861SOL    HW1 3369   1.551   2.562   2.407
  861SOL    HW2 3370   1.632   2.553   2.265
  862SOL     OW 3371   0.354   3.372   3.191
  862SOL    HW1 3372   0.333   3.328   3.104
  862SOL    HW2 3373   0.451   3.398   3.194
  863SOL     OW 3374   0.402   2.613   3.460
  863SOL    HW1 3375   0.470   2.668   3.413
  863SOL    HW2 3376   0.442   2.525   3.487
  864SOL     OW 3377   1.587   2.641   3.532
  864SOL    HW1 3378   1.495   2.679   3.527
  864SOL    HW2 3379   1.647   2.688   3.467
  865SOL     OW 3380   1.013   1.967   3.632
  865SOL    HW1 3381   1.019   2.052   3.580
  865SOL    HW2 3382   1.045   1.891   3.575
  866SOL     OW 3383   0.504   1.912   3.602
  866SOL    HW1 3384   0.462   1.855   3.532
  866SOL    HW2 3385   0.438   1.981   3.634
  867SOL     OW 3386   1.360   2.724   2.907
  867SOL    HW1 3387   1.285   2.724   2.841
  867SOL    HW2 3388   1.397   2.632   2.916
  868SOL     OW 3389   1.209   2.387   2.137
  868SOL    HW1 3390   1.222   2.303   2.191
  868SOL    HW2 3391   1.180   2.461   2.197
  869SOL     OW 3392   0.307   2.075   3.093
  869SOL    HW1 3393   0.284   2.112   3.183
  869SOL    HW2 3394   0.277   1.980   3.087
  870SOL     OW 3395   0.037   3.172   3.144
  870SOL    HW1 3396   0.090   3.123   3.212
  870SOL    HW2 3397   0.059   3.270   3.149
  871SOL     OW 3398   0.732   2.496   2.926
  871SOL    HW1 3399   0.791   2.470   2.850
  871SOL    HW2 3400   0.704   2.592   2.915
  872SOL     OW 3401   1.728   2.797   3.716
  872SOL    HW1 3402   1.682   2.790   3.627
  872SOL    HW2 3403   1.666   2.841   3.782
  873SOL     OW 3404   0.307   1.925   2.480
  873SOL    HW1 3405   0.296   2.019   2.513
  873SOL    HW2 3406   0.302   1.862   2.557
  874SOL     OW 3407   1.622   2.229   2.236
  874SOL    HW1 3408   1.624   2.153   2.300
  874SOL    HW2 3409   1.574   2.306   2.276
  875SOL     OW 3410   1.023   2.628   2.828
  875SOL    HW1 3411   1.038   2.649   2.924
  875SOL    HW2 3412   0.993   2.533   2.819
  876SOL     OW 3413   0.980   3.435   3.562
  876SOL    HW1 3414   0.960   3.479   3.474
  876SOL    HW2 3415   1.019   3.344   3.546
  877SOL     OW 3416   1.859   3.380   3.467
  877SOL    HW1 3417   1.873   3.407   3.372
  877SOL    HW2 3418   1.942   3.402   3.520
  878SOL     OW 3419   0.350   2.760   3.666
  878SOL    HW1 3420   0.426   2.804   3.714
  878SOL    HW2 3421   0.385   2.713   3.584
  879SOL     OW 3422   1.540   2.136   1.987
  879SOL    HW1 3423   1.479   2.061   2.010
  879SOL    HW2 3424   1.562   2.188   2.070
  880SOL     OW 3425   1.303   2.700   1.904
  880SOL    HW1 3426   1.337   2.607   1.919
  880SOL    HW2 3427   1.321   2.727   1.809
  881SOL     OW 3428   0.319   2.672   2.811
  881SOL    HW1 3429   0.412   2.708   2.816
  881SOL    HW2 3430   0.313   2.587   2.863
  882SOL     OW 3431   0.339   2.371   2.868
  882SOL    HW1 3432   0.287   2.288   2.851
  882SOL    HW2 3433   0.416   2.376   2.804
  883SOL     OW 3434   1.138   2.242   3.540
  883SOL    HW1 3435   1.093   2.305   3.604
  883SOL    HW2 3436   1.231   2.273   3.523
  884SOL     OW 3437   1.160   2.069   3.339
  884SOL    HW1 3438   1.160   2.133   3.416
  884SOL    HW2 3439   1.188   2.117   3.256
  885SOL     OW 3440   0.008   3.188   2.062
  885SOL    HW1 3441  -0.085   3.209   2.031
  885SOL    HW2 3442   0.018   3.089   2.075
  886SOL     OW 3443   0.088   3.663   2.789
  886SOL    HW1 3444   0.046   3.577   2.762
  886SOL    HW2 3445   0.182   3.666   2.755
  887SOL     OW 3446   0.504   3.430   2.772
  887SOL    HW1 3447   0.570   3.504   2.781
  887SOL    HW2 3448   0.548   3.351   2.730
  888SOL     OW 3449   1.002   2.658   3.100
  888SOL    HW1 3450   1.043   2.626   3.186
  888SOL    HW2 3451   0.906   2.631   3.097
  889SOL     OW 3452   0.040   2.406   2.976
  889SOL    HW1 3453   0.125   2.373   2.935
  889SOL    HW2 3454   0.053   2.421   3.074
  890SOL     OW 3455   0.189   2.382   3.584
  890SOL    HW1 3456   0.248   2.342   3.514
  890SOL    HW2 3457   0.131   2.453   3.543
  891SOL     OW 3458   1.369   2.812   3.522
  891SOL    HW1 3459   1.408   2.901   3.542
  891SOL    HW2 3460   1.379   2.792   3.425
  892SOL     OW 3461   0.815   2.434   2.187
  892SOL    HW1 3462   0.822   2.345   2.141
  892SOL    HW2 3463   0.721   2.468   2.179
  893SOL     OW 3464   1.657   2.466   3.068
  893SOL    HW1 3465   1.619   2.397   3.130
  893SOL    HW2 3466   1.739   2.430   3.024
  894SOL     OW 3467   0.252   3.426   3.606
  894SOL    HW1 3468   0.222   3.483   3.682
  894SOL    HW2 3469   0.245   3.329   3.632
  895SOL     OW 3470   0.671   2.326   3.131
  895SOL    HW1 3471   0.637   2.237   3.101
  895SOL    HW2 3472   0.697   2.380   3.051
  896SOL     OW 3473   0.930   3.540   3.327
  896SOL    HW1 3474   0.906   3.522   3.232
  896SOL    HW2 3475   0.960   3.634   3.337
  897SOL     OW 3476   0.473   2.362   2.053
  897SOL    HW1 3477   0.534   2.442   2.057
  897SOL    HW2 3478   0.378   2.393   2.060
  898SOL     OW 3479   0.159   2.999   3.328
  898SOL    HW1 3480   0.181   2.938   3.404
  898SOL    HW2 3481   0.169   2.950   3.242
  899SOL     OW 3482   1.347   2.921   3.096
  899SOL    HW1 3483   1.371   2.858   3.022
  899SOL    HW2 3484   1.257   2.961   3.078
  900SOL     OW 3485   1.302   2.717   2.171
  900SOL    HW1 3486   1.216   2.686   2.213
  900SOL    HW2 3487   1.298   2.703   2.072
  901SOL     OW 3488   1.759   3.609   3.016
  901SOL    HW1 3489   1.820   3.639   2.943
  901SOL    HW2 3490   1.721   3.520   2.994
  902SOL     OW 3491   1.252   3.593   2.990
  902SOL    HW1 3492   1.336   3.598   2.936
  902SOL    HW2 3493   1.229   3.497   3.008
  903SOL     OW 3494   0.083   3.120   2.884
  903SOL    HW1 3495   0.078   3.119   2.984
  903SOL    HW2 3496   0.000   3.079   2.846
  904SOL     OW 3497   0.688   3.524   3.578
  904SOL    HW1 3498   0.632   3.605   3.587
  904SOL    HW2 3499   0.740   3.528   3.492
  905SOL     OW 3500   1.726   1.997   2.385
  905SOL    HW1 3501   1.799   1.980   2.318
  905SOL    HW2 3502   1.695   1.910   2.423
  906SOL     OW 3503   1.388   3.435   2.339
  906SOL    HW1 3504   1.455   3.447   2.265
  906SOL    HW2 3505   1.348   3.524   2.362
  907SOL     OW 3506   0.130   3.656   3.713
  907SOL    HW1 3507   0.089   3.582   3.766
  907SOL    HW2 3508   0.194   3.707   3.771
  908SOL     OW 3509   1.280   2.789   2.534
  908SOL    HW1 3510   1.340   2.708   2.536
  908SOL    HW2 3511   1.320   2.858   2.474
  909SOL     OW 3512   0.830   3.135   3.284
  909SOL    HW1 3513   0.825   3.168   3.379
  909SOL    HW2 3514   0.744   3.154   3.238
  910SOL     OW 3515   0.672   3.478   2.016
  910SOL    HW1 3516   0.681   3.488   1.917
  910SOL    HW2 3517   0.632   3.389   2.037
  911SOL     OW 3518   1.650   3.582   3.256
  911SOL    HW1 3519   1.703   3.592   3.172
  911SOL    HW2 3520   1.623   3.672   3.290
  912SOL     OW 3521   1.841   2.037   2.825
  912SOL    HW1 3522   1.880   1.952   2.789
  912SOL    HW2 3523   1.743   2.039   2.806
  913SOL     OW 3524   0.263   2.188   2.582
  913SOL    HW1 3525   0.184   2.239   2.548
  913SOL    HW2 3526   0.254   2.173   2.680
  914SOL     OW 3527   1.194   3.474   1.893
  914SOL    HW1 3528   1.200   3.381   1.930
  914SOL    HW2 3529   1.135   3.474   1.813
  915SOL     OW 3530   0.822   2.864   3.234
  915SOL    HW1 3531   0.862   2.863   3.142
  915SOL    HW2 3532   0.832   2.956   3.274
  916SOL     OW 3533   0.916   2.772   2.153
  916SOL    HW1 3534   0.979   2.810   2.085
  916SOL    HW2 3535   0.956   2.689   2.192
  917SOL     OW 3536   1.504   3.469   1.906
  917SOL    HW1 3537   1.412   3.506   1.913
  917SOL    HW2 3538   1.542   3.489   1.816
  918SOL     OW 3539   0.372   3.150   3.352
  918SOL    HW1 3540   0.359   3.243   3.318
  918SOL    HW2 3541   0.288   3.098   3.339
  919SOL     OW 3542   1.614   3.154   3.151
  919SOL    HW1 3543   1.674   3.157   3.231
  919SOL    HW2 3544   1.539   3.218   3.164
  920SOL     OW 3545   1.014   2.098   2.833
  920SOL    HW1 3546   1.006   2.062   2.740
  920SOL    HW2 3547   1.012   2.022   2.898
  921SOL     OW 3548   0.590   3.349   2.353
  921SOL    HW1 3549   0.632   3.291   2.283
  921SOL    HW2 3550   0.546   3.428   2.309
  922SOL     OW 3551   1.709   2.247   3.243
  922SOL    HW1 3552   1.782   2.316   3.247
  922SOL    HW2 3553   1.737   2.172   3.184
  923SOL     OW 3554   0.255   3.210   2.152
  923SOL    HW1 3555   0.159   3.211   2.125
  923SOL    HW2 3556   0.267   3.263   2.236
  924SOL     OW 3557   0.105   2.875   3.588
  924SOL    HW1 3558   0.028   2.842   3.642
  924SOL    HW2 3559   0.190   2.845   3.630
  925SOL     OW 3560   0.672   2.065   3.351
  925SOL    HW1 3561   0.762   2.049   3.311
  925SOL    HW2 3562   0.680   2.070   3.450
  926SOL     OW 3563   0.075   2.207   1.895
  926SOL    HW1 3564  -0.017   2.179   1.866
  926SOL    HW2 3565   0.106   2.284   1.839
  927SOL     OW 3566   1.440   2.718   3.260
  927SOL    HW1 3567   1.383   2.770   3.197
  927SOL    HW2 3568   1.536   2.730   3.236
  928SOL     OW 3569   0.072   2.028   2.180
  928SOL    HW1 3570   0.055   2.111   2.126
  928SOL    HW2 3571   0.162   1.991   2.158
  929SOL     OW 3572   1.183   3.197   1.981
  929SOL    HW1 3573   1.084   3.186   1.983
  929SOL    HW2 3574   1.217   3.212   2.074
  930SOL     OW 3575   0.613   2.704   3.293
  930SOL    HW1 3576   0.669   2.785   3.276
  930SOL    HW2 3577   0.672   2.624   3.296
  931SOL     OW 3578   1.493   3.629   2.821
  931SOL    HW1 3579   1.526   3.693   2.752
  931SOL    HW2 3580   1.559   3.623   2.896
  932SOL     OW 3581   0.716   2.427   3.570
  932SOL    HW1 3582   0.735   2.492   3.644
  932SOL    HW2 3583   0.776   2.347   3.579
  933SOL     OW 3584   1.450   3.082   3.495
  933SOL    HW1 3585   1.441   3.072   3.594
  933SOL    HW2 3586   1.546   3.075   3.469
  934SOL     OW 3587   0.390   3.603   3.422
  934SOL    HW1 3588   0.299   3.644   3.420
  934SOL    HW2 3589   0.383   3.509   3.454
  935SOL     OW 3590   1.674   2.745   3.116
  935SOL    HW1 3591   1.647   2.656   3.079
  935SOL    HW2 3592   1.675   2.813   3.043
  936SOL     OW 3593   1.225   2.187   2.311
  936SOL    HW1 3594   1.290   2.113   2.300
  936SOL    HW2 3595   1.245   2.237   2.395
  937SOL     OW 3596   1.777   2.204   3.504
  937SOL    HW1 3597   1.760   2.235   3.410
  937SOL    HW2 3598   1.693   2.167   3.542
  938SOL     OW 3599   1.730   2.796   3.379
  938SOL    HW1 3600   1.768   2.887   3.394
  938SOL    HW2 3601   1.722   2.779   3.280
  939SOL     OW 3602   0.859   3.236   1.878
  939SOL    HW1 3603   0.813   3.251   1.966
  939SOL    HW2 3604   0.903   3.321   1.848
  940SOL     OW 3605   0.661   3.652   2.815
  940SOL    HW1 3606   0.615   3.740   2.802
  940SOL    HW2 3607   0.760   3.664   2.808
  941SOL     OW 3608   1.083   2.846   1.949
  941SOL    HW1 3609   1.060   2.899   1.867
  941SOL    HW2 3610   1.164   2.790   1.930
  942SOL     OW 3611   1.861   3.431   2.713
  942SOL    HW1 3612   1.790   3.419   2.643
  942SOL    HW2 3613   1.862   3.352   2.773
  943SOL     OW 3614   0.221   3.176   3.706
  943SOL    HW1 3615   0.156   3.103   3.685
  943SOL    HW2 3616   0.225   3.190   3.804
  944SOL     OW 3617   0.079   3.102   2.515
  944SOL    HW1 3618   0.078   3.055   2.603
  944SOL    HW2 3619   0.161   3.074   2.464
  945SOL     OW 3620   0.672   3.253   3.486
  945SOL    HW1 3621   0.594   3.203   3.524
  945SOL    HW2 3622   0.669   3.348   3.517
  946SOL     OW 3623   1.824   2.054   3.089
  946SOL    HW1 3624   1.820   1.964   3.133
  946SOL    HW2 3625   1.827   2.043   2.990
  947SOL     OW 3626   0.428   2.286   2.382
  947SOL    HW1 3627   0.458   2.214   2.320
  947SOL    HW2 3628   0.389   2.246   2.465
  948SOL     OW 3629   1.705   3.349   2.966
  948SOL    HW1 3630   1.612   3.324   2.939
  948SOL    HW2 3631   1.731   3.299   3.048
  949SOL     OW 3632   0.317   2.409   3.142
  949SOL    HW1 3633   0.355   2.350   3.214
  949SOL    HW2 3634   0.357   2.383   3.054
  950SOL     OW 3635   0.812   3.448   2.549
  950SOL    HW1 3636   0.844   3.458   2.455
  950SOL    HW2 3637   0.733   3.386   2.551
  951SOL     OW 3638   1.424   2.076   2.974
  951SOL    HW1 3639   1.476   2.011   3.029
  951SOL    HW2 3640   1.375   2.139   3.035
  952SOL     OW 3641   1.001   1.896   3.016
  952SOL    HW1 3642   0.938   1.824   2.985
  952SOL    HW2 3643   1.094   1.860   3.016
  953SOL     OW 3644   0.770   3.192   2.163
  953SOL    HW1 3645   0.724   3.105   2.180
  953SOL    HW2 3646   0.861   3.189   2.204
  954SOL     OW 3647   0.618   3.429   3.146
  954SOL    HW1 3648   0.613   3.511   3.203
  954SOL    HW2 3649   0.707   3.426   3.101
  955SOL     OW 3650   1.352   1.914   2.030
  955SOL    HW1 3651   1.387   1.873   1.946
  955SOL    HW2 3652   1.262   1.876   2.050
  956SOL     OW 3653   1.300   2.315   2.553
  956SOL    HW1 3654   1.241   2.395   2.557
  956SOL    HW2 3655   1.315   2.280   2.646
  957SOL     OW 3656   1.593   2.083   2.744
  957SOL    HW1 3657   1.509   2.082   2.798
  957SOL    HW2 3658   1.595   2.166   2.688
  958SOL     OW 3659   0.039   2.939   2.162
  958SOL    HW1 3660   0.138   2.928   2.153
  958SOL    HW2 3661  -0.001   2.853   2.194
  959SOL     OW 3662   0.875   3.508   2.199
  959SOL    HW1 3663   0.798   3.473   2.145
  959SOL    HW2 3664   0.843   3.579   2.261
  960SOL     OW 3665   0.230   2.490   3.837
  960SOL    HW1 3666   0.137   2.488   3.874
  960SOL    HW2 3667   0.231   2.451   3.745
  961SOL     OW 3668   0.225   2.137   4.720
  961SOL    HW1 3669   0.260   2.120   4.812
  961SOL    HW2 3670   0.137   2.092   4.708
  962SOL     OW 3671   0.019   2.230   4.371
  962SOL    HW1 3672  -0.063   2.273   4.410
  962SOL    HW2 3673  -0.009   2.157   4.308
  963SOL     OW 3674   0.569   3.137   4.889
  963SOL    HW1 3675   0.476   3.130   4.852
  963SOL    HW2 3676   0.580   3.226   4.933
  964SOL     OW 3677   1.555   3.373   4.427
  964SOL    HW1 3678   1.498   3.357   4.508
  964SOL    HW2 3679   1.496   3.383   4.347
  965SOL     OW 3680   1.135   2.565   4.441
  965SOL    HW1 3681   1.192   2.643   4.416
  965SOL    HW2 3682   1.075   2.591   4.517
  966SOL     OW 3683   1.755   2.469   3.955
  966SOL    HW1 3684   1.743   2.456   3.856
  966SOL    HW2 3685   1.725   2.388   4.004
  967SOL     OW 3686   0.768   3.006   4.747
  967SOL    HW1 3687   0.690   3.023   4.807
  967SOL    HW2 3688   0.802   3.093   4.711
  968SOL     OW 3689   0.685   2.874   4.389
  968SOL    HW1 3690   0.754   2.858   4.459
  968SOL    HW2 3691   0.612   2.931   4.427
  969SOL     OW 3692   0.335   3.297   4.785
  969SOL    HW1 3693   0.257   3.266   4.732
  969SOL    HW2 3694   0.393   3.355   4.728
  970SOL     OW 3695   1.603   2.309   4.461
  970SOL    HW1 3696   1.529   2.355   4.411
  970SOL    HW2 3697   1.654   2.377   4.514
  971SOL     OW 3698   0.231   3.575   4.207
  971SOL    HW1 3699   0.265   3.652   4.261
  971SOL    HW2 3700   0.275   3.575   4.117
  972SOL     OW 3701   0.230   3.296   4.262
  972SOL    HW1 3702   0.204   3.392   4.262
  972SOL    HW2 3703   0.159   3.242   4.307
  973SOL     OW 3704   0.240   2.953   4.610
  973SOL    HW1 3705   0.254   2.869   4.662
  973SOL    HW2 3706   0.185   3.017   4.665
  974SOL     OW 3707   0.620   3.648   5.163
  974SOL    HW1 3708   0.528   3.631   5.198
  974SOL    HW2 3709   0.648   3.740   5.189
  975SOL     OW 3710   0.606   2.826   3.847
  975SOL    HW1 3711   0.613   2.910   3.793
  975SOL    HW2 3712   0.652   2.839   3.935
  976SOL     OW 3713   0.122   2.505   4.287
  976SOL    HW1 3714   0.077   2.417   4.304
  976SOL    HW2 3715   0.121   2.559   4.371
  977SOL     OW 3716   1.842   3.629   4.083
  977SOL    HW1 3717   1.896   3.600   4.163
  977SOL    HW2 3718   1.872   3.719   4.054
  978SOL     OW 3719   0.027   3.458   3.841
  978SOL    HW1 3720   0.008   3.362   3.862
  978SOL    HW2 3721  -0.006   3.516   3.916
  979SOL     OW 3722   1.689   2.784   4.336
  979SOL    HW1 3723   1.784   2.755   4.344
  979SOL    HW2 3724   1.681   2.849   4.261
  980SOL     OW 3725   1.641   2.970   4.156
  980SOL    HW1 3726   1.727   2.972   4.104
  980SOL    HW2 3727   1.655   3.017   4.244
  981SOL     OW 3728   0.613   3.227   4.450
  981SOL    HW1 3729   0.564   3.140   4.459
  981SOL    HW2 3730   0.590   3.270   4.363
  982SOL     OW 3731   0.809   1.866   4.226
  982SOL    HW1 3732   0.849   1.957   4.217
  982SOL    HW2 3733   0.709   1.874   4.232
  983SOL     OW 3734   0.197   2.838   4.988
  983SOL    HW1 3735   0.286   2.793   4.974
  983SOL    HW2 3736   0.124   2.773   4.969
  984SOL     OW 3737   1.525   2.861   3.914
  984SOL    HW1 3738   1.462   2.785   3.927
  984SOL    HW2 3739   1.573   2.879   4.000
  985SOL     OW 3740   1.466   3.279   4.677
  985SOL    HW1 3741   1.407   3.285   4.757
  985SOL    HW2 3742   1.451   3.191   4.631
  986SOL     OW 3743   1.667   3.576   4.296
  986SOL    HW1 3744   1.626   3.553   4.208
  986SOL    HW2 3745   1.649   3.502   4.361
  987SOL     OW 3746   0.598   2.591   3.994
  987SOL    HW1 3747   0.622   2.660   3.926
  987SOL    HW2 3748   0.520   2.624   4.048
  988SOL     OW 3749   1.281   2.207   4.668
  988SOL    HW1 3750   1.195   2.157   4.655
  988SOL    HW2 3751   1.343   2.153   4.724
  989SOL     OW 3752   1.576   3.524   4.031
  989SOL    HW1 3753   1.665   3.570   4.034
  989SOL    HW2 3754   1.555   3.500   3.936
  990SOL     OW 3755   0.991   2.272   4.966
  990SOL    HW1 3756   0.914   2.306   5.020
  990SOL    HW2 3757   0.957   2.221   4.887
  991SOL     OW 3758   1.041   2.563   4.153
  991SOL    HW1 3759   1.067   2.559   4.249
  991SOL    HW2 3760   0.956   2.512   4.139
  992SOL     OW 3761   0.076   2.673   4.513
  992SOL    HW1 3762   0.175   2.661   4.522
  992SOL    HW2 3763   0.052   2.768   4.534
  993SOL     OW 3764   0.130   3.683   5.295
  993SOL    HW1 3765   0.120   3.668   5.394
  993SOL    HW2 3766   0.044   3.719   5.259
  994SOL     OW 3767   0.865   2.210   3.919
  994SOL    HW1 3768   0.924   2.273   3.870
  994SOL    HW2 3769   0.884   2.116   3.890
  995SOL     OW 3770   1.362   3.006   4.269
  995SOL    HW1 3771   1.445   2.977   4.221
  995SOL    HW2 3772   1.313   3.073   4.213
  996SOL     OW 3773   0.550   2.058   4.609
  996SOL    HW1 3774   0.545   2.053   4.709
  996SOL    HW2 3775   0.552   2.154   4.580
  997SOL     OW 3776   1.008   3.318   4.201
  997SOL    HW1 3777   0.962   3.390   4.149
  997SOL    HW2 3778   1.004   3.338   4.299
  998SOL     OW 3779   0.351   3.663   4.577
  998SOL    HW1 3780   0.401   3.577   4.583
  998SOL    HW2 3781   0.416   3.740   4.574
  999SOL     OW 3782   1.795   2.928   4.597
  999SOL    HW1 3783   1.733   2.913   4.521
  999SOL    HW2 3784   1.743   2.939   4.682
 1000SOL     OW 3785   0.321   2.805   3.966
 1000SOL    HW1 3786   0.403   2.844   3.924
 1000SOL    HW2 3787   0.294   2.723   3.917
 1001SOL     OW 3788   1.458   2.597   4.452
 1001SOL    HW1 3789   1.453   2.532   4.527
 1001SOL    HW2 3790   1.538   2.656   4.465
 1002SOL     OW 3791   1.111   3.638   3.961
 1002SOL    HW1 3792   1.051   3.576   4.011
 1002SOL    HW2 3793   1.142   3.594   3.876
 1003SOL     OW 3794   1.632   3.239   3.805
 1003SOL    HW1 3795   1.600   3.333   3.795
 1003SOL    HW2 3796   1.556   3.176   3.793
 1004SOL     OW 3797   0.464   3.605   4.047
 1004SOL    HW1 3798   0.497   3.644   4.133
 1004SOL    HW2 3799   0.540   3.598   3.982
 1005SOL     OW 3800   1.400   1.969   4.150
 1005SOL    HW1 3801   1.376   1.932   4.060
 1005SOL    HW2 3802   1.499   1.985   4.154
 1006SOL     OW 3803   0.249   3.647   4.965
 1006SOL    HW1 3804   0.306   3.582   5.015
 1006SOL    HW2 3805   0.233   3.614   4.872
 1007SOL     OW 3806   0.940   3.560   4.628
 1007SOL    HW1 3807   1.020   3.503   4.649
 1007SOL    HW2 3808   0.891   3.520   4.551
 1008SOL     OW 3809   0.382   2.562   4.204
 1008SOL    HW1 3810   0.427   2.472   4.201
 1008SOL    HW2 3811   0.288   2.551   4.237
 1009SOL     OW 3812   0.614   1.984   3.841
 1009SOL    HW1 3813   0.712   1.962   3.848
 1009SOL    HW2 3814   0.583   1.967   3.748
 1010SOL     OW 3815   0.803   3.264   4.648
 1010SOL    HW1 3816   0.893   3.278   4.606
 1010SOL    HW2 3817   0.732   3.266   4.577
 1011SOL     OW 3818   0.922   2.365   4.623
 1011SOL    HW1 3819   0.897   2.356   4.527
 1011SOL    HW2 3820   0.970   2.283   4.654
 1012SOL     OW 3821   0.539   1.926   4.236
 1012SOL    HW1 3822   0.458   1.927   4.294
 1012SOL    HW2 3823   0.542   2.009   4.181
 1013SOL     OW 3824   1.434   3.050   3.765
 1013SOL    HW1 3825   1.466   2.974   3.822
 1013SOL    HW2 3826   1.342   3.077   3.795
 1014SOL     OW 3827   0.297   1.897   3.895
 1014SOL    HW1 3828   0.346   1.981   3.874
 1014SOL    HW2 3829   0.359   1.832   3.940
 1015SOL     OW 3830   0.935   2.098   4.204
 1015SOL    HW1 3831   0.887   2.139   4.126
 1015SOL    HW2 3832   1.034   2.096   4.185
 1016SOL     OW 3833   1.227   3.432   4.517
 1016SOL    HW1 3834   1.248   3.506   4.452
 1016SOL    HW2 3835   1.295   3.432   4.590
 1017SOL     OW 3836   0.459   3.014   4.465
 1017SOL    HW1 3837   0.388   2.987   4.530
 1017SOL    HW2 3838   0.433   2.986   4.372
 1018SOL     OW 3839   1.271   3.659   4.315
 1018SOL    HW1 3840   1.315   3.723   4.251
 1018SOL    HW2 3841   1.221   3.711   4.385
 1019SOL     OW 3842   1.032   2.411   3.740
 1019SOL    HW1 3843   0.991   2.493   3.701
 1019SOL    HW2 3844   1.096   2.437   3.813
 1020SOL     OW 3845   0.561   2.084   4.871
 1020SOL    HW1 3846   0.599   2.000   4.908
 1020SOL    HW2 3847   0.473   2.103   4.915
 1021SOL     OW 3848   0.866   2.316   4.366
 1021SOL    HW1 3849   0.834   2.388   4.304
 1021SOL    HW2 3850   0.890   2.235   4.313
 1022SOL     OW 3851   1.017   1.901   4.477
 1022SOL    HW1 3852   0.945   1.906   4.408
 1022SOL    HW2 3853   0.993   1.832   4.546
 1023SOL     OW 3854   1.429   3.035   4.591
 1023SOL    HW1 3855   1.374   2.951   4.584
 1023SOL    HW2 3856   1.455   3.064   4.499
 1024SOL     OW 3857   1.466   2.452   4.716
 1024SOL    HW1 3858   1.436   2.357   4.723
 1024SOL    HW2 3859   1.539   2.468   4.782
 1025SOL     OW 3860   1.857   2.695   4.101
 1025SOL    HW1 3861   1.899   2.631   4.165
 1025SOL    HW2 3862   1.819   2.644   4.023
 1026SOL     OW 3863   0.488   3.247   3.898
 1026SOL    HW1 3864   0.401   3.232   3.945
 1026SOL    HW2 3865   0.471   3.273   3.803
 1027SOL     OW 3866   1.664   3.142   4.381
 1027SOL    HW1 3867   1.763   3.150   4.395
 1027SOL    HW2 3868   1.619   3.226   4.412
 1028SOL     OW 3869   1.390   2.437   3.802
 1028SOL    HW1 3870   1.336   2.416   3.883
 1028SOL    HW2 3871   1.481   2.396   3.811
 1029SOL     OW 3872   0.527   2.118   4.052
 1029SOL    HW1 3873   0.554   2.059   3.977
 1029SOL    HW2 3874   0.527   2.213   4.021
 1030SOL     OW 3875   1.111   3.057   4.824
 1030SOL    HW1 3876   1.071   3.101   4.905
 1030SOL    HW2 3877   1.070   3.094   4.741
 1031SOL     OW 3878   1.638   2.961   4.803
 1031SOL    HW1 3879   1.643   3.042   4.862
 1031SOL    HW2 3880   1.552   2.963   4.752
 1032SOL     OW 3881   0.705   2.912   4.092
 1032SOL    HW1 3882   0.691   2.919   4.191
 1032SOL    HW2 3883   0.789   2.861   4.074
 1033SOL     OW 3884   0.410   2.675   4.975
 1033SOL    HW1 3885   0.496   2.687   5.025
 1033SOL    HW2 3886   0.368   2.588   5.002
 1034SOL     OW 3887   1.274   2.248   4.986
 1034SOL    HW1 3888   1.295   2.322   5.050
 1034SOL    HW2 3889   1.185   2.265   4.943
 1035SOL     OW 3890   0.367   2.962   4.225
 1035SOL    HW1 3891   0.360   3.045   4.169
 1035SOL    HW2 3892   0.371   2.882   4.165
 1036SOL     OW 3893   0.566   2.399   4.589
 1036SOL    HW1 3894   0.578   2.465   4.515
 1036SOL    HW2 3895   0.612   2.433   4.672
 1037SOL     OW 3896   1.252   3.210   4.112
 1037SOL    HW1 3897   1.302   3.287   4.152
 1037SOL    HW2 3898   1.157   3.212   4.144
 1038SOL     OW 3899   1.272   3.307   4.866
 1038SOL    HW1 3900   1.319   3.320   4.953
 1038SOL    HW2 3901   1.206   3.233   4.875
 1039SOL     OW 3902   1.582   2.501   4.196
 1039SOL    HW1 3903   1.551   2.562   4.269
 1039SOL    HW2 3904   1.632   2.553   4.127
 1040SOL     OW 3905   0.354   3.372   5.053
 1040SOL    HW1 3906   0.333   3.328   4.966
 1040SOL    HW2 3907   0.451   3.398   5.056
 1041SOL     OW 3908   0.573   2.732   4.753
 1041SOL    HW1 3909   0.617   2.821   4.744
 1041SOL    HW2 3910   0.510   2.732   4.830
 1042SOL     OW 3911   1.360   2.724   4.769
 1042SOL    HW1 3912   1.285   2.724   4.703
 1042SOL    HW2 3913   1.397   2.632   4.778
 1043SOL     OW 3914   1.209   2.387   3.999
 1043SOL    HW1 3915   1.222   2.303   4.053
 1043SOL    HW2 3916   1.180   2.461   4.059
 1044SOL     OW 3917   0.307   2.075   4.955
 1044SOL    HW1 3918   0.284   2.112   5.045
 1044SOL    HW2 3919   0.277   1.980   4.949
 1045SOL     OW 3920   0.037   3.172   5.006
 1045SOL    HW1 3921   0.090   3.123   5.074
 1045SOL    HW2 3922   0.059   3.270   5.011
 1046SOL     OW 3923   0.732   2.496   4.788
 1046SOL    HW1 3924   0.791   2.470   4.712
 1046SOL    HW2 3925   0.704   2.592   4.777
 1047SOL     OW 3926   0.307   1.925   4.342
 1047SOL    HW1 3927   0.296   2.019   4.375
 1047SOL    HW2 3928   0.302   1.862   4.419
 1048SOL     OW 3929   1.622   2.229   4.098
 1048SOL    HW1 3930   1.624   2.153   4.162
 1048SOL    HW2 3931   1.574   2.306   4.138
 1049SOL     OW 3932   1.023   2.628   4.690
 1049SOL    HW1 3933   1.038   2.649   4.786
 1049SOL    HW2 3934   0.993   2.533   4.681
 1050SOL     OW 3935   1.540   2.136   3.849
 1050SOL    HW1 3936   1.479   2.061   3.872
 1050SOL    HW2 3937   1.562   2.188   3.932
 1051SOL     OW 3938   1.303   2.700   3.766
 1051SOL    HW1 3939   1.337   2.607   3.781
 1051SOL    HW2 3940   1.321   2.727   3.671
 1052SOL     OW 3941   1.068   3.195   4.573
 1052SOL    HW1 3942   1.075   3.111   4.518
 1052SOL    HW2 3943   1.130   3.264   4.537
 1053SOL     OW 3944   0.319   2.672   4.673
 1053SOL    HW1 3945   0.412   2.708   4.678
 1053SOL    HW2 3946   0.313   2.587   4.725
 1054SOL     OW 3947   0.339   2.371   4.730
 1054SOL    HW1 3948   0.287   2.288   4.713
 1054SOL    HW2 3949   0.416   2.376   4.666
 1055SOL     OW 3950   1.160   2.069   5.201
 1055SOL    HW1 3951   1.160   2.133   5.278
 1055SOL    HW2 3952   1.188   2.117   5.118
 1056SOL     OW 3953   0.008   3.188   3.924
 1056SOL    HW1 3954  -0.085   3.209   3.893
 1056SOL    HW2 3955   0.018   3.089   3.937
 1057SOL     OW 3956   0.088   3.663   4.651
 1057SOL    HW1 3957   0.046   3.577   4.624
 1057SOL    HW2 3958   0.182   3.666   4.617
 1058SOL     OW 3959   0.504   3.430   4.634
 1058SOL    HW1 3960   0.570   3.504   4.643
 1058SOL    HW2 3961   0.548   3.351   4.592
 1059SOL     OW 3962   1.002   2.658   4.962
 1059SOL    HW1 3963   1.043   2.626   5.048
 1059SOL    HW2 3964   0.906   2.631   4.959
 1060SOL     OW 3965   0.040   2.406   4.838
 1060SOL    HW1 3966   0.125   2.373   4.797
 1060SOL    HW2 3967   0.053   2.421   4.936
 1061SOL     OW 3968   0.815   2.434   4.049
 1061SOL    HW1 3969   0.822   2.345   4.003
 1061SOL    HW2 3970   0.721   2.468   4.041
 1062SOL     OW 3971   1.657   2.466   4.930
 1062SOL    HW1 3972   1.619   2.397   4.992
 1062SOL    HW2 3973   1.739   2.430   4.886
 1063SOL     OW 3974   0.671   2.326   4.993
 1063SOL    HW1 3975   0.637   2.237   4.963
 1063SOL    HW2 3976   0.697   2.380   4.913
 1064SOL     OW 3977   0.473   2.362   3.915
 1064SOL    HW1 3978   0.534   2.442   3.919
 1064SOL    HW2 3979   0.378   2.393   3.922
 1065SOL     OW 3980   1.347   2.921   4.958
 1065SOL    HW1 3981   1.371   2.858   4.884
 1065SOL    HW2 3982   1.257   2.961   4.940
 1066SOL     OW 3983   1.302   2.717   4.033
 1066SOL    HW1 3984   1.216   2.686   4.075
 1066SOL    HW2 3985   1.298   2.703   3.934
 1067SOL     OW 3986   1.759   3.609   4.878
 1067SOL    HW1 3987   1.820   3.639   4.805
 1067SOL    HW2 3988   1.721   3.520   4.856
 1068SOL     OW 3989   1.252   3.593   4.852
 1068SOL    HW1 3990   1.336   3.598   4.798
 1068SOL    HW2 3991   1.229   3.497   4.870
 1069SOL     OW 3992   0.083   3.120   4.746
 1069SOL    HW1 3993   0.078   3.119   4.846
 1069SOL    HW2 3994   0.000   3.079   4.708
 1070SOL     OW 3995   1.726   1.997   4.247
 1070SOL    HW1 3996   1.799   1.980   4.180
 1070SOL    HW2 3997   1.695   1.910   4.285
 1071SOL     OW 3998   1.388   3.435   4.201
 1071SOL    HW1 3999   1.455   3.447   4.127
 1071SOL    HW2 4000   1.348   3.524   4.224
 1072SOL     OW 4001   1.280   2.789   4.396
 1072SOL    HW1 4002   1.340   2.708   4.398
 1072SOL    HW2 4003   1.320   2.858   4.336
 1073SOL     OW 4004   0.672   3.478   3.878
 1073SOL    HW1 4005   0.681   3.488   3.779
 1073SOL    HW2 4006   0.632   3.389   3.899
 1074SOL     OW 4007   1.650   3.582   5.118
 1074SOL    HW1 4008   1.703   3.592   5.034
 1074SOL    HW2 4009   1.623   3.672   5.152
 1075SOL     OW 4010   1.841   2.037   4.687
 1075SOL    HW1 4011   1.880   1.952   4.651
 1075SOL    HW2 4012   1.743   2.039   4.668
 1076SOL     OW 4013   0.263   2.188   4.444
 1076SOL    HW1 4014   0.184   2.239   4.410
 1076SOL    HW2 4015   0.254   2.173   4.542
 1077SOL     OW 4016   1.194   3.474   3.755
 1077SOL    HW1 4017   1.200   3.381   3.792
 1077SOL    HW2 4018   1.135   3.474   3.675
 1078SOL     OW 4019   0.822   2.864   5.096
 1078SOL    HW1 4020   0.862   2.863   5.004
 1078SOL    HW2 4021   0.832   2.956   5.136
 1079SOL     OW 4022   0.916   2.772   4.015
 1079SOL    HW1 4023   0.979   2.810   3.947
 1079SOL    HW2 4024   0.956   2.689   4.054
 1080SOL     OW 4025   1.504   3.469   3.768
 1080SOL    HW1 4026   1.412   3.506   3.775
 1080SOL    HW2 4027   1.542   3.489   3.678
 1081SOL     OW 4028   1.039   2.960   4.420
 1081SOL    HW1 4029   0.969   2.913   4.474
 1081SOL    HW2 4030   1.098   2.892   4.377
 1082SOL     OW 4031   1.014   2.098   4.695
 1082SOL    HW1 4032   1.006   2.062   4.602
 1082SOL    HW2 4033   1.012   2.022   4.760
 1083SOL     OW 4034   0.590   3.349   4.215
 1083SOL    HW1 4035   0.632   3.291   4.145
 1083SOL    HW2 4036   0.546   3.428   4.171
 1084SOL     OW 4037   1.709   2.247   5.105
 1084SOL    HW1 4038   1.782   2.316   5.109
 1084SOL    HW2 4039   1.737   2.172   5.046
 1085SOL     OW 4040   0.255   3.210   4.014
 1085SOL    HW1 4041   0.159   3.211   3.987
 1085SOL    HW2 4042   0.267   3.263   4.098
 1086SOL     OW 4043   0.075   2.207   3.757
 1086SOL    HW1 4044  -0.017   2.179   3.728
 1086SOL    HW2 4045   0.106   2.284   3.701
 1087SOL     OW 4046   0.072   2.028   4.042
 1087SOL    HW1 4047   0.055   2.111   3.988
 1087SOL    HW2 4048   0.162   1.991   4.020
 1088SOL     OW 4049   1.183   3.197   3.843
 1088SOL    HW1 4050   1.084   3.186   3.845
 1088SOL    HW2 4051   1.217   3.212   3.936
 1089SOL     OW 4052   1.493   3.629   4.683
 1089SOL    HW1 4053   1.526   3.693   4.614
 1089SOL    HW2 4054   1.559   3.623   4.758
 1090SOL     OW 4055   1.450   3.082   5.357
 1090SOL    HW1 4056   1.441   3.072   5.456
 1090SOL    HW2 4057   1.546   3.075   5.331
 1091SOL     OW 4058   1.674   2.745   4.978
 1091SOL    HW1 4059   1.647   2.656   4.941
 1091SOL    HW2 4060   1.675   2.813   4.905
 1092SOL     OW 4061   1.225   2.187   4.173
 1092SOL    HW1 4062   1.290   2.113   4.162
 1092SOL    HW2 4063   1.245   2.237   4.257
 1093SOL     OW 4064   0.594   2.607   4.376
 1093SOL    HW1 4065   0.644   2.692   4.357
 1093SOL    HW2 4066   0.506   2.609   4.328
 1094SOL     OW 4067   1.730   2.796   5.241
 1094SOL    HW1 4068   1.768   2.887   5.256
 1094SOL    HW2 4069   1.722   2.779   5.142
 1095SOL     OW 4070   0.859   3.236   3.740
 1095SOL    HW1 4071   0.813   3.251   3.828
 1095SOL    HW2 4072   0.903   3.321   3.710
 1096SOL     OW 4073   0.661   3.652   4.677
 1096SOL    HW1 4074   0.615   3.740   4.664
 1096SOL    HW2 4075   0.760   3.664   4.670
 1097SOL     OW 4076   0.859   2.818   4.585
 1097SOL    HW1 4077   0.913   2.749   4.633
 1097SOL    HW2 4078   0.827   2.887   4.651
 1098SOL     OW 4079   1.083   2.846   3.811
 1098SOL    HW1 4080   1.060   2.899   3.729
 1098SOL    HW2 4081   1.164   2.790   3.792
 1099SOL     OW 4082   1.861   3.431   4.575
 1099SOL    HW1 4083   1.790   3.419   4.505
 1099SOL    HW2 4084   1.862   3.352   4.635
 1100SOL     OW 4085   0.079   3.102   4.377
 1100SOL    HW1 4086   0.078   3.055   4.465
 1100SOL    HW2 4087   0.161   3.074   4.326
 1101SOL     OW 4088   1.824   2.054   4.951
 1101SOL    HW1 4089   1.820   1.964   4.995
 1101SOL    HW2 4090   1.827   2.043   4.852
 1102SOL     OW 4091   0.428   2.286   4.244
 1102SOL    HW1 4092   0.458   2.214   4.182
 1102SOL    HW2 4093   0.389   2.246   4.327
 1103SOL     OW 4094   1.705   3.349   4.828
 1103SOL    HW1 4095   1.612   3.324   4.801
 1103SOL    HW2 4096   1.731   3.299   4.910
 1104SOL     OW 4097   0.812   3.448   4.411
 1104SOL    HW1 4098   0.844   3.458   4.317
 1104SOL    HW2 4099   0.733   3.386   4.413
 1105SOL     OW 4100   1.424   2.076   4.836
 1105SOL    HW1 4101   1.476   2.011   4.891
 1105SOL    HW2 4102   1.375   2.139   4.897
 1106SOL     OW 4103   1.001   1.896   4.878
 1106SOL    HW1 4104   0.938   1.824   4.847
 1106SOL    HW2 4105   1.094   1.860   4.878
 1107SOL     OW 4106   0.770   3.192   4.025
 1107SOL    HW1 4107   0.724   3.105   4.042
 1107SOL    HW2 4108   0.861   3.189   4.066
 1108SOL     OW 4109   1.352   1.914   3.892
 1108SOL    HW1 4110   1.387   1.873   3.808
 1108SOL    HW2 4111   1.262   1.876   3.912
 1109SOL     OW 4112   1.300   2.315   4.415
 1109SOL    HW1 4113   1.241   2.395   4.419
 1109SOL    HW2 4114   1.315   2.280   4.508
 1110SOL     OW 4115   1.593   2.083   4.606
 1110SOL    HW1 4116   1.509   2.082   4.660
 1110SOL    HW2 4117   1.595   2.166   4.550
 1111SOL     OW 4118   0.039   2.939   4.024
 1111SOL    HW1 4119   0.138   2.928   4.015
 1111SOL    HW2 4120  -0.001   2.853   4.056
 1112SOL     OW 4121   0.875   3.508   4.061
 1112SOL    HW1 4122   0.798   3.473   4.007
 1112SOL    HW2 4123   0.843   3.579   4.123
 1113SOL     OW 4124   0.230   4.352   0.113
 1113SOL    HW1 4125   0.137   4.350   0.150
 1113SOL    HW2 4126   0.231   4.313   0.021
 1114SOL     OW 4127   0.225   3.999   0.996
 1114SOL    HW1 4128   0.260   3.982   1.088
 1114SOL    HW2 4129   0.137   3.954   0.984
 1115SOL     OW 4130   0.019   4.092   0.647
 1115SOL    HW1 4131  -0.063   4.135   0.686
 1115SOL    HW2 4132  -0.009   4.019   0.584
 1116SOL     OW 4133   0.569   4.999   1.165
 1116SOL    HW1 4134   0.476   4.992   1.128
 1116SOL    HW2 4135   0.580   5.088   1.209
 1117SOL     OW 4136   1.555   5.235   0.703
 1117SOL    HW1 4137   1.498   5.219   0.784
 1117SOL    HW2 4138   1.496   5.245   0.623
 1118SOL     OW 4139   1.135   4.427   0.717
 1118SOL    HW1 4140   1.192   4.505   0.692
 1118SOL    HW2 4141   1.075   4.453   0.793
 1119SOL     OW 4142   1.755   4.331   0.231
 1119SOL    HW1 4143   1.743   4.318   0.132
 1119SOL    HW2 4144   1.725   4.250   0.280
 1120SOL     OW 4145   0.768   4.868   1.023
 1120SOL    HW1 4146   0.690   4.885   1.083
 1120SOL    HW2 4147   0.802   4.955   0.987
 1121SOL     OW 4148   0.850   4.522   1.823
 1121SOL    HW1 4149   0.846   4.598   1.888
 1121SOL    HW2 4150   0.872   4.558   1.732
 1122SOL     OW 4151   0.685   4.736   0.665
 1122SOL    HW1 4152   0.754   4.720   0.735
 1122SOL    HW2 4153   0.612   4.793   0.703
 1123SOL     OW 4154   0.686   4.885   1.803
 1123SOL    HW1 4155   0.746   4.964   1.817
 1123SOL    HW2 4156   0.600   4.916   1.762
 1124SOL     OW 4157   0.335   5.159   1.061
 1124SOL    HW1 4158   0.257   5.128   1.008
 1124SOL    HW2 4159   0.393   5.217   1.004
 1125SOL     OW 4160   0.438   4.116   1.499
 1125SOL    HW1 4161   0.520   4.060   1.508
 1125SOL    HW2 4162   0.357   4.058   1.503
 1126SOL     OW 4163   1.603   4.171   0.737
 1126SOL    HW1 4164   1.529   4.217   0.687
 1126SOL    HW2 4165   1.654   4.239   0.790
 1127SOL     OW 4166   0.240   4.815   0.886
 1127SOL    HW1 4167   0.254   4.731   0.938
 1127SOL    HW2 4168   0.185   4.879   0.941
 1128SOL     OW 4169   0.606   4.688   0.123
 1128SOL    HW1 4170   0.613   4.772   0.069
 1128SOL    HW2 4171   0.652   4.701   0.211
 1129SOL     OW 4172   1.594   3.838   1.480
 1129SOL    HW1 4173   1.576   3.905   1.408
 1129SOL    HW2 4174   1.591   3.884   1.569
 1130SOL     OW 4175   0.122   4.367   0.563
 1130SOL    HW1 4176   0.077   4.279   0.580
 1130SOL    HW2 4177   0.121   4.421   0.647
 1131SOL     OW 4178   1.689   4.646   0.612
 1131SOL    HW1 4179   1.784   4.617   0.620
 1131SOL    HW2 4180   1.681   4.711   0.537
 1132SOL     OW 4181   1.641   4.832   0.432
 1132SOL    HW1 4182   1.727   4.834   0.380
 1132SOL    HW2 4183   1.655   4.879   0.520
 1133SOL     OW 4184   0.113   4.461   1.597
 1133SOL    HW1 4185   0.201   4.448   1.642
 1133SOL    HW2 4186   0.100   4.558   1.575
 1134SOL     OW 4187   1.293   4.952   1.423
 1134SOL    HW1 4188   1.330   4.879   1.365
 1134SOL    HW2 4189   1.345   4.957   1.508
 1135SOL     OW 4190   0.197   4.700   1.264
 1135SOL    HW1 4191   0.286   4.655   1.250
 1135SOL    HW2 4192   0.124   4.635   1.245
 1136SOL     OW 4193   1.525   4.723   0.190
 1136SOL    HW1 4194   1.462   4.647   0.203
 1136SOL    HW2 4195   1.573   4.741   0.276
 1137SOL     OW 4196   0.317   3.975   1.801
 1137SOL    HW1 4197   0.388   4.046   1.807
 1137SOL    HW2 4198   0.229   4.014   1.829
 1138SOL     OW 4199   1.466   5.141   0.953
 1138SOL    HW1 4200   1.407   5.147   1.033
 1138SOL    HW2 4201   1.451   5.053   0.907
 1139SOL     OW 4202   0.598   4.453   0.270
 1139SOL    HW1 4203   0.622   4.522   0.202
 1139SOL    HW2 4204   0.520   4.486   0.324
 1140SOL     OW 4205   1.281   4.069   0.944
 1140SOL    HW1 4206   1.195   4.019   0.931
 1140SOL    HW2 4207   1.343   4.015   1.000
 1141SOL     OW 4208   0.807   4.329   1.465
 1141SOL    HW1 4209   0.760   4.326   1.554
 1141SOL    HW2 4210   0.756   4.274   1.399
 1142SOL     OW 4211   1.394   4.193   1.674
 1142SOL    HW1 4212   1.374   4.236   1.762
 1142SOL    HW2 4213   1.472   4.131   1.683
 1143SOL     OW 4214   0.973   4.614   1.572
 1143SOL    HW1 4215   1.019   4.530   1.543
 1143SOL    HW2 4216   0.917   4.648   1.497
 1144SOL     OW 4217   0.991   4.134   1.242
 1144SOL    HW1 4218   0.914   4.168   1.296
 1144SOL    HW2 4219   0.957   4.083   1.163
 1145SOL     OW 4220   0.076   4.535   0.789
 1145SOL    HW1 4221   0.175   4.523   0.798
 1145SOL    HW2 4222   0.052   4.630   0.810
 1146SOL     OW 4223   1.719   4.309   1.831
 1146SOL    HW1 4224   1.693   4.398   1.795
 1146SOL    HW2 4225   1.717   4.241   1.758
 1147SOL     OW 4226   1.362   4.868   0.545
 1147SOL    HW1 4227   1.445   4.839   0.497
 1147SOL    HW2 4228   1.313   4.935   0.489
 1148SOL     OW 4229   0.321   4.667   0.242
 1148SOL    HW1 4230   0.403   4.706   0.200
 1148SOL    HW2 4231   0.294   4.585   0.193
 1149SOL     OW 4232   1.458   4.459   0.728
 1149SOL    HW1 4233   1.453   4.394   0.803
 1149SOL    HW2 4234   1.538   4.518   0.741
 1150SOL     OW 4235   0.202   4.009   1.498
 1150SOL    HW1 4236   0.122   4.069   1.485
 1150SOL    HW2 4237   0.192   3.960   1.584
 1151SOL     OW 4238   1.632   5.101   0.081
 1151SOL    HW1 4239   1.600   5.195   0.071
 1151SOL    HW2 4240   1.556   5.038   0.069
 1152SOL     OW 4241   0.382   4.424   0.480
 1152SOL    HW1 4242   0.427   4.334   0.477
 1152SOL    HW2 4243   0.288   4.413   0.513
 1153SOL     OW 4244   1.547   3.946   1.729
 1153SOL    HW1 4245   1.542   3.983   1.821
 1153SOL    HW2 4246   1.475   3.877   1.717
 1154SOL     OW 4247   0.781   3.988   1.749
 1154SOL    HW1 4248   0.848   3.927   1.792
 1154SOL    HW2 4249   0.708   4.007   1.814
 1155SOL     OW 4250   1.351   4.314   1.433
 1155SOL    HW1 4251   1.379   4.271   1.518
 1155SOL    HW2 4252   1.376   4.410   1.434
 1156SOL     OW 4253   0.803   5.126   0.924
 1156SOL    HW1 4254   0.893   5.140   0.882
 1156SOL    HW2 4255   0.732   5.128   0.853
 1157SOL     OW 4256   0.922   4.227   0.899
 1157SOL    HW1 4257   0.897   4.218   0.803
 1157SOL    HW2 4258   0.970   4.145   0.930
 1158SOL     OW 4259   0.539   3.788   0.512
 1158SOL    HW1 4260   0.458   3.789   0.570
 1158SOL    HW2 4261   0.542   3.871   0.457
 1159SOL     OW 4262   1.434   4.912   0.041
 1159SOL    HW1 4263   1.466   4.836   0.098
 1159SOL    HW2 4264   1.342   4.939   0.071
 1160SOL     OW 4265   0.297   3.759   0.171
 1160SOL    HW1 4266   0.346   3.843   0.150
 1160SOL    HW2 4267   0.359   3.694   0.216
 1161SOL     OW 4268   1.076   4.407   1.464
 1161SOL    HW1 4269   0.996   4.346   1.467
 1161SOL    HW2 4270   1.157   4.354   1.440
 1162SOL     OW 4271   1.227   5.294   0.793
 1162SOL    HW1 4272   1.248   5.368   0.728
 1162SOL    HW2 4273   1.295   5.294   0.866
 1163SOL     OW 4274   0.459   4.876   0.741
 1163SOL    HW1 4275   0.388   4.849   0.806
 1163SOL    HW2 4276   0.433   4.848   0.648
 1164SOL     OW 4277   0.078   4.280   1.386
 1164SOL    HW1 4278   0.170   4.279   1.345
 1164SOL    HW2 4279   0.072   4.354   1.453
 1165SOL     OW 4280   0.561   3.946   1.147
 1165SOL    HW1 4281   0.599   3.862   1.184
 1165SOL    HW2 4282   0.473   3.965   1.191
 1166SOL     OW 4283   0.866   4.178   0.642
 1166SOL    HW1 4284   0.834   4.250   0.580
 1166SOL    HW2 4285   0.890   4.097   0.589
 1167SOL     OW 4286   1.429   4.897   0.867
 1167SOL    HW1 4287   1.374   4.813   0.860
 1167SOL    HW2 4288   1.455   4.926   0.775
 1168SOL     OW 4289   1.466   4.314   0.992
 1168SOL    HW1 4290   1.436   4.219   0.999
 1168SOL    HW2 4291   1.539   4.330   1.058
 1169SOL     OW 4292   1.857   4.557   0.377
 1169SOL    HW1 4293   1.899   4.493   0.441
 1169SOL    HW2 4294   1.819   4.506   0.299
 1170SOL     OW 4295   1.664   5.004   0.657
 1170SOL    HW1 4296   1.763   5.012   0.671
 1170SOL    HW2 4297   1.619   5.088   0.688
 1171SOL     OW 4298   0.527   3.980   0.328
 1171SOL    HW1 4299   0.554   3.921   0.253
 1171SOL    HW2 4300   0.527   4.075   0.297
 1172SOL     OW 4301   0.915   3.813   1.402
 1172SOL    HW1 4302   0.940   3.793   1.307
 1172SOL    HW2 4303   0.987   3.869   1.444
 1173SOL     OW 4304   0.980   4.840   1.719
 1173SOL    HW1 4305   0.881   4.846   1.729
 1173SOL    HW2 4306   1.003   4.760   1.663
 1174SOL     OW 4307   0.705   4.774   0.368
 1174SOL    HW1 4308   0.691   4.781   0.467
 1174SOL    HW2 4309   0.789   4.723   0.350
 1175SOL     OW 4310   0.410   4.537   1.251
 1175SOL    HW1 4311   0.496   4.549   1.301
 1175SOL    HW2 4312   0.368   4.450   1.278
 1176SOL     OW 4313   1.274   4.110   1.262
 1176SOL    HW1 4314   1.295   4.184   1.326
 1176SOL    HW2 4315   1.185   4.127   1.219
 1177SOL     OW 4316   0.367   4.824   0.501
 1177SOL    HW1 4317   0.360   4.907   0.445
 1177SOL    HW2 4318   0.371   4.744   0.441
 1178SOL     OW 4319   0.566   4.261   0.865
 1178SOL    HW1 4320   0.578   4.327   0.791
 1178SOL    HW2 4321   0.612   4.295   0.948
 1179SOL     OW 4322   0.402   4.475   1.598
 1179SOL    HW1 4323   0.470   4.530   1.551
 1179SOL    HW2 4324   0.442   4.387   1.625
 1180SOL     OW 4325   1.587   4.503   1.670
 1180SOL    HW1 4326   1.495   4.541   1.665
 1180SOL    HW2 4327   1.647   4.550   1.605
 1181SOL     OW 4328   1.013   3.829   1.770
 1181SOL    HW1 4329   1.019   3.914   1.718
 1181SOL    HW2 4330   1.045   3.753   1.713
 1182SOL     OW 4331   0.504   3.774   1.740
 1182SOL    HW1 4332   0.462   3.717   1.670
 1182SOL    HW2 4333   0.438   3.843   1.772
 1183SOL     OW 4334   0.573   4.594   1.029
 1183SOL    HW1 4335   0.617   4.683   1.020
 1183SOL    HW2 4336   0.510   4.594   1.106
 1184SOL     OW 4337   1.360   4.586   1.045
 1184SOL    HW1 4338   1.285   4.586   0.979
 1184SOL    HW2 4339   1.397   4.494   1.054
 1185SOL     OW 4340   0.307   3.937   1.231
 1185SOL    HW1 4341   0.284   3.974   1.321
 1185SOL    HW2 4342   0.277   3.842   1.225
 1186SOL     OW 4343   0.037   5.034   1.282
 1186SOL    HW1 4344   0.090   4.985   1.350
 1186SOL    HW2 4345   0.059   5.132   1.287
 1187SOL     OW 4346   0.732   4.358   1.064
 1187SOL    HW1 4347   0.791   4.332   0.988
 1187SOL    HW2 4348   0.704   4.454   1.053
 1188SOL     OW 4349   1.728   4.659   1.854
 1188SOL    HW1 4350   1.682   4.652   1.765
 1188SOL    HW2 4351   1.666   4.703   1.920
 1189SOL     OW 4352   0.307   3.787   0.618
 1189SOL    HW1 4353   0.296   3.881   0.651
 1189SOL    HW2 4354   0.302   3.724   0.695
 1190SOL     OW 4355   1.023   4.490   0.966
 1190SOL    HW1 4356   1.038   4.511   1.062
 1190SOL    HW2 4357   0.993   4.395   0.957
 1191SOL     OW 4358   0.350   4.622   1.804
 1191SOL    HW1 4359   0.426   4.666   1.852
 1191SOL    HW2 4360   0.385   4.575   1.722
 1192SOL     OW 4361   1.540   3.998   0.125
 1192SOL    HW1 4362   1.479   3.923   0.148
 1192SOL    HW2 4363   1.562   4.050   0.208
 1193SOL     OW 4364   1.303   4.562   0.042
 1193SOL    HW1 4365   1.337   4.469   0.057
 1193SOL    HW2 4366   1.321   4.589  -0.053
 1194SOL     OW 4367   0.319   4.534   0.949
 1194SOL    HW1 4368   0.412   4.570   0.954
 1194SOL    HW2 4369   0.313   4.449   1.001
 1195SOL     OW 4370   0.339   4.233   1.006
 1195SOL    HW1 4371   0.287   4.150   0.989
 1195SOL    HW2 4372   0.416   4.238   0.942
 1196SOL     OW 4373   1.138   4.104   1.678
 1196SOL    HW1 4374   1.093   4.167   1.742
 1196SOL    HW2 4375   1.231   4.135   1.661
 1197SOL     OW 4376   1.160   3.931   1.477
 1197SOL    HW1 4377   1.160   3.995   1.554
 1197SOL    HW2 4378   1.188   3.979   1.394
 1198SOL     OW 4379   0.008   5.050   0.200
 1198SOL    HW1 4380  -0.085   5.071   0.169
 1198SOL    HW2 4381   0.018   4.951   0.213
 1199SOL     OW 4382   1.002   4.520   1.238
 1199SOL    HW1 4383   1.043   4.488   1.324
 1199SOL    HW2 4384   0.906   4.493   1.235
 1200SOL     OW 4385   0.040   4.268   1.114
 1200SOL    HW1 4386   0.125   4.235   1.073
 1200SOL    HW2 4387   0.053   4.283   1.212
 1201SOL     OW 4388   0.189   4.244   1.722
 1201SOL    HW1 4389   0.248   4.204   1.652
 1201SOL    HW2 4390   0.131   4.315   1.681
 1202SOL     OW 4391   1.369   4.674   1.660
 1202SOL    HW1 4392   1.408   4.763   1.680
 1202SOL    HW2 4393   1.379   4.654   1.563
 1203SOL     OW 4394   0.671   4.188   1.269
 1203SOL    HW1 4395   0.637   4.099   1.239
 1203SOL    HW2 4396   0.697   4.242   1.189
 1204SOL     OW 4397   0.473   4.224   0.191
 1204SOL    HW1 4398   0.534   4.304   0.195
 1204SOL    HW2 4399   0.378   4.255   0.198
 1205SOL     OW 4400   0.159   4.861   1.466
 1205SOL    HW1 4401   0.181   4.800   1.542
 1205SOL    HW2 4402   0.169   4.812   1.380
 1206SOL     OW 4403   1.347   4.783   1.234
 1206SOL    HW1 4404   1.371   4.720   1.160
 1206SOL    HW2 4405   1.257   4.823   1.216
 1207SOL     OW 4406   0.083   4.982   1.022
 1207SOL    HW1 4407   0.078   4.981   1.122
 1207SOL    HW2 4408   0.000   4.941   0.984
 1208SOL     OW 4409   1.726   3.859   0.523
 1208SOL    HW1 4410   1.799   3.842   0.456
 1208SOL    HW2 4411   1.695   3.772   0.561
 1209SOL     OW 4412   1.280   4.651   0.672
 1209SOL    HW1 4413   1.340   4.570   0.674
 1209SOL    HW2 4414   1.320   4.720   0.612
 1210SOL     OW 4415   0.830   4.997   1.422
 1210SOL    HW1 4416   0.825   5.030   1.517
 1210SOL    HW2 4417   0.744   5.016   1.376
 1211SOL     OW 4418   1.841   3.899   0.963
 1211SOL    HW1 4419   1.880   3.814   0.927
 1211SOL    HW2 4420   1.743   3.901   0.944
 1212SOL     OW 4421   0.263   4.050   0.720
 1212SOL    HW1 4422   0.184   4.101   0.686
 1212SOL    HW2 4423   0.254   4.035   0.818
 1213SOL     OW 4424   0.822   4.726   1.372
 1213SOL    HW1 4425   0.862   4.725   1.280
 1213SOL    HW2 4426   0.832   4.818   1.412
 1214SOL     OW 4427   0.916   4.634   0.291
 1214SOL    HW1 4428   0.979   4.672   0.223
 1214SOL    HW2 4429   0.956   4.551   0.330
 1215SOL     OW 4430   0.372   5.012   1.490
 1215SOL    HW1 4431   0.359   5.105   1.456
 1215SOL    HW2 4432   0.288   4.960   1.477
 1216SOL     OW 4433   1.039   4.822   0.696
 1216SOL    HW1 4434   0.969   4.775   0.750
 1216SOL    HW2 4435   1.098   4.754   0.653
 1217SOL     OW 4436   1.709   4.109   1.381
 1217SOL    HW1 4437   1.782   4.178   1.385
 1217SOL    HW2 4438   1.737   4.034   1.322
 1218SOL     OW 4439   0.105   4.737   1.726
 1218SOL    HW1 4440   0.028   4.704   1.780
 1218SOL    HW2 4441   0.190   4.707   1.768
 1219SOL     OW 4442   0.672   3.927   1.489
 1219SOL    HW1 4443   0.762   3.911   1.449
 1219SOL    HW2 4444   0.680   3.932   1.588
 1220SOL     OW 4445   0.075   4.069   0.033
 1220SOL    HW1 4446  -0.017   4.041   0.004
 1220SOL    HW2 4447   0.106   4.146  -0.023
 1221SOL     OW 4448   1.440   4.580   1.398
 1221SOL    HW1 4449   1.383   4.632   1.335
 1221SOL    HW2 4450   1.536   4.592   1.374
 1222SOL     OW 4451   0.072   3.890   0.318
 1222SOL    HW1 4452   0.055   3.973   0.264
 1222SOL    HW2 4453   0.162   3.853   0.296
 1223SOL     OW 4454   0.613   4.566   1.431
 1223SOL    HW1 4455   0.669   4.647   1.414
 1223SOL    HW2 4456   0.672   4.486   1.434
 1224SOL     OW 4457   0.716   4.289   1.708
 1224SOL    HW1 4458   0.735   4.354   1.782
 1224SOL    HW2 4459   0.776   4.209   1.717
 1225SOL     OW 4460   0.594   4.469   0.652
 1225SOL    HW1 4461   0.644   4.554   0.633
 1225SOL    HW2 4462   0.506   4.471   0.604
 1226SOL     OW 4463   1.777   4.066   1.642
 1226SOL    HW1 4464   1.760   4.097   1.548
 1226SOL    HW2 4465   1.693   4.029   1.680
 1227SOL     OW 4466   1.730   4.658   1.517
 1227SOL    HW1 4467   1.768   4.749   1.532
 1227SOL    HW2 4468   1.722   4.641   1.418
 1228SOL     OW 4469   0.859   4.680   0.861
 1228SOL    HW1 4470   0.913   4.611   0.909
 1228SOL    HW2 4471   0.827   4.749   0.927
 1229SOL     OW 4472   1.083   4.708   0.087
 1229SOL    HW1 4473   1.060   4.761   0.005
 1229SOL    HW2 4474   1.164   4.652   0.068
 1230SOL     OW 4475   0.079   4.964   0.653
 1230SOL    HW1 4476   0.078   4.917   0.741
 1230SOL    HW2 4477   0.161   4.936   0.602
 1231SOL     OW 4478   1.824   3.916   1.227
 1231SOL    HW1 4479   1.820   3.826   1.271
 1231SOL    HW2 4480   1.827   3.905   1.128
 1232SOL     OW 4481   0.428   4.148   0.520
 1232SOL    HW1 4482   0.458   4.076   0.458
 1232SOL    HW2 4483   0.389   4.108   0.603
 1233SOL     OW 4484   0.317   4.271   1.280
 1233SOL    HW1 4485   0.355   4.212   1.352
 1233SOL    HW2 4486   0.357   4.245   1.192
 1234SOL     OW 4487   1.424   3.938   1.112
 1234SOL    HW1 4488   1.476   3.873   1.167
 1234SOL    HW2 4489   1.375   4.001   1.173
 1235SOL     OW 4490   1.001   3.758   1.154
 1235SOL    HW1 4491   0.938   3.686   1.123
 1235SOL    HW2 4492   1.094   3.722   1.154
 1236SOL     OW 4493   0.770   5.054   0.301
 1236SOL    HW1 4494   0.724   4.967   0.318
 1236SOL    HW2 4495   0.861   5.051   0.342
 1237SOL     OW 4496   1.300   4.177   0.691
 1237SOL    HW1 4497   1.241   4.257   0.695
 1237SOL    HW2 4498   1.315   4.142   0.784
 1238SOL     OW 4499   1.593   3.945   0.882
 1238SOL    HW1 4500   1.509   3.944   0.936
 1238SOL    HW2 4501   1.595   4.028   0.826
 1239SOL     OW 4502   0.039   4.801   0.300
 1239SOL    HW1 4503   0.138   4.790   0.291
 1239SOL    HW2 4504  -0.001   4.715   0.332
 1240SOL     OW 4505   0.230   4.352   1.975
 1240SOL    HW1 4506   0.137   4.350   2.012
 1240SOL    HW2 4507   0.231   4.313   1.883
 1241SOL     OW 4508   0.225   3.999   2.858
 1241SOL    HW1 4509   0.260   3.982   2.950
 1241SOL    HW2 4510   0.137   3.954   2.846
 1242SOL     OW 4511   0.019   4.092   2.509
 1242SOL    HW1 4512  -0.063   4.135   2.548
 1242SOL    HW2 4513  -0.009   4.019   2.446
 1243SOL     OW 4514   0.569   4.999   3.027
 1243SOL    HW1 4515   0.476   4.992   2.990
 1243SOL    HW2 4516   0.580   5.088   3.071
 1244SOL     OW 4517   1.555   5.235   2.565
 1244SOL    HW1 4518   1.498   5.219   2.646
 1244SOL    HW2 4519   1.496   5.245   2.485
 1245SOL     OW 4520   1.135   4.427   2.579
 1245SOL    HW1 4521   1.192   4.505   2.554
 1245SOL    HW2 4522   1.075   4.453   2.655
 1246SOL     OW 4523   1.755   4.331   2.093
 1246SOL    HW1 4524   1.743   4.318   1.994
 1246SOL    HW2 4525   1.725   4.250   2.142
 1247SOL     OW 4526   0.768   4.868   2.885
 1247SOL    HW1 4527   0.690   4.885   2.945
 1247SOL    HW2 4528   0.802   4.955   2.849
 1248SOL     OW 4529   0.850   4.522   3.685
 1248SOL    HW1 4530   0.846   4.598   3.750
 1248SOL    HW2 4531   0.872   4.558   3.594
 1249SOL     OW 4532   0.686   4.885   3.665
 1249SOL    HW1 4533   0.746   4.964   3.679
 1249SOL    HW2 4534   0.600   4.916   3.624
 1250SOL     OW 4535   0.335   5.159   2.923
 1250SOL    HW1 4536   0.257   5.128   2.870
 1250SOL    HW2 4537   0.393   5.217   2.866
 1251SOL     OW 4538   0.438   4.116   3.361
 1251SOL    HW1 4539   0.520   4.060   3.370
 1251SOL    HW2 4540   0.357   4.058   3.365
 1252SOL     OW 4541   0.606   4.688   1.985
 1252SOL    HW1 4542   0.613   4.772   1.931
 1252SOL    HW2 4543   0.652   4.701   2.073
 1253SOL     OW 4544   1.594   3.838   3.342
 1253SOL    HW1 4545   1.576   3.905   3.270
 1253SOL    HW2 4546   1.591   3.884   3.431
 1254SOL     OW 4547   0.122   4.367   2.425
 1254SOL    HW1 4548   0.077   4.279   2.442
 1254SOL    HW2 4549   0.121   4.421   2.509
 1255SOL     OW 4550   0.113   4.461   3.459
 1255SOL    HW1 4551   0.201   4.448   3.504
 1255SOL    HW2 4552   0.100   4.558   3.437
 1256SOL     OW 4553   1.293   4.952   3.285
 1256SOL    HW1 4554   1.330   4.879   3.227
 1256SOL    HW2 4555   1.345   4.957   3.370
 1257SOL     OW 4556   0.809   3.728   2.364
 1257SOL    HW1 4557   0.849   3.819   2.355
 1257SOL    HW2 4558   0.709   3.736   2.370
 1258SOL     OW 4559   0.317   3.975   3.663
 1258SOL    HW1 4560   0.388   4.046   3.669
 1258SOL    HW2 4561   0.229   4.014   3.691
 1259SOL     OW 4562   1.466   5.141   2.815
 1259SOL    HW1 4563   1.407   5.147   2.895
 1259SOL    HW2 4564   1.451   5.053   2.769
 1260SOL     OW 4565   0.598   4.453   2.132
 1260SOL    HW1 4566   0.622   4.522   2.064
 1260SOL    HW2 4567   0.520   4.486   2.186
 1261SOL     OW 4568   1.281   4.069   2.806
 1261SOL    HW1 4569   1.195   4.019   2.793
 1261SOL    HW2 4570   1.343   4.015   2.862
 1262SOL     OW 4571   0.807   4.329   3.327
 1262SOL    HW1 4572   0.760   4.326   3.416
 1262SOL    HW2 4573   0.756   4.274   3.261
 1263SOL     OW 4574   1.394   4.193   3.536
 1263SOL    HW1 4575   1.374   4.236   3.624
 1263SOL    HW2 4576   1.472   4.131   3.545
 1264SOL     OW 4577   0.973   4.614   3.434
 1264SOL    HW1 4578   1.019   4.530   3.405
 1264SOL    HW2 4579   0.917   4.648   3.359
 1265SOL     OW 4580   0.991   4.134   3.104
 1265SOL    HW1 4581   0.914   4.168   3.158
 1265SOL    HW2 4582   0.957   4.083   3.025
 1266SOL     OW 4583   1.041   4.425   2.291
 1266SOL    HW1 4584   1.067   4.421   2.387
 1266SOL    HW2 4585   0.956   4.374   2.277
 1267SOL     OW 4586   0.865   4.072   2.057
 1267SOL    HW1 4587   0.924   4.135   2.008
 1267SOL    HW2 4588   0.884   3.978   2.028
 1268SOL     OW 4589   1.719   4.309   3.693
 1268SOL    HW1 4590   1.693   4.398   3.657
 1268SOL    HW2 4591   1.717   4.241   3.620
 1269SOL     OW 4592   1.362   4.868   2.407
 1269SOL    HW1 4593   1.445   4.839   2.359
 1269SOL    HW2 4594   1.313   4.935   2.351
 1270SOL     OW 4595   0.550   3.920   2.747
 1270SOL    HW1 4596   0.545   3.915   2.847
 1270SOL    HW2 4597   0.552   4.016   2.718
 1271SOL     OW 4598   0.321   4.667   2.104
 1271SOL    HW1 4599   0.403   4.706   2.062
 1271SOL    HW2 4600   0.294   4.585   2.055
 1272SOL     OW 4601   0.202   4.009   3.360
 1272SOL    HW1 4602   0.122   4.069   3.347
 1272SOL    HW2 4603   0.192   3.960   3.446
 1273SOL     OW 4604   1.632   5.101   1.943
 1273SOL    HW1 4605   1.600   5.195   1.933
 1273SOL    HW2 4606   1.556   5.038   1.931
 1274SOL     OW 4607   1.400   3.831   2.288
 1274SOL    HW1 4608   1.376   3.794   2.198
 1274SOL    HW2 4609   1.499   3.847   2.292
 1275SOL     OW 4610   1.547   3.946   3.591
 1275SOL    HW1 4611   1.542   3.983   3.683
 1275SOL    HW2 4612   1.475   3.877   3.579
 1276SOL     OW 4613   0.614   3.846   1.979
 1276SOL    HW1 4614   0.712   3.824   1.986
 1276SOL    HW2 4615   0.583   3.829   1.886
 1277SOL     OW 4616   0.781   3.988   3.611
 1277SOL    HW1 4617   0.848   3.927   3.654
 1277SOL    HW2 4618   0.708   4.007   3.676
 1278SOL     OW 4619   1.351   4.314   3.295
 1278SOL    HW1 4620   1.379   4.271   3.380
 1278SOL    HW2 4621   1.376   4.410   3.296
 1279SOL     OW 4622   0.803   5.126   2.786
 1279SOL    HW1 4623   0.893   5.140   2.744
 1279SOL    HW2 4624   0.732   5.128   2.715
 1280SOL     OW 4625   0.922   4.227   2.761
 1280SOL    HW1 4626   0.897   4.218   2.665
 1280SOL    HW2 4627   0.970   4.145   2.792
 1281SOL     OW 4628   0.539   3.788   2.374
 1281SOL    HW1 4629   0.458   3.789   2.432
 1281SOL    HW2 4630   0.542   3.871   2.319
 1282SOL     OW 4631   1.434   4.912   1.903
 1282SOL    HW1 4632   1.466   4.836   1.960
 1282SOL    HW2 4633   1.342   4.939   1.933
 1283SOL     OW 4634   0.297   3.759   2.033
 1283SOL    HW1 4635   0.346   3.843   2.012
 1283SOL    HW2 4636   0.359   3.694   2.078
 1284SOL     OW 4637   0.935   3.960   2.342
 1284SOL    HW1 4638   0.887   4.001   2.264
 1284SOL    HW2 4639   1.034   3.958   2.323
 1285SOL     OW 4640   1.076   4.407   3.326
 1285SOL    HW1 4641   0.996   4.346   3.329
 1285SOL    HW2 4642   1.157   4.354   3.302
 1286SOL     OW 4643   1.227   5.294   2.655
 1286SOL    HW1 4644   1.248   5.368   2.590
 1286SOL    HW2 4645   1.295   5.294   2.728
 1287SOL     OW 4646   1.032   4.273   1.878
 1287SOL    HW1 4647   0.991   4.355   1.839
 1287SOL    HW2 4648   1.096   4.299   1.951
 1288SOL     OW 4649   0.561   3.946   3.009
 1288SOL    HW1 4650   0.599   3.862   3.046
 1288SOL    HW2 4651   0.473   3.965   3.053
 1289SOL     OW 4652   0.866   4.178   2.504
 1289SOL    HW1 4653   0.834   4.250   2.442
 1289SOL    HW2 4654   0.890   4.097   2.451
 1290SOL     OW 4655   1.017   3.763   2.615
 1290SOL    HW1 4656   0.945   3.768   2.546
 1290SOL    HW2 4657   0.993   3.694   2.684
 1291SOL     OW 4658   1.466   4.314   2.854
 1291SOL    HW1 4659   1.436   4.219   2.861
 1291SOL    HW2 4660   1.539   4.330   2.920
 1292SOL     OW 4661   1.664   5.004   2.519
 1292SOL    HW1 4662   1.763   5.012   2.533
 1292SOL    HW2 4663   1.619   5.088   2.550
 1293SOL     OW 4664   1.390   4.299   1.940
 1293SOL    HW1 4665   1.336   4.278   2.021
 1293SOL    HW2 4666   1.481   4.258   1.949
 1294SOL     OW 4667   0.527   3.980   2.190
 1294SOL    HW1 4668   0.554   3.921   2.115
 1294SOL    HW2 4669   0.527   4.075   2.159
 1295SOL     OW 4670   1.754   4.947   3.450
 1295SOL    HW1 4671   1.845   4.908   3.437
 1295SOL    HW2 4672   1.762   5.043   3.474
 1296SOL     OW 4673   1.638   4.823   2.941
 1296SOL    HW1 4674   1.643   4.904   3.000
 1296SOL    HW2 4675   1.552   4.825   2.890
 1297SOL     OW 4676   0.915   3.813   3.264
 1297SOL    HW1 4677   0.940   3.793   3.169
 1297SOL    HW2 4678   0.987   3.869   3.306
 1298SOL     OW 4679   0.980   4.840   3.581
 1298SOL    HW1 4680   0.881   4.846   3.591
 1298SOL    HW2 4681   1.003   4.760   3.525
 1299SOL     OW 4682   0.705   4.774   2.230
 1299SOL    HW1 4683   0.691   4.781   2.329
 1299SOL    HW2 4684   0.789   4.723   2.212
 1300SOL     OW 4685   1.274   4.110   3.124
 1300SOL    HW1 4686   1.295   4.184   3.188
 1300SOL    HW2 4687   1.185   4.127   3.081
 1301SOL     OW 4688   0.367   4.824   2.363
 1301SOL    HW1 4689   0.360   4.907   2.307
 1301SOL    HW2 4690   0.371   4.744   2.303
 1302SOL     OW 4691   0.566   4.261   2.727
 1302SOL    HW1 4692   0.578   4.327   2.653
 1302SOL    HW2 4693   0.612   4.295   2.810
 1303SOL     OW 4694   1.582   4.363   2.334
 1303SOL    HW1 4695   1.551   4.424   2.407
 1303SOL    HW2 4696   1.632   4.415   2.265
 1304SOL     OW 4697   0.402   4.475   3.460
 1304SOL    HW1 4698   0.470   4.530   3.413
 1304SOL    HW2 4699   0.442   4.387   3.487
 1305SOL     OW 4700   1.587   4.503   3.532
 1305SOL    HW1 4701   1.495   4.541   3.527
 1305SOL    HW2 4702   1.647   4.550   3.467
 1306SOL     OW 4703   1.013   3.829   3.632
 1306SOL    HW1 4704   1.019   3.914   3.580
 1306SOL    HW2 4705   1.045   3.753   3.575
 1307SOL     OW 4706   0.504   3.774   3.602
 1307SOL    HW1 4707   0.462   3.717   3.532
 1307SOL    HW2 4708   0.438   3.843   3.634
 1308SOL     OW 4709   0.573   4.594   2.891
 1308SOL    HW1 4710   0.617   4.683   2.882
 1308SOL    HW2 4711   0.510   4.594   2.968
 1309SOL     OW 4712   1.209   4.249   2.137
 1309SOL    HW1 4713   1.222   4.165   2.191
 1309SOL    HW2 4714   1.180   4.323   2.197
 1310SOL     OW 4715   0.307   3.937   3.093
 1310SOL    HW1 4716   0.284   3.974   3.183
 1310SOL    HW2 4717   0.277   3.842   3.087
 1311SOL     OW 4718   0.037   5.034   3.144
 1311SOL    HW1 4719   0.090   4.985   3.212
 1311SOL    HW2 4720   0.059   5.132   3.149
 1312SOL     OW 4721   0.732   4.358   2.926
 1312SOL    HW1 4722   0.791   4.332   2.850
 1312SOL    HW2 4723   0.704   4.454   2.915
 1313SOL     OW 4724   1.728   4.659   3.716
 1313SOL    HW1 4725   1.682   4.652   3.627
 1313SOL    HW2 4726   1.666   4.703   3.782
 1314SOL     OW 4727   0.307   3.787   2.480
 1314SOL    HW1 4728   0.296   3.881   2.513
 1314SOL    HW2 4729   0.302   3.724   2.557
 1315SOL     OW 4730   1.622   4.091   2.236
 1315SOL    HW1 4731   1.624   4.015   2.300
 1315SOL    HW2 4732   1.574   4.168   2.276
 1316SOL     OW 4733   1.023   4.490   2.828
 1316SOL    HW1 4734   1.038   4.511   2.924
 1316SOL    HW2 4735   0.993   4.395   2.819
 1317SOL     OW 4736   1.859   5.242   3.467
 1317SOL    HW1 4737   1.873   5.269   3.372
 1317SOL    HW2 4738   1.942   5.264   3.520
 1318SOL     OW 4739   0.350   4.622   3.666
 1318SOL    HW1 4740   0.426   4.666   3.714
 1318SOL    HW2 4741   0.385   4.575   3.584
 1319SOL     OW 4742   1.540   3.998   1.987
 1319SOL    HW1 4743   1.479   3.923   2.010
 1319SOL    HW2 4744   1.562   4.050   2.070
 1320SOL     OW 4745   1.303   4.562   1.904
 1320SOL    HW1 4746   1.337   4.469   1.919
 1320SOL    HW2 4747   1.321   4.589   1.809
 1321SOL     OW 4748   1.138   4.104   3.540
 1321SOL    HW1 4749   1.093   4.167   3.604
 1321SOL    HW2 4750   1.231   4.135   3.523
 1322SOL     OW 4751   1.160   3.931   3.339
 1322SOL    HW1 4752   1.160   3.995   3.416
 1322SOL    HW2 4753   1.188   3.979   3.256
 1323SOL     OW 4754   0.008   5.050   2.062
 1323SOL    HW1 4755  -0.085   5.071   2.031
 1323SOL    HW2 4756   0.018   4.951   2.075
 1324SOL     OW 4757   1.002   4.520   3.100
 1324SOL    HW1 4758   1.043   4.488   3.186
 1324SOL    HW2 4759   0.906   4.493   3.097
 1325SOL     OW 4760   0.189   4.244   3.584
 1325SOL    HW1 4761   0.248   4.204   3.514
 1325SOL    HW2 4762   0.131   4.315   3.543
 1326SOL     OW 4763   1.369   4.674   3.522
 1326SOL    HW1 4764   1.408   4.763   3.542
 1326SOL    HW2 4765   1.379   4.654   3.425
 1327SOL     OW 4766   0.815   4.296   2.187
 1327SOL    HW1 4767   0.822   4.207   2.141
 1327SOL    HW2 4768   0.721   4.330   2.179
 1328SOL     OW 4769   1.657   4.328   3.068
 1328SOL    HW1 4770   1.619   4.259   3.130
 1328SOL    HW2 4771   1.739   4.292   3.024
 1329SOL     OW 4772   0.671   4.188   3.131
 1329SOL    HW1 4773   0.637   4.099   3.101
 1329SOL    HW2 4774   0.697   4.242   3.051
 1330SOL     OW 4775   0.473   4.224   2.053
 1330SOL    HW1 4776   0.534   4.304   2.057
 1330SOL    HW2 4777   0.378   4.255   2.060
 1331SOL     OW 4778   0.159   4.861   3.328
 1331SOL    HW1 4779   0.181   4.800   3.404
 1331SOL    HW2 4780   0.169   4.812   3.242
 1332SOL     OW 4781   1.302   4.579   2.171
 1332SOL    HW1 4782   1.216   4.548   2.213
 1332SOL    HW2 4783   1.298   4.565   2.072
 1333SOL     OW 4784   0.083   4.982   2.884
 1333SOL    HW1 4785   0.078   4.981   2.984
 1333SOL    HW2 4786   0.000   4.941   2.846
 1334SOL     OW 4787   1.726   3.859   2.385
 1334SOL    HW1 4788   1.799   3.842   2.318
 1334SOL    HW2 4789   1.695   3.772   2.423
 1335SOL     OW 4790   0.830   4.997   3.284
 1335SOL    HW1 4791   0.825   5.030   3.379
 1335SOL    HW2 4792   0.744   5.016   3.238
 1336SOL     OW 4793   1.841   3.899   2.825
 1336SOL    HW1 4794   1.880   3.814   2.789
 1336SOL    HW2 4795   1.743   3.901   2.806
 1337SOL     OW 4796   0.263   4.050   2.582
 1337SOL    HW1 4797   0.184   4.101   2.548
 1337SOL    HW2 4798   0.254   4.035   2.680
 1338SOL     OW 4799   1.194   5.336   1.893
 1338SOL    HW1 4800   1.200   5.243   1.930
 1338SOL    HW2 4801   1.135   5.336   1.813
 1339SOL     OW 4802   0.822   4.726   3.234
 1339SOL    HW1 4803   0.862   4.725   3.142
 1339SOL    HW2 4804   0.832   4.818   3.274
 1340SOL     OW 4805   0.916   4.634   2.153
 1340SOL    HW1 4806   0.979   4.672   2.085
 1340SOL    HW2 4807   0.956   4.551   2.192
 1341SOL     OW 4808   0.372   5.012   3.352
 1341SOL    HW1 4809   0.359   5.105   3.318
 1341SOL    HW2 4810   0.288   4.960   3.339
 1342SOL     OW 4811   1.614   5.016   3.151
 1342SOL    HW1 4812   1.674   5.019   3.231
 1342SOL    HW2 4813   1.539   5.080   3.164
 1343SOL     OW 4814   1.039   4.822   2.558
 1343SOL    HW1 4815   0.969   4.775   2.612
 1343SOL    HW2 4816   1.098   4.754   2.515
 1344SOL     OW 4817   1.014   3.960   2.833
 1344SOL    HW1 4818   1.006   3.924   2.740
 1344SOL    HW2 4819   1.012   3.884   2.898
 1345SOL     OW 4820   1.709   4.109   3.243
 1345SOL    HW1 4821   1.782   4.178   3.247
 1345SOL    HW2 4822   1.737   4.034   3.184
 1346SOL     OW 4823   0.105   4.737   3.588
 1346SOL    HW1 4824   0.028   4.704   3.642
 1346SOL    HW2 4825   0.190   4.707   3.630
 1347SOL     OW 4826   0.672   3.927   3.351
 1347SOL    HW1 4827   0.762   3.911   3.311
 1347SOL    HW2 4828   0.680   3.932   3.450
 1348SOL     OW 4829   0.075   4.069   1.895
 1348SOL    HW1 4830  -0.017   4.041   1.866
 1348SOL    HW2 4831   0.106   4.146   1.839
 1349SOL     OW 4832   1.440   4.580   3.260
 1349SOL    HW1 4833   1.383   4.632   3.197
 1349SOL    HW2 4834   1.536   4.592   3.236
 1350SOL     OW 4835   0.072   3.890   2.180
 1350SOL    HW1 4836   0.055   3.973   2.126
 1350SOL    HW2 4837   0.162   3.853   2.158
 1351SOL     OW 4838   0.613   4.566   3.293
 1351SOL    HW1 4839   0.669   4.647   3.276
 1351SOL    HW2 4840   0.672   4.486   3.296
 1352SOL     OW 4841   0.716   4.289   3.570
 1352SOL    HW1 4842   0.735   4.354   3.644
 1352SOL    HW2 4843   0.776   4.209   3.579
 1353SOL     OW 4844   1.450   4.944   3.495
 1353SOL    HW1 4845   1.441   4.934   3.594
 1353SOL    HW2 4846   1.546   4.937   3.469
 1354SOL     OW 4847   1.674   4.607   3.116
 1354SOL    HW1 4848   1.647   4.518   3.079
 1354SOL    HW2 4849   1.675   4.675   3.043
 1355SOL     OW 4850   1.225   4.049   2.311
 1355SOL    HW1 4851   1.290   3.975   2.300
 1355SOL    HW2 4852   1.245   4.099   2.395
 1356SOL     OW 4853   1.777   4.066   3.504
 1356SOL    HW1 4854   1.760   4.097   3.410
 1356SOL    HW2 4855   1.693   4.029   3.542
 1357SOL     OW 4856   1.730   4.658   3.379
 1357SOL    HW1 4857   1.768   4.749   3.394
 1357SOL    HW2 4858   1.722   4.641   3.280
 1358SOL     OW 4859   0.859   4.680   2.723
 1358SOL    HW1 4860   0.913   4.611   2.771
 1358SOL    HW2 4861   0.827   4.749   2.789
 1359SOL     OW 4862   1.083   4.708   1.949
 1359SOL    HW1 4863   1.060   4.761   1.867
 1359SOL    HW2 4864   1.164   4.652   1.930
 1360SOL     OW 4865   0.079   4.964   2.515
 1360SOL    HW1 4866   0.078   4.917   2.603
 1360SOL    HW2 4867   0.161   4.936   2.464
 1361SOL     OW 4868   1.824   3.916   3.089
 1361SOL    HW1 4869   1.820   3.826   3.133
 1361SOL    HW2 4870   1.827   3.905   2.990
 1362SOL     OW 4871   0.428   4.148   2.382
 1362SOL    HW1 4872   0.458   4.076   2.320
 1362SOL    HW2 4873   0.389   4.108   2.465
 1363SOL     OW 4874   1.424   3.938   2.974
 1363SOL    HW1 4875   1.476   3.873   3.029
 1363SOL    HW2 4876   1.375   4.001   3.035
 1364SOL     OW 4877   1.001   3.758   3.016
 1364SOL    HW1 4878   0.938   3.686   2.985
 1364SOL    HW2 4879   1.094   3.722   3.016
 1365SOL     OW 4880   0.770   5.054   2.163
 1365SOL    HW1 4881   0.724   4.967   2.180
 1365SOL    HW2 4882   0.861   5.051   2.204
 1366SOL     OW 4883   1.352   3.776   2.030
 1366SOL    HW1 4884   1.387   3.735   1.946
 1366SOL    HW2 4885   1.262   3.738   2.050
 1367SOL     OW 4886   1.300   4.177   2.553
 1367SOL    HW1 4887   1.241   4.257   2.557
 1367SOL    HW2 4888   1.315   4.142   2.646
 1368SOL     OW 4889   1.593   3.945   2.744
 1368SOL    HW1 4890   1.509   3.944   2.798
 1368SOL    HW2 4891   1.595   4.028   2.688
 1369SOL     OW 4892   0.039   4.801   2.162
 1369SOL    HW1 4893   0.138   4.790   2.153
 1369SOL    HW2 4894  -0.001   4.715   2.194
 1370SOL     OW 4895   0.230   4.352   3.837
 1370SOL    HW1 4896   0.137   4.350   3.874
 1370SOL    HW2 4897   0.231   4.313   3.745
 1371SOL     OW 4898   0.225   3.999   4.720
 1371SOL    HW1 4899   0.260   3.982   4.812
 1371SOL    HW2 4900   0.137   3.954   4.708
 1372SOL     OW 4901   0.019   4.092   4.371
 1372SOL    HW1 4902  -0.063   4.135   4.410
 1372SOL    HW2 4903  -0.009   4.019   4.308
 1373SOL     OW 4904   0.569   4.999   4.889
 1373SOL    HW1 4905   0.476   4.992   4.852
 1373SOL    HW2 4906   0.580   5.088   4.933
 1374SOL     OW 4907   1.555   5.235   4.427
 1374SOL    HW1 4908   1.498   5.219   4.508
 1374SOL    HW2 4909   1.496   5.245   4.347
 1375SOL     OW 4910   1.135   4.427   4.441
 1375SOL    HW1 4911   1.192   4.505   4.416
 1375SOL    HW2 4912   1.075   4.453   4.517
 1376SOL     OW 4913   1.755   4.331   3.955
 1376SOL    HW1 4914   1.743   4.318   3.856
 1376SOL    HW2 4915   1.725   4.250   4.004
 1377SOL     OW 4916   0.768   4.868   4.747
 1377SOL    HW1 4917   0.690   4.885   4.807
 1377SOL    HW2 4918   0.802   4.955   4.711
 1378SOL     OW 4919   0.685   4.736   4.389
 1378SOL    HW1 4920   0.754   4.720   4.459
 1378SOL    HW2 4921   0.612   4.793   4.427
 1379SOL     OW 4922   0.335   5.159   4.785
 1379SOL    HW1 4923   0.257   5.128   4.732
 1379SOL    HW2 4924   0.393   5.217   4.728
 1380SOL     OW 4925   1.603   4.171   4.461
 1380SOL    HW1 4926   1.529   4.217   4.411
 1380SOL    HW2 4927   1.654   4.239   4.514
 1381SOL     OW 4928   0.240   4.815   4.610
 1381SOL    HW1 4929   0.254   4.731   4.662
 1381SOL    HW2 4930   0.185   4.879   4.665
 1382SOL     OW 4931   0.606   4.688   3.847
 1382SOL    HW1 4932   0.613   4.772   3.793
 1382SOL    HW2 4933   0.652   4.701   3.935
 1383SOL     OW 4934   0.122   4.367   4.287
 1383SOL    HW1 4935   0.077   4.279   4.304
 1383SOL    HW2 4936   0.121   4.421   4.371
 1384SOL     OW 4937   1.689   4.646   4.336
 1384SOL    HW1 4938   1.784   4.617   4.344
 1384SOL    HW2 4939   1.681   4.711   4.261
 1385SOL     OW 4940   1.641   4.832   4.156
 1385SOL    HW1 4941   1.727   4.834   4.104
 1385SOL    HW2 4942   1.655   4.879   4.244
 1386SOL     OW 4943   0.809   3.728   4.226
 1386SOL    HW1 4944   0.849   3.819   4.217
 1386SOL    HW2 4945   0.709   3.736   4.232
 1387SOL     OW 4946   0.197   4.700   4.988
 1387SOL    HW1 4947   0.286   4.655   4.974
 1387SOL    HW2 4948   0.124   4.635   4.969
 1388SOL     OW 4949   1.525   4.723   3.914
 1388SOL    HW1 4950   1.462   4.647   3.927
 1388SOL    HW2 4951   1.573   4.741   4.000
 1389SOL     OW 4952   1.466   5.141   4.677
 1389SOL    HW1 4953   1.407   5.147   4.757
 1389SOL    HW2 4954   1.451   5.053   4.631
 1390SOL     OW 4955   0.598   4.453   3.994
 1390SOL    HW1 4956   0.622   4.522   3.926
 1390SOL    HW2 4957   0.520   4.486   4.048
 1391SOL     OW 4958   1.281   4.069   4.668
 1391SOL    HW1 4959   1.195   4.019   4.655
 1391SOL    HW2 4960   1.343   4.015   4.724
 1392SOL     OW 4961   0.991   4.134   4.966
 1392SOL    HW1 4962   0.914   4.168   5.020
 1392SOL    HW2 4963   0.957   4.083   4.887
 1393SOL     OW 4964   1.041   4.425   4.153
 1393SOL    HW1 4965   1.067   4.421   4.249
 1393SOL    HW2 4966   0.956   4.374   4.139
 1394SOL     OW 4967   0.076   4.535   4.513
 1394SOL    HW1 4968   0.175   4.523   4.522
 1394SOL    HW2 4969   0.052   4.630   4.534
 1395SOL     OW 4970   0.865   4.072   3.919
 1395SOL    HW1 4971   0.924   4.135   3.870
 1395SOL    HW2 4972   0.884   3.978   3.890
 1396SOL     OW 4973   1.362   4.868   4.269
 1396SOL    HW1 4974   1.445   4.839   4.221
 1396SOL    HW2 4975   1.313   4.935   4.213
 1397SOL     OW 4976   0.550   3.920   4.609
 1397SOL    HW1 4977   0.545   3.915   4.709
 1397SOL    HW2 4978   0.552   4.016   4.580
 1398SOL     OW 4979   1.795   4.790   4.597
 1398SOL    HW1 4980   1.733   4.775   4.521
 1398SOL    HW2 4981   1.743   4.801   4.682
 1399SOL     OW 4982   0.321   4.667   3.966
 1399SOL    HW1 4983   0.403   4.706   3.924
 1399SOL    HW2 4984   0.294   4.585   3.917
 1400SOL     OW 4985   1.458   4.459   4.452
 1400SOL    HW1 4986   1.453   4.394   4.527
 1400SOL    HW2 4987   1.538   4.518   4.465
 1401SOL     OW 4988   1.632   5.101   3.805
 1401SOL    HW1 4989   1.600   5.195   3.795
 1401SOL    HW2 4990   1.556   5.038   3.793
 1402SOL     OW 4991   1.400   3.831   4.150
 1402SOL    HW1 4992   1.376   3.794   4.060
 1402SOL    HW2 4993   1.499   3.847   4.154
 1403SOL     OW 4994   0.382   4.424   4.204
 1403SOL    HW1 4995   0.427   4.334   4.201
 1403SOL    HW2 4996   0.288   4.413   4.237
 1404SOL     OW 4997   0.614   3.846   3.841
 1404SOL    HW1 4998   0.712   3.824   3.848
 1404SOL    HW2 4999   0.583   3.829   3.748
 1405SOL     OW 5000   0.803   5.126   4.648
 1405SOL    HW1 5001   0.893   5.140   4.606
 1405SOL    HW2 5002   0.732   5.128   4.577
 1406SOL     OW 5003   0.922   4.227   4.623
 1406SOL    HW1 5004   0.897   4.218   4.527
 1406SOL    HW2 5005   0.970   4.145   4.654
 1407SOL     OW 5006   0.539   3.788   4.236
 1407SOL    HW1 5007   0.458   3.789   4.294
 1407SOL    HW2 5008   0.542   3.871   4.181
 1408SOL     OW 5009   1.434   4.912   3.765
 1408SOL    HW1 5010   1.466   4.836   3.822
 1408SOL    HW2 5011   1.342   4.939   3.795
 1409SOL     OW 5012   0.297   3.759   3.895
 1409SOL    HW1 5013   0.346   3.843   3.874
 1409SOL    HW2 5014   0.359   3.694   3.940
 1410SOL     OW 5015   0.935   3.960   4.204
 1410SOL    HW1 5016   0.887   4.001   4.126
 1410SOL    HW2 5017   1.034   3.958   4.185
 1411SOL     OW 5018   1.227   5.294   4.517
 1411SOL    HW1 5019   1.248   5.368   4.452
 1411SOL    HW2 5020   1.295   5.294   4.590
 1412SOL     OW 5021   0.459   4.876   4.465
 1412SOL    HW1 5022   0.388   4.849   4.530
 1412SOL    HW2 5023   0.433   4.848   4.372
 1413SOL     OW 5024   1.032   4.273   3.740
 1413SOL    HW1 5025   0.991   4.355   3.701
 1413SOL    HW2 5026   1.096   4.299   3.813
 1414SOL     OW 5027   0.561   3.946   4.871
 1414SOL    HW1 5028   0.599   3.862   4.908
 1414SOL    HW2 5029   0.473   3.965   4.915
 1415SOL     OW 5030   0.866   4.178   4.366
 1415SOL    HW1 5031   0.834   4.250   4.304
 1415SOL    HW2 5032   0.890   4.097   4.313
 1416SOL     OW 5033   1.017   3.763   4.477
 1416SOL    HW1 5034   0.945   3.768   4.408
 1416SOL    HW2 5035   0.993   3.694   4.546
 1417SOL     OW 5036   1.429   4.897   4.591
 1417SOL    HW1 5037   1.374   4.813   4.584
 1417SOL    HW2 5038   1.455   4.926   4.499
 1418SOL     OW 5039   1.466   4.314   4.716
 1418SOL    HW1 5040   1.436   4.219   4.723
 1418SOL    HW2 5041   1.539   4.330   4.782
 1419SOL     OW 5042   1.857   4.557   4.101
 1419SOL    HW1 5043   1.899   4.493   4.165
 1419SOL    HW2 5044   1.819   4.506   4.023
 1420SOL     OW 5045   1.664   5.004   4.381
 1420SOL    HW1 5046   1.763   5.012   4.395
 1420SOL    HW2 5047   1.619   5.088   4.412
 1421SOL     OW 5048   1.390   4.299   3.802
 1421SOL    HW1 5049   1.336   4.278   3.883
 1421SOL    HW2 5050   1.481   4.258   3.811
 1422SOL     OW 5051   0.527   3.980   4.052
 1422SOL    HW1 5052   0.554   3.921   3.977
 1422SOL    HW2 5053   0.527   4.075   4.021
 1423SOL     OW 5054   1.638   4.823   4.803
 1423SOL    HW1 5055   1.643   4.904   4.862
 1423SOL    HW2 5056   1.552   4.825   4.752
 1424SOL     OW 5057   0.705   4.774   4.092
 1424SOL    HW1 5058   0.691   4.781   4.191
 1424SOL    HW2 5059   0.789   4.723   4.074
 1425SOL     OW 5060   0.410   4.537   4.975
 1425SOL    HW1 5061   0.496   4.549   5.025
 1425SOL    HW2 5062   0.368   4.450   5.002
 1426SOL     OW 5063   1.274   4.110   4.986
 1426SOL    HW1 5064   1.295   4.184   5.050
 1426SOL    HW2 5065   1.185   4.127   4.943
 1427SOL     OW 5066   0.367   4.824   4.225
 1427SOL    HW1 5067   0.360   4.907   4.169
 1427SOL    HW2 5068   0.371   4.744   4.165
 1428SOL     OW 5069   0.566   4.261   4.589
 1428SOL    HW1 5070   0.578   4.327   4.515
 1428SOL    HW2 5071   0.612   4.295   4.672
 1429SOL     OW 5072   1.582   4.363   4.196
 1429SOL    HW1 5073   1.551   4.424   4.269
 1429SOL    HW2 5074   1.632   4.415   4.127
 1430SOL     OW 5075   0.573   4.594   4.753
 1430SOL    HW1 5076   0.617   4.683   4.744
 1430SOL    HW2 5077   0.510   4.594   4.830
 1431SOL     OW 5078   1.360   4.586   4.769
 1431SOL    HW1 5079   1.285   4.586   4.703
 1431SOL    HW2 5080   1.397   4.494   4.778
 1432SOL     OW 5081   1.209   4.249   3.999
 1432SOL    HW1 5082   1.222   4.165   4.053
 1432SOL    HW2 5083   1.180   4.323   4.059
 1433SOL     OW 5084   0.307   3.937   4.955
 1433SOL    HW1 5085   0.284   3.974   5.045
 1433SOL    HW2 5086   0.277   3.842   4.949
 1434SOL     OW 5087   0.037   5.034   5.006
 1434SOL    HW1 5088   0.090   4.985   5.074
 1434SOL    HW2 5089   0.059   5.132   5.011
 1435SOL     OW 5090   0.732   4.358   4.788
 1435SOL    HW1 5091   0.791   4.332   4.712
 1435SOL    HW2 5092   0.704   4.454   4.777
 1436SOL     OW 5093   0.307   3.787   4.342
 1436SOL    HW1 5094   0.296   3.881   4.375
 1436SOL    HW2 5095   0.302   3.724   4.419
 1437SOL     OW 5096   1.622   4.091   4.098
 1437SOL    HW1 5097   1.624   4.015   4.162
 1437SOL    HW2 5098   1.574   4.168   4.138
 1438SOL     OW 5099   1.023   4.490   4.690
 1438SOL    HW1 5100   1.038   4.511   4.786
 1438SOL    HW2 5101   0.993   4.395   4.681
 1439SOL     OW 5102   1.540   3.998   3.849
 1439SOL    HW1 5103   1.479   3.923   3.872
 1439SOL    HW2 5104   1.562   4.050   3.932
 1440SOL     OW 5105   1.303   4.562   3.766
 1440SOL    HW1 5106   1.337   4.469   3.781
 1440SOL    HW2 5107   1.321   4.589   3.671
 1441SOL     OW 5108   0.319   4.534   4.673
 1441SOL    HW1 5109   0.412   4.570   4.678
 1441SOL    HW2 5110   0.313   4.449   4.725
 1442SOL     OW 5111   0.339   4.233   4.730
 1442SOL    HW1 5112   0.287   4.150   4.713
 1442SOL    HW2 5113   0.416   4.238   4.666
 1443SOL     OW 5114   0.008   5.050   3.924
 1443SOL    HW1 5115  -0.085   5.071   3.893
 1443SOL    HW2 5116   0.018   4.951   3.937
 1444SOL     OW 5117   1.002   4.520   4.962
 1444SOL    HW1 5118   1.043   4.488   5.048
 1444SOL    HW2 5119   0.906   4.493   4.959
 1445SOL     OW 5120   0.040   4.268   4.838
 1445SOL    HW1 5121   0.125   4.235   4.797
 1445SOL    HW2 5122   0.053   4.283   4.936
 1446SOL     OW 5123   0.815   4.296   4.049
 1446SOL    HW1 5124   0.822   4.207   4.003
 1446SOL    HW2 5125   0.721   4.330   4.041
 1447SOL     OW 5126   1.657   4.328   4.930
 1447SOL    HW1 5127   1.619   4.259   4.992
 1447SOL    HW2 5128   1.739   4.292   4.886
 1448SOL     OW 5129   0.671   4.188   4.993
 1448SOL    HW1 5130   0.637   4.099   4.963
 1448SOL    HW2 5131   0.697   4.242   4.913
 1449SOL     OW 5132   0.473   4.224   3.915
 1449SOL    HW1 5133   0.534   4.304   3.919
 1449SOL    HW2 5134   0.378   4.255   3.922
 1450SOL     OW 5135   1.347   4.783   4.958
 1450SOL    HW1 5136   1.371   4.720   4.884
 1450SOL    HW2 5137   1.257   4.823   4.940
 1451SOL     OW 5138   1.302   4.579   4.033
 1451SOL    HW1 5139   1.216   4.548   4.075
 1451SOL    HW2 5140   1.298   4.565   3.934
 1452SOL     OW 5141   0.083   4.982   4.746
 1452SOL    HW1 5142   0.078   4.981   4.846
 1452SOL    HW2 5143   0.000   4.941   4.708
 1453SOL     OW 5144   1.726   3.859   4.247
 1453SOL    HW1 5145   1.799   3.842   4.180
 1453SOL    HW2 5146   1.695   3.772   4.285
 1454SOL     OW 5147   1.280   4.651   4.396
 1454SOL    HW1 5148   1.340   4.570   4.398
 1454SOL    HW2 5149   1.320   4.720   4.336
 1455SOL     OW 5150   0.830   4.997   5.146
 1455SOL    HW1 5151   0.825   5.030   5.241
 1455SOL    HW2 5152   0.744   5.016   5.100
 1456SOL     OW 5153   1.841   3.899   4.687
 1456SOL    HW1 5154   1.880   3.814   4.651
 1456SOL    HW2 5155   1.743   3.901   4.668
 1457SOL     OW 5156   0.263   4.050   4.444
 1457SOL    HW1 5157   0.184   4.101   4.410
 1457SOL    HW2 5158   0.254   4.035   4.542
 1458SOL     OW 5159   1.194   5.336   3.755
 1458SOL    HW1 5160   1.200   5.243   3.792
 1458SOL    HW2 5161   1.135   5.336   3.675
 1459SOL     OW 5162   0.822   4.726   5.096
 1459SOL    HW1 5163   0.862   4.725   5.004
 1459SOL    HW2 5164   0.832   4.818   5.136
 1460SOL     OW 5165   0.916   4.634   4.015
 1460SOL    HW1 5166   0.979   4.672   3.947
 1460SOL    HW2 5167   0.956   4.551   4.054
 1461SOL     OW 5168   1.039   4.822   4.420
 1461SOL    HW1 5169   0.969   4.775   4.474
 1461SOL    HW2 5170   1.098   4.754   4.377
 1462SOL     OW 5171   1.014   3.960   4.695
 1462SOL    HW1 5172   1.006   3.924   4.602
 1462SOL    HW2 5173   1.012   3.884   4.760
 1463SOL     OW 5174   1.709   4.109   5.105
 1463SOL    HW1 5175   1.782   4.178   5.109
 1463SOL    HW2 5176   1.737   4.034   5.046
 1464SOL     OW 5177   0.075   4.069   3.757
 1464SOL    HW1 5178  -0.017   4.041   3.728
 1464SOL    HW2 5179   0.106   4.146   3.701
 1465SOL     OW 5180   0.072   3.890   4.042
 1465SOL    HW1 5181   0.055   3.973   3.988
 1465SOL    HW2 5182   0.162   3.853   4.020
 1466SOL     OW 5183   1.450   4.944   5.357
 1466SOL    HW1 5184   1.441   4.934   5.456
 1466SOL    HW2 5185   1.546   4.937   5.331
 1467SOL     OW 5186   1.674   4.607   4.978
 1467SOL    HW1 5187   1.647   4.518   4.941
 1467SOL    HW2 5188   1.675   4.675   4.905
 1468SOL     OW 5189   1.225   4.049   4.173
 1468SOL    HW1 5190   1.290   3.975   4.162
 1468SOL    HW2 5191   1.245   4.099   4.257
 1469SOL     OW 5192   0.594   4.469   4.376
 1469SOL    HW1 5193   0.644   4.554   4.357
 1469SOL    HW2 5194   0.506   4.471   4.328
 1470SOL     OW 5195   1.730   4.658   5.241
 1470SOL    HW1 5196   1.768   4.749   5.256
 1470SOL    HW2 5197   1.722   4.641   5.142
 1471SOL     OW 5198   0.859   4.680   4.585
 1471SOL    HW1 5199   0.913   4.611   4.633
 1471SOL    HW2 5200   0.827   4.749   4.651
 1472SOL     OW 5201   1.083   4.708   3.811
 1472SOL    HW1 5202   1.060   4.761   3.729
 1472SOL    HW2 5203   1.164   4.652   3.792
 1473SOL     OW 5204   0.079   4.964   4.377
 1473SOL    HW1 5205   0.078   4.917   4.465
 1473SOL    HW2 5206   0.161   4.936   4.326
 1474SOL     OW 5207   1.824   3.916   4.951
 1474SOL    HW1 5208   1.820   3.826   4.995
 1474SOL    HW2 5209   1.827   3.905   4.852
 1475SOL     OW 5210   0.428   4.148   4.244
 1475SOL    HW1 5211   0.458   4.076   4.182
 1475SOL    HW2 5212   0.389   4.108   4.327
 1476SOL     OW 5213   1.424   3.938   4.836
 1476SOL    HW1 5214   1.476   3.873   4.891
 1476SOL    HW2 5215   1.375   4.001   4.897
 1477SOL     OW 5216   1.001   3.758   4.878
 1477SOL    HW1 5217   0.938   3.686   4.847
 1477SOL    HW2 5218   1.094   3.722   4.878
 1478SOL     OW 5219   0.770   5.054   4.025
 1478SOL    HW1 5220   0.724   4.967   4.042
 1478SOL    HW2 5221   0.861   5.051   4.066
 1479SOL     OW 5222   1.352   3.776   3.892
 1479SOL    HW1 5223   1.387   3.735   3.808
 1479SOL    HW2 5224   1.262   3.738   3.912
 1480SOL     OW 5225   1.300   4.177   4.415
 1480SOL    HW1 5226   1.241   4.257   4.419
 1480SOL    HW2 5227   1.315   4.142   4.508
 1481SOL     OW 5228   1.593   3.945   4.606
 1481SOL    HW1 5229   1.509   3.944   4.660
 1481SOL    HW2 5230   1.595   4.028   4.550
 1482SOL     OW 5231   0.039   4.801   4.024
 1482SOL    HW1 5232   0.138   4.790   4.015
 1482SOL    HW2 5233  -0.001   4.715   4.056
 1483SOL     OW 5234   2.092   0.628   0.113
 1483SOL    HW1 5235   1.999   0.626   0.150
 1483SOL    HW2 5236   2.093   0.589   0.021
 1484SOL     OW 5237   2.087   0.275   0.996
 1484SOL    HW1 5238   2.122   0.258   1.088
 1484SOL    HW2 5239   1.999   0.230   0.984
 1485SOL     OW 5240   1.881   0.368   0.647
 1485SOL    HW1 5241   1.799   0.411   0.686
 1485SOL    HW2 5242   1.853   0.295   0.584
 1486SOL     OW 5243   3.417   1.511   0.703
 1486SOL    HW1 5244   3.360   1.495   0.784
 1486SOL    HW2 5245   3.358   1.521   0.623
 1487SOL     OW 5246   2.997   0.703   0.717
 1487SOL    HW1 5247   3.054   0.781   0.692
 1487SOL    HW2 5248   2.937   0.729   0.793
 1488SOL     OW 5249   2.712   0.798   1.823
 1488SOL    HW1 5250   2.708   0.874   1.888
 1488SOL    HW2 5251   2.734   0.834   1.732
 1489SOL     OW 5252   2.547   1.012   0.665
 1489SOL    HW1 5253   2.616   0.996   0.735
 1489SOL    HW2 5254   2.474   1.069   0.703
 1490SOL     OW 5255   2.548   1.161   1.803
 1490SOL    HW1 5256   2.608   1.240   1.817
 1490SOL    HW2 5257   2.462   1.192   1.762
 1491SOL     OW 5258   2.197   1.435   1.061
 1491SOL    HW1 5259   2.119   1.404   1.008
 1491SOL    HW2 5260   2.255   1.493   1.004
 1492SOL     OW 5261   3.322   1.505   1.339
 1492SOL    HW1 5262   3.346   1.599   1.365
 1492SOL    HW2 5263   3.306   1.451   1.421
 1493SOL     OW 5264   2.300   0.392   1.499
 1493SOL    HW1 5265   2.382   0.336   1.508
 1493SOL    HW2 5266   2.219   0.334   1.503
 1494SOL     OW 5267   3.465   0.447   0.737
 1494SOL    HW1 5268   3.391   0.493   0.687
 1494SOL    HW2 5269   3.516   0.515   0.790
 1495SOL     OW 5270   2.093   1.713   0.483
 1495SOL    HW1 5271   2.127   1.790   0.537
 1495SOL    HW2 5272   2.137   1.713   0.393
 1496SOL     OW 5273   2.989   1.341   1.690
 1496SOL    HW1 5274   3.036   1.341   1.778
 1496SOL    HW2 5275   2.941   1.254   1.679
 1497SOL     OW 5276   2.092   1.434   0.538
 1497SOL    HW1 5277   2.066   1.530   0.538
 1497SOL    HW2 5278   2.021   1.380   0.583
 1498SOL     OW 5279   2.102   1.091   0.886
 1498SOL    HW1 5280   2.116   1.007   0.938
 1498SOL    HW2 5281   2.047   1.155   0.941
 1499SOL     OW 5282   2.482   1.786   1.439
 1499SOL    HW1 5283   2.390   1.769   1.474
 1499SOL    HW2 5284   2.510   1.878   1.465
 1500SOL     OW 5285   2.468   0.964   0.123
 1500SOL    HW1 5286   2.475   1.048   0.069
 1500SOL    HW2 5287   2.514   0.977   0.211
 1501SOL     OW 5288   3.456   0.114   1.480
 1501SOL    HW1 5289   3.438   0.181   1.408
 1501SOL    HW2 5290   3.453   0.160   1.569
 1502SOL     OW 5291   1.984   0.643   0.563
 1502SOL    HW1 5292   1.939   0.555   0.580
 1502SOL    HW2 5293   1.983   0.697   0.647
 1503SOL     OW 5294   3.704   1.767   0.359
 1503SOL    HW1 5295   3.758   1.738   0.439
 1503SOL    HW2 5296   3.734   1.857   0.330
 1504SOL     OW 5297   1.889   1.596   0.117
 1504SOL    HW1 5298   1.870   1.500   0.138
 1504SOL    HW2 5299   1.856   1.654   0.192
 1505SOL     OW 5300   3.551   0.922   0.612
 1505SOL    HW1 5301   3.646   0.893   0.620
 1505SOL    HW2 5302   3.543   0.987   0.537
 1506SOL     OW 5303   3.503   1.108   0.432
 1506SOL    HW1 5304   3.589   1.110   0.380
 1506SOL    HW2 5305   3.517   1.155   0.520
 1507SOL     OW 5306   1.975   0.737   1.597
 1507SOL    HW1 5307   2.063   0.724   1.642
 1507SOL    HW2 5308   1.962   0.834   1.575
 1508SOL     OW 5309   2.475   1.365   0.726
 1508SOL    HW1 5310   2.426   1.278   0.735
 1508SOL    HW2 5311   2.452   1.408   0.639
 1509SOL     OW 5312   3.155   1.228   1.423
 1509SOL    HW1 5313   3.192   1.155   1.365
 1509SOL    HW2 5314   3.207   1.233   1.508
 1510SOL     OW 5315   2.671   0.004   0.502
 1510SOL    HW1 5316   2.711   0.095   0.493
 1510SOL    HW2 5317   2.571   0.012   0.508
 1511SOL     OW 5318   2.059   0.976   1.264
 1511SOL    HW1 5319   2.148   0.931   1.250
 1511SOL    HW2 5320   1.986   0.911   1.245
 1512SOL     OW 5321   3.387   0.999   0.190
 1512SOL    HW1 5322   3.324   0.923   0.203
 1512SOL    HW2 5323   3.435   1.017   0.276
 1513SOL     OW 5324   3.049   1.792   1.616
 1513SOL    HW1 5325   3.073   1.852   1.540
 1513SOL    HW2 5326   3.056   1.697   1.586
 1514SOL     OW 5327   2.179   0.251   1.801
 1514SOL    HW1 5328   2.250   0.322   1.807
 1514SOL    HW2 5329   2.091   0.290   1.829
 1515SOL     OW 5330   3.328   1.417   0.953
 1515SOL    HW1 5331   3.269   1.423   1.033
 1515SOL    HW2 5332   3.313   1.329   0.907
 1516SOL     OW 5333   3.529   1.714   0.572
 1516SOL    HW1 5334   3.488   1.691   0.484
 1516SOL    HW2 5335   3.511   1.640   0.637
 1517SOL     OW 5336   2.460   0.729   0.270
 1517SOL    HW1 5337   2.484   0.798   0.202
 1517SOL    HW2 5338   2.382   0.762   0.324
 1518SOL     OW 5339   3.143   0.345   0.944
 1518SOL    HW1 5340   3.057   0.295   0.931
 1518SOL    HW2 5341   3.205   0.291   1.000
 1519SOL     OW 5342   3.438   1.662   0.307
 1519SOL    HW1 5343   3.527   1.708   0.310
 1519SOL    HW2 5344   3.417   1.638   0.212
 1520SOL     OW 5345   2.669   0.605   1.465
 1520SOL    HW1 5346   2.622   0.602   1.554
 1520SOL    HW2 5347   2.618   0.550   1.399
 1521SOL     OW 5348   3.256   0.469   1.674
 1521SOL    HW1 5349   3.236   0.512   1.762
 1521SOL    HW2 5350   3.334   0.407   1.683
 1522SOL     OW 5351   2.835   0.890   1.572
 1522SOL    HW1 5352   2.881   0.806   1.543
 1522SOL    HW2 5353   2.779   0.924   1.497
 1523SOL     OW 5354   2.853   0.410   1.242
 1523SOL    HW1 5355   2.776   0.444   1.296
 1523SOL    HW2 5356   2.819   0.359   1.163
 1524SOL     OW 5357   2.903   0.701   0.429
 1524SOL    HW1 5358   2.929   0.697   0.525
 1524SOL    HW2 5359   2.818   0.650   0.415
 1525SOL     OW 5360   1.938   0.811   0.789
 1525SOL    HW1 5361   2.037   0.799   0.798
 1525SOL    HW2 5362   1.914   0.906   0.810
 1526SOL     OW 5363   2.727   0.348   0.195
 1526SOL    HW1 5364   2.786   0.411   0.146
 1526SOL    HW2 5365   2.746   0.254   0.166
 1527SOL     OW 5366   3.581   0.585   1.831
 1527SOL    HW1 5367   3.555   0.674   1.795
 1527SOL    HW2 5368   3.579   0.517   1.758
 1528SOL     OW 5369   3.224   1.144   0.545
 1528SOL    HW1 5370   3.307   1.115   0.497
 1528SOL    HW2 5371   3.175   1.211   0.489
 1529SOL     OW 5372   2.412   0.196   0.885
 1529SOL    HW1 5373   2.407   0.191   0.985
 1529SOL    HW2 5374   2.414   0.292   0.856
 1530SOL     OW 5375   2.870   1.456   0.477
 1530SOL    HW1 5376   2.824   1.528   0.425
 1530SOL    HW2 5377   2.866   1.476   0.575
 1531SOL     OW 5378   2.213   1.801   0.853
 1531SOL    HW1 5379   2.263   1.715   0.859
 1531SOL    HW2 5380   2.278   1.878   0.850
 1532SOL     OW 5381   3.657   1.066   0.873
 1532SOL    HW1 5382   3.595   1.051   0.797
 1532SOL    HW2 5383   3.605   1.077   0.958
 1533SOL     OW 5384   3.089   1.550   1.506
 1533SOL    HW1 5385   3.095   1.473   1.570
 1533SOL    HW2 5386   3.037   1.524   1.426
 1534SOL     OW 5387   2.183   0.943   0.242
 1534SOL    HW1 5388   2.265   0.982   0.200
 1534SOL    HW2 5389   2.156   0.861   0.193
 1535SOL     OW 5390   3.320   0.735   0.728
 1535SOL    HW1 5391   3.315   0.670   0.803
 1535SOL    HW2 5392   3.400   0.794   0.741
 1536SOL     OW 5393   2.323   1.266   1.727
 1536SOL    HW1 5394   2.273   1.267   1.641
 1536SOL    HW2 5395   2.260   1.248   1.803
 1537SOL     OW 5396   2.973   1.776   0.237
 1537SOL    HW1 5397   2.913   1.714   0.287
 1537SOL    HW2 5398   3.004   1.732   0.152
 1538SOL     OW 5399   2.064   0.285   1.498
 1538SOL    HW1 5400   1.984   0.345   1.485
 1538SOL    HW2 5401   2.054   0.236   1.584
 1539SOL     OW 5402   3.494   1.377   0.081
 1539SOL    HW1 5403   3.462   1.471   0.071
 1539SOL    HW2 5404   3.418   1.314   0.069
 1540SOL     OW 5405   2.326   1.743   0.323
 1540SOL    HW1 5406   2.359   1.782   0.409
 1540SOL    HW2 5407   2.402   1.736   0.258
 1541SOL     OW 5408   3.262   0.107   0.426
 1541SOL    HW1 5409   3.238   0.070   0.336
 1541SOL    HW2 5410   3.361   0.123   0.430
 1542SOL     OW 5411   2.802   1.698   0.904
 1542SOL    HW1 5412   2.882   1.641   0.925
 1542SOL    HW2 5413   2.753   1.658   0.827
 1543SOL     OW 5414   2.244   0.700   0.480
 1543SOL    HW1 5415   2.289   0.610   0.477
 1543SOL    HW2 5416   2.150   0.689   0.513
 1544SOL     OW 5417   3.409   0.222   1.729
 1544SOL    HW1 5418   3.404   0.259   1.821
 1544SOL    HW2 5419   3.337   0.153   1.717
 1545SOL     OW 5420   2.476   0.122   0.117
 1545SOL    HW1 5421   2.574   0.100   0.124
 1545SOL    HW2 5422   2.445   0.105   0.024
 1546SOL     OW 5423   2.643   0.264   1.749
 1546SOL    HW1 5424   2.710   0.203   1.792
 1546SOL    HW2 5425   2.570   0.283   1.814
 1547SOL     OW 5426   2.750   1.514   1.195
 1547SOL    HW1 5427   2.727   1.489   1.101
 1547SOL    HW2 5428   2.811   1.445   1.234
 1548SOL     OW 5429   3.213   0.590   1.433
 1548SOL    HW1 5430   3.241   0.547   1.518
 1548SOL    HW2 5431   3.238   0.686   1.434
 1549SOL     OW 5432   2.784   0.503   0.899
 1549SOL    HW1 5433   2.759   0.494   0.803
 1549SOL    HW2 5434   2.832   0.421   0.930
 1550SOL     OW 5435   2.401   0.064   0.512
 1550SOL    HW1 5436   2.320   0.065   0.570
 1550SOL    HW2 5437   2.404   0.147   0.457
 1551SOL     OW 5438   3.296   1.188   0.041
 1551SOL    HW1 5439   3.328   1.112   0.098
 1551SOL    HW2 5440   3.204   1.215   0.071
 1552SOL     OW 5441   2.159   0.035   0.171
 1552SOL    HW1 5442   2.208   0.119   0.150
 1552SOL    HW2 5443   2.221  -0.030   0.216
 1553SOL     OW 5444   2.797   0.236   0.480
 1553SOL    HW1 5445   2.749   0.277   0.402
 1553SOL    HW2 5446   2.896   0.234   0.461
 1554SOL     OW 5447   2.938   0.683   1.464
 1554SOL    HW1 5448   2.858   0.622   1.467
 1554SOL    HW2 5449   3.019   0.630   1.440
 1555SOL     OW 5450   3.089   1.570   0.793
 1555SOL    HW1 5451   3.110   1.644   0.728
 1555SOL    HW2 5452   3.157   1.570   0.866
 1556SOL     OW 5453   2.321   1.152   0.741
 1556SOL    HW1 5454   2.250   1.125   0.806
 1556SOL    HW2 5455   2.295   1.124   0.648
 1557SOL     OW 5456   3.133   1.797   0.591
 1557SOL    HW1 5457   3.177   1.861   0.527
 1557SOL    HW2 5458   3.083   1.849   0.661
 1558SOL     OW 5459   2.894   0.549   0.016
 1558SOL    HW1 5460   2.853   0.631  -0.023
 1558SOL    HW2 5461   2.958   0.575   0.089
 1559SOL     OW 5462   1.940   0.556   1.386
 1559SOL    HW1 5463   2.032   0.555   1.345
 1559SOL    HW2 5464   1.934   0.630   1.453
 1560SOL     OW 5465   2.423   0.222   1.147
 1560SOL    HW1 5466   2.461   0.138   1.184
 1560SOL    HW2 5467   2.335   0.241   1.191
 1561SOL     OW 5468   2.728   0.454   0.642
 1561SOL    HW1 5469   2.696   0.526   0.580
 1561SOL    HW2 5470   2.752   0.373   0.589
 1562SOL     OW 5471   2.879   0.039   0.753
 1562SOL    HW1 5472   2.807   0.044   0.684
 1562SOL    HW2 5473   2.855  -0.030   0.822
 1563SOL     OW 5474   3.291   1.173   0.867
 1563SOL    HW1 5475   3.236   1.089   0.860
 1563SOL    HW2 5476   3.317   1.202   0.775
 1564SOL     OW 5477   3.328   0.590   0.992
 1564SOL    HW1 5478   3.298   0.495   0.999
 1564SOL    HW2 5479   3.401   0.606   1.058
 1565SOL     OW 5480   2.350   1.385   0.174
 1565SOL    HW1 5481   2.263   1.370   0.221
 1565SOL    HW2 5482   2.333   1.411   0.079
 1566SOL     OW 5483   3.526   1.280   0.657
 1566SOL    HW1 5484   3.625   1.288   0.671
 1566SOL    HW2 5485   3.481   1.364   0.688
 1567SOL     OW 5486   3.252   0.575   0.078
 1567SOL    HW1 5487   3.198   0.554   0.159
 1567SOL    HW2 5488   3.343   0.534   0.087
 1568SOL     OW 5489   2.389   0.256   0.328
 1568SOL    HW1 5490   2.416   0.197   0.253
 1568SOL    HW2 5491   2.389   0.351   0.297
 1569SOL     OW 5492   3.616   1.223   1.588
 1569SOL    HW1 5493   3.707   1.184   1.575
 1569SOL    HW2 5494   3.624   1.319   1.612
 1570SOL     OW 5495   2.926   1.347   1.340
 1570SOL    HW1 5496   2.846   1.324   1.395
 1570SOL    HW2 5497   3.009   1.321   1.389
 1571SOL     OW 5498   3.454   1.629   1.625
 1571SOL    HW1 5499   3.481   1.663   1.535
 1571SOL    HW2 5500   3.533   1.591   1.671
 1572SOL     OW 5501   2.973   1.195   1.100
 1572SOL    HW1 5502   2.933   1.239   1.181
 1572SOL    HW2 5503   2.932   1.232   1.017
 1573SOL     OW 5504   3.500   1.099   1.079
 1573SOL    HW1 5505   3.505   1.180   1.138
 1573SOL    HW2 5506   3.414   1.101   1.028
 1574SOL     OW 5507   2.777   0.089   1.402
 1574SOL    HW1 5508   2.802   0.069   1.307
 1574SOL    HW2 5509   2.849   0.145   1.444
 1575SOL     OW 5510   2.842   1.116   1.719
 1575SOL    HW1 5511   2.743   1.122   1.729
 1575SOL    HW2 5512   2.865   1.036   1.663
 1576SOL     OW 5513   2.567   1.050   0.368
 1576SOL    HW1 5514   2.553   1.057   0.467
 1576SOL    HW2 5515   2.651   0.999   0.350
 1577SOL     OW 5516   2.272   0.813   1.251
 1577SOL    HW1 5517   2.358   0.825   1.301
 1577SOL    HW2 5518   2.230   0.726   1.278
 1578SOL     OW 5519   3.136   0.386   1.262
 1578SOL    HW1 5520   3.157   0.460   1.326
 1578SOL    HW2 5521   3.047   0.403   1.219
 1579SOL     OW 5522   1.926   1.564   1.331
 1579SOL    HW1 5523   1.880   1.646   1.297
 1579SOL    HW2 5524   2.024   1.583   1.340
 1580SOL     OW 5525   2.229   1.100   0.501
 1580SOL    HW1 5526   2.222   1.183   0.445
 1580SOL    HW2 5527   2.233   1.020   0.441
 1581SOL     OW 5528   2.428   0.537   0.865
 1581SOL    HW1 5529   2.440   0.603   0.791
 1581SOL    HW2 5530   2.474   0.571   0.948
 1582SOL     OW 5531   3.114   1.348   0.388
 1582SOL    HW1 5532   3.164   1.425   0.428
 1582SOL    HW2 5533   3.019   1.350   0.420
 1583SOL     OW 5534   3.134   1.445   1.142
 1583SOL    HW1 5535   3.181   1.458   1.229
 1583SOL    HW2 5536   3.068   1.371   1.151
 1584SOL     OW 5537   2.264   0.751   1.598
 1584SOL    HW1 5538   2.332   0.806   1.551
 1584SOL    HW2 5539   2.304   0.663   1.625
 1585SOL     OW 5540   3.449   0.779   1.670
 1585SOL    HW1 5541   3.357   0.817   1.665
 1585SOL    HW2 5542   3.509   0.826   1.605
 1586SOL     OW 5543   2.875   0.105   1.770
 1586SOL    HW1 5544   2.881   0.190   1.718
 1586SOL    HW2 5545   2.907   0.029   1.713
 1587SOL     OW 5546   2.435   0.870   1.029
 1587SOL    HW1 5547   2.479   0.959   1.020
 1587SOL    HW2 5548   2.372   0.870   1.106
 1588SOL     OW 5549   3.222   0.862   1.045
 1588SOL    HW1 5550   3.147   0.862   0.979
 1588SOL    HW2 5551   3.259   0.770   1.054
 1589SOL     OW 5552   3.071   0.525   0.275
 1589SOL    HW1 5553   3.084   0.441   0.329
 1589SOL    HW2 5554   3.042   0.599   0.335
 1590SOL     OW 5555   2.169   0.213   1.231
 1590SOL    HW1 5556   2.146   0.250   1.321
 1590SOL    HW2 5557   2.139   0.118   1.225
 1591SOL     OW 5558   1.899   1.310   1.282
 1591SOL    HW1 5559   1.952   1.261   1.350
 1591SOL    HW2 5560   1.921   1.408   1.287
 1592SOL     OW 5561   2.594   0.634   1.064
 1592SOL    HW1 5562   2.653   0.608   0.988
 1592SOL    HW2 5563   2.566   0.730   1.053
 1593SOL     OW 5564   3.590   0.935   1.854
 1593SOL    HW1 5565   3.544   0.928   1.765
 1593SOL    HW2 5566   3.528   0.979   1.920
 1594SOL     OW 5567   2.169   0.063   0.618
 1594SOL    HW1 5568   2.158   0.157   0.651
 1594SOL    HW2 5569   2.164   0.000   0.695
 1595SOL     OW 5570   3.484   0.367   0.374
 1595SOL    HW1 5571   3.486   0.291   0.438
 1595SOL    HW2 5572   3.436   0.444   0.414
 1596SOL     OW 5573   2.885   0.766   0.966
 1596SOL    HW1 5574   2.900   0.787   1.062
 1596SOL    HW2 5575   2.855   0.671   0.957
 1597SOL     OW 5576   2.842   1.573   1.700
 1597SOL    HW1 5577   2.822   1.617   1.612
 1597SOL    HW2 5578   2.881   1.482   1.684
 1598SOL     OW 5579   3.721   1.518   1.605
 1598SOL    HW1 5580   3.735   1.545   1.510
 1598SOL    HW2 5581   3.804   1.540   1.658
 1599SOL     OW 5582   2.212   0.898   1.804
 1599SOL    HW1 5583   2.288   0.942   1.852
 1599SOL    HW2 5584   2.247   0.851   1.722
 1600SOL     OW 5585   3.402   0.274   0.125
 1600SOL    HW1 5586   3.341   0.199   0.148
 1600SOL    HW2 5587   3.424   0.326   0.208
 1601SOL     OW 5588   3.165   0.838   0.042
 1601SOL    HW1 5589   3.199   0.745   0.057
 1601SOL    HW2 5590   3.183   0.865  -0.053
 1602SOL     OW 5591   2.930   1.333   0.849
 1602SOL    HW1 5592   2.937   1.249   0.794
 1602SOL    HW2 5593   2.992   1.402   0.813
 1603SOL     OW 5594   2.181   0.810   0.949
 1603SOL    HW1 5595   2.274   0.846   0.954
 1603SOL    HW2 5596   2.175   0.725   1.001
 1604SOL     OW 5597   2.201   0.509   1.006
 1604SOL    HW1 5598   2.149   0.426   0.989
 1604SOL    HW2 5599   2.278   0.514   0.942
 1605SOL     OW 5600   3.000   0.380   1.678
 1605SOL    HW1 5601   2.955   0.443   1.742
 1605SOL    HW2 5602   3.093   0.411   1.661
 1606SOL     OW 5603   3.022   0.207   1.477
 1606SOL    HW1 5604   3.022   0.271   1.554
 1606SOL    HW2 5605   3.050   0.255   1.394
 1607SOL     OW 5606   1.950   1.801   0.927
 1607SOL    HW1 5607   1.908   1.715   0.900
 1607SOL    HW2 5608   2.044   1.804   0.893
 1608SOL     OW 5609   2.864   0.796   1.238
 1608SOL    HW1 5610   2.905   0.764   1.324
 1608SOL    HW2 5611   2.768   0.769   1.235
 1609SOL     OW 5612   1.902   0.544   1.114
 1609SOL    HW1 5613   1.987   0.511   1.073
 1609SOL    HW2 5614   1.915   0.559   1.212
 1610SOL     OW 5615   2.051   0.520   1.722
 1610SOL    HW1 5616   2.110   0.480   1.652
 1610SOL    HW2 5617   1.993   0.591   1.681
 1611SOL     OW 5618   3.231   0.950   1.660
 1611SOL    HW1 5619   3.270   1.039   1.680
 1611SOL    HW2 5620   3.241   0.930   1.563
 1612SOL     OW 5621   2.677   0.572   0.325
 1612SOL    HW1 5622   2.684   0.483   0.279
 1612SOL    HW2 5623   2.583   0.606   0.317
 1613SOL     OW 5624   3.519   0.604   1.206
 1613SOL    HW1 5625   3.481   0.535   1.268
 1613SOL    HW2 5626   3.601   0.568   1.162
 1614SOL     OW 5627   2.114   1.564   1.744
 1614SOL    HW1 5628   2.084   1.621   1.820
 1614SOL    HW2 5629   2.107   1.467   1.770
 1615SOL     OW 5630   2.533   0.464   1.269
 1615SOL    HW1 5631   2.499   0.375   1.239
 1615SOL    HW2 5632   2.559   0.518   1.189
 1616SOL     OW 5633   2.335   0.500   0.191
 1616SOL    HW1 5634   2.396   0.580   0.195
 1616SOL    HW2 5635   2.240   0.531   0.198
 1617SOL     OW 5636   2.021   1.137   1.466
 1617SOL    HW1 5637   2.043   1.076   1.542
 1617SOL    HW2 5638   2.031   1.088   1.380
 1618SOL     OW 5639   3.209   1.059   1.234
 1618SOL    HW1 5640   3.233   0.996   1.160
 1618SOL    HW2 5641   3.119   1.099   1.216
 1619SOL     OW 5642   3.164   0.855   0.309
 1619SOL    HW1 5643   3.078   0.824   0.351
 1619SOL    HW2 5644   3.160   0.841   0.210
 1620SOL     OW 5645   3.621   1.747   1.154
 1620SOL    HW1 5646   3.682   1.777   1.081
 1620SOL    HW2 5647   3.583   1.658   1.132
 1621SOL     OW 5648   3.114   1.731   1.128
 1621SOL    HW1 5649   3.198   1.736   1.074
 1621SOL    HW2 5650   3.091   1.635   1.146
 1622SOL     OW 5651   1.945   1.258   1.022
 1622SOL    HW1 5652   1.940   1.257   1.122
 1622SOL    HW2 5653   1.862   1.217   0.984
 1623SOL     OW 5654   2.550   1.662   1.716
 1623SOL    HW1 5655   2.494   1.743   1.725
 1623SOL    HW2 5656   2.602   1.666   1.630
 1624SOL     OW 5657   2.765   0.086   0.133
 1624SOL    HW1 5658   2.816   0.087   0.047
 1624SOL    HW2 5659   2.821   0.044   0.204
 1625SOL     OW 5660   3.588   0.135   0.523
 1625SOL    HW1 5661   3.661   0.118   0.456
 1625SOL    HW2 5662   3.557   0.048   0.561
 1626SOL     OW 5663   3.250   1.573   0.477
 1626SOL    HW1 5664   3.317   1.585   0.403
 1626SOL    HW2 5665   3.210   1.662   0.500
 1627SOL     OW 5666   1.992   1.794   1.851
 1627SOL    HW1 5667   1.951   1.720   1.904
 1627SOL    HW2 5668   2.056   1.845   1.909
 1628SOL     OW 5669   3.142   0.927   0.672
 1628SOL    HW1 5670   3.202   0.846   0.674
 1628SOL    HW2 5671   3.182   0.996   0.612
 1629SOL     OW 5672   2.692   1.273   1.422
 1629SOL    HW1 5673   2.687   1.306   1.517
 1629SOL    HW2 5674   2.606   1.292   1.376
 1630SOL     OW 5675   2.534   1.616   0.154
 1630SOL    HW1 5676   2.543   1.626   0.055
 1630SOL    HW2 5677   2.494   1.527   0.175
 1631SOL     OW 5678   3.512   1.720   1.394
 1631SOL    HW1 5679   3.565   1.730   1.310
 1631SOL    HW2 5680   3.485   1.810   1.428
 1632SOL     OW 5681   3.703   0.175   0.963
 1632SOL    HW1 5682   3.742   0.090   0.927
 1632SOL    HW2 5683   3.605   0.177   0.944
 1633SOL     OW 5684   2.125   0.326   0.720
 1633SOL    HW1 5685   2.046   0.377   0.686
 1633SOL    HW2 5686   2.116   0.311   0.818
 1634SOL     OW 5687   3.056   1.612   0.031
 1634SOL    HW1 5688   3.062   1.519   0.068
 1634SOL    HW2 5689   2.997   1.612  -0.049
 1635SOL     OW 5690   2.684   1.002   1.372
 1635SOL    HW1 5691   2.724   1.001   1.280
 1635SOL    HW2 5692   2.694   1.094   1.412
 1636SOL     OW 5693   2.778   0.910   0.291
 1636SOL    HW1 5694   2.841   0.948   0.223
 1636SOL    HW2 5695   2.818   0.827   0.330
 1637SOL     OW 5696   3.366   1.607   0.044
 1637SOL    HW1 5697   3.274   1.644   0.051
 1637SOL    HW2 5698   3.404   1.627  -0.046
 1638SOL     OW 5699   2.234   1.288   1.490
 1638SOL    HW1 5700   2.221   1.381   1.456
 1638SOL    HW2 5701   2.150   1.236   1.477
 1639SOL     OW 5702   3.476   1.292   1.289
 1639SOL    HW1 5703   3.536   1.295   1.369
 1639SOL    HW2 5704   3.401   1.356   1.302
 1640SOL     OW 5705   2.901   1.098   0.696
 1640SOL    HW1 5706   2.831   1.051   0.750
 1640SOL    HW2 5707   2.960   1.030   0.653
 1641SOL     OW 5708   2.876   0.236   0.971
 1641SOL    HW1 5709   2.868   0.200   0.878
 1641SOL    HW2 5710   2.874   0.160   1.036
 1642SOL     OW 5711   2.452   1.487   0.491
 1642SOL    HW1 5712   2.494   1.429   0.421
 1642SOL    HW2 5713   2.408   1.566   0.447
 1643SOL     OW 5714   3.571   0.385   1.381
 1643SOL    HW1 5715   3.644   0.454   1.385
 1643SOL    HW2 5716   3.599   0.310   1.322
 1644SOL     OW 5717   2.117   1.348   0.290
 1644SOL    HW1 5718   2.021   1.349   0.263
 1644SOL    HW2 5719   2.129   1.401   0.374
 1645SOL     OW 5720   1.967   1.013   1.726
 1645SOL    HW1 5721   1.890   0.980   1.780
 1645SOL    HW2 5722   2.052   0.983   1.768
 1646SOL     OW 5723   2.534   0.203   1.489
 1646SOL    HW1 5724   2.624   0.187   1.449
 1646SOL    HW2 5725   2.542   0.208   1.588
 1647SOL     OW 5726   3.302   0.856   1.398
 1647SOL    HW1 5727   3.245   0.908   1.335
 1647SOL    HW2 5728   3.398   0.868   1.374
 1648SOL     OW 5729   1.934   0.166   0.318
 1648SOL    HW1 5730   1.917   0.249   0.264
 1648SOL    HW2 5731   2.024   0.129   0.296
 1649SOL     OW 5732   3.045   1.335   0.119
 1649SOL    HW1 5733   2.946   1.324   0.121
 1649SOL    HW2 5734   3.079   1.350   0.212
 1650SOL     OW 5735   2.475   0.842   1.431
 1650SOL    HW1 5736   2.531   0.923   1.414
 1650SOL    HW2 5737   2.534   0.762   1.434
 1651SOL     OW 5738   3.355   1.767   0.959
 1651SOL    HW1 5739   3.388   1.831   0.890
 1651SOL    HW2 5740   3.421   1.761   1.034
 1652SOL     OW 5741   2.578   0.565   1.708
 1652SOL    HW1 5742   2.597   0.630   1.782
 1652SOL    HW2 5743   2.638   0.485   1.717
 1653SOL     OW 5744   3.312   1.220   1.633
 1653SOL    HW1 5745   3.303   1.210   1.732
 1653SOL    HW2 5746   3.408   1.213   1.607
 1654SOL     OW 5747   3.536   0.883   1.254
 1654SOL    HW1 5748   3.509   0.794   1.217
 1654SOL    HW2 5749   3.537   0.951   1.181
 1655SOL     OW 5750   3.087   0.325   0.449
 1655SOL    HW1 5751   3.152   0.251   0.438
 1655SOL    HW2 5752   3.107   0.375   0.533
 1656SOL     OW 5753   2.456   0.745   0.652
 1656SOL    HW1 5754   2.506   0.830   0.633
 1656SOL    HW2 5755   2.368   0.747   0.604
 1657SOL     OW 5756   3.639   0.342   1.642
 1657SOL    HW1 5757   3.622   0.373   1.548
 1657SOL    HW2 5758   3.555   0.305   1.680
 1658SOL     OW 5759   3.592   0.934   1.517
 1658SOL    HW1 5760   3.630   1.025   1.532
 1658SOL    HW2 5761   3.584   0.917   1.418
 1659SOL     OW 5762   2.721   1.374   0.016
 1659SOL    HW1 5763   2.675   1.389   0.104
 1659SOL    HW2 5764   2.765   1.459  -0.014
 1660SOL     OW 5765   2.721   0.956   0.861
 1660SOL    HW1 5766   2.775   0.887   0.909
 1660SOL    HW2 5767   2.689   1.025   0.927
 1661SOL     OW 5768   2.945   0.984   0.087
 1661SOL    HW1 5769   2.922   1.037   0.005
 1661SOL    HW2 5770   3.026   0.928   0.068
 1662SOL     OW 5771   3.723   1.569   0.851
 1662SOL    HW1 5772   3.652   1.557   0.781
 1662SOL    HW2 5773   3.724   1.490   0.911
 1663SOL     OW 5774   2.083   1.314   1.844
 1663SOL    HW1 5775   2.018   1.241   1.823
 1663SOL    HW2 5776   2.087   1.328   1.942
 1664SOL     OW 5777   1.941   1.240   0.653
 1664SOL    HW1 5778   1.940   1.193   0.741
 1664SOL    HW2 5779   2.023   1.212   0.602
 1665SOL     OW 5780   2.534   1.391   1.624
 1665SOL    HW1 5781   2.456   1.341   1.662
 1665SOL    HW2 5782   2.531   1.486   1.655
 1666SOL     OW 5783   3.686   0.192   1.227
 1666SOL    HW1 5784   3.682   0.102   1.271
 1666SOL    HW2 5785   3.689   0.181   1.128
 1667SOL     OW 5786   2.290   0.424   0.520
 1667SOL    HW1 5787   2.320   0.352   0.458
 1667SOL    HW2 5788   2.251   0.384   0.603
 1668SOL     OW 5789   3.567   1.487   1.104
 1668SOL    HW1 5790   3.474   1.462   1.077
 1668SOL    HW2 5791   3.593   1.437   1.186
 1669SOL     OW 5792   2.179   0.547   1.280
 1669SOL    HW1 5793   2.217   0.488   1.352
 1669SOL    HW2 5794   2.219   0.521   1.192
 1670SOL     OW 5795   2.674   1.586   0.687
 1670SOL    HW1 5796   2.706   1.596   0.593
 1670SOL    HW2 5797   2.595   1.524   0.689
 1671SOL     OW 5798   3.286   0.214   1.112
 1671SOL    HW1 5799   3.338   0.149   1.167
 1671SOL    HW2 5800   3.237   0.277   1.173
 1672SOL     OW 5801   2.863   0.034   1.154
 1672SOL    HW1 5802   2.800  -0.038   1.123
 1672SOL    HW2 5803   2.956  -0.002   1.154
 1673SOL     OW 5804   2.632   1.330   0.301
 1673SOL    HW1 5805   2.586   1.243   0.318
 1673SOL    HW2 5806   2.723   1.327   0.342
 1674SOL     OW 5807   3.214   0.052   0.168
 1674SOL    HW1 5808   3.249   0.011   0.084
 1674SOL    HW2 5809   3.124   0.014   0.188
 1675SOL     OW 5810   3.162   0.453   0.691
 1675SOL    HW1 5811   3.103   0.533   0.695
 1675SOL    HW2 5812   3.177   0.418   0.784
 1676SOL     OW 5813   3.455   0.221   0.882
 1676SOL    HW1 5814   3.371   0.220   0.936
 1676SOL    HW2 5815   3.457   0.304   0.826
 1677SOL     OW 5816   1.901   1.077   0.300
 1677SOL    HW1 5817   2.000   1.066   0.291
 1677SOL    HW2 5818   1.861   0.991   0.332
 1678SOL     OW 5819   2.737   1.646   0.337
 1678SOL    HW1 5820   2.660   1.611   0.283
 1678SOL    HW2 5821   2.705   1.717   0.399
 1679SOL     OW 5822   2.092   0.628   1.975
 1679SOL    HW1 5823   1.999   0.626   2.012
 1679SOL    HW2 5824   2.093   0.589   1.883
 1680SOL     OW 5825   2.087   0.275   2.858
 1680SOL    HW1 5826   2.122   0.258   2.950
 1680SOL    HW2 5827   1.999   0.230   2.846
 1681SOL     OW 5828   1.881   0.368   2.509
 1681SOL    HW1 5829   1.799   0.411   2.548
 1681SOL    HW2 5830   1.853   0.295   2.446
 1682SOL     OW 5831   2.431   1.275   3.027
 1682SOL    HW1 5832   2.338   1.268   2.990
 1682SOL    HW2 5833   2.442   1.364   3.071
 1683SOL     OW 5834   3.417   1.511   2.565
 1683SOL    HW1 5835   3.360   1.495   2.646
 1683SOL    HW2 5836   3.358   1.521   2.485
 1684SOL     OW 5837   2.997   0.703   2.579
 1684SOL    HW1 5838   3.054   0.781   2.554
 1684SOL    HW2 5839   2.937   0.729   2.655
 1685SOL     OW 5840   3.617   0.607   2.093
 1685SOL    HW1 5841   3.605   0.594   1.994
 1685SOL    HW2 5842   3.587   0.526   2.142
 1686SOL     OW 5843   2.630   1.144   2.885
 1686SOL    HW1 5844   2.552   1.161   2.945
 1686SOL    HW2 5845   2.664   1.231   2.849
 1687SOL     OW 5846   2.712   0.798   3.685
 1687SOL    HW1 5847   2.708   0.874   3.750
 1687SOL    HW2 5848   2.734   0.834   3.594
 1688SOL     OW 5849   2.547   1.012   2.527
 1688SOL    HW1 5850   2.616   0.996   2.597
 1688SOL    HW2 5851   2.474   1.069   2.565
 1689SOL     OW 5852   2.548   1.161   3.665
 1689SOL    HW1 5853   2.608   1.240   3.679
 1689SOL    HW2 5854   2.462   1.192   3.624
 1690SOL     OW 5855   2.197   1.435   2.923
 1690SOL    HW1 5856   2.119   1.404   2.870
 1690SOL    HW2 5857   2.255   1.493   2.866
 1691SOL     OW 5858   3.322   1.505   3.201
 1691SOL    HW1 5859   3.346   1.599   3.227
 1691SOL    HW2 5860   3.306   1.451   3.283
 1692SOL     OW 5861   2.300   0.392   3.361
 1692SOL    HW1 5862   2.382   0.336   3.370
 1692SOL    HW2 5863   2.219   0.334   3.365
 1693SOL     OW 5864   3.465   0.447   2.599
 1693SOL    HW1 5865   3.391   0.493   2.549
 1693SOL    HW2 5866   3.516   0.515   2.652
 1694SOL     OW 5867   2.093   1.713   2.345
 1694SOL    HW1 5868   2.127   1.790   2.399
 1694SOL    HW2 5869   2.137   1.713   2.255
 1695SOL     OW 5870   2.989   1.341   3.552
 1695SOL    HW1 5871   3.036   1.341   3.640
 1695SOL    HW2 5872   2.941   1.254   3.541
 1696SOL     OW 5873   2.092   1.434   2.400
 1696SOL    HW1 5874   2.066   1.530   2.400
 1696SOL    HW2 5875   2.021   1.380   2.445
 1697SOL     OW 5876   2.102   1.091   2.748
 1697SOL    HW1 5877   2.116   1.007   2.800
 1697SOL    HW2 5878   2.047   1.155   2.803
 1698SOL     OW 5879   2.482   1.786   3.301
 1698SOL    HW1 5880   2.390   1.769   3.336
 1698SOL    HW2 5881   2.510   1.878   3.327
 1699SOL     OW 5882   2.468   0.964   1.985
 1699SOL    HW1 5883   2.475   1.048   1.931
 1699SOL    HW2 5884   2.514   0.977   2.073
 1700SOL     OW 5885   3.456   0.114   3.342
 1700SOL    HW1 5886   3.438   0.181   3.270
 1700SOL    HW2 5887   3.453   0.160   3.431
 1701SOL     OW 5888   1.984   0.643   2.425
 1701SOL    HW1 5889   1.939   0.555   2.442
 1701SOL    HW2 5890   1.983   0.697   2.509
 1702SOL     OW 5891   3.704   1.767   2.221
 1702SOL    HW1 5892   3.758   1.738   2.301
 1702SOL    HW2 5893   3.734   1.857   2.192
 1703SOL     OW 5894   1.889   1.596   1.979
 1703SOL    HW1 5895   1.870   1.500   2.000
 1703SOL    HW2 5896   1.856   1.654   2.054
 1704SOL     OW 5897   3.551   0.922   2.474
 1704SOL    HW1 5898   3.646   0.893   2.482
 1704SOL    HW2 5899   3.543   0.987   2.399
 1705SOL     OW 5900   3.503   1.108   2.294
 1705SOL    HW1 5901   3.589   1.110   2.242
 1705SOL    HW2 5902   3.517   1.155   2.382
 1706SOL     OW 5903   1.975   0.737   3.459
 1706SOL    HW1 5904   2.063   0.724   3.504
 1706SOL    HW2 5905   1.962   0.834   3.437
 1707SOL     OW 5906   2.475   1.365   2.588
 1707SOL    HW1 5907   2.426   1.278   2.597
 1707SOL    HW2 5908   2.452   1.408   2.501
 1708SOL     OW 5909   3.155   1.228   3.285
 1708SOL    HW1 5910   3.192   1.155   3.227
 1708SOL    HW2 5911   3.207   1.233   3.370
 1709SOL     OW 5912   2.671   0.004   2.364
 1709SOL    HW1 5913   2.711   0.095   2.355
 1709SOL    HW2 5914   2.571   0.012   2.370
 1710SOL     OW 5915   2.059   0.976   3.126
 1710SOL    HW1 5916   2.148   0.931   3.112
 1710SOL    HW2 5917   1.986   0.911   3.107
 1711SOL     OW 5918   3.387   0.999   2.052
 1711SOL    HW1 5919   3.324   0.923   2.065
 1711SOL    HW2 5920   3.435   1.017   2.138
 1712SOL     OW 5921   3.049   1.792   3.478
 1712SOL    HW1 5922   3.073   1.852   3.402
 1712SOL    HW2 5923   3.056   1.697   3.448
 1713SOL     OW 5924   2.179   0.251   3.663
 1713SOL    HW1 5925   2.250   0.322   3.669
 1713SOL    HW2 5926   2.091   0.290   3.691
 1714SOL     OW 5927   3.328   1.417   2.815
 1714SOL    HW1 5928   3.269   1.423   2.895
 1714SOL    HW2 5929   3.313   1.329   2.769
 1715SOL     OW 5930   3.529   1.714   2.434
 1715SOL    HW1 5931   3.488   1.691   2.346
 1715SOL    HW2 5932   3.511   1.640   2.499
 1716SOL     OW 5933   2.460   0.729   2.132
 1716SOL    HW1 5934   2.484   0.798   2.064
 1716SOL    HW2 5935   2.382   0.762   2.186
 1717SOL     OW 5936   3.438   1.662   2.169
 1717SOL    HW1 5937   3.527   1.708   2.172
 1717SOL    HW2 5938   3.417   1.638   2.074
 1718SOL     OW 5939   2.669   0.605   3.327
 1718SOL    HW1 5940   2.622   0.602   3.416
 1718SOL    HW2 5941   2.618   0.550   3.261
 1719SOL     OW 5942   3.256   0.469   3.536
 1719SOL    HW1 5943   3.236   0.512   3.624
 1719SOL    HW2 5944   3.334   0.407   3.545
 1720SOL     OW 5945   2.835   0.890   3.434
 1720SOL    HW1 5946   2.881   0.806   3.405
 1720SOL    HW2 5947   2.779   0.924   3.359
 1721SOL     OW 5948   2.903   0.701   2.291
 1721SOL    HW1 5949   2.929   0.697   2.387
 1721SOL    HW2 5950   2.818   0.650   2.277
 1722SOL     OW 5951   1.938   0.811   2.651
 1722SOL    HW1 5952   2.037   0.799   2.660
 1722SOL    HW2 5953   1.914   0.906   2.672
 1723SOL     OW 5954   1.992   1.821   3.433
 1723SOL    HW1 5955   1.982   1.806   3.532
 1723SOL    HW2 5956   1.906   1.857   3.397
 1724SOL     OW 5957   2.727   0.348   2.057
 1724SOL    HW1 5958   2.786   0.411   2.008
 1724SOL    HW2 5959   2.746   0.254   2.028
 1725SOL     OW 5960   3.581   0.585   3.693
 1725SOL    HW1 5961   3.555   0.674   3.657
 1725SOL    HW2 5962   3.579   0.517   3.620
 1726SOL     OW 5963   3.224   1.144   2.407
 1726SOL    HW1 5964   3.307   1.115   2.359
 1726SOL    HW2 5965   3.175   1.211   2.351
 1727SOL     OW 5966   2.412   0.196   2.747
 1727SOL    HW1 5967   2.407   0.191   2.847
 1727SOL    HW2 5968   2.414   0.292   2.718
 1728SOL     OW 5969   2.870   1.456   2.339
 1728SOL    HW1 5970   2.824   1.528   2.287
 1728SOL    HW2 5971   2.866   1.476   2.437
 1729SOL     OW 5972   2.213   1.801   2.715
 1729SOL    HW1 5973   2.263   1.715   2.721
 1729SOL    HW2 5974   2.278   1.878   2.712
 1730SOL     OW 5975   3.657   1.066   2.735
 1730SOL    HW1 5976   3.595   1.051   2.659
 1730SOL    HW2 5977   3.605   1.077   2.820
 1731SOL     OW 5978   3.089   1.550   3.368
 1731SOL    HW1 5979   3.095   1.473   3.432
 1731SOL    HW2 5980   3.037   1.524   3.288
 1732SOL     OW 5981   2.183   0.943   2.104
 1732SOL    HW1 5982   2.265   0.982   2.062
 1732SOL    HW2 5983   2.156   0.861   2.055
 1733SOL     OW 5984   3.320   0.735   2.590
 1733SOL    HW1 5985   3.315   0.670   2.665
 1733SOL    HW2 5986   3.400   0.794   2.603
 1734SOL     OW 5987   2.323   1.266   3.589
 1734SOL    HW1 5988   2.273   1.267   3.503
 1734SOL    HW2 5989   2.260   1.248   3.665
 1735SOL     OW 5990   2.973   1.776   2.099
 1735SOL    HW1 5991   2.913   1.714   2.149
 1735SOL    HW2 5992   3.004   1.732   2.014
 1736SOL     OW 5993   2.064   0.285   3.360
 1736SOL    HW1 5994   1.984   0.345   3.347
 1736SOL    HW2 5995   2.054   0.236   3.446
 1737SOL     OW 5996   3.494   1.377   1.943
 1737SOL    HW1 5997   3.462   1.471   1.933
 1737SOL    HW2 5998   3.418   1.314   1.931
 1738SOL     OW 5999   2.326   1.743   2.185
 1738SOL    HW1 6000   2.359   1.782   2.271
 1738SOL    HW2 6001   2.402   1.736   2.120
 1739SOL     OW 6002   3.262   0.107   2.288
 1739SOL    HW1 6003   3.238   0.070   2.198
 1739SOL    HW2 6004   3.361   0.123   2.292
 1740SOL     OW 6005   2.111   1.785   3.103
 1740SOL    HW1 6006   2.168   1.720   3.153
 1740SOL    HW2 6007   2.095   1.752   3.010
 1741SOL     OW 6008   2.802   1.698   2.766
 1741SOL    HW1 6009   2.882   1.641   2.787
 1741SOL    HW2 6010   2.753   1.658   2.689
 1742SOL     OW 6011   2.244   0.700   2.342
 1742SOL    HW1 6012   2.289   0.610   2.339
 1742SOL    HW2 6013   2.150   0.689   2.375
 1743SOL     OW 6014   3.409   0.222   3.591
 1743SOL    HW1 6015   3.404   0.259   3.683
 1743SOL    HW2 6016   3.337   0.153   3.579
 1744SOL     OW 6017   2.750   1.514   3.057
 1744SOL    HW1 6018   2.727   1.489   2.963
 1744SOL    HW2 6019   2.811   1.445   3.096
 1745SOL     OW 6020   2.665   1.402   2.786
 1745SOL    HW1 6021   2.755   1.416   2.744
 1745SOL    HW2 6022   2.594   1.404   2.715
 1746SOL     OW 6023   2.401   0.064   2.374
 1746SOL    HW1 6024   2.320   0.065   2.432
 1746SOL    HW2 6025   2.404   0.147   2.319
 1747SOL     OW 6026   3.296   1.188   1.903
 1747SOL    HW1 6027   3.328   1.112   1.960
 1747SOL    HW2 6028   3.204   1.215   1.933
 1748SOL     OW 6029   2.797   0.236   2.342
 1748SOL    HW1 6030   2.749   0.277   2.264
 1748SOL    HW2 6031   2.896   0.234   2.323
 1749SOL     OW 6032   3.089   1.570   2.655
 1749SOL    HW1 6033   3.110   1.644   2.590
 1749SOL    HW2 6034   3.157   1.570   2.728
 1750SOL     OW 6035   2.321   1.152   2.603
 1750SOL    HW1 6036   2.250   1.125   2.668
 1750SOL    HW2 6037   2.295   1.124   2.510
 1751SOL     OW 6038   3.133   1.797   2.453
 1751SOL    HW1 6039   3.177   1.861   2.389
 1751SOL    HW2 6040   3.083   1.849   2.523
 1752SOL     OW 6041   2.894   0.549   1.878
 1752SOL    HW1 6042   2.853   0.631   1.839
 1752SOL    HW2 6043   2.958   0.575   1.951
 1753SOL     OW 6044   1.940   0.556   3.248
 1753SOL    HW1 6045   2.032   0.555   3.207
 1753SOL    HW2 6046   1.934   0.630   3.315
 1754SOL     OW 6047   2.423   0.222   3.009
 1754SOL    HW1 6048   2.461   0.138   3.046
 1754SOL    HW2 6049   2.335   0.241   3.053
 1755SOL     OW 6050   2.728   0.454   2.504
 1755SOL    HW1 6051   2.696   0.526   2.442
 1755SOL    HW2 6052   2.752   0.373   2.451
 1756SOL     OW 6053   2.879   0.039   2.615
 1756SOL    HW1 6054   2.807   0.044   2.546
 1756SOL    HW2 6055   2.855  -0.030   2.684
 1757SOL     OW 6056   3.291   1.173   2.729
 1757SOL    HW1 6057   3.236   1.089   2.722
 1757SOL    HW2 6058   3.317   1.202   2.637
 1758SOL     OW 6059   3.719   0.833   2.239
 1758SOL    HW1 6060   3.761   0.769   2.303
 1758SOL    HW2 6061   3.681   0.782   2.161
 1759SOL     OW 6062   2.350   1.385   2.036
 1759SOL    HW1 6063   2.263   1.370   2.083
 1759SOL    HW2 6064   2.333   1.411   1.941
 1760SOL     OW 6065   3.526   1.280   2.519
 1760SOL    HW1 6066   3.625   1.288   2.533
 1760SOL    HW2 6067   3.481   1.364   2.550
 1761SOL     OW 6068   3.252   0.575   1.940
 1761SOL    HW1 6069   3.198   0.554   2.021
 1761SOL    HW2 6070   3.343   0.534   1.949
 1762SOL     OW 6071   3.616   1.223   3.450
 1762SOL    HW1 6072   3.707   1.184   3.437
 1762SOL    HW2 6073   3.624   1.319   3.474
 1763SOL     OW 6074   2.926   1.347   3.202
 1763SOL    HW1 6075   2.846   1.324   3.257
 1763SOL    HW2 6076   3.009   1.321   3.251
 1764SOL     OW 6077   3.454   1.629   3.487
 1764SOL    HW1 6078   3.481   1.663   3.397
 1764SOL    HW2 6079   3.533   1.591   3.533
 1765SOL     OW 6080   2.973   1.195   2.962
 1765SOL    HW1 6081   2.933   1.239   3.043
 1765SOL    HW2 6082   2.932   1.232   2.879
 1766SOL     OW 6083   3.500   1.099   2.941
 1766SOL    HW1 6084   3.505   1.180   3.000
 1766SOL    HW2 6085   3.414   1.101   2.890
 1767SOL     OW 6086   2.777   0.089   3.264
 1767SOL    HW1 6087   2.802   0.069   3.169
 1767SOL    HW2 6088   2.849   0.145   3.306
 1768SOL     OW 6089   2.842   1.116   3.581
 1768SOL    HW1 6090   2.743   1.122   3.591
 1768SOL    HW2 6091   2.865   1.036   3.525
 1769SOL     OW 6092   2.567   1.050   2.230
 1769SOL    HW1 6093   2.553   1.057   2.329
 1769SOL    HW2 6094   2.651   0.999   2.212
 1770SOL     OW 6095   2.272   0.813   3.113
 1770SOL    HW1 6096   2.358   0.825   3.163
 1770SOL    HW2 6097   2.230   0.726   3.140
 1771SOL     OW 6098   1.926   1.564   3.193
 1771SOL    HW1 6099   1.880   1.646   3.159
 1771SOL    HW2 6100   2.024   1.583   3.202
 1772SOL     OW 6101   2.229   1.100   2.363
 1772SOL    HW1 6102   2.222   1.183   2.307
 1772SOL    HW2 6103   2.233   1.020   2.303
 1773SOL     OW 6104   2.428   0.537   2.727
 1773SOL    HW1 6105   2.440   0.603   2.653
 1773SOL    HW2 6106   2.474   0.571   2.810
 1774SOL     OW 6107   3.114   1.348   2.250
 1774SOL    HW1 6108   3.164   1.425   2.290
 1774SOL    HW2 6109   3.019   1.350   2.282
 1775SOL     OW 6110   3.134   1.445   3.004
 1775SOL    HW1 6111   3.181   1.458   3.091
 1775SOL    HW2 6112   3.068   1.371   3.013
 1776SOL     OW 6113   3.444   0.639   2.334
 1776SOL    HW1 6114   3.413   0.700   2.407
 1776SOL    HW2 6115   3.494   0.691   2.265
 1777SOL     OW 6116   2.216   1.510   3.191
 1777SOL    HW1 6117   2.195   1.466   3.104
 1777SOL    HW2 6118   2.313   1.536   3.194
 1778SOL     OW 6119   2.264   0.751   3.460
 1778SOL    HW1 6120   2.332   0.806   3.413
 1778SOL    HW2 6121   2.304   0.663   3.487
 1779SOL     OW 6122   3.449   0.779   3.532
 1779SOL    HW1 6123   3.357   0.817   3.527
 1779SOL    HW2 6124   3.509   0.826   3.467
 1780SOL     OW 6125   2.366   0.050   3.602
 1780SOL    HW1 6126   2.324  -0.007   3.532
 1780SOL    HW2 6127   2.300   0.119   3.634
 1781SOL     OW 6128   2.435   0.870   2.891
 1781SOL    HW1 6129   2.479   0.959   2.882
 1781SOL    HW2 6130   2.372   0.870   2.968
 1782SOL     OW 6131   3.222   0.862   2.907
 1782SOL    HW1 6132   3.147   0.862   2.841
 1782SOL    HW2 6133   3.259   0.770   2.916
 1783SOL     OW 6134   3.071   0.525   2.137
 1783SOL    HW1 6135   3.084   0.441   2.191
 1783SOL    HW2 6136   3.042   0.599   2.197
 1784SOL     OW 6137   2.169   0.213   3.093
 1784SOL    HW1 6138   2.146   0.250   3.183
 1784SOL    HW2 6139   2.139   0.118   3.087
 1785SOL     OW 6140   1.899   1.310   3.144
 1785SOL    HW1 6141   1.952   1.261   3.212
 1785SOL    HW2 6142   1.921   1.408   3.149
 1786SOL     OW 6143   2.594   0.634   2.926
 1786SOL    HW1 6144   2.653   0.608   2.850
 1786SOL    HW2 6145   2.566   0.730   2.915
 1787SOL     OW 6146   3.590   0.935   3.716
 1787SOL    HW1 6147   3.544   0.928   3.627
 1787SOL    HW2 6148   3.528   0.979   3.782
 1788SOL     OW 6149   3.484   0.367   2.236
 1788SOL    HW1 6150   3.486   0.291   2.300
 1788SOL    HW2 6151   3.436   0.444   2.276
 1789SOL     OW 6152   2.885   0.766   2.828
 1789SOL    HW1 6153   2.900   0.787   2.924
 1789SOL    HW2 6154   2.855   0.671   2.819
 1790SOL     OW 6155   2.842   1.573   3.562
 1790SOL    HW1 6156   2.822   1.617   3.474
 1790SOL    HW2 6157   2.881   1.482   3.546
 1791SOL     OW 6158   3.721   1.518   3.467
 1791SOL    HW1 6159   3.735   1.545   3.372
 1791SOL    HW2 6160   3.804   1.540   3.520
 1792SOL     OW 6161   2.212   0.898   3.666
 1792SOL    HW1 6162   2.288   0.942   3.714
 1792SOL    HW2 6163   2.247   0.851   3.584
 1793SOL     OW 6164   3.402   0.274   1.987
 1793SOL    HW1 6165   3.341   0.199   2.010
 1793SOL    HW2 6166   3.424   0.326   2.070
 1794SOL     OW 6167   3.165   0.838   1.904
 1794SOL    HW1 6168   3.199   0.745   1.919
 1794SOL    HW2 6169   3.183   0.865   1.809
 1795SOL     OW 6170   2.930   1.333   2.711
 1795SOL    HW1 6171   2.937   1.249   2.656
 1795SOL    HW2 6172   2.992   1.402   2.675
 1796SOL     OW 6173   2.181   0.810   2.811
 1796SOL    HW1 6174   2.274   0.846   2.816
 1796SOL    HW2 6175   2.175   0.725   2.863
 1797SOL     OW 6176   2.201   0.509   2.868
 1797SOL    HW1 6177   2.149   0.426   2.851
 1797SOL    HW2 6178   2.278   0.514   2.804
 1798SOL     OW 6179   3.000   0.380   3.540
 1798SOL    HW1 6180   2.955   0.443   3.604
 1798SOL    HW2 6181   3.093   0.411   3.523
 1799SOL     OW 6182   1.870   1.326   2.062
 1799SOL    HW1 6183   1.777   1.347   2.031
 1799SOL    HW2 6184   1.880   1.227   2.075
 1800SOL     OW 6185   1.950   1.801   2.789
 1800SOL    HW1 6186   1.908   1.715   2.762
 1800SOL    HW2 6187   2.044   1.804   2.755
 1801SOL     OW 6188   2.366   1.568   2.772
 1801SOL    HW1 6189   2.432   1.642   2.781
 1801SOL    HW2 6190   2.410   1.489   2.730
 1802SOL     OW 6191   1.902   0.544   2.976
 1802SOL    HW1 6192   1.987   0.511   2.935
 1802SOL    HW2 6193   1.915   0.559   3.074
 1803SOL     OW 6194   2.051   0.520   3.584
 1803SOL    HW1 6195   2.110   0.480   3.514
 1803SOL    HW2 6196   1.993   0.591   3.543
 1804SOL     OW 6197   2.677   0.572   2.187
 1804SOL    HW1 6198   2.684   0.483   2.141
 1804SOL    HW2 6199   2.583   0.606   2.179
 1805SOL     OW 6200   3.519   0.604   3.068
 1805SOL    HW1 6201   3.481   0.535   3.130
 1805SOL    HW2 6202   3.601   0.568   3.024
 1806SOL     OW 6203   2.114   1.564   3.606
 1806SOL    HW1 6204   2.084   1.621   3.682
 1806SOL    HW2 6205   2.107   1.467   3.632
 1807SOL     OW 6206   2.533   0.464   3.131
 1807SOL    HW1 6207   2.499   0.375   3.101
 1807SOL    HW2 6208   2.559   0.518   3.051
 1808SOL     OW 6209   2.792   1.678   3.327
 1808SOL    HW1 6210   2.768   1.660   3.232
 1808SOL    HW2 6211   2.822   1.772   3.337
 1809SOL     OW 6212   2.335   0.500   2.053
 1809SOL    HW1 6213   2.396   0.580   2.057
 1809SOL    HW2 6214   2.240   0.531   2.060
 1810SOL     OW 6215   2.021   1.137   3.328
 1810SOL    HW1 6216   2.043   1.076   3.404
 1810SOL    HW2 6217   2.031   1.088   3.242
 1811SOL     OW 6218   3.209   1.059   3.096
 1811SOL    HW1 6219   3.233   0.996   3.022
 1811SOL    HW2 6220   3.119   1.099   3.078
 1812SOL     OW 6221   3.164   0.855   2.171
 1812SOL    HW1 6222   3.078   0.824   2.213
 1812SOL    HW2 6223   3.160   0.841   2.072
 1813SOL     OW 6224   3.621   1.747   3.016
 1813SOL    HW1 6225   3.682   1.777   2.943
 1813SOL    HW2 6226   3.583   1.658   2.994
 1814SOL     OW 6227   3.114   1.731   2.990
 1814SOL    HW1 6228   3.198   1.736   2.936
 1814SOL    HW2 6229   3.091   1.635   3.008
 1815SOL     OW 6230   1.945   1.258   2.884
 1815SOL    HW1 6231   1.940   1.257   2.984
 1815SOL    HW2 6232   1.862   1.217   2.846
 1816SOL     OW 6233   2.550   1.662   3.578
 1816SOL    HW1 6234   2.494   1.743   3.587
 1816SOL    HW2 6235   2.602   1.666   3.492
 1817SOL     OW 6236   3.588   0.135   2.385
 1817SOL    HW1 6237   3.661   0.118   2.318
 1817SOL    HW2 6238   3.557   0.048   2.423
 1818SOL     OW 6239   3.250   1.573   2.339
 1818SOL    HW1 6240   3.317   1.585   2.265
 1818SOL    HW2 6241   3.210   1.662   2.362
 1819SOL     OW 6242   1.992   1.794   3.713
 1819SOL    HW1 6243   1.951   1.720   3.766
 1819SOL    HW2 6244   2.056   1.845   3.771
 1820SOL     OW 6245   3.142   0.927   2.534
 1820SOL    HW1 6246   3.202   0.846   2.536
 1820SOL    HW2 6247   3.182   0.996   2.474
 1821SOL     OW 6248   2.692   1.273   3.284
 1821SOL    HW1 6249   2.687   1.306   3.379
 1821SOL    HW2 6250   2.606   1.292   3.238
 1822SOL     OW 6251   2.534   1.616   2.016
 1822SOL    HW1 6252   2.543   1.626   1.917
 1822SOL    HW2 6253   2.494   1.527   2.037
 1823SOL     OW 6254   3.512   1.720   3.256
 1823SOL    HW1 6255   3.565   1.730   3.172
 1823SOL    HW2 6256   3.485   1.810   3.290
 1824SOL     OW 6257   3.703   0.175   2.825
 1824SOL    HW1 6258   3.742   0.090   2.789
 1824SOL    HW2 6259   3.605   0.177   2.806
 1825SOL     OW 6260   2.125   0.326   2.582
 1825SOL    HW1 6261   2.046   0.377   2.548
 1825SOL    HW2 6262   2.116   0.311   2.680
 1826SOL     OW 6263   3.056   1.612   1.893
 1826SOL    HW1 6264   3.062   1.519   1.930
 1826SOL    HW2 6265   2.997   1.612   1.813
 1827SOL     OW 6266   2.684   1.002   3.234
 1827SOL    HW1 6267   2.724   1.001   3.142
 1827SOL    HW2 6268   2.694   1.094   3.274
 1828SOL     OW 6269   2.778   0.910   2.153
 1828SOL    HW1 6270   2.841   0.948   2.085
 1828SOL    HW2 6271   2.818   0.827   2.192
 1829SOL     OW 6272   3.366   1.607   1.906
 1829SOL    HW1 6273   3.274   1.644   1.913
 1829SOL    HW2 6274   3.404   1.627   1.816
 1830SOL     OW 6275   2.234   1.288   3.352
 1830SOL    HW1 6276   2.221   1.381   3.318
 1830SOL    HW2 6277   2.150   1.236   3.339
 1831SOL     OW 6278   3.476   1.292   3.151
 1831SOL    HW1 6279   3.536   1.295   3.231
 1831SOL    HW2 6280   3.401   1.356   3.164
 1832SOL     OW 6281   2.901   1.098   2.558
 1832SOL    HW1 6282   2.831   1.051   2.612
 1832SOL    HW2 6283   2.960   1.030   2.515
 1833SOL     OW 6284   2.452   1.487   2.353
 1833SOL    HW1 6285   2.494   1.429   2.283
 1833SOL    HW2 6286   2.408   1.566   2.309
 1834SOL     OW 6287   3.571   0.385   3.243
 1834SOL    HW1 6288   3.644   0.454   3.247
 1834SOL    HW2 6289   3.599   0.310   3.184
 1835SOL     OW 6290   2.117   1.348   2.152
 1835SOL    HW1 6291   2.021   1.349   2.125
 1835SOL    HW2 6292   2.129   1.401   2.236
 1836SOL     OW 6293   1.967   1.013   3.588
 1836SOL    HW1 6294   1.890   0.980   3.642
 1836SOL    HW2 6295   2.052   0.983   3.630
 1837SOL     OW 6296   2.534   0.203   3.351
 1837SOL    HW1 6297   2.624   0.187   3.311
 1837SOL    HW2 6298   2.542   0.208   3.450
 1838SOL     OW 6299   3.302   0.856   3.260
 1838SOL    HW1 6300   3.245   0.908   3.197
 1838SOL    HW2 6301   3.398   0.868   3.236
 1839SOL     OW 6302   1.934   0.166   2.180
 1839SOL    HW1 6303   1.917   0.249   2.126
 1839SOL    HW2 6304   2.024   0.129   2.158
 1840SOL     OW 6305   3.045   1.335   1.981
 1840SOL    HW1 6306   2.946   1.324   1.983
 1840SOL    HW2 6307   3.079   1.350   2.074
 1841SOL     OW 6308   2.475   0.842   3.293
 1841SOL    HW1 6309   2.531   0.923   3.276
 1841SOL    HW2 6310   2.534   0.762   3.296
 1842SOL     OW 6311   3.355   1.767   2.821
 1842SOL    HW1 6312   3.388   1.831   2.752
 1842SOL    HW2 6313   3.421   1.761   2.896
 1843SOL     OW 6314   2.578   0.565   3.570
 1843SOL    HW1 6315   2.597   0.630   3.644
 1843SOL    HW2 6316   2.638   0.485   3.579
 1844SOL     OW 6317   3.312   1.220   3.495
 1844SOL    HW1 6318   3.303   1.210   3.594
 1844SOL    HW2 6319   3.408   1.213   3.469
 1845SOL     OW 6320   2.252   1.741   3.422
 1845SOL    HW1 6321   2.161   1.782   3.420
 1845SOL    HW2 6322   2.245   1.647   3.454
 1846SOL     OW 6323   3.536   0.883   3.116
 1846SOL    HW1 6324   3.509   0.794   3.079
 1846SOL    HW2 6325   3.537   0.951   3.043
 1847SOL     OW 6326   3.087   0.325   2.311
 1847SOL    HW1 6327   3.152   0.251   2.300
 1847SOL    HW2 6328   3.107   0.375   2.395
 1848SOL     OW 6329   2.456   0.745   2.514
 1848SOL    HW1 6330   2.506   0.830   2.495
 1848SOL    HW2 6331   2.368   0.747   2.466
 1849SOL     OW 6332   3.639   0.342   3.504
 1849SOL    HW1 6333   3.622   0.373   3.410
 1849SOL    HW2 6334   3.555   0.305   3.542
 1850SOL     OW 6335   3.592   0.934   3.379
 1850SOL    HW1 6336   3.630   1.025   3.394
 1850SOL    HW2 6337   3.584   0.917   3.280
 1851SOL     OW 6338   2.721   1.374   1.878
 1851SOL    HW1 6339   2.675   1.389   1.966
 1851SOL    HW2 6340   2.765   1.459   1.848
 1852SOL     OW 6341   2.523   1.790   2.815
 1852SOL    HW1 6342   2.477   1.878   2.802
 1852SOL    HW2 6343   2.622   1.802   2.808
 1853SOL     OW 6344   2.721   0.956   2.723
 1853SOL    HW1 6345   2.775   0.887   2.771
 1853SOL    HW2 6346   2.689   1.025   2.789
 1854SOL     OW 6347   2.945   0.984   1.949
 1854SOL    HW1 6348   2.922   1.037   1.867
 1854SOL    HW2 6349   3.026   0.928   1.930
 1855SOL     OW 6350   3.723   1.569   2.713
 1855SOL    HW1 6351   3.652   1.557   2.643
 1855SOL    HW2 6352   3.724   1.490   2.773
 1856SOL     OW 6353   2.083   1.314   3.706
 1856SOL    HW1 6354   2.018   1.241   3.685
 1856SOL    HW2 6355   2.087   1.328   3.804
 1857SOL     OW 6356   1.941   1.240   2.515
 1857SOL    HW1 6357   1.940   1.193   2.603
 1857SOL    HW2 6358   2.023   1.212   2.464
 1858SOL     OW 6359   2.534   1.391   3.486
 1858SOL    HW1 6360   2.456   1.341   3.524
 1858SOL    HW2 6361   2.531   1.486   3.517
 1859SOL     OW 6362   3.686   0.192   3.089
 1859SOL    HW1 6363   3.682   0.102   3.133
 1859SOL    HW2 6364   3.689   0.181   2.990
 1860SOL     OW 6365   2.290   0.424   2.382
 1860SOL    HW1 6366   2.320   0.352   2.320
 1860SOL    HW2 6367   2.251   0.384   2.465
 1861SOL     OW 6368   3.567   1.487   2.966
 1861SOL    HW1 6369   3.474   1.462   2.939
 1861SOL    HW2 6370   3.593   1.437   3.048
 1862SOL     OW 6371   2.179   0.547   3.142
 1862SOL    HW1 6372   2.217   0.488   3.214
 1862SOL    HW2 6373   2.219   0.521   3.054
 1863SOL     OW 6374   2.674   1.586   2.549
 1863SOL    HW1 6375   2.706   1.596   2.455
 1863SOL    HW2 6376   2.595   1.524   2.551
 1864SOL     OW 6377   3.286   0.214   2.974
 1864SOL    HW1 6378   3.338   0.149   3.029
 1864SOL    HW2 6379   3.237   0.277   3.035
 1865SOL     OW 6380   2.863   0.034   3.016
 1865SOL    HW1 6381   2.800  -0.038   2.985
 1865SOL    HW2 6382   2.956  -0.002   3.016
 1866SOL     OW 6383   2.632   1.330   2.163
 1866SOL    HW1 6384   2.586   1.243   2.180
 1866SOL    HW2 6385   2.723   1.327   2.204
 1867SOL     OW 6386   2.480   1.567   3.146
 1867SOL    HW1 6387   2.475   1.649   3.203
 1867SOL    HW2 6388   2.569   1.564   3.101
 1868SOL     OW 6389   3.214   0.052   2.030
 1868SOL    HW1 6390   3.249   0.011   1.946
 1868SOL    HW2 6391   3.124   0.014   2.050
 1869SOL     OW 6392   3.455   0.221   2.744
 1869SOL    HW1 6393   3.371   0.220   2.798
 1869SOL    HW2 6394   3.457   0.304   2.688
 1870SOL     OW 6395   1.901   1.077   2.162
 1870SOL    HW1 6396   2.000   1.066   2.153
 1870SOL    HW2 6397   1.861   0.991   2.194
 1871SOL     OW 6398   2.737   1.646   2.199
 1871SOL    HW1 6399   2.660   1.611   2.145
 1871SOL    HW2 6400   2.705   1.717   2.261
 1872SOL     OW 6401   2.092   0.628   3.837
 1872SOL    HW1 6402   1.999   0.626   3.874
 1872SOL    HW2 6403   2.093   0.589   3.745
 1873SOL     OW 6404   2.087   0.275   4.720
 1873SOL    HW1 6405   2.122   0.258   4.812
 1873SOL    HW2 6406   1.999   0.230   4.708
 1874SOL     OW 6407   1.881   0.368   4.371
 1874SOL    HW1 6408   1.799   0.411   4.410
 1874SOL    HW2 6409   1.853   0.295   4.308
 1875SOL     OW 6410   2.431   1.275   4.889
 1875SOL    HW1 6411   2.338   1.268   4.852
 1875SOL    HW2 6412   2.442   1.364   4.933
 1876SOL     OW 6413   3.417   1.511   4.427
 1876SOL    HW1 6414   3.360   1.495   4.508
 1876SOL    HW2 6415   3.358   1.521   4.347
 1877SOL     OW 6416   2.997   0.703   4.441
 1877SOL    HW1 6417   3.054   0.781   4.416
 1877SOL    HW2 6418   2.937   0.729   4.517
 1878SOL     OW 6419   3.617   0.607   3.955
 1878SOL    HW1 6420   3.605   0.594   3.856
 1878SOL    HW2 6421   3.587   0.526   4.004
 1879SOL     OW 6422   3.465   0.447   4.461
 1879SOL    HW1 6423   3.391   0.493   4.411
 1879SOL    HW2 6424   3.516   0.515   4.514
 1880SOL     OW 6425   2.093   1.713   4.207
 1880SOL    HW1 6426   2.127   1.790   4.261
 1880SOL    HW2 6427   2.137   1.713   4.117
 1881SOL     OW 6428   2.482   1.786   5.163
 1881SOL    HW1 6429   2.390   1.769   5.198
 1881SOL    HW2 6430   2.510   1.878   5.189
 1882SOL     OW 6431   1.984   0.643   4.287
 1882SOL    HW1 6432   1.939   0.555   4.304
 1882SOL    HW2 6433   1.983   0.697   4.371
 1883SOL     OW 6434   3.704   1.767   4.083
 1883SOL    HW1 6435   3.758   1.738   4.163
 1883SOL    HW2 6436   3.734   1.857   4.054
 1884SOL     OW 6437   1.889   1.596   3.841
 1884SOL    HW1 6438   1.870   1.500   3.862
 1884SOL    HW2 6439   1.856   1.654   3.916
 1885SOL     OW 6440   2.475   1.365   4.450
 1885SOL    HW1 6441   2.426   1.278   4.459
 1885SOL    HW2 6442   2.452   1.408   4.363
 1886SOL     OW 6443   2.671   0.004   4.226
 1886SOL    HW1 6444   2.711   0.095   4.217
 1886SOL    HW2 6445   2.571   0.012   4.232
 1887SOL     OW 6446   2.059   0.976   4.988
 1887SOL    HW1 6447   2.148   0.931   4.974
 1887SOL    HW2 6448   1.986   0.911   4.969
 1888SOL     OW 6449   3.387   0.999   3.914
 1888SOL    HW1 6450   3.324   0.923   3.927
 1888SOL    HW2 6451   3.435   1.017   4.000
 1889SOL     OW 6452   3.328   1.417   4.677
 1889SOL    HW1 6453   3.269   1.423   4.757
 1889SOL    HW2 6454   3.313   1.329   4.631
 1890SOL     OW 6455   3.529   1.714   4.296
 1890SOL    HW1 6456   3.488   1.691   4.208
 1890SOL    HW2 6457   3.511   1.640   4.361
 1891SOL     OW 6458   3.143   0.345   4.668
 1891SOL    HW1 6459   3.057   0.295   4.655
 1891SOL    HW2 6460   3.205   0.291   4.724
 1892SOL     OW 6461   3.438   1.662   4.031
 1892SOL    HW1 6462   3.527   1.708   4.034
 1892SOL    HW2 6463   3.417   1.638   3.936
 1893SOL     OW 6464   2.853   0.410   4.966
 1893SOL    HW1 6465   2.776   0.444   5.020
 1893SOL    HW2 6466   2.819   0.359   4.887
 1894SOL     OW 6467   2.903   0.701   4.153
 1894SOL    HW1 6468   2.929   0.697   4.249
 1894SOL    HW2 6469   2.818   0.650   4.139
 1895SOL     OW 6470   2.727   0.348   3.919
 1895SOL    HW1 6471   2.786   0.411   3.870
 1895SOL    HW2 6472   2.746   0.254   3.890
 1896SOL     OW 6473   2.412   0.196   4.609
 1896SOL    HW1 6474   2.407   0.191   4.709
 1896SOL    HW2 6475   2.414   0.292   4.580
 1897SOL     OW 6476   2.213   1.801   4.577
 1897SOL    HW1 6477   2.263   1.715   4.583
 1897SOL    HW2 6478   2.278   1.878   4.574
 1898SOL     OW 6479   3.657   1.066   4.597
 1898SOL    HW1 6480   3.595   1.051   4.521
 1898SOL    HW2 6481   3.605   1.077   4.682
 1899SOL     OW 6482   2.183   0.943   3.966
 1899SOL    HW1 6483   2.265   0.982   3.924
 1899SOL    HW2 6484   2.156   0.861   3.917
 1900SOL     OW 6485   2.973   1.776   3.961
 1900SOL    HW1 6486   2.913   1.714   4.011
 1900SOL    HW2 6487   3.004   1.732   3.876
 1901SOL     OW 6488   2.326   1.743   4.047
 1901SOL    HW1 6489   2.359   1.782   4.133
 1901SOL    HW2 6490   2.402   1.736   3.982
 1902SOL     OW 6491   3.262   0.107   4.150
 1902SOL    HW1 6492   3.238   0.070   4.060
 1902SOL    HW2 6493   3.361   0.123   4.154
 1903SOL     OW 6494   2.111   1.785   4.965
 1903SOL    HW1 6495   2.168   1.720   5.015
 1903SOL    HW2 6496   2.095   1.752   4.872
 1904SOL     OW 6497   2.802   1.698   4.628
 1904SOL    HW1 6498   2.882   1.641   4.649
 1904SOL    HW2 6499   2.753   1.658   4.551
 1905SOL     OW 6500   2.244   0.700   4.204
 1905SOL    HW1 6501   2.289   0.610   4.201
 1905SOL    HW2 6502   2.150   0.689   4.237
 1906SOL     OW 6503   2.476   0.122   3.841
 1906SOL    HW1 6504   2.574   0.100   3.848
 1906SOL    HW2 6505   2.445   0.105   3.748
 1907SOL     OW 6506   2.665   1.402   4.648
 1907SOL    HW1 6507   2.755   1.416   4.606
 1907SOL    HW2 6508   2.594   1.404   4.577
 1908SOL     OW 6509   2.784   0.503   4.623
 1908SOL    HW1 6510   2.759   0.494   4.527
 1908SOL    HW2 6511   2.832   0.421   4.654
 1909SOL     OW 6512   2.401   0.064   4.236
 1909SOL    HW1 6513   2.320   0.065   4.294
 1909SOL    HW2 6514   2.404   0.147   4.181
 1910SOL     OW 6515   2.159   0.035   3.895
 1910SOL    HW1 6516   2.208   0.119   3.874
 1910SOL    HW2 6517   2.221  -0.030   3.940
 1911SOL     OW 6518   2.797   0.236   4.204
 1911SOL    HW1 6519   2.749   0.277   4.126
 1911SOL    HW2 6520   2.896   0.234   4.185
 1912SOL     OW 6521   3.089   1.570   4.517
 1912SOL    HW1 6522   3.110   1.644   4.452
 1912SOL    HW2 6523   3.157   1.570   4.590
 1913SOL     OW 6524   2.321   1.152   4.465
 1913SOL    HW1 6525   2.250   1.125   4.530
 1913SOL    HW2 6526   2.295   1.124   4.372
 1914SOL     OW 6527   3.133   1.797   4.315
 1914SOL    HW1 6528   3.177   1.861   4.251
 1914SOL    HW2 6529   3.083   1.849   4.385
 1915SOL     OW 6530   2.894   0.549   3.740
 1915SOL    HW1 6531   2.853   0.631   3.701
 1915SOL    HW2 6532   2.958   0.575   3.813
 1916SOL     OW 6533   2.423   0.222   4.871
 1916SOL    HW1 6534   2.461   0.138   4.908
 1916SOL    HW2 6535   2.335   0.241   4.915
 1917SOL     OW 6536   2.728   0.454   4.366
 1917SOL    HW1 6537   2.696   0.526   4.304
 1917SOL    HW2 6538   2.752   0.373   4.313
 1918SOL     OW 6539   2.879   0.039   4.477
 1918SOL    HW1 6540   2.807   0.044   4.408
 1918SOL    HW2 6541   2.855  -0.030   4.546
 1919SOL     OW 6542   3.291   1.173   4.591
 1919SOL    HW1 6543   3.236   1.089   4.584
 1919SOL    HW2 6544   3.317   1.202   4.499
 1920SOL     OW 6545   3.328   0.590   4.716
 1920SOL    HW1 6546   3.298   0.495   4.723
 1920SOL    HW2 6547   3.401   0.606   4.782
 1921SOL     OW 6548   3.719   0.833   4.101
 1921SOL    HW1 6549   3.761   0.769   4.165
 1921SOL    HW2 6550   3.681   0.782   4.023
 1922SOL     OW 6551   2.350   1.385   3.898
 1922SOL    HW1 6552   2.263   1.370   3.945
 1922SOL    HW2 6553   2.333   1.411   3.803
 1923SOL     OW 6554   3.252   0.575   3.802
 1923SOL    HW1 6555   3.198   0.554   3.883
 1923SOL    HW2 6556   3.343   0.534   3.811
 1924SOL     OW 6557   2.389   0.256   4.052
 1924SOL    HW1 6558   2.416   0.197   3.977
 1924SOL    HW2 6559   2.389   0.351   4.021
 1925SOL     OW 6560   2.973   1.195   4.824
 1925SOL    HW1 6561   2.933   1.239   4.905
 1925SOL    HW2 6562   2.932   1.232   4.741
 1926SOL     OW 6563   3.500   1.099   4.803
 1926SOL    HW1 6564   3.505   1.180   4.862
 1926SOL    HW2 6565   3.414   1.101   4.752
 1927SOL     OW 6566   2.272   0.813   4.975
 1927SOL    HW1 6567   2.358   0.825   5.025
 1927SOL    HW2 6568   2.230   0.726   5.002
 1928SOL     OW 6569   3.136   0.386   4.986
 1928SOL    HW1 6570   3.157   0.460   5.050
 1928SOL    HW2 6571   3.047   0.403   4.943
 1929SOL     OW 6572   2.229   1.100   4.225
 1929SOL    HW1 6573   2.222   1.183   4.169
 1929SOL    HW2 6574   2.233   1.020   4.165
 1930SOL     OW 6575   2.428   0.537   4.589
 1930SOL    HW1 6576   2.440   0.603   4.515
 1930SOL    HW2 6577   2.474   0.571   4.672
 1931SOL     OW 6578   3.114   1.348   4.112
 1931SOL    HW1 6579   3.164   1.425   4.152
 1931SOL    HW2 6580   3.019   1.350   4.144
 1932SOL     OW 6581   3.134   1.445   4.866
 1932SOL    HW1 6582   3.181   1.458   4.953
 1932SOL    HW2 6583   3.068   1.371   4.875
 1933SOL     OW 6584   3.444   0.639   4.196
 1933SOL    HW1 6585   3.413   0.700   4.269
 1933SOL    HW2 6586   3.494   0.691   4.127
 1934SOL     OW 6587   2.216   1.510   5.053
 1934SOL    HW1 6588   2.195   1.466   4.966
 1934SOL    HW2 6589   2.313   1.536   5.056
 1935SOL     OW 6590   2.435   0.870   4.753
 1935SOL    HW1 6591   2.479   0.959   4.744
 1935SOL    HW2 6592   2.372   0.870   4.830
 1936SOL     OW 6593   3.222   0.862   4.769
 1936SOL    HW1 6594   3.147   0.862   4.703
 1936SOL    HW2 6595   3.259   0.770   4.778
 1937SOL     OW 6596   3.071   0.525   3.999
 1937SOL    HW1 6597   3.084   0.441   4.053
 1937SOL    HW2 6598   3.042   0.599   4.059
 1938SOL     OW 6599   2.169   0.213   4.955
 1938SOL    HW1 6600   2.146   0.250   5.045
 1938SOL    HW2 6601   2.139   0.118   4.949
 1939SOL     OW 6602   1.899   1.310   5.006
 1939SOL    HW1 6603   1.952   1.261   5.074
 1939SOL    HW2 6604   1.921   1.408   5.011
 1940SOL     OW 6605   2.594   0.634   4.788
 1940SOL    HW1 6606   2.653   0.608   4.712
 1940SOL    HW2 6607   2.566   0.730   4.777
 1941SOL     OW 6608   2.169   0.063   4.342
 1941SOL    HW1 6609   2.158   0.157   4.375
 1941SOL    HW2 6610   2.164   0.000   4.419
 1942SOL     OW 6611   3.484   0.367   4.098
 1942SOL    HW1 6612   3.486   0.291   4.162
 1942SOL    HW2 6613   3.436   0.444   4.138
 1943SOL     OW 6614   2.885   0.766   4.690
 1943SOL    HW1 6615   2.900   0.787   4.786
 1943SOL    HW2 6616   2.855   0.671   4.681
 1944SOL     OW 6617   3.402   0.274   3.849
 1944SOL    HW1 6618   3.341   0.199   3.872
 1944SOL    HW2 6619   3.424   0.326   3.932
 1945SOL     OW 6620   2.930   1.333   4.573
 1945SOL    HW1 6621   2.937   1.249   4.518
 1945SOL    HW2 6622   2.992   1.402   4.537
 1946SOL     OW 6623   2.181   0.810   4.673
 1946SOL    HW1 6624   2.274   0.846   4.678
 1946SOL    HW2 6625   2.175   0.725   4.725
 1947SOL     OW 6626   2.201   0.509   4.730
 1947SOL    HW1 6627   2.149   0.426   4.713
 1947SOL    HW2 6628   2.278   0.514   4.666
 1948SOL     OW 6629   3.022   0.207   5.201
 1948SOL    HW1 6630   3.022   0.271   5.278
 1948SOL    HW2 6631   3.050   0.255   5.118
 1949SOL     OW 6632   1.950   1.801   4.651
 1949SOL    HW1 6633   1.908   1.715   4.624
 1949SOL    HW2 6634   2.044   1.804   4.617
 1950SOL     OW 6635   2.366   1.568   4.634
 1950SOL    HW1 6636   2.432   1.642   4.643
 1950SOL    HW2 6637   2.410   1.489   4.592
 1951SOL     OW 6638   2.864   0.796   4.962
 1951SOL    HW1 6639   2.905   0.764   5.048
 1951SOL    HW2 6640   2.768   0.769   4.959
 1952SOL     OW 6641   1.902   0.544   4.838
 1952SOL    HW1 6642   1.987   0.511   4.797
 1952SOL    HW2 6643   1.915   0.559   4.936
 1953SOL     OW 6644   3.519   0.604   4.930
 1953SOL    HW1 6645   3.481   0.535   4.992
 1953SOL    HW2 6646   3.601   0.568   4.886
 1954SOL     OW 6647   2.533   0.464   4.993
 1954SOL    HW1 6648   2.499   0.375   4.963
 1954SOL    HW2 6649   2.559   0.518   4.913
 1955SOL     OW 6650   2.792   1.678   5.189
 1955SOL    HW1 6651   2.768   1.660   5.094
 1955SOL    HW2 6652   2.822   1.772   5.199
 1956SOL     OW 6653   3.209   1.059   4.958
 1956SOL    HW1 6654   3.233   0.996   4.884
 1956SOL    HW2 6655   3.119   1.099   4.940
 1957SOL     OW 6656   3.621   1.747   4.878
 1957SOL    HW1 6657   3.682   1.777   4.805
 1957SOL    HW2 6658   3.583   1.658   4.856
 1958SOL     OW 6659   3.114   1.731   4.852
 1958SOL    HW1 6660   3.198   1.736   4.798
 1958SOL    HW2 6661   3.091   1.635   4.870
 1959SOL     OW 6662   3.588   0.135   4.247
 1959SOL    HW1 6663   3.661   0.118   4.180
 1959SOL    HW2 6664   3.557   0.048   4.285
 1960SOL     OW 6665   3.250   1.573   4.201
 1960SOL    HW1 6666   3.317   1.585   4.127
 1960SOL    HW2 6667   3.210   1.662   4.224
 1961SOL     OW 6668   2.534   1.616   3.878
 1961SOL    HW1 6669   2.543   1.626   3.779
 1961SOL    HW2 6670   2.494   1.527   3.899
 1962SOL     OW 6671   3.512   1.720   5.118
 1962SOL    HW1 6672   3.565   1.730   5.034
 1962SOL    HW2 6673   3.485   1.810   5.152
 1963SOL     OW 6674   3.703   0.175   4.687
 1963SOL    HW1 6675   3.742   0.090   4.651
 1963SOL    HW2 6676   3.605   0.177   4.668
 1964SOL     OW 6677   2.125   0.326   4.444
 1964SOL    HW1 6678   2.046   0.377   4.410
 1964SOL    HW2 6679   2.116   0.311   4.542
 1965SOL     OW 6680   3.056   1.612   3.755
 1965SOL    HW1 6681   3.062   1.519   3.792
 1965SOL    HW2 6682   2.997   1.612   3.675
 1966SOL     OW 6683   2.684   1.002   5.096
 1966SOL    HW1 6684   2.724   1.001   5.004
 1966SOL    HW2 6685   2.694   1.094   5.136
 1967SOL     OW 6686   2.876   0.236   4.695
 1967SOL    HW1 6687   2.868   0.200   4.602
 1967SOL    HW2 6688   2.874   0.160   4.760
 1968SOL     OW 6689   2.452   1.487   4.215
 1968SOL    HW1 6690   2.494   1.429   4.145
 1968SOL    HW2 6691   2.408   1.566   4.171
 1969SOL     OW 6692   3.571   0.385   5.105
 1969SOL    HW1 6693   3.644   0.454   5.109
 1969SOL    HW2 6694   3.599   0.310   5.046
 1970SOL     OW 6695   1.937   0.345   3.757
 1970SOL    HW1 6696   1.845   0.317   3.728
 1970SOL    HW2 6697   1.968   0.422   3.701
 1971SOL     OW 6698   1.934   0.166   4.042
 1971SOL    HW1 6699   1.917   0.249   3.988
 1971SOL    HW2 6700   2.024   0.129   4.020
 1972SOL     OW 6701   3.355   1.767   4.683
 1972SOL    HW1 6702   3.388   1.831   4.614
 1972SOL    HW2 6703   3.421   1.761   4.758
 1973SOL     OW 6704   3.312   1.220   5.357
 1973SOL    HW1 6705   3.303   1.210   5.456
 1973SOL    HW2 6706   3.408   1.213   5.331
 1974SOL     OW 6707   3.536   0.883   4.978
 1974SOL    HW1 6708   3.509   0.794   4.941
 1974SOL    HW2 6709   3.537   0.951   4.905
 1975SOL     OW 6710   3.087   0.325   4.173
 1975SOL    HW1 6711   3.152   0.251   4.162
 1975SOL    HW2 6712   3.107   0.375   4.257
 1976SOL     OW 6713   3.592   0.934   5.241
 1976SOL    HW1 6714   3.630   1.025   5.256
 1976SOL    HW2 6715   3.584   0.917   5.142
 1977SOL     OW 6716   2.721   1.374   3.740
 1977SOL    HW1 6717   2.675   1.389   3.828
 1977SOL    HW2 6718   2.765   1.459   3.710
 1978SOL     OW 6719   2.523   1.790   4.677
 1978SOL    HW1 6720   2.477   1.878   4.664
 1978SOL    HW2 6721   2.622   1.802   4.670
 1979SOL     OW 6722   3.723   1.569   4.575
 1979SOL    HW1 6723   3.652   1.557   4.505
 1979SOL    HW2 6724   3.724   1.490   4.635
 1980SOL     OW 6725   3.686   0.192   4.951
 1980SOL    HW1 6726   3.682   0.102   4.995
 1980SOL    HW2 6727   3.689   0.181   4.852
 1981SOL     OW 6728   2.290   0.424   4.244
 1981SOL    HW1 6729   2.320   0.352   4.182
 1981SOL    HW2 6730   2.251   0.384   4.327
 1982SOL     OW 6731   3.567   1.487   4.828
 1982SOL    HW1 6732   3.474   1.462   4.801
 1982SOL    HW2 6733   3.593   1.437   4.910
 1983SOL     OW 6734   3.286   0.214   4.836
 1983SOL    HW1 6735   3.338   0.149   4.891
 1983SOL    HW2 6736   3.237   0.277   4.897
 1984SOL     OW 6737   2.863   0.034   4.878
 1984SOL    HW1 6738   2.800  -0.038   4.847
 1984SOL    HW2 6739   2.956  -0.002   4.878
 1985SOL     OW 6740   3.214   0.052   3.892
 1985SOL    HW1 6741   3.249   0.011   3.808
 1985SOL    HW2 6742   3.124   0.014   3.912
 1986SOL     OW 6743   3.162   0.453   4.415
 1986SOL    HW1 6744   3.103   0.533   4.419
 1986SOL    HW2 6745   3.177   0.418   4.508
 1987SOL     OW 6746   3.455   0.221   4.606
 1987SOL    HW1 6747   3.371   0.220   4.660
 1987SOL    HW2 6748   3.457   0.304   4.550
 1988SOL     OW 6749   2.737   1.646   4.061
 1988SOL    HW1 6750   2.660   1.611   4.007
 1988SOL    HW2 6751   2.705   1.717   4.123
 1989SOL     OW 6752   2.092   2.490   0.113
 1989SOL    HW1 6753   1.999   2.488   0.150
 1989SOL    HW2 6754   2.093   2.451   0.021
 1990SOL     OW 6755   2.087   2.137   0.996
 1990SOL    HW1 6756   2.122   2.120   1.088
 1990SOL    HW2 6757   1.999   2.092   0.984
 1991SOL     OW 6758   1.881   2.230   0.647
 1991SOL    HW1 6759   1.799   2.273   0.686
 1991SOL    HW2 6760   1.853   2.157   0.584
 1992SOL     OW 6761   2.431   3.137   1.165
 1992SOL    HW1 6762   2.338   3.130   1.128
 1992SOL    HW2 6763   2.442   3.226   1.209
 1993SOL     OW 6764   3.417   3.373   0.703
 1993SOL    HW1 6765   3.360   3.357   0.784
 1993SOL    HW2 6766   3.358   3.383   0.623
 1994SOL     OW 6767   2.997   2.565   0.717
 1994SOL    HW1 6768   3.054   2.643   0.692
 1994SOL    HW2 6769   2.937   2.591   0.793
 1995SOL     OW 6770   3.617   2.469   0.231
 1995SOL    HW1 6771   3.605   2.456   0.132
 1995SOL    HW2 6772   3.587   2.388   0.280
 1996SOL     OW 6773   2.630   3.006   1.023
 1996SOL    HW1 6774   2.552   3.023   1.083
 1996SOL    HW2 6775   2.664   3.093   0.987
 1997SOL     OW 6776   2.712   2.660   1.823
 1997SOL    HW1 6777   2.708   2.736   1.888
 1997SOL    HW2 6778   2.734   2.696   1.732
 1998SOL     OW 6779   2.547   2.874   0.665
 1998SOL    HW1 6780   2.616   2.858   0.735
 1998SOL    HW2 6781   2.474   2.931   0.703
 1999SOL     OW 6782   2.548   3.023   1.803
 1999SOL    HW1 6783   2.608   3.102   1.817
 1999SOL    HW2 6784   2.462   3.054   1.762
 2000SOL     OW 6785   2.197   3.297   1.061
 2000SOL    HW1 6786   2.119   3.266   1.008
 2000SOL    HW2 6787   2.255   3.355   1.004
 2001SOL     OW 6788   3.322   3.367   1.339
 2001SOL    HW1 6789   3.346   3.461   1.365
 2001SOL    HW2 6790   3.306   3.313   1.421
 2002SOL     OW 6791   2.300   2.254   1.499
 2002SOL    HW1 6792   2.382   2.198   1.508
 2002SOL    HW2 6793   2.219   2.196   1.503
 2003SOL     OW 6794   3.465   2.309   0.737
 2003SOL    HW1 6795   3.391   2.355   0.687
 2003SOL    HW2 6796   3.516   2.377   0.790
 2004SOL     OW 6797   2.093   3.575   0.483
 2004SOL    HW1 6798   2.127   3.652   0.537
 2004SOL    HW2 6799   2.137   3.575   0.393
 2005SOL     OW 6800   2.989   3.203   1.690
 2005SOL    HW1 6801   3.036   3.203   1.778
 2005SOL    HW2 6802   2.941   3.116   1.679
 2006SOL     OW 6803   2.092   3.296   0.538
 2006SOL    HW1 6804   2.066   3.392   0.538
 2006SOL    HW2 6805   2.021   3.242   0.583
 2007SOL     OW 6806   2.102   2.953   0.886
 2007SOL    HW1 6807   2.116   2.869   0.938
 2007SOL    HW2 6808   2.047   3.017   0.941
 2008SOL     OW 6809   2.482   3.648   1.439
 2008SOL    HW1 6810   2.390   3.631   1.474
 2008SOL    HW2 6811   2.510   3.740   1.465
 2009SOL     OW 6812   2.468   2.826   0.123
 2009SOL    HW1 6813   2.475   2.910   0.069
 2009SOL    HW2 6814   2.514   2.839   0.211
 2010SOL     OW 6815   3.456   1.976   1.480
 2010SOL    HW1 6816   3.438   2.043   1.408
 2010SOL    HW2 6817   3.453   2.022   1.569
 2011SOL     OW 6818   1.984   2.505   0.563
 2011SOL    HW1 6819   1.939   2.417   0.580
 2011SOL    HW2 6820   1.983   2.559   0.647
 2012SOL     OW 6821   3.704   3.629   0.359
 2012SOL    HW1 6822   3.758   3.600   0.439
 2012SOL    HW2 6823   3.734   3.719   0.330
 2013SOL     OW 6824   1.889   3.458   0.117
 2013SOL    HW1 6825   1.870   3.362   0.138
 2013SOL    HW2 6826   1.856   3.516   0.192
 2014SOL     OW 6827   3.551   2.784   0.612
 2014SOL    HW1 6828   3.646   2.755   0.620
 2014SOL    HW2 6829   3.543   2.849   0.537
 2015SOL     OW 6830   3.503   2.970   0.432
 2015SOL    HW1 6831   3.589   2.972   0.380
 2015SOL    HW2 6832   3.517   3.017   0.520
 2016SOL     OW 6833   1.975   2.599   1.597
 2016SOL    HW1 6834   2.063   2.586   1.642
 2016SOL    HW2 6835   1.962   2.696   1.575
 2017SOL     OW 6836   2.475   3.227   0.726
 2017SOL    HW1 6837   2.426   3.140   0.735
 2017SOL    HW2 6838   2.452   3.270   0.639
 2018SOL     OW 6839   3.155   3.090   1.423
 2018SOL    HW1 6840   3.192   3.017   1.365
 2018SOL    HW2 6841   3.207   3.095   1.508
 2019SOL     OW 6842   2.671   1.866   0.502
 2019SOL    HW1 6843   2.711   1.957   0.493
 2019SOL    HW2 6844   2.571   1.874   0.508
 2020SOL     OW 6845   2.059   2.838   1.264
 2020SOL    HW1 6846   2.148   2.793   1.250
 2020SOL    HW2 6847   1.986   2.773   1.245
 2021SOL     OW 6848   3.387   2.861   0.190
 2021SOL    HW1 6849   3.324   2.785   0.203
 2021SOL    HW2 6850   3.435   2.879   0.276
 2022SOL     OW 6851   3.049   3.654   1.616
 2022SOL    HW1 6852   3.073   3.714   1.540
 2022SOL    HW2 6853   3.056   3.559   1.586
 2023SOL     OW 6854   2.179   2.113   1.801
 2023SOL    HW1 6855   2.250   2.184   1.807
 2023SOL    HW2 6856   2.091   2.152   1.829
 2024SOL     OW 6857   3.328   3.279   0.953
 2024SOL    HW1 6858   3.269   3.285   1.033
 2024SOL    HW2 6859   3.313   3.191   0.907
 2025SOL     OW 6860   3.529   3.576   0.572
 2025SOL    HW1 6861   3.488   3.553   0.484
 2025SOL    HW2 6862   3.511   3.502   0.637
 2026SOL     OW 6863   2.460   2.591   0.270
 2026SOL    HW1 6864   2.484   2.660   0.202
 2026SOL    HW2 6865   2.382   2.624   0.324
 2027SOL     OW 6866   3.143   2.207   0.944
 2027SOL    HW1 6867   3.057   2.157   0.931
 2027SOL    HW2 6868   3.205   2.153   1.000
 2028SOL     OW 6869   3.438   3.524   0.307
 2028SOL    HW1 6870   3.527   3.570   0.310
 2028SOL    HW2 6871   3.417   3.500   0.212
 2029SOL     OW 6872   2.669   2.467   1.465
 2029SOL    HW1 6873   2.622   2.464   1.554
 2029SOL    HW2 6874   2.618   2.412   1.399
 2030SOL     OW 6875   3.256   2.331   1.674
 2030SOL    HW1 6876   3.236   2.374   1.762
 2030SOL    HW2 6877   3.334   2.269   1.683
 2031SOL     OW 6878   2.835   2.752   1.572
 2031SOL    HW1 6879   2.881   2.668   1.543
 2031SOL    HW2 6880   2.779   2.786   1.497
 2032SOL     OW 6881   2.853   2.272   1.242
 2032SOL    HW1 6882   2.776   2.306   1.296
 2032SOL    HW2 6883   2.819   2.221   1.163
 2033SOL     OW 6884   2.903   2.563   0.429
 2033SOL    HW1 6885   2.929   2.559   0.525
 2033SOL    HW2 6886   2.818   2.512   0.415
 2034SOL     OW 6887   1.938   2.673   0.789
 2034SOL    HW1 6888   2.037   2.661   0.798
 2034SOL    HW2 6889   1.914   2.768   0.810
 2035SOL     OW 6890   1.992   3.683   1.571
 2035SOL    HW1 6891   1.982   3.668   1.670
 2035SOL    HW2 6892   1.906   3.719   1.535
 2036SOL     OW 6893   2.727   2.210   0.195
 2036SOL    HW1 6894   2.786   2.273   0.146
 2036SOL    HW2 6895   2.746   2.116   0.166
 2037SOL     OW 6896   3.581   2.447   1.831
 2037SOL    HW1 6897   3.555   2.536   1.795
 2037SOL    HW2 6898   3.579   2.379   1.758
 2038SOL     OW 6899   3.224   3.006   0.545
 2038SOL    HW1 6900   3.307   2.977   0.497
 2038SOL    HW2 6901   3.175   3.073   0.489
 2039SOL     OW 6902   2.412   2.058   0.885
 2039SOL    HW1 6903   2.407   2.053   0.985
 2039SOL    HW2 6904   2.414   2.154   0.856
 2040SOL     OW 6905   2.870   3.318   0.477
 2040SOL    HW1 6906   2.824   3.390   0.425
 2040SOL    HW2 6907   2.866   3.338   0.575
 2041SOL     OW 6908   2.213   3.663   0.853
 2041SOL    HW1 6909   2.263   3.577   0.859
 2041SOL    HW2 6910   2.278   3.740   0.850
 2042SOL     OW 6911   3.657   2.928   0.873
 2042SOL    HW1 6912   3.595   2.913   0.797
 2042SOL    HW2 6913   3.605   2.939   0.958
 2043SOL     OW 6914   3.089   3.412   1.506
 2043SOL    HW1 6915   3.095   3.335   1.570
 2043SOL    HW2 6916   3.037   3.386   1.426
 2044SOL     OW 6917   2.183   2.805   0.242
 2044SOL    HW1 6918   2.265   2.844   0.200
 2044SOL    HW2 6919   2.156   2.723   0.193
 2045SOL     OW 6920   3.320   2.597   0.728
 2045SOL    HW1 6921   3.315   2.532   0.803
 2045SOL    HW2 6922   3.400   2.656   0.741
 2046SOL     OW 6923   2.323   3.128   1.727
 2046SOL    HW1 6924   2.273   3.129   1.641
 2046SOL    HW2 6925   2.260   3.110   1.803
 2047SOL     OW 6926   2.973   3.638   0.237
 2047SOL    HW1 6927   2.913   3.576   0.287
 2047SOL    HW2 6928   3.004   3.594   0.152
 2048SOL     OW 6929   3.494   3.239   0.081
 2048SOL    HW1 6930   3.462   3.333   0.071
 2048SOL    HW2 6931   3.418   3.176   0.069
 2049SOL     OW 6932   2.326   3.605   0.323
 2049SOL    HW1 6933   2.359   3.644   0.409
 2049SOL    HW2 6934   2.402   3.598   0.258
 2050SOL     OW 6935   3.262   1.969   0.426
 2050SOL    HW1 6936   3.238   1.932   0.336
 2050SOL    HW2 6937   3.361   1.985   0.430
 2051SOL     OW 6938   2.111   3.647   1.241
 2051SOL    HW1 6939   2.168   3.582   1.291
 2051SOL    HW2 6940   2.095   3.614   1.148
 2052SOL     OW 6941   2.802   3.560   0.904
 2052SOL    HW1 6942   2.882   3.503   0.925
 2052SOL    HW2 6943   2.753   3.520   0.827
 2053SOL     OW 6944   2.244   2.562   0.480
 2053SOL    HW1 6945   2.289   2.472   0.477
 2053SOL    HW2 6946   2.150   2.551   0.513
 2054SOL     OW 6947   3.409   2.084   1.729
 2054SOL    HW1 6948   3.404   2.121   1.821
 2054SOL    HW2 6949   3.337   2.015   1.717
 2055SOL     OW 6950   2.643   2.126   1.749
 2055SOL    HW1 6951   2.710   2.065   1.792
 2055SOL    HW2 6952   2.570   2.145   1.814
 2056SOL     OW 6953   2.750   3.376   1.195
 2056SOL    HW1 6954   2.727   3.351   1.101
 2056SOL    HW2 6955   2.811   3.307   1.234
 2057SOL     OW 6956   3.213   2.452   1.433
 2057SOL    HW1 6957   3.241   2.409   1.518
 2057SOL    HW2 6958   3.238   2.548   1.434
 2058SOL     OW 6959   2.665   3.264   0.924
 2058SOL    HW1 6960   2.755   3.278   0.882
 2058SOL    HW2 6961   2.594   3.266   0.853
 2059SOL     OW 6962   2.784   2.365   0.899
 2059SOL    HW1 6963   2.759   2.356   0.803
 2059SOL    HW2 6964   2.832   2.283   0.930
 2060SOL     OW 6965   2.401   1.926   0.512
 2060SOL    HW1 6966   2.320   1.927   0.570
 2060SOL    HW2 6967   2.404   2.009   0.457
 2061SOL     OW 6968   3.296   3.050   0.041
 2061SOL    HW1 6969   3.328   2.974   0.098
 2061SOL    HW2 6970   3.204   3.077   0.071
 2062SOL     OW 6971   2.159   1.897   0.171
 2062SOL    HW1 6972   2.208   1.981   0.150
 2062SOL    HW2 6973   2.221   1.832   0.216
 2063SOL     OW 6974   2.797   2.098   0.480
 2063SOL    HW1 6975   2.749   2.139   0.402
 2063SOL    HW2 6976   2.896   2.096   0.461
 2064SOL     OW 6977   2.938   2.545   1.464
 2064SOL    HW1 6978   2.858   2.484   1.467
 2064SOL    HW2 6979   3.019   2.492   1.440
 2065SOL     OW 6980   3.089   3.432   0.793
 2065SOL    HW1 6981   3.110   3.506   0.728
 2065SOL    HW2 6982   3.157   3.432   0.866
 2066SOL     OW 6983   2.321   3.014   0.741
 2066SOL    HW1 6984   2.250   2.987   0.806
 2066SOL    HW2 6985   2.295   2.986   0.648
 2067SOL     OW 6986   3.133   3.659   0.591
 2067SOL    HW1 6987   3.177   3.723   0.527
 2067SOL    HW2 6988   3.083   3.711   0.661
 2068SOL     OW 6989   2.894   2.411   0.016
 2068SOL    HW1 6990   2.853   2.493  -0.023
 2068SOL    HW2 6991   2.958   2.437   0.089
 2069SOL     OW 6992   1.940   2.418   1.386
 2069SOL    HW1 6993   2.032   2.417   1.345
 2069SOL    HW2 6994   1.934   2.492   1.453
 2070SOL     OW 6995   2.728   2.316   0.642
 2070SOL    HW1 6996   2.696   2.388   0.580
 2070SOL    HW2 6997   2.752   2.235   0.589
 2071SOL     OW 6998   2.879   1.901   0.753
 2071SOL    HW1 6999   2.807   1.906   0.684
 2071SOL    HW2 7000   2.855   1.832   0.822
 2072SOL     OW 7001   3.291   3.035   0.867
 2072SOL    HW1 7002   3.236   2.951   0.860
 2072SOL    HW2 7003   3.317   3.064   0.775
 2073SOL     OW 7004   3.328   2.452   0.992
 2073SOL    HW1 7005   3.298   2.357   0.999
 2073SOL    HW2 7006   3.401   2.468   1.058
 2074SOL     OW 7007   3.719   2.695   0.377
 2074SOL    HW1 7008   3.761   2.631   0.441
 2074SOL    HW2 7009   3.681   2.644   0.299
 2075SOL     OW 7010   3.526   3.142   0.657
 2075SOL    HW1 7011   3.625   3.150   0.671
 2075SOL    HW2 7012   3.481   3.226   0.688
 2076SOL     OW 7013   3.252   2.437   0.078
 2076SOL    HW1 7014   3.198   2.416   0.159
 2076SOL    HW2 7015   3.343   2.396   0.087
 2077SOL     OW 7016   2.389   2.118   0.328
 2077SOL    HW1 7017   2.416   2.059   0.253
 2077SOL    HW2 7018   2.389   2.213   0.297
 2078SOL     OW 7019   3.616   3.085   1.588
 2078SOL    HW1 7020   3.707   3.046   1.575
 2078SOL    HW2 7021   3.624   3.181   1.612
 2079SOL     OW 7022   2.926   3.209   1.340
 2079SOL    HW1 7023   2.846   3.186   1.395
 2079SOL    HW2 7024   3.009   3.183   1.389
 2080SOL     OW 7025   3.454   3.491   1.625
 2080SOL    HW1 7026   3.481   3.525   1.535
 2080SOL    HW2 7027   3.533   3.453   1.671
 2081SOL     OW 7028   2.973   3.057   1.100
 2081SOL    HW1 7029   2.933   3.101   1.181
 2081SOL    HW2 7030   2.932   3.094   1.017
 2082SOL     OW 7031   3.500   2.961   1.079
 2082SOL    HW1 7032   3.505   3.042   1.138
 2082SOL    HW2 7033   3.414   2.963   1.028
 2083SOL     OW 7034   2.777   1.951   1.402
 2083SOL    HW1 7035   2.802   1.931   1.307
 2083SOL    HW2 7036   2.849   2.007   1.444
 2084SOL     OW 7037   2.842   2.978   1.719
 2084SOL    HW1 7038   2.743   2.984   1.729
 2084SOL    HW2 7039   2.865   2.898   1.663
 2085SOL     OW 7040   2.567   2.912   0.368
 2085SOL    HW1 7041   2.553   2.919   0.467
 2085SOL    HW2 7042   2.651   2.861   0.350
 2086SOL     OW 7043   2.272   2.675   1.251
 2086SOL    HW1 7044   2.358   2.687   1.301
 2086SOL    HW2 7045   2.230   2.588   1.278
 2087SOL     OW 7046   3.136   2.248   1.262
 2087SOL    HW1 7047   3.157   2.322   1.326
 2087SOL    HW2 7048   3.047   2.265   1.219
 2088SOL     OW 7049   1.926   3.426   1.331
 2088SOL    HW1 7050   1.880   3.508   1.297
 2088SOL    HW2 7051   2.024   3.445   1.340
 2089SOL     OW 7052   2.229   2.962   0.501
 2089SOL    HW1 7053   2.222   3.045   0.445
 2089SOL    HW2 7054   2.233   2.882   0.441
 2090SOL     OW 7055   2.428   2.399   0.865
 2090SOL    HW1 7056   2.440   2.465   0.791
 2090SOL    HW2 7057   2.474   2.433   0.948
 2091SOL     OW 7058   3.114   3.210   0.388
 2091SOL    HW1 7059   3.164   3.287   0.428
 2091SOL    HW2 7060   3.019   3.212   0.420
 2092SOL     OW 7061   3.134   3.307   1.142
 2092SOL    HW1 7062   3.181   3.320   1.229
 2092SOL    HW2 7063   3.068   3.233   1.151
 2093SOL     OW 7064   3.444   2.501   0.472
 2093SOL    HW1 7065   3.413   2.562   0.545
 2093SOL    HW2 7066   3.494   2.553   0.403
 2094SOL     OW 7067   2.216   3.372   1.329
 2094SOL    HW1 7068   2.195   3.328   1.242
 2094SOL    HW2 7069   2.313   3.398   1.332
 2095SOL     OW 7070   2.264   2.613   1.598
 2095SOL    HW1 7071   2.332   2.668   1.551
 2095SOL    HW2 7072   2.304   2.525   1.625
 2096SOL     OW 7073   3.449   2.641   1.670
 2096SOL    HW1 7074   3.357   2.679   1.665
 2096SOL    HW2 7075   3.509   2.688   1.605
 2097SOL     OW 7076   2.875   1.967   1.770
 2097SOL    HW1 7077   2.881   2.052   1.718
 2097SOL    HW2 7078   2.907   1.891   1.713
 2098SOL     OW 7079   2.366   1.912   1.740
 2098SOL    HW1 7080   2.324   1.855   1.670
 2098SOL    HW2 7081   2.300   1.981   1.772
 2099SOL     OW 7082   2.435   2.732   1.029
 2099SOL    HW1 7083   2.479   2.821   1.020
 2099SOL    HW2 7084   2.372   2.732   1.106
 2100SOL     OW 7085   3.222   2.724   1.045
 2100SOL    HW1 7086   3.147   2.724   0.979
 2100SOL    HW2 7087   3.259   2.632   1.054
 2101SOL     OW 7088   3.071   2.387   0.275
 2101SOL    HW1 7089   3.084   2.303   0.329
 2101SOL    HW2 7090   3.042   2.461   0.335
 2102SOL     OW 7091   2.169   2.075   1.231
 2102SOL    HW1 7092   2.146   2.112   1.321
 2102SOL    HW2 7093   2.139   1.980   1.225
 2103SOL     OW 7094   1.899   3.172   1.282
 2103SOL    HW1 7095   1.952   3.123   1.350
 2103SOL    HW2 7096   1.921   3.270   1.287
 2104SOL     OW 7097   2.594   2.496   1.064
 2104SOL    HW1 7098   2.653   2.470   0.988
 2104SOL    HW2 7099   2.566   2.592   1.053
 2105SOL     OW 7100   3.590   2.797   1.854
 2105SOL    HW1 7101   3.544   2.790   1.765
 2105SOL    HW2 7102   3.528   2.841   1.920
 2106SOL     OW 7103   2.169   1.925   0.618
 2106SOL    HW1 7104   2.158   2.019   0.651
 2106SOL    HW2 7105   2.164   1.862   0.695
 2107SOL     OW 7106   3.484   2.229   0.374
 2107SOL    HW1 7107   3.486   2.153   0.438
 2107SOL    HW2 7108   3.436   2.306   0.414
 2108SOL     OW 7109   2.885   2.628   0.966
 2108SOL    HW1 7110   2.900   2.649   1.062
 2108SOL    HW2 7111   2.855   2.533   0.957
 2109SOL     OW 7112   2.842   3.435   1.700
 2109SOL    HW1 7113   2.822   3.479   1.612
 2109SOL    HW2 7114   2.881   3.344   1.684
 2110SOL     OW 7115   3.721   3.380   1.605
 2110SOL    HW1 7116   3.735   3.407   1.510
 2110SOL    HW2 7117   3.804   3.402   1.658
 2111SOL     OW 7118   2.212   2.760   1.804
 2111SOL    HW1 7119   2.288   2.804   1.852
 2111SOL    HW2 7120   2.247   2.713   1.722
 2112SOL     OW 7121   3.402   2.136   0.125
 2112SOL    HW1 7122   3.341   2.061   0.148
 2112SOL    HW2 7123   3.424   2.188   0.208
 2113SOL     OW 7124   2.930   3.195   0.849
 2113SOL    HW1 7125   2.937   3.111   0.794
 2113SOL    HW2 7126   2.992   3.264   0.813
 2114SOL     OW 7127   2.181   2.672   0.949
 2114SOL    HW1 7128   2.274   2.708   0.954
 2114SOL    HW2 7129   2.175   2.587   1.001
 2115SOL     OW 7130   2.201   2.371   1.006
 2115SOL    HW1 7131   2.149   2.288   0.989
 2115SOL    HW2 7132   2.278   2.376   0.942
 2116SOL     OW 7133   3.000   2.242   1.678
 2116SOL    HW1 7134   2.955   2.305   1.742
 2116SOL    HW2 7135   3.093   2.273   1.661
 2117SOL     OW 7136   3.022   2.069   1.477
 2117SOL    HW1 7137   3.022   2.133   1.554
 2117SOL    HW2 7138   3.050   2.117   1.394
 2118SOL     OW 7139   1.950   3.663   0.927
 2118SOL    HW1 7140   1.908   3.577   0.900
 2118SOL    HW2 7141   2.044   3.666   0.893
 2119SOL     OW 7142   2.366   3.430   0.910
 2119SOL    HW1 7143   2.432   3.504   0.919
 2119SOL    HW2 7144   2.410   3.351   0.868
 2120SOL     OW 7145   2.864   2.658   1.238
 2120SOL    HW1 7146   2.905   2.626   1.324
 2120SOL    HW2 7147   2.768   2.631   1.235
 2121SOL     OW 7148   1.902   2.406   1.114
 2121SOL    HW1 7149   1.987   2.373   1.073
 2121SOL    HW2 7150   1.915   2.421   1.212
 2122SOL     OW 7151   2.051   2.382   1.722
 2122SOL    HW1 7152   2.110   2.342   1.652
 2122SOL    HW2 7153   1.993   2.453   1.681
 2123SOL     OW 7154   3.231   2.812   1.660
 2123SOL    HW1 7155   3.270   2.901   1.680
 2123SOL    HW2 7156   3.241   2.792   1.563
 2124SOL     OW 7157   2.677   2.434   0.325
 2124SOL    HW1 7158   2.684   2.345   0.279
 2124SOL    HW2 7159   2.583   2.468   0.317
 2125SOL     OW 7160   3.519   2.466   1.206
 2125SOL    HW1 7161   3.481   2.397   1.268
 2125SOL    HW2 7162   3.601   2.430   1.162
 2126SOL     OW 7163   2.114   3.426   1.744
 2126SOL    HW1 7164   2.084   3.483   1.820
 2126SOL    HW2 7165   2.107   3.329   1.770
 2127SOL     OW 7166   2.533   2.326   1.269
 2127SOL    HW1 7167   2.499   2.237   1.239
 2127SOL    HW2 7168   2.559   2.380   1.189
 2128SOL     OW 7169   2.792   3.540   1.465
 2128SOL    HW1 7170   2.768   3.522   1.370
 2128SOL    HW2 7171   2.822   3.634   1.475
 2129SOL     OW 7172   2.335   2.362   0.191
 2129SOL    HW1 7173   2.396   2.442   0.195
 2129SOL    HW2 7174   2.240   2.393   0.198
 2130SOL     OW 7175   2.021   2.999   1.466
 2130SOL    HW1 7176   2.043   2.938   1.542
 2130SOL    HW2 7177   2.031   2.950   1.380
 2131SOL     OW 7178   3.209   2.921   1.234
 2131SOL    HW1 7179   3.233   2.858   1.160
 2131SOL    HW2 7180   3.119   2.961   1.216
 2132SOL     OW 7181   3.164   2.717   0.309
 2132SOL    HW1 7182   3.078   2.686   0.351
 2132SOL    HW2 7183   3.160   2.703   0.210
 2133SOL     OW 7184   3.621   3.609   1.154
 2133SOL    HW1 7185   3.682   3.639   1.081
 2133SOL    HW2 7186   3.583   3.520   1.132
 2134SOL     OW 7187   3.114   3.593   1.128
 2134SOL    HW1 7188   3.198   3.598   1.074
 2134SOL    HW2 7189   3.091   3.497   1.146
 2135SOL     OW 7190   1.945   3.120   1.022
 2135SOL    HW1 7191   1.940   3.119   1.122
 2135SOL    HW2 7192   1.862   3.079   0.984
 2136SOL     OW 7193   2.550   3.524   1.716
 2136SOL    HW1 7194   2.494   3.605   1.725
 2136SOL    HW2 7195   2.602   3.528   1.630
 2137SOL     OW 7196   2.765   1.948   0.133
 2137SOL    HW1 7197   2.816   1.949   0.047
 2137SOL    HW2 7198   2.821   1.906   0.204
 2138SOL     OW 7199   3.588   1.997   0.523
 2138SOL    HW1 7200   3.661   1.980   0.456
 2138SOL    HW2 7201   3.557   1.910   0.561
 2139SOL     OW 7202   3.250   3.435   0.477
 2139SOL    HW1 7203   3.317   3.447   0.403
 2139SOL    HW2 7204   3.210   3.524   0.500
 2140SOL     OW 7205   1.992   3.656   1.851
 2140SOL    HW1 7206   1.951   3.582   1.904
 2140SOL    HW2 7207   2.056   3.707   1.909
 2141SOL     OW 7208   3.142   2.789   0.672
 2141SOL    HW1 7209   3.202   2.708   0.674
 2141SOL    HW2 7210   3.182   2.858   0.612
 2142SOL     OW 7211   2.692   3.135   1.422
 2142SOL    HW1 7212   2.687   3.168   1.517
 2142SOL    HW2 7213   2.606   3.154   1.376
 2143SOL     OW 7214   2.534   3.478   0.154
 2143SOL    HW1 7215   2.543   3.488   0.055
 2143SOL    HW2 7216   2.494   3.389   0.175
 2144SOL     OW 7217   3.512   3.582   1.394
 2144SOL    HW1 7218   3.565   3.592   1.310
 2144SOL    HW2 7219   3.485   3.672   1.428
 2145SOL     OW 7220   3.703   2.037   0.963
 2145SOL    HW1 7221   3.742   1.952   0.927
 2145SOL    HW2 7222   3.605   2.039   0.944
 2146SOL     OW 7223   2.125   2.188   0.720
 2146SOL    HW1 7224   2.046   2.239   0.686
 2146SOL    HW2 7225   2.116   2.173   0.818
 2147SOL     OW 7226   3.056   3.474   0.031
 2147SOL    HW1 7227   3.062   3.381   0.068
 2147SOL    HW2 7228   2.997   3.474  -0.049
 2148SOL     OW 7229   2.684   2.864   1.372
 2148SOL    HW1 7230   2.724   2.863   1.280
 2148SOL    HW2 7231   2.694   2.956   1.412
 2149SOL     OW 7232   2.778   2.772   0.291
 2149SOL    HW1 7233   2.841   2.810   0.223
 2149SOL    HW2 7234   2.818   2.689   0.330
 2150SOL     OW 7235   2.234   3.150   1.490
 2150SOL    HW1 7236   2.221   3.243   1.456
 2150SOL    HW2 7237   2.150   3.098   1.477
 2151SOL     OW 7238   3.476   3.154   1.289
 2151SOL    HW1 7239   3.536   3.157   1.369
 2151SOL    HW2 7240   3.401   3.218   1.302
 2152SOL     OW 7241   2.901   2.960   0.696
 2152SOL    HW1 7242   2.831   2.913   0.750
 2152SOL    HW2 7243   2.960   2.892   0.653
 2153SOL     OW 7244   2.876   2.098   0.971
 2153SOL    HW1 7245   2.868   2.062   0.878
 2153SOL    HW2 7246   2.874   2.022   1.036
 2154SOL     OW 7247   2.452   3.349   0.491
 2154SOL    HW1 7248   2.494   3.291   0.421
 2154SOL    HW2 7249   2.408   3.428   0.447
 2155SOL     OW 7250   3.571   2.247   1.381
 2155SOL    HW1 7251   3.644   2.316   1.385
 2155SOL    HW2 7252   3.599   2.172   1.322
 2156SOL     OW 7253   2.117   3.210   0.290
 2156SOL    HW1 7254   2.021   3.211   0.263
 2156SOL    HW2 7255   2.129   3.263   0.374
 2157SOL     OW 7256   1.967   2.875   1.726
 2157SOL    HW1 7257   1.890   2.842   1.780
 2157SOL    HW2 7258   2.052   2.845   1.768
 2158SOL     OW 7259   2.534   2.065   1.489
 2158SOL    HW1 7260   2.624   2.049   1.449
 2158SOL    HW2 7261   2.542   2.070   1.588
 2159SOL     OW 7262   3.302   2.718   1.398
 2159SOL    HW1 7263   3.245   2.770   1.335
 2159SOL    HW2 7264   3.398   2.730   1.374
 2160SOL     OW 7265   1.934   2.028   0.318
 2160SOL    HW1 7266   1.917   2.111   0.264
 2160SOL    HW2 7267   2.024   1.991   0.296
 2161SOL     OW 7268   3.045   3.197   0.119
 2161SOL    HW1 7269   2.946   3.186   0.121
 2161SOL    HW2 7270   3.079   3.212   0.212
 2162SOL     OW 7271   2.475   2.704   1.431
 2162SOL    HW1 7272   2.531   2.785   1.414
 2162SOL    HW2 7273   2.534   2.624   1.434
 2163SOL     OW 7274   3.355   3.629   0.959
 2163SOL    HW1 7275   3.388   3.693   0.890
 2163SOL    HW2 7276   3.421   3.623   1.034
 2164SOL     OW 7277   2.578   2.427   1.708
 2164SOL    HW1 7278   2.597   2.492   1.782
 2164SOL    HW2 7279   2.638   2.347   1.717
 2165SOL     OW 7280   3.312   3.082   1.633
 2165SOL    HW1 7281   3.303   3.072   1.732
 2165SOL    HW2 7282   3.408   3.075   1.607
 2166SOL     OW 7283   2.252   3.603   1.560
 2166SOL    HW1 7284   2.161   3.644   1.558
 2166SOL    HW2 7285   2.245   3.509   1.592
 2167SOL     OW 7286   3.536   2.745   1.254
 2167SOL    HW1 7287   3.509   2.656   1.217
 2167SOL    HW2 7288   3.537   2.813   1.181
 2168SOL     OW 7289   3.087   2.187   0.449
 2168SOL    HW1 7290   3.152   2.113   0.438
 2168SOL    HW2 7291   3.107   2.237   0.533
 2169SOL     OW 7292   2.456   2.607   0.652
 2169SOL    HW1 7293   2.506   2.692   0.633
 2169SOL    HW2 7294   2.368   2.609   0.604
 2170SOL     OW 7295   3.639   2.204   1.642
 2170SOL    HW1 7296   3.622   2.235   1.548
 2170SOL    HW2 7297   3.555   2.167   1.680
 2171SOL     OW 7298   3.592   2.796   1.517
 2171SOL    HW1 7299   3.630   2.887   1.532
 2171SOL    HW2 7300   3.584   2.779   1.418
 2172SOL     OW 7301   2.721   3.236   0.016
 2172SOL    HW1 7302   2.675   3.251   0.104
 2172SOL    HW2 7303   2.765   3.321  -0.014
 2173SOL     OW 7304   2.523   3.652   0.953
 2173SOL    HW1 7305   2.477   3.740   0.940
 2173SOL    HW2 7306   2.622   3.664   0.946
 2174SOL     OW 7307   2.721   2.818   0.861
 2174SOL    HW1 7308   2.775   2.749   0.909
 2174SOL    HW2 7309   2.689   2.887   0.927
 2175SOL     OW 7310   2.945   2.846   0.087
 2175SOL    HW1 7311   2.922   2.899   0.005
 2175SOL    HW2 7312   3.026   2.790   0.068
 2176SOL     OW 7313   3.723   3.431   0.851
 2176SOL    HW1 7314   3.652   3.419   0.781
 2176SOL    HW2 7315   3.724   3.352   0.911
 2177SOL     OW 7316   2.083   3.176   1.844
 2177SOL    HW1 7317   2.018   3.103   1.823
 2177SOL    HW2 7318   2.087   3.190   1.942
 2178SOL     OW 7319   1.941   3.102   0.653
 2178SOL    HW1 7320   1.940   3.055   0.741
 2178SOL    HW2 7321   2.023   3.074   0.602
 2179SOL     OW 7322   2.534   3.253   1.624
 2179SOL    HW1 7323   2.456   3.203   1.662
 2179SOL    HW2 7324   2.531   3.348   1.655
 2180SOL     OW 7325   3.686   2.054   1.227
 2180SOL    HW1 7326   3.682   1.964   1.271
 2180SOL    HW2 7327   3.689   2.043   1.128
 2181SOL     OW 7328   2.290   2.286   0.520
 2181SOL    HW1 7329   2.320   2.214   0.458
 2181SOL    HW2 7330   2.251   2.246   0.603
 2182SOL     OW 7331   3.567   3.349   1.104
 2182SOL    HW1 7332   3.474   3.324   1.077
 2182SOL    HW2 7333   3.593   3.299   1.186
 2183SOL     OW 7334   2.179   2.409   1.280
 2183SOL    HW1 7335   2.217   2.350   1.352
 2183SOL    HW2 7336   2.219   2.383   1.192
 2184SOL     OW 7337   2.674   3.448   0.687
 2184SOL    HW1 7338   2.706   3.458   0.593
 2184SOL    HW2 7339   2.595   3.386   0.689
 2185SOL     OW 7340   3.286   2.076   1.112
 2185SOL    HW1 7341   3.338   2.011   1.167
 2185SOL    HW2 7342   3.237   2.139   1.173
 2186SOL     OW 7343   2.863   1.896   1.154
 2186SOL    HW1 7344   2.800   1.824   1.123
 2186SOL    HW2 7345   2.956   1.860   1.154
 2187SOL     OW 7346   2.632   3.192   0.301
 2187SOL    HW1 7347   2.586   3.105   0.318
 2187SOL    HW2 7348   2.723   3.189   0.342
 2188SOL     OW 7349   2.480   3.429   1.284
 2188SOL    HW1 7350   2.475   3.511   1.341
 2188SOL    HW2 7351   2.569   3.426   1.239
 2189SOL     OW 7352   3.214   1.914   0.168
 2189SOL    HW1 7353   3.249   1.873   0.084
 2189SOL    HW2 7354   3.124   1.876   0.188
 2190SOL     OW 7355   3.162   2.315   0.691
 2190SOL    HW1 7356   3.103   2.395   0.695
 2190SOL    HW2 7357   3.177   2.280   0.784
 2191SOL     OW 7358   3.455   2.083   0.882
 2191SOL    HW1 7359   3.371   2.082   0.936
 2191SOL    HW2 7360   3.457   2.166   0.826
 2192SOL     OW 7361   1.901   2.939   0.300
 2192SOL    HW1 7362   2.000   2.928   0.291
 2192SOL    HW2 7363   1.861   2.853   0.332
 2193SOL     OW 7364   2.737   3.508   0.337
 2193SOL    HW1 7365   2.660   3.473   0.283
 2193SOL    HW2 7366   2.705   3.579   0.399
 2194SOL     OW 7367   2.092   2.490   1.975
 2194SOL    HW1 7368   1.999   2.488   2.012
 2194SOL    HW2 7369   2.093   2.451   1.883
 2195SOL     OW 7370   2.087   2.137   2.858
 2195SOL    HW1 7371   2.122   2.120   2.950
 2195SOL    HW2 7372   1.999   2.092   2.846
 2196SOL     OW 7373   1.881   2.230   2.509
 2196SOL    HW1 7374   1.799   2.273   2.548
 2196SOL    HW2 7375   1.853   2.157   2.446
 2197SOL     OW 7376   2.431   3.137   3.027
 2197SOL    HW1 7377   2.338   3.130   2.990
 2197SOL    HW2 7378   2.442   3.226   3.071
 2198SOL     OW 7379   3.417   3.373   2.565
 2198SOL    HW1 7380   3.360   3.357   2.646
 2198SOL    HW2 7381   3.358   3.383   2.485
 2199SOL     OW 7382   3.617   2.469   2.093
 2199SOL    HW1 7383   3.605   2.456   1.994
 2199SOL    HW2 7384   3.587   2.388   2.142
 2200SOL     OW 7385   2.630   3.006   2.885
 2200SOL    HW1 7386   2.552   3.023   2.945
 2200SOL    HW2 7387   2.664   3.093   2.849
 2201SOL     OW 7388   2.712   2.660   3.685
 2201SOL    HW1 7389   2.708   2.736   3.750
 2201SOL    HW2 7390   2.734   2.696   3.594
 2202SOL     OW 7391   2.548   3.023   3.665
 2202SOL    HW1 7392   2.608   3.102   3.679
 2202SOL    HW2 7393   2.462   3.054   3.624
 2203SOL     OW 7394   2.197   3.297   2.923
 2203SOL    HW1 7395   2.119   3.266   2.870
 2203SOL    HW2 7396   2.255   3.355   2.866
 2204SOL     OW 7397   3.322   3.367   3.201
 2204SOL    HW1 7398   3.346   3.461   3.227
 2204SOL    HW2 7399   3.306   3.313   3.283
 2205SOL     OW 7400   2.300   2.254   3.361
 2205SOL    HW1 7401   2.382   2.198   3.370
 2205SOL    HW2 7402   2.219   2.196   3.365
 2206SOL     OW 7403   3.465   2.309   2.599
 2206SOL    HW1 7404   3.391   2.355   2.549
 2206SOL    HW2 7405   3.516   2.377   2.652
 2207SOL     OW 7406   2.093   3.575   2.345
 2207SOL    HW1 7407   2.127   3.652   2.399
 2207SOL    HW2 7408   2.137   3.575   2.255
 2208SOL     OW 7409   2.989   3.203   3.552
 2208SOL    HW1 7410   3.036   3.203   3.640
 2208SOL    HW2 7411   2.941   3.116   3.541
 2209SOL     OW 7412   2.092   3.296   2.400
 2209SOL    HW1 7413   2.066   3.392   2.400
 2209SOL    HW2 7414   2.021   3.242   2.445
 2210SOL     OW 7415   2.102   2.953   2.748
 2210SOL    HW1 7416   2.116   2.869   2.800
 2210SOL    HW2 7417   2.047   3.017   2.803
 2211SOL     OW 7418   2.482   3.648   3.301
 2211SOL    HW1 7419   2.390   3.631   3.336
 2211SOL    HW2 7420   2.510   3.740   3.327
 2212SOL     OW 7421   2.468   2.826   1.985
 2212SOL    HW1 7422   2.475   2.910   1.931
 2212SOL    HW2 7423   2.514   2.839   2.073
 2213SOL     OW 7424   3.456   1.976   3.342
 2213SOL    HW1 7425   3.438   2.043   3.270
 2213SOL    HW2 7426   3.453   2.022   3.431
 2214SOL     OW 7427   3.704   3.629   2.221
 2214SOL    HW1 7428   3.758   3.600   2.301
 2214SOL    HW2 7429   3.734   3.719   2.192
 2215SOL     OW 7430   1.889   3.458   1.979
 2215SOL    HW1 7431   1.870   3.362   2.000
 2215SOL    HW2 7432   1.856   3.516   2.054
 2216SOL     OW 7433   3.503   2.970   2.294
 2216SOL    HW1 7434   3.589   2.972   2.242
 2216SOL    HW2 7435   3.517   3.017   2.382
 2217SOL     OW 7436   1.975   2.599   3.459
 2217SOL    HW1 7437   2.063   2.586   3.504
 2217SOL    HW2 7438   1.962   2.696   3.437
 2218SOL     OW 7439   2.475   3.227   2.588
 2218SOL    HW1 7440   2.426   3.140   2.597
 2218SOL    HW2 7441   2.452   3.270   2.501
 2219SOL     OW 7442   3.155   3.090   3.285
 2219SOL    HW1 7443   3.192   3.017   3.227
 2219SOL    HW2 7444   3.207   3.095   3.370
 2220SOL     OW 7445   2.671   1.866   2.364
 2220SOL    HW1 7446   2.711   1.957   2.355
 2220SOL    HW2 7447   2.571   1.874   2.370
 2221SOL     OW 7448   2.059   2.838   3.126
 2221SOL    HW1 7449   2.148   2.793   3.112
 2221SOL    HW2 7450   1.986   2.773   3.107
 2222SOL     OW 7451   3.387   2.861   2.052
 2222SOL    HW1 7452   3.324   2.785   2.065
 2222SOL    HW2 7453   3.435   2.879   2.138
 2223SOL     OW 7454   3.049   3.654   3.478
 2223SOL    HW1 7455   3.073   3.714   3.402
 2223SOL    HW2 7456   3.056   3.559   3.448
 2224SOL     OW 7457   2.179   2.113   3.663
 2224SOL    HW1 7458   2.250   2.184   3.669
 2224SOL    HW2 7459   2.091   2.152   3.691
 2225SOL     OW 7460   3.328   3.279   2.815
 2225SOL    HW1 7461   3.269   3.285   2.895
 2225SOL    HW2 7462   3.313   3.191   2.769
 2226SOL     OW 7463   3.529   3.576   2.434
 2226SOL    HW1 7464   3.488   3.553   2.346
 2226SOL    HW2 7465   3.511   3.502   2.499
 2227SOL     OW 7466   2.460   2.591   2.132
 2227SOL    HW1 7467   2.484   2.660   2.064
 2227SOL    HW2 7468   2.382   2.624   2.186
 2228SOL     OW 7469   3.143   2.207   2.806
 2228SOL    HW1 7470   3.057   2.157   2.793
 2228SOL    HW2 7471   3.205   2.153   2.862
 2229SOL     OW 7472   3.438   3.524   2.169
 2229SOL    HW1 7473   3.527   3.570   2.172
 2229SOL    HW2 7474   3.417   3.500   2.074
 2230SOL     OW 7475   2.669   2.467   3.327
 2230SOL    HW1 7476   2.622   2.464   3.416
 2230SOL    HW2 7477   2.618   2.412   3.261
 2231SOL     OW 7478   3.256   2.331   3.536
 2231SOL    HW1 7479   3.236   2.374   3.624
 2231SOL    HW2 7480   3.334   2.269   3.545
 2232SOL     OW 7481   2.835   2.752   3.434
 2232SOL    HW1 7482   2.881   2.668   3.405
 2232SOL    HW2 7483   2.779   2.786   3.359
 2233SOL     OW 7484   2.853   2.272   3.104
 2233SOL    HW1 7485   2.776   2.306   3.158
 2233SOL    HW2 7486   2.819   2.221   3.025
 2234SOL     OW 7487   2.903   2.563   2.291
 2234SOL    HW1 7488   2.929   2.559   2.387
 2234SOL    HW2 7489   2.818   2.512   2.277
 2235SOL     OW 7490   1.938   2.673   2.651
 2235SOL    HW1 7491   2.037   2.661   2.660
 2235SOL    HW2 7492   1.914   2.768   2.672
 2236SOL     OW 7493   1.992   3.683   3.433
 2236SOL    HW1 7494   1.982   3.668   3.532
 2236SOL    HW2 7495   1.906   3.719   3.397
 2237SOL     OW 7496   2.727   2.210   2.057
 2237SOL    HW1 7497   2.786   2.273   2.008
 2237SOL    HW2 7498   2.746   2.116   2.028
 2238SOL     OW 7499   3.581   2.447   3.693
 2238SOL    HW1 7500   3.555   2.536   3.657
 2238SOL    HW2 7501   3.579   2.379   3.620
 2239SOL     OW 7502   3.224   3.006   2.407
 2239SOL    HW1 7503   3.307   2.977   2.359
 2239SOL    HW2 7504   3.175   3.073   2.351
 2240SOL     OW 7505   2.412   2.058   2.747
 2240SOL    HW1 7506   2.407   2.053   2.847
 2240SOL    HW2 7507   2.414   2.154   2.718
 2241SOL     OW 7508   2.870   3.318   2.339
 2241SOL    HW1 7509   2.824   3.390   2.287
 2241SOL    HW2 7510   2.866   3.338   2.437
 2242SOL     OW 7511   2.213   3.663   2.715
 2242SOL    HW1 7512   2.263   3.577   2.721
 2242SOL    HW2 7513   2.278   3.740   2.712
 2243SOL     OW 7514   3.657   2.928   2.735
 2243SOL    HW1 7515   3.595   2.913   2.659
 2243SOL    HW2 7516   3.605   2.939   2.820
 2244SOL     OW 7517   3.089   3.412   3.368
 2244SOL    HW1 7518   3.095   3.335   3.432
 2244SOL    HW2 7519   3.037   3.386   3.288
 2245SOL     OW 7520   2.183   2.805   2.104
 2245SOL    HW1 7521   2.265   2.844   2.062
 2245SOL    HW2 7522   2.156   2.723   2.055
 2246SOL     OW 7523   2.323   3.128   3.589
 2246SOL    HW1 7524   2.273   3.129   3.503
 2246SOL    HW2 7525   2.260   3.110   3.665
 2247SOL     OW 7526   2.973   3.638   2.099
 2247SOL    HW1 7527   2.913   3.576   2.149
 2247SOL    HW2 7528   3.004   3.594   2.014
 2248SOL     OW 7529   2.064   2.147   3.360
 2248SOL    HW1 7530   1.984   2.207   3.347
 2248SOL    HW2 7531   2.054   2.098   3.446
 2249SOL     OW 7532   3.494   3.239   1.943
 2249SOL    HW1 7533   3.462   3.333   1.933
 2249SOL    HW2 7534   3.418   3.176   1.931
 2250SOL     OW 7535   2.326   3.605   2.185
 2250SOL    HW1 7536   2.359   3.644   2.271
 2250SOL    HW2 7537   2.402   3.598   2.120
 2251SOL     OW 7538   3.262   1.969   2.288
 2251SOL    HW1 7539   3.238   1.932   2.198
 2251SOL    HW2 7540   3.361   1.985   2.292
 2252SOL     OW 7541   2.111   3.647   3.103
 2252SOL    HW1 7542   2.168   3.582   3.153
 2252SOL    HW2 7543   2.095   3.614   3.010
 2253SOL     OW 7544   2.802   3.560   2.766
 2253SOL    HW1 7545   2.882   3.503   2.787
 2253SOL    HW2 7546   2.753   3.520   2.689
 2254SOL     OW 7547   2.244   2.562   2.342
 2254SOL    HW1 7548   2.289   2.472   2.339
 2254SOL    HW2 7549   2.150   2.551   2.375
 2255SOL     OW 7550   3.409   2.084   3.591
 2255SOL    HW1 7551   3.404   2.121   3.683
 2255SOL    HW2 7552   3.337   2.015   3.579
 2256SOL     OW 7553   2.476   1.984   1.979
 2256SOL    HW1 7554   2.574   1.962   1.986
 2256SOL    HW2 7555   2.445   1.967   1.886
 2257SOL     OW 7556   2.643   2.126   3.611
 2257SOL    HW1 7557   2.710   2.065   3.654
 2257SOL    HW2 7558   2.570   2.145   3.676
 2258SOL     OW 7559   2.750   3.376   3.057
 2258SOL    HW1 7560   2.727   3.351   2.963
 2258SOL    HW2 7561   2.811   3.307   3.096
 2259SOL     OW 7562   3.213   2.452   3.295
 2259SOL    HW1 7563   3.241   2.409   3.380
 2259SOL    HW2 7564   3.238   2.548   3.296
 2260SOL     OW 7565   2.665   3.264   2.786
 2260SOL    HW1 7566   2.755   3.278   2.744
 2260SOL    HW2 7567   2.594   3.266   2.715
 2261SOL     OW 7568   2.401   1.926   2.374
 2261SOL    HW1 7569   2.320   1.927   2.432
 2261SOL    HW2 7570   2.404   2.009   2.319
 2262SOL     OW 7571   3.296   3.050   1.903
 2262SOL    HW1 7572   3.328   2.974   1.960
 2262SOL    HW2 7573   3.204   3.077   1.933
 2263SOL     OW 7574   2.159   1.897   2.033
 2263SOL    HW1 7575   2.208   1.981   2.012
 2263SOL    HW2 7576   2.221   1.832   2.078
 2264SOL     OW 7577   2.797   2.098   2.342
 2264SOL    HW1 7578   2.749   2.139   2.264
 2264SOL    HW2 7579   2.896   2.096   2.323
 2265SOL     OW 7580   2.938   2.545   3.326
 2265SOL    HW1 7581   2.858   2.484   3.329
 2265SOL    HW2 7582   3.019   2.492   3.302
 2266SOL     OW 7583   3.089   3.432   2.655
 2266SOL    HW1 7584   3.110   3.506   2.590
 2266SOL    HW2 7585   3.157   3.432   2.728
 2267SOL     OW 7586   2.321   3.014   2.603
 2267SOL    HW1 7587   2.250   2.987   2.668
 2267SOL    HW2 7588   2.295   2.986   2.510
 2268SOL     OW 7589   3.133   3.659   2.453
 2268SOL    HW1 7590   3.177   3.723   2.389
 2268SOL    HW2 7591   3.083   3.711   2.523
 2269SOL     OW 7592   2.894   2.411   1.878
 2269SOL    HW1 7593   2.853   2.493   1.839
 2269SOL    HW2 7594   2.958   2.437   1.951
 2270SOL     OW 7595   1.940   2.418   3.248
 2270SOL    HW1 7596   2.032   2.417   3.207
 2270SOL    HW2 7597   1.934   2.492   3.315
 2271SOL     OW 7598   2.423   2.084   3.009
 2271SOL    HW1 7599   2.461   2.000   3.046
 2271SOL    HW2 7600   2.335   2.103   3.053
 2272SOL     OW 7601   2.879   1.901   2.615
 2272SOL    HW1 7602   2.807   1.906   2.546
 2272SOL    HW2 7603   2.855   1.832   2.684
 2273SOL     OW 7604   3.291   3.035   2.729
 2273SOL    HW1 7605   3.236   2.951   2.722
 2273SOL    HW2 7606   3.317   3.064   2.637
 2274SOL     OW 7607   3.328   2.452   2.854
 2274SOL    HW1 7608   3.298   2.357   2.861
 2274SOL    HW2 7609   3.401   2.468   2.920
 2275SOL     OW 7610   2.350   3.247   2.036
 2275SOL    HW1 7611   2.263   3.232   2.083
 2275SOL    HW2 7612   2.333   3.273   1.941
 2276SOL     OW 7613   3.526   3.142   2.519
 2276SOL    HW1 7614   3.625   3.150   2.533
 2276SOL    HW2 7615   3.481   3.226   2.550
 2277SOL     OW 7616   3.252   2.437   1.940
 2277SOL    HW1 7617   3.198   2.416   2.021
 2277SOL    HW2 7618   3.343   2.396   1.949
 2278SOL     OW 7619   2.389   2.118   2.190
 2278SOL    HW1 7620   2.416   2.059   2.115
 2278SOL    HW2 7621   2.389   2.213   2.159
 2279SOL     OW 7622   3.616   3.085   3.450
 2279SOL    HW1 7623   3.707   3.046   3.437
 2279SOL    HW2 7624   3.624   3.181   3.474
 2280SOL     OW 7625   2.926   3.209   3.202
 2280SOL    HW1 7626   2.846   3.186   3.257
 2280SOL    HW2 7627   3.009   3.183   3.251
 2281SOL     OW 7628   3.454   3.491   3.487
 2281SOL    HW1 7629   3.481   3.525   3.397
 2281SOL    HW2 7630   3.533   3.453   3.533
 2282SOL     OW 7631   2.973   3.057   2.962
 2282SOL    HW1 7632   2.933   3.101   3.043
 2282SOL    HW2 7633   2.932   3.094   2.879
 2283SOL     OW 7634   3.500   2.961   2.941
 2283SOL    HW1 7635   3.505   3.042   3.000
 2283SOL    HW2 7636   3.414   2.963   2.890
 2284SOL     OW 7637   2.777   1.951   3.264
 2284SOL    HW1 7638   2.802   1.931   3.169
 2284SOL    HW2 7639   2.849   2.007   3.306
 2285SOL     OW 7640   2.842   2.978   3.581
 2285SOL    HW1 7641   2.743   2.984   3.591
 2285SOL    HW2 7642   2.865   2.898   3.525
 2286SOL     OW 7643   2.272   2.675   3.113
 2286SOL    HW1 7644   2.358   2.687   3.163
 2286SOL    HW2 7645   2.230   2.588   3.140
 2287SOL     OW 7646   3.136   2.248   3.124
 2287SOL    HW1 7647   3.157   2.322   3.188
 2287SOL    HW2 7648   3.047   2.265   3.081
 2288SOL     OW 7649   1.926   3.426   3.193
 2288SOL    HW1 7650   1.880   3.508   3.159
 2288SOL    HW2 7651   2.024   3.445   3.202
 2289SOL     OW 7652   2.229   2.962   2.363
 2289SOL    HW1 7653   2.222   3.045   2.307
 2289SOL    HW2 7654   2.233   2.882   2.303
 2290SOL     OW 7655   3.114   3.210   2.250
 2290SOL    HW1 7656   3.164   3.287   2.290
 2290SOL    HW2 7657   3.019   3.212   2.282
 2291SOL     OW 7658   3.134   3.307   3.004
 2291SOL    HW1 7659   3.181   3.320   3.091
 2291SOL    HW2 7660   3.068   3.233   3.013
 2292SOL     OW 7661   3.444   2.501   2.334
 2292SOL    HW1 7662   3.413   2.562   2.407
 2292SOL    HW2 7663   3.494   2.553   2.265
 2293SOL     OW 7664   2.216   3.372   3.191
 2293SOL    HW1 7665   2.195   3.328   3.104
 2293SOL    HW2 7666   2.313   3.398   3.194
 2294SOL     OW 7667   2.264   2.613   3.460
 2294SOL    HW1 7668   2.332   2.668   3.413
 2294SOL    HW2 7669   2.304   2.525   3.487
 2295SOL     OW 7670   3.449   2.641   3.532
 2295SOL    HW1 7671   3.357   2.679   3.527
 2295SOL    HW2 7672   3.509   2.688   3.467
 2296SOL     OW 7673   2.875   1.967   3.632
 2296SOL    HW1 7674   2.881   2.052   3.580
 2296SOL    HW2 7675   2.907   1.891   3.575
 2297SOL     OW 7676   2.366   1.912   3.602
 2297SOL    HW1 7677   2.324   1.855   3.532
 2297SOL    HW2 7678   2.300   1.981   3.634
 2298SOL     OW 7679   2.435   2.732   2.891
 2298SOL    HW1 7680   2.479   2.821   2.882
 2298SOL    HW2 7681   2.372   2.732   2.968
 2299SOL     OW 7682   3.222   2.724   2.907
 2299SOL    HW1 7683   3.147   2.724   2.841
 2299SOL    HW2 7684   3.259   2.632   2.916
 2300SOL     OW 7685   3.071   2.387   2.137
 2300SOL    HW1 7686   3.084   2.303   2.191
 2300SOL    HW2 7687   3.042   2.461   2.197
 2301SOL     OW 7688   2.169   2.075   3.093
 2301SOL    HW1 7689   2.146   2.112   3.183
 2301SOL    HW2 7690   2.139   1.980   3.087
 2302SOL     OW 7691   1.899   3.172   3.144
 2302SOL    HW1 7692   1.952   3.123   3.212
 2302SOL    HW2 7693   1.921   3.270   3.149
 2303SOL     OW 7694   3.590   2.797   3.716
 2303SOL    HW1 7695   3.544   2.790   3.627
 2303SOL    HW2 7696   3.528   2.841   3.782
 2304SOL     OW 7697   2.169   1.925   2.480
 2304SOL    HW1 7698   2.158   2.019   2.513
 2304SOL    HW2 7699   2.164   1.862   2.557
 2305SOL     OW 7700   3.484   2.229   2.236
 2305SOL    HW1 7701   3.486   2.153   2.300
 2305SOL    HW2 7702   3.436   2.306   2.276
 2306SOL     OW 7703   2.885   2.628   2.828
 2306SOL    HW1 7704   2.900   2.649   2.924
 2306SOL    HW2 7705   2.855   2.533   2.819
 2307SOL     OW 7706   2.842   3.435   3.562
 2307SOL    HW1 7707   2.822   3.479   3.474
 2307SOL    HW2 7708   2.881   3.344   3.546
 2308SOL     OW 7709   3.721   3.380   3.467
 2308SOL    HW1 7710   3.735   3.407   3.372
 2308SOL    HW2 7711   3.804   3.402   3.520
 2309SOL     OW 7712   2.212   2.760   3.666
 2309SOL    HW1 7713   2.288   2.804   3.714
 2309SOL    HW2 7714   2.247   2.713   3.584
 2310SOL     OW 7715   3.402   2.136   1.987
 2310SOL    HW1 7716   3.341   2.061   2.010
 2310SOL    HW2 7717   3.424   2.188   2.070
 2311SOL     OW 7718   3.165   2.700   1.904
 2311SOL    HW1 7719   3.199   2.607   1.919
 2311SOL    HW2 7720   3.183   2.727   1.809
 2312SOL     OW 7721   2.930   3.195   2.711
 2312SOL    HW1 7722   2.937   3.111   2.656
 2312SOL    HW2 7723   2.992   3.264   2.675
 2313SOL     OW 7724   2.181   2.672   2.811
 2313SOL    HW1 7725   2.274   2.708   2.816
 2313SOL    HW2 7726   2.175   2.587   2.863
 2314SOL     OW 7727   2.201   2.371   2.868
 2314SOL    HW1 7728   2.149   2.288   2.851
 2314SOL    HW2 7729   2.278   2.376   2.804
 2315SOL     OW 7730   3.000   2.242   3.540
 2315SOL    HW1 7731   2.955   2.305   3.604
 2315SOL    HW2 7732   3.093   2.273   3.523
 2316SOL     OW 7733   3.022   2.069   3.339
 2316SOL    HW1 7734   3.022   2.133   3.416
 2316SOL    HW2 7735   3.050   2.117   3.256
 2317SOL     OW 7736   1.870   3.188   2.062
 2317SOL    HW1 7737   1.777   3.209   2.031
 2317SOL    HW2 7738   1.880   3.089   2.075
 2318SOL     OW 7739   1.950   3.663   2.789
 2318SOL    HW1 7740   1.908   3.577   2.762
 2318SOL    HW2 7741   2.044   3.666   2.755
 2319SOL     OW 7742   2.366   3.430   2.772
 2319SOL    HW1 7743   2.432   3.504   2.781
 2319SOL    HW2 7744   2.410   3.351   2.730
 2320SOL     OW 7745   2.864   2.658   3.100
 2320SOL    HW1 7746   2.905   2.626   3.186
 2320SOL    HW2 7747   2.768   2.631   3.097
 2321SOL     OW 7748   1.902   2.406   2.976
 2321SOL    HW1 7749   1.987   2.373   2.935
 2321SOL    HW2 7750   1.915   2.421   3.074
 2322SOL     OW 7751   2.051   2.382   3.584
 2322SOL    HW1 7752   2.110   2.342   3.514
 2322SOL    HW2 7753   1.993   2.453   3.543
 2323SOL     OW 7754   3.231   2.812   3.522
 2323SOL    HW1 7755   3.270   2.901   3.542
 2323SOL    HW2 7756   3.241   2.792   3.425
 2324SOL     OW 7757   2.677   2.434   2.187
 2324SOL    HW1 7758   2.684   2.345   2.141
 2324SOL    HW2 7759   2.583   2.468   2.179
 2325SOL     OW 7760   3.519   2.466   3.068
 2325SOL    HW1 7761   3.481   2.397   3.130
 2325SOL    HW2 7762   3.601   2.430   3.024
 2326SOL     OW 7763   2.114   3.426   3.606
 2326SOL    HW1 7764   2.084   3.483   3.682
 2326SOL    HW2 7765   2.107   3.329   3.632
 2327SOL     OW 7766   2.533   2.326   3.131
 2327SOL    HW1 7767   2.499   2.237   3.101
 2327SOL    HW2 7768   2.559   2.380   3.051
 2328SOL     OW 7769   2.792   3.540   3.327
 2328SOL    HW1 7770   2.768   3.522   3.232
 2328SOL    HW2 7771   2.822   3.634   3.337
 2329SOL     OW 7772   2.335   2.362   2.053
 2329SOL    HW1 7773   2.396   2.442   2.057
 2329SOL    HW2 7774   2.240   2.393   2.060
 2330SOL     OW 7775   2.021   2.999   3.328
 2330SOL    HW1 7776   2.043   2.938   3.404
 2330SOL    HW2 7777   2.031   2.950   3.242
 2331SOL     OW 7778   3.209   2.921   3.096
 2331SOL    HW1 7779   3.233   2.858   3.022
 2331SOL    HW2 7780   3.119   2.961   3.078
 2332SOL     OW 7781   3.164   2.717   2.171
 2332SOL    HW1 7782   3.078   2.686   2.213
 2332SOL    HW2 7783   3.160   2.703   2.072
 2333SOL     OW 7784   3.114   3.593   2.990
 2333SOL    HW1 7785   3.198   3.598   2.936
 2333SOL    HW2 7786   3.091   3.497   3.008
 2334SOL     OW 7787   1.945   3.120   2.884
 2334SOL    HW1 7788   1.940   3.119   2.984
 2334SOL    HW2 7789   1.862   3.079   2.846
 2335SOL     OW 7790   2.550   3.524   3.578
 2335SOL    HW1 7791   2.494   3.605   3.587
 2335SOL    HW2 7792   2.602   3.528   3.492
 2336SOL     OW 7793   3.588   1.997   2.385
 2336SOL    HW1 7794   3.661   1.980   2.318
 2336SOL    HW2 7795   3.557   1.910   2.423
 2337SOL     OW 7796   3.250   3.435   2.339
 2337SOL    HW1 7797   3.317   3.447   2.265
 2337SOL    HW2 7798   3.210   3.524   2.362
 2338SOL     OW 7799   1.992   3.656   3.713
 2338SOL    HW1 7800   1.951   3.582   3.766
 2338SOL    HW2 7801   2.056   3.707   3.771
 2339SOL     OW 7802   3.142   2.789   2.534
 2339SOL    HW1 7803   3.202   2.708   2.536
 2339SOL    HW2 7804   3.182   2.858   2.474
 2340SOL     OW 7805   2.692   3.135   3.284
 2340SOL    HW1 7806   2.687   3.168   3.379
 2340SOL    HW2 7807   2.606   3.154   3.238
 2341SOL     OW 7808   2.534   3.478   2.016
 2341SOL    HW1 7809   2.543   3.488   1.917
 2341SOL    HW2 7810   2.494   3.389   2.037
 2342SOL     OW 7811   3.512   3.582   3.256
 2342SOL    HW1 7812   3.565   3.592   3.172
 2342SOL    HW2 7813   3.485   3.672   3.290
 2343SOL     OW 7814   3.703   2.037   2.825
 2343SOL    HW1 7815   3.742   1.952   2.789
 2343SOL    HW2 7816   3.605   2.039   2.806
 2344SOL     OW 7817   3.056   3.474   1.893
 2344SOL    HW1 7818   3.062   3.381   1.930
 2344SOL    HW2 7819   2.997   3.474   1.813
 2345SOL     OW 7820   2.684   2.864   3.234
 2345SOL    HW1 7821   2.724   2.863   3.142
 2345SOL    HW2 7822   2.694   2.956   3.274
 2346SOL     OW 7823   2.778   2.772   2.153
 2346SOL    HW1 7824   2.841   2.810   2.085
 2346SOL    HW2 7825   2.818   2.689   2.192
 2347SOL     OW 7826   3.366   3.469   1.906
 2347SOL    HW1 7827   3.274   3.506   1.913
 2347SOL    HW2 7828   3.404   3.489   1.816
 2348SOL     OW 7829   2.234   3.150   3.352
 2348SOL    HW1 7830   2.221   3.243   3.318
 2348SOL    HW2 7831   2.150   3.098   3.339
 2349SOL     OW 7832   3.476   3.154   3.151
 2349SOL    HW1 7833   3.536   3.157   3.231
 2349SOL    HW2 7834   3.401   3.218   3.164
 2350SOL     OW 7835   2.901   2.960   2.558
 2350SOL    HW1 7836   2.831   2.913   2.612
 2350SOL    HW2 7837   2.960   2.892   2.515
 2351SOL     OW 7838   2.876   2.098   2.833
 2351SOL    HW1 7839   2.868   2.062   2.740
 2351SOL    HW2 7840   2.874   2.022   2.898
 2352SOL     OW 7841   2.452   3.349   2.353
 2352SOL    HW1 7842   2.494   3.291   2.283
 2352SOL    HW2 7843   2.408   3.428   2.309
 2353SOL     OW 7844   3.571   2.247   3.243
 2353SOL    HW1 7845   3.644   2.316   3.247
 2353SOL    HW2 7846   3.599   2.172   3.184
 2354SOL     OW 7847   2.117   3.210   2.152
 2354SOL    HW1 7848   2.021   3.211   2.125
 2354SOL    HW2 7849   2.129   3.263   2.236
 2355SOL     OW 7850   1.967   2.875   3.588
 2355SOL    HW1 7851   1.890   2.842   3.642
 2355SOL    HW2 7852   2.052   2.845   3.630
 2356SOL     OW 7853   2.534   2.065   3.351
 2356SOL    HW1 7854   2.624   2.049   3.311
 2356SOL    HW2 7855   2.542   2.070   3.450
 2357SOL     OW 7856   1.937   2.207   1.895
 2357SOL    HW1 7857   1.845   2.179   1.866
 2357SOL    HW2 7858   1.968   2.284   1.839
 2358SOL     OW 7859   3.302   2.718   3.260
 2358SOL    HW1 7860   3.245   2.770   3.197
 2358SOL    HW2 7861   3.398   2.730   3.236
 2359SOL     OW 7862   1.934   2.028   2.180
 2359SOL    HW1 7863   1.917   2.111   2.126
 2359SOL    HW2 7864   2.024   1.991   2.158
 2360SOL     OW 7865   3.045   3.197   1.981
 2360SOL    HW1 7866   2.946   3.186   1.983
 2360SOL    HW2 7867   3.079   3.212   2.074
 2361SOL     OW 7868   2.475   2.704   3.293
 2361SOL    HW1 7869   2.531   2.785   3.276
 2361SOL    HW2 7870   2.534   2.624   3.296
 2362SOL     OW 7871   3.355   3.629   2.821
 2362SOL    HW1 7872   3.388   3.693   2.752
 2362SOL    HW2 7873   3.421   3.623   2.896
 2363SOL     OW 7874   2.578   2.427   3.570
 2363SOL    HW1 7875   2.597   2.492   3.644
 2363SOL    HW2 7876   2.638   2.347   3.579
 2364SOL     OW 7877   3.312   3.082   3.495
 2364SOL    HW1 7878   3.303   3.072   3.594
 2364SOL    HW2 7879   3.408   3.075   3.469
 2365SOL     OW 7880   2.252   3.603   3.422
 2365SOL    HW1 7881   2.161   3.644   3.420
 2365SOL    HW2 7882   2.245   3.509   3.454
 2366SOL     OW 7883   3.536   2.745   3.116
 2366SOL    HW1 7884   3.509   2.656   3.079
 2366SOL    HW2 7885   3.537   2.813   3.043
 2367SOL     OW 7886   3.087   2.187   2.311
 2367SOL    HW1 7887   3.152   2.113   2.300
 2367SOL    HW2 7888   3.107   2.237   2.395
 2368SOL     OW 7889   3.639   2.204   3.504
 2368SOL    HW1 7890   3.622   2.235   3.410
 2368SOL    HW2 7891   3.555   2.167   3.542
 2369SOL     OW 7892   3.592   2.796   3.379
 2369SOL    HW1 7893   3.630   2.887   3.394
 2369SOL    HW2 7894   3.584   2.779   3.280
 2370SOL     OW 7895   2.721   3.236   1.878
 2370SOL    HW1 7896   2.675   3.251   1.966
 2370SOL    HW2 7897   2.765   3.321   1.848
 2371SOL     OW 7898   2.523   3.652   2.815
 2371SOL    HW1 7899   2.477   3.740   2.802
 2371SOL    HW2 7900   2.622   3.664   2.808
 2372SOL     OW 7901   2.945   2.846   1.949
 2372SOL    HW1 7902   2.922   2.899   1.867
 2372SOL    HW2 7903   3.026   2.790   1.930
 2373SOL     OW 7904   2.083   3.176   3.706
 2373SOL    HW1 7905   2.018   3.103   3.685
 2373SOL    HW2 7906   2.087   3.190   3.804
 2374SOL     OW 7907   1.941   3.102   2.515
 2374SOL    HW1 7908   1.940   3.055   2.603
 2374SOL    HW2 7909   2.023   3.074   2.464
 2375SOL     OW 7910   2.534   3.253   3.486
 2375SOL    HW1 7911   2.456   3.203   3.524
 2375SOL    HW2 7912   2.531   3.348   3.517
 2376SOL     OW 7913   3.686   2.054   3.089
 2376SOL    HW1 7914   3.682   1.964   3.133
 2376SOL    HW2 7915   3.689   2.043   2.990
 2377SOL     OW 7916   3.567   3.349   2.966
 2377SOL    HW1 7917   3.474   3.324   2.939
 2377SOL    HW2 7918   3.593   3.299   3.048
 2378SOL     OW 7919   2.179   2.409   3.142
 2378SOL    HW1 7920   2.217   2.350   3.214
 2378SOL    HW2 7921   2.219   2.383   3.054
 2379SOL     OW 7922   2.674   3.448   2.549
 2379SOL    HW1 7923   2.706   3.458   2.455
 2379SOL    HW2 7924   2.595   3.386   2.551
 2380SOL     OW 7925   3.286   2.076   2.974
 2380SOL    HW1 7926   3.338   2.011   3.029
 2380SOL    HW2 7927   3.237   2.139   3.035
 2381SOL     OW 7928   2.863   1.896   3.016
 2381SOL    HW1 7929   2.800   1.824   2.985
 2381SOL    HW2 7930   2.956   1.860   3.016
 2382SOL     OW 7931   2.632   3.192   2.163
 2382SOL    HW1 7932   2.586   3.105   2.180
 2382SOL    HW2 7933   2.723   3.189   2.204
 2383SOL     OW 7934   2.480   3.429   3.146
 2383SOL    HW1 7935   2.475   3.511   3.203
 2383SOL    HW2 7936   2.569   3.426   3.101
 2384SOL     OW 7937   3.214   1.914   2.030
 2384SOL    HW1 7938   3.249   1.873   1.946
 2384SOL    HW2 7939   3.124   1.876   2.050
 2385SOL     OW 7940   3.455   2.083   2.744
 2385SOL    HW1 7941   3.371   2.082   2.798
 2385SOL    HW2 7942   3.457   2.166   2.688
 2386SOL     OW 7943   1.901   2.939   2.162
 2386SOL    HW1 7944   2.000   2.928   2.153
 2386SOL    HW2 7945   1.861   2.853   2.194
 2387SOL     OW 7946   2.737   3.508   2.199
 2387SOL    HW1 7947   2.660   3.473   2.145
 2387SOL    HW2 7948   2.705   3.579   2.261
 2388SOL     OW 7949   2.092   2.490   3.837
 2388SOL    HW1 7950   1.999   2.488   3.874
 2388SOL    HW2 7951   2.093   2.451   3.745
 2389SOL     OW 7952   2.087   2.137   4.720
 2389SOL    HW1 7953   2.122   2.120   4.812
 2389SOL    HW2 7954   1.999   2.092   4.708
 2390SOL     OW 7955   1.881   2.230   4.371
 2390SOL    HW1 7956   1.799   2.273   4.410
 2390SOL    HW2 7957   1.853   2.157   4.308
 2391SOL     OW 7958   2.997   2.565   4.441
 2391SOL    HW1 7959   3.054   2.643   4.416
 2391SOL    HW2 7960   2.937   2.591   4.517
 2392SOL     OW 7961   3.617   2.469   3.955
 2392SOL    HW1 7962   3.605   2.456   3.856
 2392SOL    HW2 7963   3.587   2.388   4.004
 2393SOL     OW 7964   2.630   3.006   4.747
 2393SOL    HW1 7965   2.552   3.023   4.807
 2393SOL    HW2 7966   2.664   3.093   4.711
 2394SOL     OW 7967   2.547   2.874   4.389
 2394SOL    HW1 7968   2.616   2.858   4.459
 2394SOL    HW2 7969   2.474   2.931   4.427
 2395SOL     OW 7970   3.465   2.309   4.461
 2395SOL    HW1 7971   3.391   2.355   4.411
 2395SOL    HW2 7972   3.516   2.377   4.514
 2396SOL     OW 7973   2.093   3.575   4.207
 2396SOL    HW1 7974   2.127   3.652   4.261
 2396SOL    HW2 7975   2.137   3.575   4.117
 2397SOL     OW 7976   2.092   3.296   4.262
 2397SOL    HW1 7977   2.066   3.392   4.262
 2397SOL    HW2 7978   2.021   3.242   4.307
 2398SOL     OW 7979   2.102   2.953   4.610
 2398SOL    HW1 7980   2.116   2.869   4.662
 2398SOL    HW2 7981   2.047   3.017   4.665
 2399SOL     OW 7982   2.482   3.648   5.163
 2399SOL    HW1 7983   2.390   3.631   5.198
 2399SOL    HW2 7984   2.510   3.740   5.189
 2400SOL     OW 7985   2.468   2.826   3.847
 2400SOL    HW1 7986   2.475   2.910   3.793
 2400SOL    HW2 7987   2.514   2.839   3.935
 2401SOL     OW 7988   3.704   3.629   4.083
 2401SOL    HW1 7989   3.758   3.600   4.163
 2401SOL    HW2 7990   3.734   3.719   4.054
 2402SOL     OW 7991   1.889   3.458   3.841
 2402SOL    HW1 7992   1.870   3.362   3.862
 2402SOL    HW2 7993   1.856   3.516   3.916
 2403SOL     OW 7994   3.551   2.784   4.336
 2403SOL    HW1 7995   3.646   2.755   4.344
 2403SOL    HW2 7996   3.543   2.849   4.261
 2404SOL     OW 7997   3.503   2.970   4.156
 2404SOL    HW1 7998   3.589   2.972   4.104
 2404SOL    HW2 7999   3.517   3.017   4.244
 2405SOL     OW 8000   2.475   3.227   4.450
 2405SOL    HW1 8001   2.426   3.140   4.459
 2405SOL    HW2 8002   2.452   3.270   4.363
 2406SOL     OW 8003   2.059   2.838   4.988
 2406SOL    HW1 8004   2.148   2.793   4.974
 2406SOL    HW2 8005   1.986   2.773   4.969
 2407SOL     OW 8006   3.387   2.861   3.914
 2407SOL    HW1 8007   3.324   2.785   3.927
 2407SOL    HW2 8008   3.435   2.879   4.000
 2408SOL     OW 8009   3.529   3.576   4.296
 2408SOL    HW1 8010   3.488   3.553   4.208
 2408SOL    HW2 8011   3.511   3.502   4.361
 2409SOL     OW 8012   2.460   2.591   3.994
 2409SOL    HW1 8013   2.484   2.660   3.926
 2409SOL    HW2 8014   2.382   2.624   4.048
 2410SOL     OW 8015   3.143   2.207   4.668
 2410SOL    HW1 8016   3.057   2.157   4.655
 2410SOL    HW2 8017   3.205   2.153   4.724
 2411SOL     OW 8018   3.438   3.524   4.031
 2411SOL    HW1 8019   3.527   3.570   4.034
 2411SOL    HW2 8020   3.417   3.500   3.936
 2412SOL     OW 8021   2.853   2.272   4.966
 2412SOL    HW1 8022   2.776   2.306   5.020
 2412SOL    HW2 8023   2.819   2.221   4.887
 2413SOL     OW 8024   2.903   2.563   4.153
 2413SOL    HW1 8025   2.929   2.559   4.249
 2413SOL    HW2 8026   2.818   2.512   4.139
 2414SOL     OW 8027   2.727   2.210   3.919
 2414SOL    HW1 8028   2.786   2.273   3.870
 2414SOL    HW2 8029   2.746   2.116   3.890
 2415SOL     OW 8030   2.412   2.058   4.609
 2415SOL    HW1 8031   2.407   2.053   4.709
 2415SOL    HW2 8032   2.414   2.154   4.580
 2416SOL     OW 8033   2.870   3.318   4.201
 2416SOL    HW1 8034   2.824   3.390   4.149
 2416SOL    HW2 8035   2.866   3.338   4.299
 2417SOL     OW 8036   3.657   2.928   4.597
 2417SOL    HW1 8037   3.595   2.913   4.521
 2417SOL    HW2 8038   3.605   2.939   4.682
 2418SOL     OW 8039   2.183   2.805   3.966
 2418SOL    HW1 8040   2.265   2.844   3.924
 2418SOL    HW2 8041   2.156   2.723   3.917
 2419SOL     OW 8042   3.320   2.597   4.452
 2419SOL    HW1 8043   3.315   2.532   4.527
 2419SOL    HW2 8044   3.400   2.656   4.465
 2420SOL     OW 8045   2.973   3.638   3.961
 2420SOL    HW1 8046   2.913   3.576   4.011
 2420SOL    HW2 8047   3.004   3.594   3.876
 2421SOL     OW 8048   3.494   3.239   3.805
 2421SOL    HW1 8049   3.462   3.333   3.795
 2421SOL    HW2 8050   3.418   3.176   3.793
 2422SOL     OW 8051   3.262   1.969   4.150
 2422SOL    HW1 8052   3.238   1.932   4.060
 2422SOL    HW2 8053   3.361   1.985   4.154
 2423SOL     OW 8054   2.802   3.560   4.628
 2423SOL    HW1 8055   2.882   3.503   4.649
 2423SOL    HW2 8056   2.753   3.520   4.551
 2424SOL     OW 8057   2.476   1.984   3.841
 2424SOL    HW1 8058   2.574   1.962   3.848
 2424SOL    HW2 8059   2.445   1.967   3.748
 2425SOL     OW 8060   2.784   2.365   4.623
 2425SOL    HW1 8061   2.759   2.356   4.527
 2425SOL    HW2 8062   2.832   2.283   4.654
 2426SOL     OW 8063   3.296   3.050   3.765
 2426SOL    HW1 8064   3.328   2.974   3.822
 2426SOL    HW2 8065   3.204   3.077   3.795
 2427SOL     OW 8066   2.159   1.897   3.895
 2427SOL    HW1 8067   2.208   1.981   3.874
 2427SOL    HW2 8068   2.221   1.832   3.940
 2428SOL     OW 8069   2.321   3.014   4.465
 2428SOL    HW1 8070   2.250   2.987   4.530
 2428SOL    HW2 8071   2.295   2.986   4.372
 2429SOL     OW 8072   3.133   3.659   4.315
 2429SOL    HW1 8073   3.177   3.723   4.251
 2429SOL    HW2 8074   3.083   3.711   4.385
 2430SOL     OW 8075   2.894   2.411   3.740
 2430SOL    HW1 8076   2.853   2.493   3.701
 2430SOL    HW2 8077   2.958   2.437   3.813
 2431SOL     OW 8078   2.423   2.084   4.871
 2431SOL    HW1 8079   2.461   2.000   4.908
 2431SOL    HW2 8080   2.335   2.103   4.915
 2432SOL     OW 8081   2.728   2.316   4.366
 2432SOL    HW1 8082   2.696   2.388   4.304
 2432SOL    HW2 8083   2.752   2.235   4.313
 2433SOL     OW 8084   2.879   1.901   4.477
 2433SOL    HW1 8085   2.807   1.906   4.408
 2433SOL    HW2 8086   2.855   1.832   4.546
 2434SOL     OW 8087   3.328   2.452   4.716
 2434SOL    HW1 8088   3.298   2.357   4.723
 2434SOL    HW2 8089   3.401   2.468   4.782
 2435SOL     OW 8090   3.719   2.695   4.101
 2435SOL    HW1 8091   3.761   2.631   4.165
 2435SOL    HW2 8092   3.681   2.644   4.023
 2436SOL     OW 8093   2.350   3.247   3.898
 2436SOL    HW1 8094   2.263   3.232   3.945
 2436SOL    HW2 8095   2.333   3.273   3.803
 2437SOL     OW 8096   3.252   2.437   3.802
 2437SOL    HW1 8097   3.198   2.416   3.883
 2437SOL    HW2 8098   3.343   2.396   3.811
 2438SOL     OW 8099   2.973   3.057   4.824
 2438SOL    HW1 8100   2.933   3.101   4.905
 2438SOL    HW2 8101   2.932   3.094   4.741
 2439SOL     OW 8102   2.567   2.912   4.092
 2439SOL    HW1 8103   2.553   2.919   4.191
 2439SOL    HW2 8104   2.651   2.861   4.074
 2440SOL     OW 8105   2.272   2.675   4.975
 2440SOL    HW1 8106   2.358   2.687   5.025
 2440SOL    HW2 8107   2.230   2.588   5.002
 2441SOL     OW 8108   3.136   2.248   4.986
 2441SOL    HW1 8109   3.157   2.322   5.050
 2441SOL    HW2 8110   3.047   2.265   4.943
 2442SOL     OW 8111   2.229   2.962   4.225
 2442SOL    HW1 8112   2.222   3.045   4.169
 2442SOL    HW2 8113   2.233   2.882   4.165
 2443SOL     OW 8114   3.114   3.210   4.112
 2443SOL    HW1 8115   3.164   3.287   4.152
 2443SOL    HW2 8116   3.019   3.212   4.144
 2444SOL     OW 8117   3.134   3.307   4.866
 2444SOL    HW1 8118   3.181   3.320   4.953
 2444SOL    HW2 8119   3.068   3.233   4.875
 2445SOL     OW 8120   3.444   2.501   4.196
 2445SOL    HW1 8121   3.413   2.562   4.269
 2445SOL    HW2 8122   3.494   2.553   4.127
 2446SOL     OW 8123   2.435   2.732   4.753
 2446SOL    HW1 8124   2.479   2.821   4.744
 2446SOL    HW2 8125   2.372   2.732   4.830
 2447SOL     OW 8126   3.071   2.387   3.999
 2447SOL    HW1 8127   3.084   2.303   4.053
 2447SOL    HW2 8128   3.042   2.461   4.059
 2448SOL     OW 8129   2.169   2.075   4.955
 2448SOL    HW1 8130   2.146   2.112   5.045
 2448SOL    HW2 8131   2.139   1.980   4.949
 2449SOL     OW 8132   1.899   3.172   5.006
 2449SOL    HW1 8133   1.952   3.123   5.074
 2449SOL    HW2 8134   1.921   3.270   5.011
 2450SOL     OW 8135   2.594   2.496   4.788
 2450SOL    HW1 8136   2.653   2.470   4.712
 2450SOL    HW2 8137   2.566   2.592   4.777
 2451SOL     OW 8138   2.169   1.925   4.342
 2451SOL    HW1 8139   2.158   2.019   4.375
 2451SOL    HW2 8140   2.164   1.862   4.419
 2452SOL     OW 8141   3.484   2.229   4.098
 2452SOL    HW1 8142   3.486   2.153   4.162
 2452SOL    HW2 8143   3.436   2.306   4.138
 2453SOL     OW 8144   2.885   2.628   4.690
 2453SOL    HW1 8145   2.900   2.649   4.786
 2453SOL    HW2 8146   2.855   2.533   4.681
 2454SOL     OW 8147   3.402   2.136   3.849
 2454SOL    HW1 8148   3.341   2.061   3.872
 2454SOL    HW2 8149   3.424   2.188   3.932
 2455SOL     OW 8150   3.165   2.700   3.766
 2455SOL    HW1 8151   3.199   2.607   3.781
 2455SOL    HW2 8152   3.183   2.727   3.671
 2456SOL     OW 8153   2.930   3.195   4.573
 2456SOL    HW1 8154   2.937   3.111   4.518
 2456SOL    HW2 8155   2.992   3.264   4.537
 2457SOL     OW 8156   2.201   2.371   4.730
 2457SOL    HW1 8157   2.149   2.288   4.713
 2457SOL    HW2 8158   2.278   2.376   4.666
 2458SOL     OW 8159   3.022   2.069   5.201
 2458SOL    HW1 8160   3.022   2.133   5.278
 2458SOL    HW2 8161   3.050   2.117   5.118
 2459SOL     OW 8162   1.870   3.188   3.924
 2459SOL    HW1 8163   1.777   3.209   3.893
 2459SOL    HW2 8164   1.880   3.089   3.937
 2460SOL     OW 8165   1.950   3.663   4.651
 2460SOL    HW1 8166   1.908   3.577   4.624
 2460SOL    HW2 8167   2.044   3.666   4.617
 2461SOL     OW 8168   2.864   2.658   4.962
 2461SOL    HW1 8169   2.905   2.626   5.048
 2461SOL    HW2 8170   2.768   2.631   4.959
 2462SOL     OW 8171   1.902   2.406   4.838
 2462SOL    HW1 8172   1.987   2.373   4.797
 2462SOL    HW2 8173   1.915   2.421   4.936
 2463SOL     OW 8174   2.677   2.434   4.049
 2463SOL    HW1 8175   2.684   2.345   4.003
 2463SOL    HW2 8176   2.583   2.468   4.041
 2464SOL     OW 8177   3.519   2.466   4.930
 2464SOL    HW1 8178   3.481   2.397   4.992
 2464SOL    HW2 8179   3.601   2.430   4.886
 2465SOL     OW 8180   2.533   2.326   4.993
 2465SOL    HW1 8181   2.499   2.237   4.963
 2465SOL    HW2 8182   2.559   2.380   4.913
 2466SOL     OW 8183   2.792   3.540   5.189
 2466SOL    HW1 8184   2.768   3.522   5.094
 2466SOL    HW2 8185   2.822   3.634   5.199
 2467SOL     OW 8186   3.164   2.717   4.033
 2467SOL    HW1 8187   3.078   2.686   4.075
 2467SOL    HW2 8188   3.160   2.703   3.934
 2468SOL     OW 8189   3.114   3.593   4.852
 2468SOL    HW1 8190   3.198   3.598   4.798
 2468SOL    HW2 8191   3.091   3.497   4.870
 2469SOL     OW 8192   1.945   3.120   4.746
 2469SOL    HW1 8193   1.940   3.119   4.846
 2469SOL    HW2 8194   1.862   3.079   4.708
 2470SOL     OW 8195   3.588   1.997   4.247
 2470SOL    HW1 8196   3.661   1.980   4.180
 2470SOL    HW2 8197   3.557   1.910   4.285
 2471SOL     OW 8198   3.250   3.435   4.201
 2471SOL    HW1 8199   3.317   3.447   4.127
 2471SOL    HW2 8200   3.210   3.524   4.224
 2472SOL     OW 8201   2.534   3.478   3.878
 2472SOL    HW1 8202   2.543   3.488   3.779
 2472SOL    HW2 8203   2.494   3.389   3.899
 2473SOL     OW 8204   3.703   2.037   4.687
 2473SOL    HW1 8205   3.742   1.952   4.651
 2473SOL    HW2 8206   3.605   2.039   4.668
 2474SOL     OW 8207   2.125   2.188   4.444
 2474SOL    HW1 8208   2.046   2.239   4.410
 2474SOL    HW2 8209   2.116   2.173   4.542
 2475SOL     OW 8210   3.056   3.474   3.755
 2475SOL    HW1 8211   3.062   3.381   3.792
 2475SOL    HW2 8212   2.997   3.474   3.675
 2476SOL     OW 8213   2.684   2.864   5.096
 2476SOL    HW1 8214   2.724   2.863   5.004
 2476SOL    HW2 8215   2.694   2.956   5.136
 2477SOL     OW 8216   2.778   2.772   4.015
 2477SOL    HW1 8217   2.841   2.810   3.947
 2477SOL    HW2 8218   2.818   2.689   4.054
 2478SOL     OW 8219   3.366   3.469   3.768
 2478SOL    HW1 8220   3.274   3.506   3.775
 2478SOL    HW2 8221   3.404   3.489   3.678
 2479SOL     OW 8222   2.901   2.960   4.420
 2479SOL    HW1 8223   2.831   2.913   4.474
 2479SOL    HW2 8224   2.960   2.892   4.377
 2480SOL     OW 8225   2.876   2.098   4.695
 2480SOL    HW1 8226   2.868   2.062   4.602
 2480SOL    HW2 8227   2.874   2.022   4.760
 2481SOL     OW 8228   2.452   3.349   4.215
 2481SOL    HW1 8229   2.494   3.291   4.145
 2481SOL    HW2 8230   2.408   3.428   4.171
 2482SOL     OW 8231   3.571   2.247   5.105
 2482SOL    HW1 8232   3.644   2.316   5.109
 2482SOL    HW2 8233   3.599   2.172   5.046
 2483SOL     OW 8234   2.117   3.210   4.014
 2483SOL    HW1 8235   2.021   3.211   3.987
 2483SOL    HW2 8236   2.129   3.263   4.098
 2484SOL     OW 8237   1.937   2.207   3.757
 2484SOL    HW1 8238   1.845   2.179   3.728
 2484SOL    HW2 8239   1.968   2.284   3.701
 2485SOL     OW 8240   3.045   3.197   3.843
 2485SOL    HW1 8241   2.946   3.186   3.845
 2485SOL    HW2 8242   3.079   3.212   3.936
 2486SOL     OW 8243   3.355   3.629   4.683
 2486SOL    HW1 8244   3.388   3.693   4.614
 2486SOL    HW2 8245   3.421   3.623   4.758
 2487SOL     OW 8246   3.312   3.082   5.357
 2487SOL    HW1 8247   3.303   3.072   5.456
 2487SOL    HW2 8248   3.408   3.075   5.331
 2488SOL     OW 8249   3.536   2.745   4.978
 2488SOL    HW1 8250   3.509   2.656   4.941
 2488SOL    HW2 8251   3.537   2.813   4.905
 2489SOL     OW 8252   3.087   2.187   4.173
 2489SOL    HW1 8253   3.152   2.113   4.162
 2489SOL    HW2 8254   3.107   2.237   4.257
 2490SOL     OW 8255   2.456   2.607   4.376
 2490SOL    HW1 8256   2.506   2.692   4.357
 2490SOL    HW2 8257   2.368   2.609   4.328
 2491SOL     OW 8258   3.592   2.796   5.241
 2491SOL    HW1 8259   3.630   2.887   5.256
 2491SOL    HW2 8260   3.584   2.779   5.142
 2492SOL     OW 8261   2.721   3.236   3.740
 2492SOL    HW1 8262   2.675   3.251   3.828
 2492SOL    HW2 8263   2.765   3.321   3.710
 2493SOL     OW 8264   2.721   2.818   4.585
 2493SOL    HW1 8265   2.775   2.749   4.633
 2493SOL    HW2 8266   2.689   2.887   4.651
 2494SOL     OW 8267   2.945   2.846   3.811
 2494SOL    HW1 8268   2.922   2.899   3.729
 2494SOL    HW2 8269   3.026   2.790   3.792
 2495SOL     OW 8270   3.723   3.431   4.575
 2495SOL    HW1 8271   3.652   3.419   4.505
 2495SOL    HW2 8272   3.724   3.352   4.635
 2496SOL     OW 8273   1.941   3.102   4.377
 2496SOL    HW1 8274   1.940   3.055   4.465
 2496SOL    HW2 8275   2.023   3.074   4.326
 2497SOL     OW 8276   3.686   2.054   4.951
 2497SOL    HW1 8277   3.682   1.964   4.995
 2497SOL    HW2 8278   3.689   2.043   4.852
 2498SOL     OW 8279   2.674   3.448   4.411
 2498SOL    HW1 8280   2.706   3.458   4.317
 2498SOL    HW2 8281   2.595   3.386   4.413
 2499SOL     OW 8282   3.286   2.076   4.836
 2499SOL    HW1 8283   3.338   2.011   4.891
 2499SOL    HW2 8284   3.237   2.139   4.897
 2500SOL     OW 8285   2.863   1.896   4.878
 2500SOL    HW1 8286   2.800   1.824   4.847
 2500SOL    HW2 8287   2.956   1.860   4.878
 2501SOL     OW 8288   2.632   3.192   4.025
 2501SOL    HW1 8289   2.586   3.105   4.042
 2501SOL    HW2 8290   2.723   3.189   4.066
 2502SOL     OW 8291   3.214   1.914   3.892
 2502SOL    HW1 8292   3.249   1.873   3.808
 2502SOL    HW2 8293   3.124   1.876   3.912
 2503SOL     OW 8294   3.162   2.315   4.415
 2503SOL    HW1 8295   3.103   2.395   4.419
 2503SOL    HW2 8296   3.177   2.280   4.508
 2504SOL     OW 8297   3.455   2.083   4.606
 2504SOL    HW1 8298   3.371   2.082   4.660
 2504SOL    HW2 8299   3.457   2.166   4.550
 2505SOL     OW 8300   1.901   2.939   4.024
 2505SOL    HW1 8301   2.000   2.928   4.015
 2505SOL    HW2 8302   1.861   2.853   4.056
 2506SOL     OW 8303   2.737   3.508   4.061
 2506SOL    HW1 8304   2.660   3.473   4.007
 2506SOL    HW2 8305   2.705   3.579   4.123
 2507SOL     OW 8306   2.092   4.352   0.113
 2507SOL    HW1 8307   1.999   4.350   0.150
 2507SOL    HW2 8308   2.093   4.313   0.021
 2508SOL     OW 8309   2.087   3.999   0.996
 2508SOL    HW1 8310   2.122   3.982   1.088
 2508SOL    HW2 8311   1.999   3.954   0.984
 2509SOL     OW 8312   1.881   4.092   0.647
 2509SOL    HW1 8313   1.799   4.135   0.686
 2509SOL    HW2 8314   1.853   4.019   0.584
 2510SOL     OW 8315   2.431   4.999   1.165
 2510SOL    HW1 8316   2.338   4.992   1.128
 2510SOL    HW2 8317   2.442   5.088   1.209
 2511SOL     OW 8318   3.417   5.235   0.703
 2511SOL    HW1 8319   3.360   5.219   0.784
 2511SOL    HW2 8320   3.358   5.245   0.623
 2512SOL     OW 8321   2.997   4.427   0.717
 2512SOL    HW1 8322   3.054   4.505   0.692
 2512SOL    HW2 8323   2.937   4.453   0.793
 2513SOL     OW 8324   3.617   4.331   0.231
 2513SOL    HW1 8325   3.605   4.318   0.132
 2513SOL    HW2 8326   3.587   4.250   0.280
 2514SOL     OW 8327   2.630   4.868   1.023
 2514SOL    HW1 8328   2.552   4.885   1.083
 2514SOL    HW2 8329   2.664   4.955   0.987
 2515SOL     OW 8330   2.712   4.522   1.823
 2515SOL    HW1 8331   2.708   4.598   1.888
 2515SOL    HW2 8332   2.734   4.558   1.732
 2516SOL     OW 8333   2.547   4.736   0.665
 2516SOL    HW1 8334   2.616   4.720   0.735
 2516SOL    HW2 8335   2.474   4.793   0.703
 2517SOL     OW 8336   2.548   4.885   1.803
 2517SOL    HW1 8337   2.608   4.964   1.817
 2517SOL    HW2 8338   2.462   4.916   1.762
 2518SOL     OW 8339   2.197   5.159   1.061
 2518SOL    HW1 8340   2.119   5.128   1.008
 2518SOL    HW2 8341   2.255   5.217   1.004
 2519SOL     OW 8342   2.300   4.116   1.499
 2519SOL    HW1 8343   2.382   4.060   1.508
 2519SOL    HW2 8344   2.219   4.058   1.503
 2520SOL     OW 8345   3.465   4.171   0.737
 2520SOL    HW1 8346   3.391   4.217   0.687
 2520SOL    HW2 8347   3.516   4.239   0.790
 2521SOL     OW 8348   2.468   4.688   0.123
 2521SOL    HW1 8349   2.475   4.772   0.069
 2521SOL    HW2 8350   2.514   4.701   0.211
 2522SOL     OW 8351   3.456   3.838   1.480
 2522SOL    HW1 8352   3.438   3.905   1.408
 2522SOL    HW2 8353   3.453   3.884   1.569
 2523SOL     OW 8354   1.984   4.367   0.563
 2523SOL    HW1 8355   1.939   4.279   0.580
 2523SOL    HW2 8356   1.983   4.421   0.647
 2524SOL     OW 8357   3.551   4.646   0.612
 2524SOL    HW1 8358   3.646   4.617   0.620
 2524SOL    HW2 8359   3.543   4.711   0.537
 2525SOL     OW 8360   3.503   4.832   0.432
 2525SOL    HW1 8361   3.589   4.834   0.380
 2525SOL    HW2 8362   3.517   4.879   0.520
 2526SOL     OW 8363   1.975   4.461   1.597
 2526SOL    HW1 8364   2.063   4.448   1.642
 2526SOL    HW2 8365   1.962   4.558   1.575
 2527SOL     OW 8366   3.155   4.952   1.423
 2527SOL    HW1 8367   3.192   4.879   1.365
 2527SOL    HW2 8368   3.207   4.957   1.508
 2528SOL     OW 8369   2.671   3.728   0.502
 2528SOL    HW1 8370   2.711   3.819   0.493
 2528SOL    HW2 8371   2.571   3.736   0.508
 2529SOL     OW 8372   3.387   4.723   0.190
 2529SOL    HW1 8373   3.324   4.647   0.203
 2529SOL    HW2 8374   3.435   4.741   0.276
 2530SOL     OW 8375   2.179   3.975   1.801
 2530SOL    HW1 8376   2.250   4.046   1.807
 2530SOL    HW2 8377   2.091   4.014   1.829
 2531SOL     OW 8378   3.328   5.141   0.953
 2531SOL    HW1 8379   3.269   5.147   1.033
 2531SOL    HW2 8380   3.313   5.053   0.907
 2532SOL     OW 8381   2.460   4.453   0.270
 2532SOL    HW1 8382   2.484   4.522   0.202
 2532SOL    HW2 8383   2.382   4.486   0.324
 2533SOL     OW 8384   3.143   4.069   0.944
 2533SOL    HW1 8385   3.057   4.019   0.931
 2533SOL    HW2 8386   3.205   4.015   1.000
 2534SOL     OW 8387   2.669   4.329   1.465
 2534SOL    HW1 8388   2.622   4.326   1.554
 2534SOL    HW2 8389   2.618   4.274   1.399
 2535SOL     OW 8390   3.256   4.193   1.674
 2535SOL    HW1 8391   3.236   4.236   1.762
 2535SOL    HW2 8392   3.334   4.131   1.683
 2536SOL     OW 8393   2.835   4.614   1.572
 2536SOL    HW1 8394   2.881   4.530   1.543
 2536SOL    HW2 8395   2.779   4.648   1.497
 2537SOL     OW 8396   2.853   4.134   1.242
 2537SOL    HW1 8397   2.776   4.168   1.296
 2537SOL    HW2 8398   2.819   4.083   1.163
 2538SOL     OW 8399   2.903   4.425   0.429
 2538SOL    HW1 8400   2.929   4.421   0.525
 2538SOL    HW2 8401   2.818   4.374   0.415
 2539SOL     OW 8402   1.938   4.535   0.789
 2539SOL    HW1 8403   2.037   4.523   0.798
 2539SOL    HW2 8404   1.914   4.630   0.810
 2540SOL     OW 8405   2.727   4.072   0.195
 2540SOL    HW1 8406   2.786   4.135   0.146
 2540SOL    HW2 8407   2.746   3.978   0.166
 2541SOL     OW 8408   3.581   4.309   1.831
 2541SOL    HW1 8409   3.555   4.398   1.795
 2541SOL    HW2 8410   3.579   4.241   1.758
 2542SOL     OW 8411   3.224   4.868   0.545
 2542SOL    HW1 8412   3.307   4.839   0.497
 2542SOL    HW2 8413   3.175   4.935   0.489
 2543SOL     OW 8414   2.412   3.920   0.885
 2543SOL    HW1 8415   2.407   3.915   0.985
 2543SOL    HW2 8416   2.414   4.016   0.856
 2544SOL     OW 8417   3.657   4.790   0.873
 2544SOL    HW1 8418   3.595   4.775   0.797
 2544SOL    HW2 8419   3.605   4.801   0.958
 2545SOL     OW 8420   2.183   4.667   0.242
 2545SOL    HW1 8421   2.265   4.706   0.200
 2545SOL    HW2 8422   2.156   4.585   0.193
 2546SOL     OW 8423   3.320   4.459   0.728
 2546SOL    HW1 8424   3.315   4.394   0.803
 2546SOL    HW2 8425   3.400   4.518   0.741
 2547SOL     OW 8426   2.064   4.009   1.498
 2547SOL    HW1 8427   1.984   4.069   1.485
 2547SOL    HW2 8428   2.054   3.960   1.584
 2548SOL     OW 8429   3.494   5.101   0.081
 2548SOL    HW1 8430   3.462   5.195   0.071
 2548SOL    HW2 8431   3.418   5.038   0.069
 2549SOL     OW 8432   3.262   3.831   0.426
 2549SOL    HW1 8433   3.238   3.794   0.336
 2549SOL    HW2 8434   3.361   3.847   0.430
 2550SOL     OW 8435   2.244   4.424   0.480
 2550SOL    HW1 8436   2.289   4.334   0.477
 2550SOL    HW2 8437   2.150   4.413   0.513
 2551SOL     OW 8438   3.409   3.946   1.729
 2551SOL    HW1 8439   3.404   3.983   1.821
 2551SOL    HW2 8440   3.337   3.877   1.717
 2552SOL     OW 8441   2.643   3.988   1.749
 2552SOL    HW1 8442   2.710   3.927   1.792
 2552SOL    HW2 8443   2.570   4.007   1.814
 2553SOL     OW 8444   3.213   4.314   1.433
 2553SOL    HW1 8445   3.241   4.271   1.518
 2553SOL    HW2 8446   3.238   4.410   1.434
 2554SOL     OW 8447   2.665   5.126   0.924
 2554SOL    HW1 8448   2.755   5.140   0.882
 2554SOL    HW2 8449   2.594   5.128   0.853
 2555SOL     OW 8450   2.784   4.227   0.899
 2555SOL    HW1 8451   2.759   4.218   0.803
 2555SOL    HW2 8452   2.832   4.145   0.930
 2556SOL     OW 8453   2.401   3.788   0.512
 2556SOL    HW1 8454   2.320   3.789   0.570
 2556SOL    HW2 8455   2.404   3.871   0.457
 2557SOL     OW 8456   3.296   4.912   0.041
 2557SOL    HW1 8457   3.328   4.836   0.098
 2557SOL    HW2 8458   3.204   4.939   0.071
 2558SOL     OW 8459   2.159   3.759   0.171
 2558SOL    HW1 8460   2.208   3.843   0.150
 2558SOL    HW2 8461   2.221   3.694   0.216
 2559SOL     OW 8462   2.797   3.960   0.480
 2559SOL    HW1 8463   2.749   4.001   0.402
 2559SOL    HW2 8464   2.896   3.958   0.461
 2560SOL     OW 8465   2.938   4.407   1.464
 2560SOL    HW1 8466   2.858   4.346   1.467
 2560SOL    HW2 8467   3.019   4.354   1.440
 2561SOL     OW 8468   3.089   5.294   0.793
 2561SOL    HW1 8469   3.110   5.368   0.728
 2561SOL    HW2 8470   3.157   5.294   0.866
 2562SOL     OW 8471   2.321   4.876   0.741
 2562SOL    HW1 8472   2.250   4.849   0.806
 2562SOL    HW2 8473   2.295   4.848   0.648
 2563SOL     OW 8474   2.894   4.273   0.016
 2563SOL    HW1 8475   2.853   4.355  -0.023
 2563SOL    HW2 8476   2.958   4.299   0.089
 2564SOL     OW 8477   1.940   4.280   1.386
 2564SOL    HW1 8478   2.032   4.279   1.345
 2564SOL    HW2 8479   1.934   4.354   1.453
 2565SOL     OW 8480   2.423   3.946   1.147
 2565SOL    HW1 8481   2.461   3.862   1.184
 2565SOL    HW2 8482   2.335   3.965   1.191
 2566SOL     OW 8483   2.728   4.178   0.642
 2566SOL    HW1 8484   2.696   4.250   0.580
 2566SOL    HW2 8485   2.752   4.097   0.589
 2567SOL     OW 8486   2.879   3.763   0.753
 2567SOL    HW1 8487   2.807   3.768   0.684
 2567SOL    HW2 8488   2.855   3.694   0.822
 2568SOL     OW 8489   3.291   4.897   0.867
 2568SOL    HW1 8490   3.236   4.813   0.860
 2568SOL    HW2 8491   3.317   4.926   0.775
 2569SOL     OW 8492   3.328   4.314   0.992
 2569SOL    HW1 8493   3.298   4.219   0.999
 2569SOL    HW2 8494   3.401   4.330   1.058
 2570SOL     OW 8495   3.719   4.557   0.377
 2570SOL    HW1 8496   3.761   4.493   0.441
 2570SOL    HW2 8497   3.681   4.506   0.299
 2571SOL     OW 8498   3.526   5.004   0.657
 2571SOL    HW1 8499   3.625   5.012   0.671
 2571SOL    HW2 8500   3.481   5.088   0.688
 2572SOL     OW 8501   3.252   4.299   0.078
 2572SOL    HW1 8502   3.198   4.278   0.159
 2572SOL    HW2 8503   3.343   4.258   0.087
 2573SOL     OW 8504   2.389   3.980   0.328
 2573SOL    HW1 8505   2.416   3.921   0.253
 2573SOL    HW2 8506   2.389   4.075   0.297
 2574SOL     OW 8507   3.616   4.947   1.588
 2574SOL    HW1 8508   3.707   4.908   1.575
 2574SOL    HW2 8509   3.624   5.043   1.612
 2575SOL     OW 8510   3.500   4.823   1.079
 2575SOL    HW1 8511   3.505   4.904   1.138
 2575SOL    HW2 8512   3.414   4.825   1.028
 2576SOL     OW 8513   2.777   3.813   1.402
 2576SOL    HW1 8514   2.802   3.793   1.307
 2576SOL    HW2 8515   2.849   3.869   1.444
 2577SOL     OW 8516   2.842   4.840   1.719
 2577SOL    HW1 8517   2.743   4.846   1.729
 2577SOL    HW2 8518   2.865   4.760   1.663
 2578SOL     OW 8519   2.567   4.774   0.368
 2578SOL    HW1 8520   2.553   4.781   0.467
 2578SOL    HW2 8521   2.651   4.723   0.350
 2579SOL     OW 8522   2.272   4.537   1.251
 2579SOL    HW1 8523   2.358   4.549   1.301
 2579SOL    HW2 8524   2.230   4.450   1.278
 2580SOL     OW 8525   3.136   4.110   1.262
 2580SOL    HW1 8526   3.157   4.184   1.326
 2580SOL    HW2 8527   3.047   4.127   1.219
 2581SOL     OW 8528   2.229   4.824   0.501
 2581SOL    HW1 8529   2.222   4.907   0.445
 2581SOL    HW2 8530   2.233   4.744   0.441
 2582SOL     OW 8531   2.428   4.261   0.865
 2582SOL    HW1 8532   2.440   4.327   0.791
 2582SOL    HW2 8533   2.474   4.295   0.948
 2583SOL     OW 8534   3.444   4.363   0.472
 2583SOL    HW1 8535   3.413   4.424   0.545
 2583SOL    HW2 8536   3.494   4.415   0.403
 2584SOL     OW 8537   2.264   4.475   1.598
 2584SOL    HW1 8538   2.332   4.530   1.551
 2584SOL    HW2 8539   2.304   4.387   1.625
 2585SOL     OW 8540   3.449   4.503   1.670
 2585SOL    HW1 8541   3.357   4.541   1.665
 2585SOL    HW2 8542   3.509   4.550   1.605
 2586SOL     OW 8543   2.875   3.829   1.770
 2586SOL    HW1 8544   2.881   3.914   1.718
 2586SOL    HW2 8545   2.907   3.753   1.713
 2587SOL     OW 8546   2.366   3.774   1.740
 2587SOL    HW1 8547   2.324   3.717   1.670
 2587SOL    HW2 8548   2.300   3.843   1.772
 2588SOL     OW 8549   2.435   4.594   1.029
 2588SOL    HW1 8550   2.479   4.683   1.020
 2588SOL    HW2 8551   2.372   4.594   1.106
 2589SOL     OW 8552   3.222   4.586   1.045
 2589SOL    HW1 8553   3.147   4.586   0.979
 2589SOL    HW2 8554   3.259   4.494   1.054
 2590SOL     OW 8555   3.071   4.249   0.275
 2590SOL    HW1 8556   3.084   4.165   0.329
 2590SOL    HW2 8557   3.042   4.323   0.335
 2591SOL     OW 8558   2.169   3.937   1.231
 2591SOL    HW1 8559   2.146   3.974   1.321
 2591SOL    HW2 8560   2.139   3.842   1.225
 2592SOL     OW 8561   2.594   4.358   1.064
 2592SOL    HW1 8562   2.653   4.332   0.988
 2592SOL    HW2 8563   2.566   4.454   1.053
 2593SOL     OW 8564   3.590   4.659   1.854
 2593SOL    HW1 8565   3.544   4.652   1.765
 2593SOL    HW2 8566   3.528   4.703   1.920
 2594SOL     OW 8567   2.169   3.787   0.618
 2594SOL    HW1 8568   2.158   3.881   0.651
 2594SOL    HW2 8569   2.164   3.724   0.695
 2595SOL     OW 8570   3.484   4.091   0.374
 2595SOL    HW1 8571   3.486   4.015   0.438
 2595SOL    HW2 8572   3.436   4.168   0.414
 2596SOL     OW 8573   2.885   4.490   0.966
 2596SOL    HW1 8574   2.900   4.511   1.062
 2596SOL    HW2 8575   2.855   4.395   0.957
 2597SOL     OW 8576   3.721   5.242   1.605
 2597SOL    HW1 8577   3.735   5.269   1.510
 2597SOL    HW2 8578   3.804   5.264   1.658
 2598SOL     OW 8579   2.212   4.622   1.804
 2598SOL    HW1 8580   2.288   4.666   1.852
 2598SOL    HW2 8581   2.247   4.575   1.722
 2599SOL     OW 8582   3.402   3.998   0.125
 2599SOL    HW1 8583   3.341   3.923   0.148
 2599SOL    HW2 8584   3.424   4.050   0.208
 2600SOL     OW 8585   3.165   4.562   0.042
 2600SOL    HW1 8586   3.199   4.469   0.057
 2600SOL    HW2 8587   3.183   4.589  -0.053
 2601SOL     OW 8588   2.201   4.233   1.006
 2601SOL    HW1 8589   2.149   4.150   0.989
 2601SOL    HW2 8590   2.278   4.238   0.942
 2602SOL     OW 8591   3.000   4.104   1.678
 2602SOL    HW1 8592   2.955   4.167   1.742
 2602SOL    HW2 8593   3.093   4.135   1.661
 2603SOL     OW 8594   3.022   3.931   1.477
 2603SOL    HW1 8595   3.022   3.995   1.554
 2603SOL    HW2 8596   3.050   3.979   1.394
 2604SOL     OW 8597   2.864   4.520   1.238
 2604SOL    HW1 8598   2.905   4.488   1.324
 2604SOL    HW2 8599   2.768   4.493   1.235
 2605SOL     OW 8600   2.051   4.244   1.722
 2605SOL    HW1 8601   2.110   4.204   1.652
 2605SOL    HW2 8602   1.993   4.315   1.681
 2606SOL     OW 8603   3.231   4.674   1.660
 2606SOL    HW1 8604   3.270   4.763   1.680
 2606SOL    HW2 8605   3.241   4.654   1.563
 2607SOL     OW 8606   2.677   4.296   0.325
 2607SOL    HW1 8607   2.684   4.207   0.279
 2607SOL    HW2 8608   2.583   4.330   0.317
 2608SOL     OW 8609   3.519   4.328   1.206
 2608SOL    HW1 8610   3.481   4.259   1.268
 2608SOL    HW2 8611   3.601   4.292   1.162
 2609SOL     OW 8612   2.533   4.188   1.269
 2609SOL    HW1 8613   2.499   4.099   1.239
 2609SOL    HW2 8614   2.559   4.242   1.189
 2610SOL     OW 8615   2.335   4.224   0.191
 2610SOL    HW1 8616   2.396   4.304   0.195
 2610SOL    HW2 8617   2.240   4.255   0.198
 2611SOL     OW 8618   3.209   4.783   1.234
 2611SOL    HW1 8619   3.233   4.720   1.160
 2611SOL    HW2 8620   3.119   4.823   1.216
 2612SOL     OW 8621   3.164   4.579   0.309
 2612SOL    HW1 8622   3.078   4.548   0.351
 2612SOL    HW2 8623   3.160   4.565   0.210
 2613SOL     OW 8624   1.945   4.982   1.022
 2613SOL    HW1 8625   1.940   4.981   1.122
 2613SOL    HW2 8626   1.862   4.941   0.984
 2614SOL     OW 8627   2.765   3.810   0.133
 2614SOL    HW1 8628   2.816   3.811   0.047
 2614SOL    HW2 8629   2.821   3.768   0.204
 2615SOL     OW 8630   3.588   3.859   0.523
 2615SOL    HW1 8631   3.661   3.842   0.456
 2615SOL    HW2 8632   3.557   3.772   0.561
 2616SOL     OW 8633   3.142   4.651   0.672
 2616SOL    HW1 8634   3.202   4.570   0.674
 2616SOL    HW2 8635   3.182   4.720   0.612
 2617SOL     OW 8636   2.692   4.997   1.422
 2617SOL    HW1 8637   2.687   5.030   1.517
 2617SOL    HW2 8638   2.606   5.016   1.376
 2618SOL     OW 8639   3.703   3.899   0.963
 2618SOL    HW1 8640   3.742   3.814   0.927
 2618SOL    HW2 8641   3.605   3.901   0.944
 2619SOL     OW 8642   2.125   4.050   0.720
 2619SOL    HW1 8643   2.046   4.101   0.686
 2619SOL    HW2 8644   2.116   4.035   0.818
 2620SOL     OW 8645   2.684   4.726   1.372
 2620SOL    HW1 8646   2.724   4.725   1.280
 2620SOL    HW2 8647   2.694   4.818   1.412
 2621SOL     OW 8648   2.778   4.634   0.291
 2621SOL    HW1 8649   2.841   4.672   0.223
 2621SOL    HW2 8650   2.818   4.551   0.330
 2622SOL     OW 8651   3.476   5.016   1.289
 2622SOL    HW1 8652   3.536   5.019   1.369
 2622SOL    HW2 8653   3.401   5.080   1.302
 2623SOL     OW 8654   2.901   4.822   0.696
 2623SOL    HW1 8655   2.831   4.775   0.750
 2623SOL    HW2 8656   2.960   4.754   0.653
 2624SOL     OW 8657   2.876   3.960   0.971
 2624SOL    HW1 8658   2.868   3.924   0.878
 2624SOL    HW2 8659   2.874   3.884   1.036
 2625SOL     OW 8660   3.571   4.109   1.381
 2625SOL    HW1 8661   3.644   4.178   1.385
 2625SOL    HW2 8662   3.599   4.034   1.322
 2626SOL     OW 8663   2.534   3.927   1.489
 2626SOL    HW1 8664   2.624   3.911   1.449
 2626SOL    HW2 8665   2.542   3.932   1.588
 2627SOL     OW 8666   3.302   4.580   1.398
 2627SOL    HW1 8667   3.245   4.632   1.335
 2627SOL    HW2 8668   3.398   4.592   1.374
 2628SOL     OW 8669   1.934   3.890   0.318
 2628SOL    HW1 8670   1.917   3.973   0.264
 2628SOL    HW2 8671   2.024   3.853   0.296
 2629SOL     OW 8672   2.475   4.566   1.431
 2629SOL    HW1 8673   2.531   4.647   1.414
 2629SOL    HW2 8674   2.534   4.486   1.434
 2630SOL     OW 8675   2.578   4.289   1.708
 2630SOL    HW1 8676   2.597   4.354   1.782
 2630SOL    HW2 8677   2.638   4.209   1.717
 2631SOL     OW 8678   3.312   4.944   1.633
 2631SOL    HW1 8679   3.303   4.934   1.732
 2631SOL    HW2 8680   3.408   4.937   1.607
 2632SOL     OW 8681   3.536   4.607   1.254
 2632SOL    HW1 8682   3.509   4.518   1.217
 2632SOL    HW2 8683   3.537   4.675   1.181
 2633SOL     OW 8684   3.087   4.049   0.449
 2633SOL    HW1 8685   3.152   3.975   0.438
 2633SOL    HW2 8686   3.107   4.099   0.533
 2634SOL     OW 8687   2.456   4.469   0.652
 2634SOL    HW1 8688   2.506   4.554   0.633
 2634SOL    HW2 8689   2.368   4.471   0.604
 2635SOL     OW 8690   3.639   4.066   1.642
 2635SOL    HW1 8691   3.622   4.097   1.548
 2635SOL    HW2 8692   3.555   4.029   1.680
 2636SOL     OW 8693   3.592   4.658   1.517
 2636SOL    HW1 8694   3.630   4.749   1.532
 2636SOL    HW2 8695   3.584   4.641   1.418
 2637SOL     OW 8696   2.721   4.680   0.861
 2637SOL    HW1 8697   2.775   4.611   0.909
 2637SOL    HW2 8698   2.689   4.749   0.927
 2638SOL     OW 8699   2.945   4.708   0.087
 2638SOL    HW1 8700   2.922   4.761   0.005
 2638SOL    HW2 8701   3.026   4.652   0.068
 2639SOL     OW 8702   1.941   4.964   0.653
 2639SOL    HW1 8703   1.940   4.917   0.741
 2639SOL    HW2 8704   2.023   4.936   0.602
 2640SOL     OW 8705   3.686   3.916   1.227
 2640SOL    HW1 8706   3.682   3.826   1.271
 2640SOL    HW2 8707   3.689   3.905   1.128
 2641SOL     OW 8708   2.290   4.148   0.520
 2641SOL    HW1 8709   2.320   4.076   0.458
 2641SOL    HW2 8710   2.251   4.108   0.603
 2642SOL     OW 8711   2.179   4.271   1.280
 2642SOL    HW1 8712   2.217   4.212   1.352
 2642SOL    HW2 8713   2.219   4.245   1.192
 2643SOL     OW 8714   3.286   3.938   1.112
 2643SOL    HW1 8715   3.338   3.873   1.167
 2643SOL    HW2 8716   3.237   4.001   1.173
 2644SOL     OW 8717   2.863   3.758   1.154
 2644SOL    HW1 8718   2.800   3.686   1.123
 2644SOL    HW2 8719   2.956   3.722   1.154
 2645SOL     OW 8720   2.632   5.054   0.301
 2645SOL    HW1 8721   2.586   4.967   0.318
 2645SOL    HW2 8722   2.723   5.051   0.342
 2646SOL     OW 8723   3.214   3.776   0.168
 2646SOL    HW1 8724   3.249   3.735   0.084
 2646SOL    HW2 8725   3.124   3.738   0.188
 2647SOL     OW 8726   3.162   4.177   0.691
 2647SOL    HW1 8727   3.103   4.257   0.695
 2647SOL    HW2 8728   3.177   4.142   0.784
 2648SOL     OW 8729   3.455   3.945   0.882
 2648SOL    HW1 8730   3.371   3.944   0.936
 2648SOL    HW2 8731   3.457   4.028   0.826
 2649SOL     OW 8732   1.901   4.801   0.300
 2649SOL    HW1 8733   2.000   4.790   0.291
 2649SOL    HW2 8734   1.861   4.715   0.332
 2650SOL     OW 8735   2.092   4.352   1.975
 2650SOL    HW1 8736   1.999   4.350   2.012
 2650SOL    HW2 8737   2.093   4.313   1.883
 2651SOL     OW 8738   2.087   3.999   2.858
 2651SOL    HW1 8739   2.122   3.982   2.950
 2651SOL    HW2 8740   1.999   3.954   2.846
 2652SOL     OW 8741   1.881   4.092   2.509
 2652SOL    HW1 8742   1.799   4.135   2.548
 2652SOL    HW2 8743   1.853   4.019   2.446
 2653SOL     OW 8744   2.431   4.999   3.027
 2653SOL    HW1 8745   2.338   4.992   2.990
 2653SOL    HW2 8746   2.442   5.088   3.071
 2654SOL     OW 8747   3.417   5.235   2.565
 2654SOL    HW1 8748   3.360   5.219   2.646
 2654SOL    HW2 8749   3.358   5.245   2.485
 2655SOL     OW 8750   2.997   4.427   2.579
 2655SOL    HW1 8751   3.054   4.505   2.554
 2655SOL    HW2 8752   2.937   4.453   2.655
 2656SOL     OW 8753   3.617   4.331   2.093
 2656SOL    HW1 8754   3.605   4.318   1.994
 2656SOL    HW2 8755   3.587   4.250   2.142
 2657SOL     OW 8756   2.630   4.868   2.885
 2657SOL    HW1 8757   2.552   4.885   2.945
 2657SOL    HW2 8758   2.664   4.955   2.849
 2658SOL     OW 8759   2.712   4.522   3.685
 2658SOL    HW1 8760   2.708   4.598   3.750
 2658SOL    HW2 8761   2.734   4.558   3.594
 2659SOL     OW 8762   2.547   4.736   2.527
 2659SOL    HW1 8763   2.616   4.720   2.597
 2659SOL    HW2 8764   2.474   4.793   2.565
 2660SOL     OW 8765   2.548   4.885   3.665
 2660SOL    HW1 8766   2.608   4.964   3.679
 2660SOL    HW2 8767   2.462   4.916   3.624
 2661SOL     OW 8768   2.197   5.159   2.923
 2661SOL    HW1 8769   2.119   5.128   2.870
 2661SOL    HW2 8770   2.255   5.217   2.866
 2662SOL     OW 8771   2.300   4.116   3.361
 2662SOL    HW1 8772   2.382   4.060   3.370
 2662SOL    HW2 8773   2.219   4.058   3.365
 2663SOL     OW 8774   3.465   4.171   2.599
 2663SOL    HW1 8775   3.391   4.217   2.549
 2663SOL    HW2 8776   3.516   4.239   2.652
 2664SOL     OW 8777   2.102   4.815   2.748
 2664SOL    HW1 8778   2.116   4.731   2.800
 2664SOL    HW2 8779   2.047   4.879   2.803
 2665SOL     OW 8780   2.468   4.688   1.985
 2665SOL    HW1 8781   2.475   4.772   1.931
 2665SOL    HW2 8782   2.514   4.701   2.073
 2666SOL     OW 8783   3.456   3.838   3.342
 2666SOL    HW1 8784   3.438   3.905   3.270
 2666SOL    HW2 8785   3.453   3.884   3.431
 2667SOL     OW 8786   1.984   4.367   2.425
 2667SOL    HW1 8787   1.939   4.279   2.442
 2667SOL    HW2 8788   1.983   4.421   2.509
 2668SOL     OW 8789   3.551   4.646   2.474
 2668SOL    HW1 8790   3.646   4.617   2.482
 2668SOL    HW2 8791   3.543   4.711   2.399
 2669SOL     OW 8792   3.503   4.832   2.294
 2669SOL    HW1 8793   3.589   4.834   2.242
 2669SOL    HW2 8794   3.517   4.879   2.382
 2670SOL     OW 8795   1.975   4.461   3.459
 2670SOL    HW1 8796   2.063   4.448   3.504
 2670SOL    HW2 8797   1.962   4.558   3.437
 2671SOL     OW 8798   3.155   4.952   3.285
 2671SOL    HW1 8799   3.192   4.879   3.227
 2671SOL    HW2 8800   3.207   4.957   3.370
 2672SOL     OW 8801   2.671   3.728   2.364
 2672SOL    HW1 8802   2.711   3.819   2.355
 2672SOL    HW2 8803   2.571   3.736   2.370
 2673SOL     OW 8804   2.059   4.700   3.126
 2673SOL    HW1 8805   2.148   4.655   3.112
 2673SOL    HW2 8806   1.986   4.635   3.107
 2674SOL     OW 8807   3.387   4.723   2.052
 2674SOL    HW1 8808   3.324   4.647   2.065
 2674SOL    HW2 8809   3.435   4.741   2.138
 2675SOL     OW 8810   2.179   3.975   3.663
 2675SOL    HW1 8811   2.250   4.046   3.669
 2675SOL    HW2 8812   2.091   4.014   3.691
 2676SOL     OW 8813   3.328   5.141   2.815
 2676SOL    HW1 8814   3.269   5.147   2.895
 2676SOL    HW2 8815   3.313   5.053   2.769
 2677SOL     OW 8816   2.460   4.453   2.132
 2677SOL    HW1 8817   2.484   4.522   2.064
 2677SOL    HW2 8818   2.382   4.486   2.186
 2678SOL     OW 8819   3.143   4.069   2.806
 2678SOL    HW1 8820   3.057   4.019   2.793
 2678SOL    HW2 8821   3.205   4.015   2.862
 2679SOL     OW 8822   2.669   4.329   3.327
 2679SOL    HW1 8823   2.622   4.326   3.416
 2679SOL    HW2 8824   2.618   4.274   3.261
 2680SOL     OW 8825   3.256   4.193   3.536
 2680SOL    HW1 8826   3.236   4.236   3.624
 2680SOL    HW2 8827   3.334   4.131   3.545
 2681SOL     OW 8828   2.835   4.614   3.434
 2681SOL    HW1 8829   2.881   4.530   3.405
 2681SOL    HW2 8830   2.779   4.648   3.359
 2682SOL     OW 8831   2.853   4.134   3.104
 2682SOL    HW1 8832   2.776   4.168   3.158
 2682SOL    HW2 8833   2.819   4.083   3.025
 2683SOL     OW 8834   2.903   4.425   2.291
 2683SOL    HW1 8835   2.929   4.421   2.387
 2683SOL    HW2 8836   2.818   4.374   2.277
 2684SOL     OW 8837   2.727   4.072   2.057
 2684SOL    HW1 8838   2.786   4.135   2.008
 2684SOL    HW2 8839   2.746   3.978   2.028
 2685SOL     OW 8840   3.581   4.309   3.693
 2685SOL    HW1 8841   3.555   4.398   3.657
 2685SOL    HW2 8842   3.579   4.241   3.620
 2686SOL     OW 8843   3.224   4.868   2.407
 2686SOL    HW1 8844   3.307   4.839   2.359
 2686SOL    HW2 8845   3.175   4.935   2.351
 2687SOL     OW 8846   2.412   3.920   2.747
 2687SOL    HW1 8847   2.407   3.915   2.847
 2687SOL    HW2 8848   2.414   4.016   2.718
 2688SOL     OW 8849   3.657   4.790   2.735
 2688SOL    HW1 8850   3.595   4.775   2.659
 2688SOL    HW2 8851   3.605   4.801   2.820
 2689SOL     OW 8852   2.183   4.667   2.104
 2689SOL    HW1 8853   2.265   4.706   2.062
 2689SOL    HW2 8854   2.156   4.585   2.055
 2690SOL     OW 8855   3.320   4.459   2.590
 2690SOL    HW1 8856   3.315   4.394   2.665
 2690SOL    HW2 8857   3.400   4.518   2.603
 2691SOL     OW 8858   2.064   4.009   3.360
 2691SOL    HW1 8859   1.984   4.069   3.347
 2691SOL    HW2 8860   2.054   3.960   3.446
 2692SOL     OW 8861   3.494   5.101   1.943
 2692SOL    HW1 8862   3.462   5.195   1.933
 2692SOL    HW2 8863   3.418   5.038   1.931
 2693SOL     OW 8864   3.262   3.831   2.288
 2693SOL    HW1 8865   3.238   3.794   2.198
 2693SOL    HW2 8866   3.361   3.847   2.292
 2694SOL     OW 8867   2.244   4.424   2.342
 2694SOL    HW1 8868   2.289   4.334   2.339
 2694SOL    HW2 8869   2.150   4.413   2.375
 2695SOL     OW 8870   3.409   3.946   3.591
 2695SOL    HW1 8871   3.404   3.983   3.683
 2695SOL    HW2 8872   3.337   3.877   3.579
 2696SOL     OW 8873   2.476   3.846   1.979
 2696SOL    HW1 8874   2.574   3.824   1.986
 2696SOL    HW2 8875   2.445   3.829   1.886
 2697SOL     OW 8876   2.643   3.988   3.611
 2697SOL    HW1 8877   2.710   3.927   3.654
 2697SOL    HW2 8878   2.570   4.007   3.676
 2698SOL     OW 8879   3.213   4.314   3.295
 2698SOL    HW1 8880   3.241   4.271   3.380
 2698SOL    HW2 8881   3.238   4.410   3.296
 2699SOL     OW 8882   2.665   5.126   2.786
 2699SOL    HW1 8883   2.755   5.140   2.744
 2699SOL    HW2 8884   2.594   5.128   2.715
 2700SOL     OW 8885   2.784   4.227   2.761
 2700SOL    HW1 8886   2.759   4.218   2.665
 2700SOL    HW2 8887   2.832   4.145   2.792
 2701SOL     OW 8888   2.401   3.788   2.374
 2701SOL    HW1 8889   2.320   3.789   2.432
 2701SOL    HW2 8890   2.404   3.871   2.319
 2702SOL     OW 8891   3.296   4.912   1.903
 2702SOL    HW1 8892   3.328   4.836   1.960
 2702SOL    HW2 8893   3.204   4.939   1.933
 2703SOL     OW 8894   2.159   3.759   2.033
 2703SOL    HW1 8895   2.208   3.843   2.012
 2703SOL    HW2 8896   2.221   3.694   2.078
 2704SOL     OW 8897   2.797   3.960   2.342
 2704SOL    HW1 8898   2.749   4.001   2.264
 2704SOL    HW2 8899   2.896   3.958   2.323
 2705SOL     OW 8900   2.938   4.407   3.326
 2705SOL    HW1 8901   2.858   4.346   3.329
 2705SOL    HW2 8902   3.019   4.354   3.302
 2706SOL     OW 8903   2.321   4.876   2.603
 2706SOL    HW1 8904   2.250   4.849   2.668
 2706SOL    HW2 8905   2.295   4.848   2.510
 2707SOL     OW 8906   2.894   4.273   1.878
 2707SOL    HW1 8907   2.853   4.355   1.839
 2707SOL    HW2 8908   2.958   4.299   1.951
 2708SOL     OW 8909   1.940   4.280   3.248
 2708SOL    HW1 8910   2.032   4.279   3.207
 2708SOL    HW2 8911   1.934   4.354   3.315
 2709SOL     OW 8912   2.423   3.946   3.009
 2709SOL    HW1 8913   2.461   3.862   3.046
 2709SOL    HW2 8914   2.335   3.965   3.053
 2710SOL     OW 8915   2.728   4.178   2.504
 2710SOL    HW1 8916   2.696   4.250   2.442
 2710SOL    HW2 8917   2.752   4.097   2.451
 2711SOL     OW 8918   2.879   3.763   2.615
 2711SOL    HW1 8919   2.807   3.768   2.546
 2711SOL    HW2 8920   2.855   3.694   2.684
 2712SOL     OW 8921   3.291   4.897   2.729
 2712SOL    HW1 8922   3.236   4.813   2.722
 2712SOL    HW2 8923   3.317   4.926   2.637
 2713SOL     OW 8924   3.328   4.314   2.854
 2713SOL    HW1 8925   3.298   4.219   2.861
 2713SOL    HW2 8926   3.401   4.330   2.920
 2714SOL     OW 8927   3.719   4.557   2.239
 2714SOL    HW1 8928   3.761   4.493   2.303
 2714SOL    HW2 8929   3.681   4.506   2.161
 2715SOL     OW 8930   3.526   5.004   2.519
 2715SOL    HW1 8931   3.625   5.012   2.533
 2715SOL    HW2 8932   3.481   5.088   2.550
 2716SOL     OW 8933   3.252   4.299   1.940
 2716SOL    HW1 8934   3.198   4.278   2.021
 2716SOL    HW2 8935   3.343   4.258   1.949
 2717SOL     OW 8936   2.389   3.980   2.190
 2717SOL    HW1 8937   2.416   3.921   2.115
 2717SOL    HW2 8938   2.389   4.075   2.159
 2718SOL     OW 8939   3.500   4.823   2.941
 2718SOL    HW1 8940   3.505   4.904   3.000
 2718SOL    HW2 8941   3.414   4.825   2.890
 2719SOL     OW 8942   2.777   3.813   3.264
 2719SOL    HW1 8943   2.802   3.793   3.169
 2719SOL    HW2 8944   2.849   3.869   3.306
 2720SOL     OW 8945   2.842   4.840   3.581
 2720SOL    HW1 8946   2.743   4.846   3.591
 2720SOL    HW2 8947   2.865   4.760   3.525
 2721SOL     OW 8948   2.567   4.774   2.230
 2721SOL    HW1 8949   2.553   4.781   2.329
 2721SOL    HW2 8950   2.651   4.723   2.212
 2722SOL     OW 8951   2.272   4.537   3.113
 2722SOL    HW1 8952   2.358   4.549   3.163
 2722SOL    HW2 8953   2.230   4.450   3.140
 2723SOL     OW 8954   3.136   4.110   3.124
 2723SOL    HW1 8955   3.157   4.184   3.188
 2723SOL    HW2 8956   3.047   4.127   3.081
 2724SOL     OW 8957   2.428   4.261   2.727
 2724SOL    HW1 8958   2.440   4.327   2.653
 2724SOL    HW2 8959   2.474   4.295   2.810
 2725SOL     OW 8960   3.444   4.363   2.334
 2725SOL    HW1 8961   3.413   4.424   2.407
 2725SOL    HW2 8962   3.494   4.415   2.265
 2726SOL     OW 8963   2.264   4.475   3.460
 2726SOL    HW1 8964   2.332   4.530   3.413
 2726SOL    HW2 8965   2.304   4.387   3.487
 2727SOL     OW 8966   3.449   4.503   3.532
 2727SOL    HW1 8967   3.357   4.541   3.527
 2727SOL    HW2 8968   3.509   4.550   3.467
 2728SOL     OW 8969   2.875   3.829   3.632
 2728SOL    HW1 8970   2.881   3.914   3.580
 2728SOL    HW2 8971   2.907   3.753   3.575
 2729SOL     OW 8972   2.366   3.774   3.602
 2729SOL    HW1 8973   2.324   3.717   3.532
 2729SOL    HW2 8974   2.300   3.843   3.634
 2730SOL     OW 8975   2.435   4.594   2.891
 2730SOL    HW1 8976   2.479   4.683   2.882
 2730SOL    HW2 8977   2.372   4.594   2.968
 2731SOL     OW 8978   3.222   4.586   2.907
 2731SOL    HW1 8979   3.147   4.586   2.841
 2731SOL    HW2 8980   3.259   4.494   2.916
 2732SOL     OW 8981   3.071   4.249   2.137
 2732SOL    HW1 8982   3.084   4.165   2.191
 2732SOL    HW2 8983   3.042   4.323   2.197
 2733SOL     OW 8984   2.169   3.937   3.093
 2733SOL    HW1 8985   2.146   3.974   3.183
 2733SOL    HW2 8986   2.139   3.842   3.087
 2734SOL     OW 8987   2.594   4.358   2.926
 2734SOL    HW1 8988   2.653   4.332   2.850
 2734SOL    HW2 8989   2.566   4.454   2.915
 2735SOL     OW 8990   3.590   4.659   3.716
 2735SOL    HW1 8991   3.544   4.652   3.627
 2735SOL    HW2 8992   3.528   4.703   3.782
 2736SOL     OW 8993   2.169   3.787   2.480
 2736SOL    HW1 8994   2.158   3.881   2.513
 2736SOL    HW2 8995   2.164   3.724   2.557
 2737SOL     OW 8996   3.484   4.091   2.236
 2737SOL    HW1 8997   3.486   4.015   2.300
 2737SOL    HW2 8998   3.436   4.168   2.276
 2738SOL     OW 8999   2.885   4.490   2.828
 2738SOL    HW1 9000   2.900   4.511   2.924
 2738SOL    HW2 9001   2.855   4.395   2.819
 2739SOL     OW 9002   2.212   4.622   3.666
 2739SOL    HW1 9003   2.288   4.666   3.714
 2739SOL    HW2 9004   2.247   4.575   3.584
 2740SOL     OW 9005   3.402   3.998   1.987
 2740SOL    HW1 9006   3.341   3.923   2.010
 2740SOL    HW2 9007   3.424   4.050   2.070
 2741SOL     OW 9008   3.165   4.562   1.904
 2741SOL    HW1 9009   3.199   4.469   1.919
 2741SOL    HW2 9010   3.183   4.589   1.809
 2742SOL     OW 9011   2.181   4.534   2.811
 2742SOL    HW1 9012   2.274   4.570   2.816
 2742SOL    HW2 9013   2.175   4.449   2.863
 2743SOL     OW 9014   2.201   4.233   2.868
 2743SOL    HW1 9015   2.149   4.150   2.851
 2743SOL    HW2 9016   2.278   4.238   2.804
 2744SOL     OW 9017   3.000   4.104   3.540
 2744SOL    HW1 9018   2.955   4.167   3.604
 2744SOL    HW2 9019   3.093   4.135   3.523
 2745SOL     OW 9020   3.022   3.931   3.339
 2745SOL    HW1 9021   3.022   3.995   3.416
 2745SOL    HW2 9022   3.050   3.979   3.256
 2746SOL     OW 9023   1.870   5.050   2.062
 2746SOL    HW1 9024   1.777   5.071   2.031
 2746SOL    HW2 9025   1.880   4.951   2.075
 2747SOL     OW 9026   2.864   4.520   3.100
 2747SOL    HW1 9027   2.905   4.488   3.186
 2747SOL    HW2 9028   2.768   4.493   3.097
 2748SOL     OW 9029   1.902   4.268   2.976
 2748SOL    HW1 9030   1.987   4.235   2.935
 2748SOL    HW2 9031   1.915   4.283   3.074
 2749SOL     OW 9032   2.051   4.244   3.584
 2749SOL    HW1 9033   2.110   4.204   3.514
 2749SOL    HW2 9034   1.993   4.315   3.543
 2750SOL     OW 9035   3.231   4.674   3.522
 2750SOL    HW1 9036   3.270   4.763   3.542
 2750SOL    HW2 9037   3.241   4.654   3.425
 2751SOL     OW 9038   2.677   4.296   2.187
 2751SOL    HW1 9039   2.684   4.207   2.141
 2751SOL    HW2 9040   2.583   4.330   2.179
 2752SOL     OW 9041   3.519   4.328   3.068
 2752SOL    HW1 9042   3.481   4.259   3.130
 2752SOL    HW2 9043   3.601   4.292   3.024
 2753SOL     OW 9044   2.533   4.188   3.131
 2753SOL    HW1 9045   2.499   4.099   3.101
 2753SOL    HW2 9046   2.559   4.242   3.051
 2754SOL     OW 9047   2.335   4.224   2.053
 2754SOL    HW1 9048   2.396   4.304   2.057
 2754SOL    HW2 9049   2.240   4.255   2.060
 2755SOL     OW 9050   2.021   4.861   3.328
 2755SOL    HW1 9051   2.043   4.800   3.404
 2755SOL    HW2 9052   2.031   4.812   3.242
 2756SOL     OW 9053   3.209   4.783   3.096
 2756SOL    HW1 9054   3.233   4.720   3.022
 2756SOL    HW2 9055   3.119   4.823   3.078
 2757SOL     OW 9056   3.164   4.579   2.171
 2757SOL    HW1 9057   3.078   4.548   2.213
 2757SOL    HW2 9058   3.160   4.565   2.072
 2758SOL     OW 9059   1.945   4.982   2.884
 2758SOL    HW1 9060   1.940   4.981   2.984
 2758SOL    HW2 9061   1.862   4.941   2.846
 2759SOL     OW 9062   3.588   3.859   2.385
 2759SOL    HW1 9063   3.661   3.842   2.318
 2759SOL    HW2 9064   3.557   3.772   2.423
 2760SOL     OW 9065   3.142   4.651   2.534
 2760SOL    HW1 9066   3.202   4.570   2.536
 2760SOL    HW2 9067   3.182   4.720   2.474
 2761SOL     OW 9068   2.692   4.997   3.284
 2761SOL    HW1 9069   2.687   5.030   3.379
 2761SOL    HW2 9070   2.606   5.016   3.238
 2762SOL     OW 9071   3.703   3.899   2.825
 2762SOL    HW1 9072   3.742   3.814   2.789
 2762SOL    HW2 9073   3.605   3.901   2.806
 2763SOL     OW 9074   2.125   4.050   2.582
 2763SOL    HW1 9075   2.046   4.101   2.548
 2763SOL    HW2 9076   2.116   4.035   2.680
 2764SOL     OW 9077   3.056   5.336   1.893
 2764SOL    HW1 9078   3.062   5.243   1.930
 2764SOL    HW2 9079   2.997   5.336   1.813
 2765SOL     OW 9080   2.684   4.726   3.234
 2765SOL    HW1 9081   2.724   4.725   3.142
 2765SOL    HW2 9082   2.694   4.818   3.274
 2766SOL     OW 9083   2.778   4.634   2.153
 2766SOL    HW1 9084   2.841   4.672   2.085
 2766SOL    HW2 9085   2.818   4.551   2.192
 2767SOL     OW 9086   2.234   5.012   3.352
 2767SOL    HW1 9087   2.221   5.105   3.318
 2767SOL    HW2 9088   2.150   4.960   3.339
 2768SOL     OW 9089   3.476   5.016   3.151
 2768SOL    HW1 9090   3.536   5.019   3.231
 2768SOL    HW2 9091   3.401   5.080   3.164
 2769SOL     OW 9092   2.901   4.822   2.558
 2769SOL    HW1 9093   2.831   4.775   2.612
 2769SOL    HW2 9094   2.960   4.754   2.515
 2770SOL     OW 9095   2.876   3.960   2.833
 2770SOL    HW1 9096   2.868   3.924   2.740
 2770SOL    HW2 9097   2.874   3.884   2.898
 2771SOL     OW 9098   3.571   4.109   3.243
 2771SOL    HW1 9099   3.644   4.178   3.247
 2771SOL    HW2 9100   3.599   4.034   3.184
 2772SOL     OW 9101   1.967   4.737   3.588
 2772SOL    HW1 9102   1.890   4.704   3.642
 2772SOL    HW2 9103   2.052   4.707   3.630
 2773SOL     OW 9104   2.534   3.927   3.351
 2773SOL    HW1 9105   2.624   3.911   3.311
 2773SOL    HW2 9106   2.542   3.932   3.450
 2774SOL     OW 9107   1.937   4.069   1.895
 2774SOL    HW1 9108   1.845   4.041   1.866
 2774SOL    HW2 9109   1.968   4.146   1.839
 2775SOL     OW 9110   3.302   4.580   3.260
 2775SOL    HW1 9111   3.245   4.632   3.197
 2775SOL    HW2 9112   3.398   4.592   3.236
 2776SOL     OW 9113   1.934   3.890   2.180
 2776SOL    HW1 9114   1.917   3.973   2.126
 2776SOL    HW2 9115   2.024   3.853   2.158
 2777SOL     OW 9116   2.475   4.566   3.293
 2777SOL    HW1 9117   2.531   4.647   3.276
 2777SOL    HW2 9118   2.534   4.486   3.296
 2778SOL     OW 9119   2.578   4.289   3.570
 2778SOL    HW1 9120   2.597   4.354   3.644
 2778SOL    HW2 9121   2.638   4.209   3.579
 2779SOL     OW 9122   3.312   4.944   3.495
 2779SOL    HW1 9123   3.303   4.934   3.594
 2779SOL    HW2 9124   3.408   4.937   3.469
 2780SOL     OW 9125   3.536   4.607   3.116
 2780SOL    HW1 9126   3.509   4.518   3.079
 2780SOL    HW2 9127   3.537   4.675   3.043
 2781SOL     OW 9128   3.087   4.049   2.311
 2781SOL    HW1 9129   3.152   3.975   2.300
 2781SOL    HW2 9130   3.107   4.099   2.395
 2782SOL     OW 9131   2.456   4.469   2.514
 2782SOL    HW1 9132   2.506   4.554   2.495
 2782SOL    HW2 9133   2.368   4.471   2.466
 2783SOL     OW 9134   3.639   4.066   3.504
 2783SOL    HW1 9135   3.622   4.097   3.410
 2783SOL    HW2 9136   3.555   4.029   3.542
 2784SOL     OW 9137   2.721   4.680   2.723
 2784SOL    HW1 9138   2.775   4.611   2.771
 2784SOL    HW2 9139   2.689   4.749   2.789
 2785SOL     OW 9140   2.945   4.708   1.949
 2785SOL    HW1 9141   2.922   4.761   1.867
 2785SOL    HW2 9142   3.026   4.652   1.930
 2786SOL     OW 9143   3.686   3.916   3.089
 2786SOL    HW1 9144   3.682   3.826   3.133
 2786SOL    HW2 9145   3.689   3.905   2.990
 2787SOL     OW 9146   2.290   4.148   2.382
 2787SOL    HW1 9147   2.320   4.076   2.320
 2787SOL    HW2 9148   2.251   4.108   2.465
 2788SOL     OW 9149   2.179   4.271   3.142
 2788SOL    HW1 9150   2.217   4.212   3.214
 2788SOL    HW2 9151   2.219   4.245   3.054
 2789SOL     OW 9152   3.286   3.938   2.974
 2789SOL    HW1 9153   3.338   3.873   3.029
 2789SOL    HW2 9154   3.237   4.001   3.035
 2790SOL     OW 9155   2.863   3.758   3.016
 2790SOL    HW1 9156   2.800   3.686   2.985
 2790SOL    HW2 9157   2.956   3.722   3.016
 2791SOL     OW 9158   3.214   3.776   2.030
 2791SOL    HW1 9159   3.249   3.735   1.946
 2791SOL    HW2 9160   3.124   3.738   2.050
 2792SOL     OW 9161   3.162   4.177   2.553
 2792SOL    HW1 9162   3.103   4.257   2.557
 2792SOL    HW2 9163   3.177   4.142   2.646
 2793SOL     OW 9164   3.455   3.945   2.744
 2793SOL    HW1 9165   3.371   3.944   2.798
 2793SOL    HW2 9166   3.457   4.028   2.688
 2794SOL     OW 9167   2.092   4.352   3.837
 2794SOL    HW1 9168   1.999   4.350   3.874
 2794SOL    HW2 9169   2.093   4.313   3.745
 2795SOL     OW 9170   2.087   3.999   4.720
 2795SOL    HW1 9171   2.122   3.982   4.812
 2795SOL    HW2 9172   1.999   3.954   4.708
 2796SOL     OW 9173   1.881   4.092   4.371
 2796SOL    HW1 9174   1.799   4.135   4.410
 2796SOL    HW2 9175   1.853   4.019   4.308
 2797SOL     OW 9176   2.431   4.999   4.889
 2797SOL    HW1 9177   2.338   4.992   4.852
 2797SOL    HW2 9178   2.442   5.088   4.933
 2798SOL     OW 9179   3.417   5.235   4.427
 2798SOL    HW1 9180   3.360   5.219   4.508
 2798SOL    HW2 9181   3.358   5.245   4.347
 2799SOL     OW 9182   2.997   4.427   4.441
 2799SOL    HW1 9183   3.054   4.505   4.416
 2799SOL    HW2 9184   2.937   4.453   4.517
 2800SOL     OW 9185   3.617   4.331   3.955
 2800SOL    HW1 9186   3.605   4.318   3.856
 2800SOL    HW2 9187   3.587   4.250   4.004
 2801SOL     OW 9188   2.630   4.868   4.747
 2801SOL    HW1 9189   2.552   4.885   4.807
 2801SOL    HW2 9190   2.664   4.955   4.711
 2802SOL     OW 9191   2.547   4.736   4.389
 2802SOL    HW1 9192   2.616   4.720   4.459
 2802SOL    HW2 9193   2.474   4.793   4.427
 2803SOL     OW 9194   2.197   5.159   4.785
 2803SOL    HW1 9195   2.119   5.128   4.732
 2803SOL    HW2 9196   2.255   5.217   4.728
 2804SOL     OW 9197   3.465   4.171   4.461
 2804SOL    HW1 9198   3.391   4.217   4.411
 2804SOL    HW2 9199   3.516   4.239   4.514
 2805SOL     OW 9200   2.102   4.815   4.610
 2805SOL    HW1 9201   2.116   4.731   4.662
 2805SOL    HW2 9202   2.047   4.879   4.665
 2806SOL     OW 9203   2.468   4.688   3.847
 2806SOL    HW1 9204   2.475   4.772   3.793
 2806SOL    HW2 9205   2.514   4.701   3.935
 2807SOL     OW 9206   1.984   4.367   4.287
 2807SOL    HW1 9207   1.939   4.279   4.304
 2807SOL    HW2 9208   1.983   4.421   4.371
 2808SOL     OW 9209   3.551   4.646   4.336
 2808SOL    HW1 9210   3.646   4.617   4.344
 2808SOL    HW2 9211   3.543   4.711   4.261
 2809SOL     OW 9212   3.503   4.832   4.156
 2809SOL    HW1 9213   3.589   4.834   4.104
 2809SOL    HW2 9214   3.517   4.879   4.244
 2810SOL     OW 9215   2.671   3.728   4.226
 2810SOL    HW1 9216   2.711   3.819   4.217
 2810SOL    HW2 9217   2.571   3.736   4.232
 2811SOL     OW 9218   2.059   4.700   4.988
 2811SOL    HW1 9219   2.148   4.655   4.974
 2811SOL    HW2 9220   1.986   4.635   4.969
 2812SOL     OW 9221   3.387   4.723   3.914
 2812SOL    HW1 9222   3.324   4.647   3.927
 2812SOL    HW2 9223   3.435   4.741   4.000
 2813SOL     OW 9224   3.328   5.141   4.677
 2813SOL    HW1 9225   3.269   5.147   4.757
 2813SOL    HW2 9226   3.313   5.053   4.631
 2814SOL     OW 9227   2.460   4.453   3.994
 2814SOL    HW1 9228   2.484   4.522   3.926
 2814SOL    HW2 9229   2.382   4.486   4.048
 2815SOL     OW 9230   3.143   4.069   4.668
 2815SOL    HW1 9231   3.057   4.019   4.655
 2815SOL    HW2 9232   3.205   4.015   4.724
 2816SOL     OW 9233   2.853   4.134   4.966
 2816SOL    HW1 9234   2.776   4.168   5.020
 2816SOL    HW2 9235   2.819   4.083   4.887
 2817SOL     OW 9236   2.903   4.425   4.153
 2817SOL    HW1 9237   2.929   4.421   4.249
 2817SOL    HW2 9238   2.818   4.374   4.139
 2818SOL     OW 9239   1.938   4.535   4.513
 2818SOL    HW1 9240   2.037   4.523   4.522
 2818SOL    HW2 9241   1.914   4.630   4.534
 2819SOL     OW 9242   2.727   4.072   3.919
 2819SOL    HW1 9243   2.786   4.135   3.870
 2819SOL    HW2 9244   2.746   3.978   3.890
 2820SOL     OW 9245   3.224   4.868   4.269
 2820SOL    HW1 9246   3.307   4.839   4.221
 2820SOL    HW2 9247   3.175   4.935   4.213
 2821SOL     OW 9248   2.412   3.920   4.609
 2821SOL    HW1 9249   2.407   3.915   4.709
 2821SOL    HW2 9250   2.414   4.016   4.580
 2822SOL     OW 9251   3.657   4.790   4.597
 2822SOL    HW1 9252   3.595   4.775   4.521
 2822SOL    HW2 9253   3.605   4.801   4.682
 2823SOL     OW 9254   2.183   4.667   3.966
 2823SOL    HW1 9255   2.265   4.706   3.924
 2823SOL    HW2 9256   2.156   4.585   3.917
 2824SOL     OW 9257   3.320   4.459   4.452
 2824SOL    HW1 9258   3.315   4.394   4.527
 2824SOL    HW2 9259   3.400   4.518   4.465
 2825SOL     OW 9260   3.262   3.831   4.150
 2825SOL    HW1 9261   3.238   3.794   4.060
 2825SOL    HW2 9262   3.361   3.847   4.154
 2826SOL     OW 9263   2.244   4.424   4.204
 2826SOL    HW1 9264   2.289   4.334   4.201
 2826SOL    HW2 9265   2.150   4.413   4.237
 2827SOL     OW 9266   2.476   3.846   3.841
 2827SOL    HW1 9267   2.574   3.824   3.848
 2827SOL    HW2 9268   2.445   3.829   3.748
 2828SOL     OW 9269   2.665   5.126   4.648
 2828SOL    HW1 9270   2.755   5.140   4.606
 2828SOL    HW2 9271   2.594   5.128   4.577
 2829SOL     OW 9272   2.784   4.227   4.623
 2829SOL    HW1 9273   2.759   4.218   4.527
 2829SOL    HW2 9274   2.832   4.145   4.654
 2830SOL     OW 9275   2.401   3.788   4.236
 2830SOL    HW1 9276   2.320   3.789   4.294
 2830SOL    HW2 9277   2.404   3.871   4.181
 2831SOL     OW 9278   3.296   4.912   3.765
 2831SOL    HW1 9279   3.328   4.836   3.822
 2831SOL    HW2 9280   3.204   4.939   3.795
 2832SOL     OW 9281   2.159   3.759   3.895
 2832SOL    HW1 9282   2.208   3.843   3.874
 2832SOL    HW2 9283   2.221   3.694   3.940
 2833SOL     OW 9284   2.797   3.960   4.204
 2833SOL    HW1 9285   2.749   4.001   4.126
 2833SOL    HW2 9286   2.896   3.958   4.185
 2834SOL     OW 9287   3.089   5.294   4.517
 2834SOL    HW1 9288   3.110   5.368   4.452
 2834SOL    HW2 9289   3.157   5.294   4.590
 2835SOL     OW 9290   2.321   4.876   4.465
 2835SOL    HW1 9291   2.250   4.849   4.530
 2835SOL    HW2 9292   2.295   4.848   4.372
 2836SOL     OW 9293   2.894   4.273   3.740
 2836SOL    HW1 9294   2.853   4.355   3.701
 2836SOL    HW2 9295   2.958   4.299   3.813
 2837SOL     OW 9296   2.423   3.946   4.871
 2837SOL    HW1 9297   2.461   3.862   4.908
 2837SOL    HW2 9298   2.335   3.965   4.915
 2838SOL     OW 9299   2.728   4.178   4.366
 2838SOL    HW1 9300   2.696   4.250   4.304
 2838SOL    HW2 9301   2.752   4.097   4.313
 2839SOL     OW 9302   2.879   3.763   4.477
 2839SOL    HW1 9303   2.807   3.768   4.408
 2839SOL    HW2 9304   2.855   3.694   4.546
 2840SOL     OW 9305   3.291   4.897   4.591
 2840SOL    HW1 9306   3.236   4.813   4.584
 2840SOL    HW2 9307   3.317   4.926   4.499
 2841SOL     OW 9308   3.328   4.314   4.716
 2841SOL    HW1 9309   3.298   4.219   4.723
 2841SOL    HW2 9310   3.401   4.330   4.782
 2842SOL     OW 9311   3.719   4.557   4.101
 2842SOL    HW1 9312   3.761   4.493   4.165
 2842SOL    HW2 9313   3.681   4.506   4.023
 2843SOL     OW 9314   3.526   5.004   4.381
 2843SOL    HW1 9315   3.625   5.012   4.395
 2843SOL    HW2 9316   3.481   5.088   4.412
 2844SOL     OW 9317   3.252   4.299   3.802
 2844SOL    HW1 9318   3.198   4.278   3.883
 2844SOL    HW2 9319   3.343   4.258   3.811
 2845SOL     OW 9320   2.389   3.980   4.052
 2845SOL    HW1 9321   2.416   3.921   3.977
 2845SOL    HW2 9322   2.389   4.075   4.021
 2846SOL     OW 9323   3.500   4.823   4.803
 2846SOL    HW1 9324   3.505   4.904   4.862
 2846SOL    HW2 9325   3.414   4.825   4.752
 2847SOL     OW 9326   2.567   4.774   4.092
 2847SOL    HW1 9327   2.553   4.781   4.191
 2847SOL    HW2 9328   2.651   4.723   4.074
 2848SOL     OW 9329   2.272   4.537   4.975
 2848SOL    HW1 9330   2.358   4.549   5.025
 2848SOL    HW2 9331   2.230   4.450   5.002
 2849SOL     OW 9332   3.136   4.110   4.986
 2849SOL    HW1 9333   3.157   4.184   5.050
 2849SOL    HW2 9334   3.047   4.127   4.943
 2850SOL     OW 9335   2.229   4.824   4.225
 2850SOL    HW1 9336   2.222   4.907   4.169
 2850SOL    HW2 9337   2.233   4.744   4.165
 2851SOL     OW 9338   2.428   4.261   4.589
 2851SOL    HW1 9339   2.440   4.327   4.515
 2851SOL    HW2 9340   2.474   4.295   4.672
 2852SOL     OW 9341   3.444   4.363   4.196
 2852SOL    HW1 9342   3.413   4.424   4.269
 2852SOL    HW2 9343   3.494   4.415   4.127
 2853SOL     OW 9344   2.435   4.594   4.753
 2853SOL    HW1 9345   2.479   4.683   4.744
 2853SOL    HW2 9346   2.372   4.594   4.830
 2854SOL     OW 9347   3.222   4.586   4.769
 2854SOL    HW1 9348   3.147   4.586   4.703
 2854SOL    HW2 9349   3.259   4.494   4.778
 2855SOL     OW 9350   3.071   4.249   3.999
 2855SOL    HW1 9351   3.084   4.165   4.053
 2855SOL    HW2 9352   3.042   4.323   4.059
 2856SOL     OW 9353   2.169   3.937   4.955
 2856SOL    HW1 9354   2.146   3.974   5.045
 2856SOL    HW2 9355   2.139   3.842   4.949
 2857SOL     OW 9356   2.594   4.358   4.788
 2857SOL    HW1 9357   2.653   4.332   4.712
 2857SOL    HW2 9358   2.566   4.454   4.777
 2858SOL     OW 9359   2.169   3.787   4.342
 2858SOL    HW1 9360   2.158   3.881   4.375
 2858SOL    HW2 9361   2.164   3.724   4.419
 2859SOL     OW 9362   3.484   4.091   4.098
 2859SOL    HW1 9363   3.486   4.015   4.162
 2859SOL    HW2 9364   3.436   4.168   4.138
 2860SOL     OW 9365   2.885   4.490   4.690
 2860SOL    HW1 9366   2.900   4.511   4.786
 2860SOL    HW2 9367   2.855   4.395   4.681
 2861SOL     OW 9368   3.402   3.998   3.849
 2861SOL    HW1 9369   3.341   3.923   3.872
 2861SOL    HW2 9370   3.424   4.050   3.932
 2862SOL     OW 9371   3.165   4.562   3.766
 2862SOL    HW1 9372   3.199   4.469   3.781
 2862SOL    HW2 9373   3.183   4.589   3.671
 2863SOL     OW 9374   2.181   4.534   4.673
 2863SOL    HW1 9375   2.274   4.570   4.678
 2863SOL    HW2 9376   2.175   4.449   4.725
 2864SOL     OW 9377   2.201   4.233   4.730
 2864SOL    HW1 9378   2.149   4.150   4.713
 2864SOL    HW2 9379   2.278   4.238   4.666
 2865SOL     OW 9380   3.022   3.931   5.201
 2865SOL    HW1 9381   3.022   3.995   5.278
 2865SOL    HW2 9382   3.050   3.979   5.118
 2866SOL     OW 9383   1.870   5.050   3.924
 2866SOL    HW1 9384   1.777   5.071   3.893
 2866SOL    HW2 9385   1.880   4.951   3.937
 2867SOL     OW 9386   2.864   4.520   4.962
 2867SOL    HW1 9387   2.905   4.488   5.048
 2867SOL    HW2 9388   2.768   4.493   4.959
 2868SOL     OW 9389   1.902   4.268   4.838
 2868SOL    HW1 9390   1.987   4.235   4.797
 2868SOL    HW2 9391   1.915   4.283   4.936
 2869SOL     OW 9392   2.677   4.296   4.049
 2869SOL    HW1 9393   2.684   4.207   4.003
 2869SOL    HW2 9394   2.583   4.330   4.041
 2870SOL     OW 9395   3.519   4.328   4.930
 2870SOL    HW1 9396   3.481   4.259   4.992
 2870SOL    HW2 9397   3.601   4.292   4.886
 2871SOL     OW 9398   2.533   4.188   4.993
 2871SOL    HW1 9399   2.499   4.099   4.963
 2871SOL    HW2 9400   2.559   4.242   4.913
 2872SOL     OW 9401   2.335   4.224   3.915
 2872SOL    HW1 9402   2.396   4.304   3.919
 2872SOL    HW2 9403   2.240   4.255   3.922
 2873SOL     OW 9404   3.209   4.783   4.958
 2873SOL    HW1 9405   3.233   4.720   4.884
 2873SOL    HW2 9406   3.119   4.823   4.940
 2874SOL     OW 9407   3.164   4.579   4.033
 2874SOL    HW1 9408   3.078   4.548   4.075
 2874SOL    HW2 9409   3.160   4.565   3.934
 2875SOL     OW 9410   1.945   4.982   4.746
 2875SOL    HW1 9411   1.940   4.981   4.846
 2875SOL    HW2 9412   1.862   4.941   4.708
 2876SOL     OW 9413   3.588   3.859   4.247
 2876SOL    HW1 9414   3.661   3.842   4.180
 2876SOL    HW2 9415   3.557   3.772   4.285
 2877SOL     OW 9416   3.142   4.651   4.396
 2877SOL    HW1 9417   3.202   4.570   4.398
 2877SOL    HW2 9418   3.182   4.720   4.336
 2878SOL     OW 9419   2.692   4.997   5.146
 2878SOL    HW1 9420   2.687   5.030   5.241
 2878SOL    HW2 9421   2.606   5.016   5.100
 2879SOL     OW 9422   3.703   3.899   4.687
 2879SOL    HW1 9423   3.742   3.814   4.651
 2879SOL    HW2 9424   3.605   3.901   4.668
 2880SOL     OW 9425   2.125   4.050   4.444
 2880SOL    HW1 9426   2.046   4.101   4.410
 2880SOL    HW2 9427   2.116   4.035   4.542
 2881SOL     OW 9428   3.056   5.336   3.755
 2881SOL    HW1 9429   3.062   5.243   3.792
 2881SOL    HW2 9430   2.997   5.336   3.675
 2882SOL     OW 9431   2.684   4.726   5.096
 2882SOL    HW1 9432   2.724   4.725   5.004
 2882SOL    HW2 9433   2.694   4.818   5.136
 2883SOL     OW 9434   2.778   4.634   4.015
 2883SOL    HW1 9435   2.841   4.672   3.947
 2883SOL    HW2 9436   2.818   4.551   4.054
 2884SOL     OW 9437   2.901   4.822   4.420
 2884SOL    HW1 9438   2.831   4.775   4.474
 2884SOL    HW2 9439   2.960   4.754   4.377
 2885SOL     OW 9440   2.876   3.960   4.695
 2885SOL    HW1 9441   2.868   3.924   4.602
 2885SOL    HW2 9442   2.874   3.884   4.760
 2886SOL     OW 9443   3.571   4.109   5.105
 2886SOL    HW1 9444   3.644   4.178   5.109
 2886SOL    HW2 9445   3.599   4.034   5.046
 2887SOL     OW 9446   1.937   4.069   3.757
 2887SOL    HW1 9447   1.845   4.041   3.728
 2887SOL    HW2 9448   1.968   4.146   3.701
 2888SOL     OW 9449   1.934   3.890   4.042
 2888SOL    HW1 9450   1.917   3.973   3.988
 2888SOL    HW2 9451   2.024   3.853   4.020
 2889SOL     OW 9452   3.312   4.944   5.357
 2889SOL    HW1 9453   3.303   4.934   5.456
 2889SOL    HW2 9454   3.408   4.937   5.331
 2890SOL     OW 9455   3.536   4.607   4.978
 2890SOL    HW1 9456   3.509   4.518   4.941
 2890SOL    HW2 9457   3.537   4.675   4.905
 2891SOL     OW 9458   3.087   4.049   4.173
 2891SOL    HW1 9459   3.152   3.975   4.162
 2891SOL    HW2 9460   3.107   4.099   4.257
 2892SOL     OW 9461   2.456   4.469   4.376
 2892SOL    HW1 9462   2.506   4.554   4.357
 2892SOL    HW2 9463   2.368   4.471   4.328
 2893SOL     OW 9464   3.592   4.658   5.241
 2893SOL    HW1 9465   3.630   4.749   5.256
 2893SOL    HW2 9466   3.584   4.641   5.142
 2894SOL     OW 9467   2.721   4.680   4.585
 2894SOL    HW1 9468   2.775   4.611   4.633
 2894SOL    HW2 9469   2.689   4.749   4.651
 2895SOL     OW 9470   2.945   4.708   3.811
 2895SOL    HW1 9471   2.922   4.761   3.729
 2895SOL    HW2 9472   3.026   4.652   3.792
 2896SOL     OW 9473   1.941   4.964   4.377
 2896SOL    HW1 9474   1.940   4.917   4.465
 2896SOL    HW2 9475   2.023   4.936   4.326
 2897SOL     OW 9476   3.686   3.916   4.951
 2897SOL    HW1 9477   3.682   3.826   4.995
 2897SOL    HW2 9478   3.689   3.905   4.852
 2898SOL     OW 9479   2.290   4.148   4.244
 2898SOL    HW1 9480   2.320   4.076   4.182
 2898SOL    HW2 9481   2.251   4.108   4.327
 2899SOL     OW 9482   3.286   3.938   4.836
 2899SOL    HW1 9483   3.338   3.873   4.891
 2899SOL    HW2 9484   3.237   4.001   4.897
 2900SOL     OW 9485   2.863   3.758   4.878
 2900SOL    HW1 9486   2.800   3.686   4.847
 2900SOL    HW2 9487   2.956   3.722   4.878
 2901SOL     OW 9488   2.632   5.054   4.025
 2901SOL    HW1 9489   2.586   4.967   4.042
 2901SOL    HW2 9490   2.723   5.051   4.066
 2902SOL     OW 9491   3.214   3.776   3.892
 2902SOL    HW1 9492   3.249   3.735   3.808
 2902SOL    HW2 9493   3.124   3.738   3.912
 2903SOL     OW 9494   3.162   4.177   4.415
 2903SOL    HW1 9495   3.103   4.257   4.419
 2903SOL    HW2 9496   3.177   4.142   4.508
 2904SOL     OW 9497   3.455   3.945   4.606
 2904SOL    HW1 9498   3.371   3.944   4.660
 2904SOL    HW2 9499   3.457   4.028   4.550
 2905SOL     OW 9500   1.901   4.801   4.024
 2905SOL    HW1 9501   2.000   4.790   4.015
 2905SOL    HW2 9502   1.861   4.715   4.056
 2906SOL     OW 9503   3.949   0.275   0.996
 2906SOL    HW1 9504   3.984   0.258   1.088
 2906SOL    HW2 9505   3.861   0.230   0.984
 2907SOL     OW 9506   3.743   0.368   0.647
 2907SOL    HW1 9507   3.661   0.411   0.686
 2907SOL    HW2 9508   3.715   0.295   0.584
 2908SOL     OW 9509   4.293   1.275   1.165
 2908SOL    HW1 9510   4.200   1.268   1.128
 2908SOL    HW2 9511   4.304   1.364   1.209
 2909SOL     OW 9512   4.859   0.703   0.717
 2909SOL    HW1 9513   4.916   0.781   0.692
 2909SOL    HW2 9514   4.799   0.729   0.793
 2910SOL     OW 9515   4.492   1.144   1.023
 2910SOL    HW1 9516   4.414   1.161   1.083
 2910SOL    HW2 9517   4.526   1.231   0.987
 2911SOL     OW 9518   4.574   0.798   1.823
 2911SOL    HW1 9519   4.570   0.874   1.888
 2911SOL    HW2 9520   4.596   0.834   1.732
 2912SOL     OW 9521   4.409   1.012   0.665
 2912SOL    HW1 9522   4.478   0.996   0.735
 2912SOL    HW2 9523   4.336   1.069   0.703
 2913SOL     OW 9524   4.410   1.161   1.803
 2913SOL    HW1 9525   4.470   1.240   1.817
 2913SOL    HW2 9526   4.324   1.192   1.762
 2914SOL     OW 9527   4.059   1.435   1.061
 2914SOL    HW1 9528   3.981   1.404   1.008
 2914SOL    HW2 9529   4.117   1.493   1.004
 2915SOL     OW 9530   4.162   0.392   1.499
 2915SOL    HW1 9531   4.244   0.336   1.508
 2915SOL    HW2 9532   4.081   0.334   1.503
 2916SOL     OW 9533   3.955   1.713   0.483
 2916SOL    HW1 9534   3.989   1.790   0.537
 2916SOL    HW2 9535   3.999   1.713   0.393
 2917SOL     OW 9536   4.851   1.341   1.690
 2917SOL    HW1 9537   4.898   1.341   1.778
 2917SOL    HW2 9538   4.803   1.254   1.679
 2918SOL     OW 9539   3.954   1.434   0.538
 2918SOL    HW1 9540   3.928   1.530   0.538
 2918SOL    HW2 9541   3.883   1.380   0.583
 2919SOL     OW 9542   3.964   1.091   0.886
 2919SOL    HW1 9543   3.978   1.007   0.938
 2919SOL    HW2 9544   3.909   1.155   0.941
 2920SOL     OW 9545   4.344   1.786   1.439
 2920SOL    HW1 9546   4.252   1.769   1.474
 2920SOL    HW2 9547   4.372   1.878   1.465
 2921SOL     OW 9548   4.330   0.964   0.123
 2921SOL    HW1 9549   4.337   1.048   0.069
 2921SOL    HW2 9550   4.376   0.977   0.211
 2922SOL     OW 9551   3.751   1.596   0.117
 2922SOL    HW1 9552   3.732   1.500   0.138
 2922SOL    HW2 9553   3.718   1.654   0.192
 2923SOL     OW 9554   3.837   0.737   1.597
 2923SOL    HW1 9555   3.925   0.724   1.642
 2923SOL    HW2 9556   3.824   0.834   1.575
 2924SOL     OW 9557   4.337   1.365   0.726
 2924SOL    HW1 9558   4.288   1.278   0.735
 2924SOL    HW2 9559   4.314   1.408   0.639
 2925SOL     OW 9560   5.017   1.228   1.423
 2925SOL    HW1 9561   5.054   1.155   1.365
 2925SOL    HW2 9562   5.069   1.233   1.508
 2926SOL     OW 9563   4.533   0.004   0.502
 2926SOL    HW1 9564   4.573   0.095   0.493
 2926SOL    HW2 9565   4.433   0.012   0.508
 2927SOL     OW 9566   3.921   0.976   1.264
 2927SOL    HW1 9567   4.010   0.931   1.250
 2927SOL    HW2 9568   3.848   0.911   1.245
 2928SOL     OW 9569   4.911   1.792   1.616
 2928SOL    HW1 9570   4.935   1.852   1.540
 2928SOL    HW2 9571   4.918   1.697   1.586
 2929SOL     OW 9572   4.041   0.251   1.801
 2929SOL    HW1 9573   4.112   0.322   1.807
 2929SOL    HW2 9574   3.953   0.290   1.829
 2930SOL     OW 9575   4.322   0.729   0.270
 2930SOL    HW1 9576   4.346   0.798   0.202
 2930SOL    HW2 9577   4.244   0.762   0.324
 2931SOL     OW 9578   5.005   0.345   0.944
 2931SOL    HW1 9579   4.919   0.295   0.931
 2931SOL    HW2 9580   5.067   0.291   1.000
 2932SOL     OW 9581   4.531   0.605   1.465
 2932SOL    HW1 9582   4.484   0.602   1.554
 2932SOL    HW2 9583   4.480   0.550   1.399
 2933SOL     OW 9584   4.697   0.890   1.572
 2933SOL    HW1 9585   4.743   0.806   1.543
 2933SOL    HW2 9586   4.641   0.924   1.497
 2934SOL     OW 9587   4.715   0.410   1.242
 2934SOL    HW1 9588   4.638   0.444   1.296
 2934SOL    HW2 9589   4.681   0.359   1.163
 2935SOL     OW 9590   4.765   0.701   0.429
 2935SOL    HW1 9591   4.791   0.697   0.525
 2935SOL    HW2 9592   4.680   0.650   0.415
 2936SOL     OW 9593   3.800   0.811   0.789
 2936SOL    HW1 9594   3.899   0.799   0.798
 2936SOL    HW2 9595   3.776   0.906   0.810
 2937SOL     OW 9596   3.854   1.821   1.571
 2937SOL    HW1 9597   3.844   1.806   1.670
 2937SOL    HW2 9598   3.768   1.857   1.535
 2938SOL     OW 9599   4.589   0.348   0.195
 2938SOL    HW1 9600   4.648   0.411   0.146
 2938SOL    HW2 9601   4.608   0.254   0.166
 2939SOL     OW 9602   4.274   0.196   0.885
 2939SOL    HW1 9603   4.269   0.191   0.985
 2939SOL    HW2 9604   4.276   0.292   0.856
 2940SOL     OW 9605   4.732   1.456   0.477
 2940SOL    HW1 9606   4.686   1.528   0.425
 2940SOL    HW2 9607   4.728   1.476   0.575
 2941SOL     OW 9608   4.075   1.801   0.853
 2941SOL    HW1 9609   4.125   1.715   0.859
 2941SOL    HW2 9610   4.140   1.878   0.850
 2942SOL     OW 9611   4.951   1.550   1.506
 2942SOL    HW1 9612   4.957   1.473   1.570
 2942SOL    HW2 9613   4.899   1.524   1.426
 2943SOL     OW 9614   4.185   1.266   1.727
 2943SOL    HW1 9615   4.135   1.267   1.641
 2943SOL    HW2 9616   4.122   1.248   1.803
 2944SOL     OW 9617   4.835   1.776   0.237
 2944SOL    HW1 9618   4.775   1.714   0.287
 2944SOL    HW2 9619   4.866   1.732   0.152
 2945SOL     OW 9620   3.926   0.285   1.498
 2945SOL    HW1 9621   3.846   0.345   1.485
 2945SOL    HW2 9622   3.916   0.236   1.584
 2946SOL     OW 9623   5.356   1.377   0.081
 2946SOL    HW1 9624   5.324   1.471   0.071
 2946SOL    HW2 9625   5.280   1.314   0.069
 2947SOL     OW 9626   4.188   1.743   0.323
 2947SOL    HW1 9627   4.221   1.782   0.409
 2947SOL    HW2 9628   4.264   1.736   0.258
 2948SOL     OW 9629   3.973   1.785   1.241
 2948SOL    HW1 9630   4.030   1.720   1.291
 2948SOL    HW2 9631   3.957   1.752   1.148
 2949SOL     OW 9632   4.664   1.698   0.904
 2949SOL    HW1 9633   4.744   1.641   0.925
 2949SOL    HW2 9634   4.615   1.658   0.827
 2950SOL     OW 9635   4.338   0.122   0.117
 2950SOL    HW1 9636   4.436   0.100   0.124
 2950SOL    HW2 9637   4.307   0.105   0.024
 2951SOL     OW 9638   4.505   0.264   1.749
 2951SOL    HW1 9639   4.572   0.203   1.792
 2951SOL    HW2 9640   4.432   0.283   1.814
 2952SOL     OW 9641   4.612   1.514   1.195
 2952SOL    HW1 9642   4.589   1.489   1.101
 2952SOL    HW2 9643   4.673   1.445   1.234
 2953SOL     OW 9644   4.527   1.402   0.924
 2953SOL    HW1 9645   4.617   1.416   0.882
 2953SOL    HW2 9646   4.456   1.404   0.853
 2954SOL     OW 9647   4.646   0.503   0.899
 2954SOL    HW1 9648   4.621   0.494   0.803
 2954SOL    HW2 9649   4.694   0.421   0.930
 2955SOL     OW 9650   4.263   0.064   0.512
 2955SOL    HW1 9651   4.182   0.065   0.570
 2955SOL    HW2 9652   4.266   0.147   0.457
 2956SOL     OW 9653   4.021   0.035   0.171
 2956SOL    HW1 9654   4.070   0.119   0.150
 2956SOL    HW2 9655   4.083  -0.030   0.216
 2957SOL     OW 9656   4.659   0.236   0.480
 2957SOL    HW1 9657   4.611   0.277   0.402
 2957SOL    HW2 9658   4.758   0.234   0.461
 2958SOL     OW 9659   4.800   0.683   1.464
 2958SOL    HW1 9660   4.720   0.622   1.467
 2958SOL    HW2 9661   4.881   0.630   1.440
 2959SOL     OW 9662   4.951   1.570   0.793
 2959SOL    HW1 9663   4.972   1.644   0.728
 2959SOL    HW2 9664   5.019   1.570   0.866
 2960SOL     OW 9665   4.183   1.152   0.741
 2960SOL    HW1 9666   4.112   1.125   0.806
 2960SOL    HW2 9667   4.157   1.124   0.648
 2961SOL     OW 9668   4.995   1.797   0.591
 2961SOL    HW1 9669   5.039   1.861   0.527
 2961SOL    HW2 9670   4.945   1.849   0.661
 2962SOL     OW 9671   4.756   0.549   0.016
 2962SOL    HW1 9672   4.715   0.631  -0.023
 2962SOL    HW2 9673   4.820   0.575   0.089
 2963SOL     OW 9674   3.802   0.556   1.386
 2963SOL    HW1 9675   3.894   0.555   1.345
 2963SOL    HW2 9676   3.796   0.630   1.453
 2964SOL     OW 9677   4.285   0.222   1.147
 2964SOL    HW1 9678   4.323   0.138   1.184
 2964SOL    HW2 9679   4.197   0.241   1.191
 2965SOL     OW 9680   4.590   0.454   0.642
 2965SOL    HW1 9681   4.558   0.526   0.580
 2965SOL    HW2 9682   4.614   0.373   0.589
 2966SOL     OW 9683   4.741   0.039   0.753
 2966SOL    HW1 9684   4.669   0.044   0.684
 2966SOL    HW2 9685   4.717  -0.030   0.822
 2967SOL     OW 9686   4.212   1.385   0.174
 2967SOL    HW1 9687   4.125   1.370   0.221
 2967SOL    HW2 9688   4.195   1.411   0.079
 2968SOL     OW 9689   5.388   1.280   0.657
 2968SOL    HW1 9690   5.487   1.288   0.671
 2968SOL    HW2 9691   5.343   1.364   0.688
 2969SOL     OW 9692   4.251   0.256   0.328
 2969SOL    HW1 9693   4.278   0.197   0.253
 2969SOL    HW2 9694   4.251   0.351   0.297
 2970SOL     OW 9695   4.788   1.347   1.340
 2970SOL    HW1 9696   4.708   1.324   1.395
 2970SOL    HW2 9697   4.871   1.321   1.389
 2971SOL     OW 9698   4.835   1.195   1.100
 2971SOL    HW1 9699   4.795   1.239   1.181
 2971SOL    HW2 9700   4.794   1.232   1.017
 2972SOL     OW 9701   4.639   0.089   1.402
 2972SOL    HW1 9702   4.664   0.069   1.307
 2972SOL    HW2 9703   4.711   0.145   1.444
 2973SOL     OW 9704   4.704   1.116   1.719
 2973SOL    HW1 9705   4.605   1.122   1.729
 2973SOL    HW2 9706   4.727   1.036   1.663
 2974SOL     OW 9707   4.429   1.050   0.368
 2974SOL    HW1 9708   4.415   1.057   0.467
 2974SOL    HW2 9709   4.513   0.999   0.350
 2975SOL     OW 9710   4.134   0.813   1.251
 2975SOL    HW1 9711   4.220   0.825   1.301
 2975SOL    HW2 9712   4.092   0.726   1.278
 2976SOL     OW 9713   4.998   0.386   1.262
 2976SOL    HW1 9714   5.019   0.460   1.326
 2976SOL    HW2 9715   4.909   0.403   1.219
 2977SOL     OW 9716   3.788   1.564   1.331
 2977SOL    HW1 9717   3.742   1.646   1.297
 2977SOL    HW2 9718   3.886   1.583   1.340
 2978SOL     OW 9719   4.091   1.100   0.501
 2978SOL    HW1 9720   4.084   1.183   0.445
 2978SOL    HW2 9721   4.095   1.020   0.441
 2979SOL     OW 9722   4.290   0.537   0.865
 2979SOL    HW1 9723   4.302   0.603   0.791
 2979SOL    HW2 9724   4.336   0.571   0.948
 2980SOL     OW 9725   4.976   1.348   0.388
 2980SOL    HW1 9726   5.026   1.425   0.428
 2980SOL    HW2 9727   4.881   1.350   0.420
 2981SOL     OW 9728   4.078   1.510   1.329
 2981SOL    HW1 9729   4.057   1.466   1.242
 2981SOL    HW2 9730   4.175   1.536   1.332
 2982SOL     OW 9731   4.126   0.751   1.598
 2982SOL    HW1 9732   4.194   0.806   1.551
 2982SOL    HW2 9733   4.166   0.663   1.625
 2983SOL     OW 9734   4.737   0.105   1.770
 2983SOL    HW1 9735   4.743   0.190   1.718
 2983SOL    HW2 9736   4.769   0.029   1.713
 2984SOL     OW 9737   4.228   0.050   1.740
 2984SOL    HW1 9738   4.186  -0.007   1.670
 2984SOL    HW2 9739   4.162   0.119   1.772
 2985SOL     OW 9740   4.297   0.870   1.029
 2985SOL    HW1 9741   4.341   0.959   1.020
 2985SOL    HW2 9742   4.234   0.870   1.106
 2986SOL     OW 9743   5.084   0.862   1.045
 2986SOL    HW1 9744   5.009   0.862   0.979
 2986SOL    HW2 9745   5.121   0.770   1.054
 2987SOL     OW 9746   4.933   0.525   0.275
 2987SOL    HW1 9747   4.946   0.441   0.329
 2987SOL    HW2 9748   4.904   0.599   0.335
 2988SOL     OW 9749   4.031   0.213   1.231
 2988SOL    HW1 9750   4.008   0.250   1.321
 2988SOL    HW2 9751   4.001   0.118   1.225
 2989SOL     OW 9752   3.761   1.310   1.282
 2989SOL    HW1 9753   3.814   1.261   1.350
 2989SOL    HW2 9754   3.783   1.408   1.287
 2990SOL     OW 9755   4.456   0.634   1.064
 2990SOL    HW1 9756   4.515   0.608   0.988
 2990SOL    HW2 9757   4.428   0.730   1.053
 2991SOL     OW 9758   4.031   0.063   0.618
 2991SOL    HW1 9759   4.020   0.157   0.651
 2991SOL    HW2 9760   4.026   0.000   0.695
 2992SOL     OW 9761   5.346   0.367   0.374
 2992SOL    HW1 9762   5.348   0.291   0.438
 2992SOL    HW2 9763   5.298   0.444   0.414
 2993SOL     OW 9764   4.747   0.766   0.966
 2993SOL    HW1 9765   4.762   0.787   1.062
 2993SOL    HW2 9766   4.717   0.671   0.957
 2994SOL     OW 9767   4.704   1.573   1.700
 2994SOL    HW1 9768   4.684   1.617   1.612
 2994SOL    HW2 9769   4.743   1.482   1.684
 2995SOL     OW 9770   4.074   0.898   1.804
 2995SOL    HW1 9771   4.150   0.942   1.852
 2995SOL    HW2 9772   4.109   0.851   1.722
 2996SOL     OW 9773   5.027   0.838   0.042
 2996SOL    HW1 9774   5.061   0.745   0.057
 2996SOL    HW2 9775   5.045   0.865  -0.053
 2997SOL     OW 9776   4.792   1.333   0.849
 2997SOL    HW1 9777   4.799   1.249   0.794
 2997SOL    HW2 9778   4.854   1.402   0.813
 2998SOL     OW 9779   4.043   0.810   0.949
 2998SOL    HW1 9780   4.136   0.846   0.954
 2998SOL    HW2 9781   4.037   0.725   1.001
 2999SOL     OW 9782   4.063   0.509   1.006
 2999SOL    HW1 9783   4.011   0.426   0.989
 2999SOL    HW2 9784   4.140   0.514   0.942
 3000SOL     OW 9785   4.862   0.380   1.678
 3000SOL    HW1 9786   4.817   0.443   1.742
 3000SOL    HW2 9787   4.955   0.411   1.661
 3001SOL     OW 9788   4.884   0.207   1.477
 3001SOL    HW1 9789   4.884   0.271   1.554
 3001SOL    HW2 9790   4.912   0.255   1.394
 3002SOL     OW 9791   3.812   1.801   0.927
 3002SOL    HW1 9792   3.770   1.715   0.900
 3002SOL    HW2 9793   3.906   1.804   0.893
 3003SOL     OW 9794   4.228   1.568   0.910
 3003SOL    HW1 9795   4.294   1.642   0.919
 3003SOL    HW2 9796   4.272   1.489   0.868
 3004SOL     OW 9797   4.726   0.796   1.238
 3004SOL    HW1 9798   4.767   0.764   1.324
 3004SOL    HW2 9799   4.630   0.769   1.235
 3005SOL     OW 9800   3.764   0.544   1.114
 3005SOL    HW1 9801   3.849   0.511   1.073
 3005SOL    HW2 9802   3.777   0.559   1.212
 3006SOL     OW 9803   3.913   0.520   1.722
 3006SOL    HW1 9804   3.972   0.480   1.652
 3006SOL    HW2 9805   3.855   0.591   1.681
 3007SOL     OW 9806   4.539   0.572   0.325
 3007SOL    HW1 9807   4.546   0.483   0.279
 3007SOL    HW2 9808   4.445   0.606   0.317
 3008SOL     OW 9809   3.976   1.564   1.744
 3008SOL    HW1 9810   3.946   1.621   1.820
 3008SOL    HW2 9811   3.969   1.467   1.770
 3009SOL     OW 9812   4.395   0.464   1.269
 3009SOL    HW1 9813   4.361   0.375   1.239
 3009SOL    HW2 9814   4.421   0.518   1.189
 3010SOL     OW 9815   4.654   1.678   1.465
 3010SOL    HW1 9816   4.630   1.660   1.370
 3010SOL    HW2 9817   4.684   1.772   1.475
 3011SOL     OW 9818   3.883   1.137   1.466
 3011SOL    HW1 9819   3.905   1.076   1.542
 3011SOL    HW2 9820   3.893   1.088   1.380
 3012SOL     OW 9821   5.071   1.059   1.234
 3012SOL    HW1 9822   5.095   0.996   1.160
 3012SOL    HW2 9823   4.981   1.099   1.216
 3013SOL     OW 9824   4.976   1.731   1.128
 3013SOL    HW1 9825   5.060   1.736   1.074
 3013SOL    HW2 9826   4.953   1.635   1.146
 3014SOL     OW 9827   3.807   1.258   1.022
 3014SOL    HW1 9828   3.802   1.257   1.122
 3014SOL    HW2 9829   3.724   1.217   0.984
 3015SOL     OW 9830   4.412   1.662   1.716
 3015SOL    HW1 9831   4.356   1.743   1.725
 3015SOL    HW2 9832   4.464   1.666   1.630
 3016SOL     OW 9833   4.627   0.086   0.133
 3016SOL    HW1 9834   4.678   0.087   0.047
 3016SOL    HW2 9835   4.683   0.044   0.204
 3017SOL     OW 9836   5.112   1.573   0.477
 3017SOL    HW1 9837   5.179   1.585   0.403
 3017SOL    HW2 9838   5.072   1.662   0.500
 3018SOL     OW 9839   3.854   1.794   1.851
 3018SOL    HW1 9840   3.813   1.720   1.904
 3018SOL    HW2 9841   3.918   1.845   1.909
 3019SOL     OW 9842   5.004   0.927   0.672
 3019SOL    HW1 9843   5.064   0.846   0.674
 3019SOL    HW2 9844   5.044   0.996   0.612
 3020SOL     OW 9845   4.554   1.273   1.422
 3020SOL    HW1 9846   4.549   1.306   1.517
 3020SOL    HW2 9847   4.468   1.292   1.376
 3021SOL     OW 9848   4.396   1.616   0.154
 3021SOL    HW1 9849   4.405   1.626   0.055
 3021SOL    HW2 9850   4.356   1.527   0.175
 3022SOL     OW 9851   3.987   0.326   0.720
 3022SOL    HW1 9852   3.908   0.377   0.686
 3022SOL    HW2 9853   3.978   0.311   0.818
 3023SOL     OW 9854   4.918   1.612   0.031
 3023SOL    HW1 9855   4.924   1.519   0.068
 3023SOL    HW2 9856   4.859   1.612  -0.049
 3024SOL     OW 9857   4.546   1.002   1.372
 3024SOL    HW1 9858   4.586   1.001   1.280
 3024SOL    HW2 9859   4.556   1.094   1.412
 3025SOL     OW 9860   4.640   0.910   0.291
 3025SOL    HW1 9861   4.703   0.948   0.223
 3025SOL    HW2 9862   4.680   0.827   0.330
 3026SOL     OW 9863   4.096   1.288   1.490
 3026SOL    HW1 9864   4.083   1.381   1.456
 3026SOL    HW2 9865   4.012   1.236   1.477
 3027SOL     OW 9866   4.763   1.098   0.696
 3027SOL    HW1 9867   4.693   1.051   0.750
 3027SOL    HW2 9868   4.822   1.030   0.653
 3028SOL     OW 9869   4.738   0.236   0.971
 3028SOL    HW1 9870   4.730   0.200   0.878
 3028SOL    HW2 9871   4.736   0.160   1.036
 3029SOL     OW 9872   4.314   1.487   0.491
 3029SOL    HW1 9873   4.356   1.429   0.421
 3029SOL    HW2 9874   4.270   1.566   0.447
 3030SOL     OW 9875   3.979   1.348   0.290
 3030SOL    HW1 9876   3.883   1.349   0.263
 3030SOL    HW2 9877   3.991   1.401   0.374
 3031SOL     OW 9878   3.829   1.013   1.726
 3031SOL    HW1 9879   3.752   0.980   1.780
 3031SOL    HW2 9880   3.914   0.983   1.768
 3032SOL     OW 9881   4.396   0.203   1.489
 3032SOL    HW1 9882   4.486   0.187   1.449
 3032SOL    HW2 9883   4.404   0.208   1.588
 3033SOL     OW 9884   5.164   0.856   1.398
 3033SOL    HW1 9885   5.107   0.908   1.335
 3033SOL    HW2 9886   5.260   0.868   1.374
 3034SOL     OW 9887   3.796   0.166   0.318
 3034SOL    HW1 9888   3.779   0.249   0.264
 3034SOL    HW2 9889   3.886   0.129   0.296
 3035SOL     OW 9890   4.337   0.842   1.431
 3035SOL    HW1 9891   4.393   0.923   1.414
 3035SOL    HW2 9892   4.396   0.762   1.434
 3036SOL     OW 9893   4.440   0.565   1.708
 3036SOL    HW1 9894   4.459   0.630   1.782
 3036SOL    HW2 9895   4.500   0.485   1.717
 3037SOL     OW 9896   4.114   1.741   1.560
 3037SOL    HW1 9897   4.023   1.782   1.558
 3037SOL    HW2 9898   4.107   1.647   1.592
 3038SOL     OW 9899   4.949   0.325   0.449
 3038SOL    HW1 9900   5.014   0.251   0.438
 3038SOL    HW2 9901   4.969   0.375   0.533
 3039SOL     OW 9902   4.318   0.745   0.652
 3039SOL    HW1 9903   4.368   0.830   0.633
 3039SOL    HW2 9904   4.230   0.747   0.604
 3040SOL     OW 9905   4.583   1.374   0.016
 3040SOL    HW1 9906   4.537   1.389   0.104
 3040SOL    HW2 9907   4.627   1.459  -0.014
 3041SOL     OW 9908   4.385   1.790   0.953
 3041SOL    HW1 9909   4.339   1.878   0.940
 3041SOL    HW2 9910   4.484   1.802   0.946
 3042SOL     OW 9911   4.583   0.956   0.861
 3042SOL    HW1 9912   4.637   0.887   0.909
 3042SOL    HW2 9913   4.551   1.025   0.927
 3043SOL     OW 9914   4.807   0.984   0.087
 3043SOL    HW1 9915   4.784   1.037   0.005
 3043SOL    HW2 9916   4.888   0.928   0.068
 3044SOL     OW 9917   3.945   1.314   1.844
 3044SOL    HW1 9918   3.880   1.241   1.823
 3044SOL    HW2 9919   3.949   1.328   1.942
 3045SOL     OW 9920   3.803   1.240   0.653
 3045SOL    HW1 9921   3.802   1.193   0.741
 3045SOL    HW2 9922   3.885   1.212   0.602
 3046SOL     OW 9923   4.396   1.391   1.624
 3046SOL    HW1 9924   4.318   1.341   1.662
 3046SOL    HW2 9925   4.393   1.486   1.655
 3047SOL     OW 9926   4.152   0.424   0.520
 3047SOL    HW1 9927   4.182   0.352   0.458
 3047SOL    HW2 9928   4.113   0.384   0.603
 3048SOL     OW 9929   4.041   0.547   1.280
 3048SOL    HW1 9930   4.079   0.488   1.352
 3048SOL    HW2 9931   4.081   0.521   1.192
 3049SOL     OW 9932   4.536   1.586   0.687
 3049SOL    HW1 9933   4.568   1.596   0.593
 3049SOL    HW2 9934   4.457   1.524   0.689
 3050SOL     OW 9935   4.725   0.034   1.154
 3050SOL    HW1 9936   4.662  -0.038   1.123
 3050SOL    HW2 9937   4.818  -0.002   1.154
 3051SOL     OW 9938   4.494   1.330   0.301
 3051SOL    HW1 9939   4.448   1.243   0.318
 3051SOL    HW2 9940   4.585   1.327   0.342
 3052SOL     OW 9941   4.342   1.567   1.284
 3052SOL    HW1 9942   4.337   1.649   1.341
 3052SOL    HW2 9943   4.431   1.564   1.239
 3053SOL     OW 9944   3.763   1.077   0.300
 3053SOL    HW1 9945   3.862   1.066   0.291
 3053SOL    HW2 9946   3.723   0.991   0.332
 3054SOL     OW 9947   4.599   1.646   0.337
 3054SOL    HW1 9948   4.522   1.611   0.283
 3054SOL    HW2 9949   4.567   1.717   0.399
 3055SOL     OW 9950   3.954   0.628   1.975
 3055SOL    HW1 9951   3.861   0.626   2.012
 3055SOL    HW2 9952   3.955   0.589   1.883
 3056SOL     OW 9953   3.949   0.275   2.858
 3056SOL    HW1 9954   3.984   0.258   2.950
 3056SOL    HW2 9955   3.861   0.230   2.846
 3057SOL     OW 9956   3.743   0.368   2.509
 3057SOL    HW1 9957   3.661   0.411   2.548
 3057SOL    HW2 9958   3.715   0.295   2.446
 3058SOL     OW 9959   4.293   1.275   3.027
 3058SOL    HW1 9960   4.200   1.268   2.990
 3058SOL    HW2 9961   4.304   1.364   3.071
 3059SOL     OW 9962   4.859   0.703   2.579
 3059SOL    HW1 9963   4.916   0.781   2.554
 3059SOL    HW2 9964   4.799   0.729   2.655
 3060SOL     OW 9965   4.492   1.144   2.885
 3060SOL    HW1 9966   4.414   1.161   2.945
 3060SOL    HW2 9967   4.526   1.231   2.849
 3061SOL     OW 9968   4.574   0.798   3.685
 3061SOL    HW1 9969   4.570   0.874   3.750
 3061SOL    HW2 9970   4.596   0.834   3.594
 3062SOL     OW 9971   4.409   1.012   2.527
 3062SOL    HW1 9972   4.478   0.996   2.597
 3062SOL    HW2 9973   4.336   1.069   2.565
 3063SOL     OW 9974   4.410   1.161   3.665
 3063SOL    HW1 9975   4.470   1.240   3.679
 3063SOL    HW2 9976   4.324   1.192   3.624
 3064SOL     OW 9977   4.059   1.435   2.923
 3064SOL    HW1 9978   3.981   1.404   2.870
 3064SOL    HW2 9979   4.117   1.493   2.866
 3065SOL     OW 9980   4.162   0.392   3.361
 3065SOL    HW1 9981   4.244   0.336   3.370
 3065SOL    HW2 9982   4.081   0.334   3.365
 3066SOL     OW 9983   3.955   1.713   2.345
 3066SOL    HW1 9984   3.989   1.790   2.399
 3066SOL    HW2 9985   3.999   1.713   2.255
 3067SOL     OW 9986   4.851   1.341   3.552
 3067SOL    HW1 9987   4.898   1.341   3.640
 3067SOL    HW2 9988   4.803   1.254   3.541
 3068SOL     OW 9989   3.954   1.434   2.400
 3068SOL    HW1 9990   3.928   1.530   2.400
 3068SOL    HW2 9991   3.883   1.380   2.445
 3069SOL     OW 9992   3.964   1.091   2.748
 3069SOL    HW1 9993   3.978   1.007   2.800
 3069SOL    HW2 9994   3.909   1.155   2.803
 3070SOL     OW 9995   4.330   0.964   1.985
 3070SOL    HW1 9996   4.337   1.048   1.931
 3070SOL    HW2 9997   4.376   0.977   2.073
 3071SOL     OW 9998   3.846   0.643   2.425
 3071SOL    HW1 9999   3.801   0.555   2.442
 3071SOL    HW210000   3.845   0.697   2.509
 3072SOL     OW10001   3.751   1.596   1.979
 3072SOL    HW110002   3.732   1.500   2.000
 3072SOL    HW210003   3.718   1.654   2.054
 3073SOL     OW10004   3.837   0.737   3.459
 3073SOL    HW110005   3.925   0.724   3.504
 3073SOL    HW210006   3.824   0.834   3.437
 3074SOL     OW10007   4.337   1.365   2.588
 3074SOL    HW110008   4.288   1.278   2.597
 3074SOL    HW210009   4.314   1.408   2.501
 3075SOL     OW10010   5.017   1.228   3.285
 3075SOL    HW110011   5.054   1.155   3.227
 3075SOL    HW210012   5.069   1.233   3.370
 3076SOL     OW10013   4.533   0.004   2.364
 3076SOL    HW110014   4.573   0.095   2.355
 3076SOL    HW210015   4.433   0.012   2.370
 3077SOL     OW10016   3.921   0.976   3.126
 3077SOL    HW110017   4.010   0.931   3.112
 3077SOL    HW210018   3.848   0.911   3.107
 3078SOL     OW10019   4.911   1.792   3.478
 3078SOL    HW110020   4.935   1.852   3.402
 3078SOL    HW210021   4.918   1.697   3.448
 3079SOL     OW10022   4.041   0.251   3.663
 3079SOL    HW110023   4.112   0.322   3.669
 3079SOL    HW210024   3.953   0.290   3.691
 3080SOL     OW10025   4.322   0.729   2.132
 3080SOL    HW110026   4.346   0.798   2.064
 3080SOL    HW210027   4.244   0.762   2.186
 3081SOL     OW10028   5.005   0.345   2.806
 3081SOL    HW110029   4.919   0.295   2.793
 3081SOL    HW210030   5.067   0.291   2.862
 3082SOL     OW10031   4.531   0.605   3.327
 3082SOL    HW110032   4.484   0.602   3.416
 3082SOL    HW210033   4.480   0.550   3.261
 3083SOL     OW10034   4.697   0.890   3.434
 3083SOL    HW110035   4.743   0.806   3.405
 3083SOL    HW210036   4.641   0.924   3.359
 3084SOL     OW10037   4.715   0.410   3.104
 3084SOL    HW110038   4.638   0.444   3.158
 3084SOL    HW210039   4.681   0.359   3.025
 3085SOL     OW10040   4.765   0.701   2.291
 3085SOL    HW110041   4.791   0.697   2.387
 3085SOL    HW210042   4.680   0.650   2.277
 3086SOL     OW10043   3.800   0.811   2.651
 3086SOL    HW110044   3.899   0.799   2.660
 3086SOL    HW210045   3.776   0.906   2.672
 3087SOL     OW10046   3.854   1.821   3.433
 3087SOL    HW110047   3.844   1.806   3.532
 3087SOL    HW210048   3.768   1.857   3.397
 3088SOL     OW10049   4.589   0.348   2.057
 3088SOL    HW110050   4.648   0.411   2.008
 3088SOL    HW210051   4.608   0.254   2.028
 3089SOL     OW10052   4.274   0.196   2.747
 3089SOL    HW110053   4.269   0.191   2.847
 3089SOL    HW210054   4.276   0.292   2.718
 3090SOL     OW10055   4.732   1.456   2.339
 3090SOL    HW110056   4.686   1.528   2.287
 3090SOL    HW210057   4.728   1.476   2.437
 3091SOL     OW10058   4.075   1.801   2.715
 3091SOL    HW110059   4.125   1.715   2.721
 3091SOL    HW210060   4.140   1.878   2.712
 3092SOL     OW10061   4.951   1.550   3.368
 3092SOL    HW110062   4.957   1.473   3.432
 3092SOL    HW210063   4.899   1.524   3.288
 3093SOL     OW10064   4.045   0.943   2.104
 3093SOL    HW110065   4.127   0.982   2.062
 3093SOL    HW210066   4.018   0.861   2.055
 3094SOL     OW10067   4.185   1.266   3.589
 3094SOL    HW110068   4.135   1.267   3.503
 3094SOL    HW210069   4.122   1.248   3.665
 3095SOL     OW10070   4.835   1.776   2.099
 3095SOL    HW110071   4.775   1.714   2.149
 3095SOL    HW210072   4.866   1.732   2.014
 3096SOL     OW10073   3.926   0.285   3.360
 3096SOL    HW110074   3.846   0.345   3.347
 3096SOL    HW210075   3.916   0.236   3.446
 3097SOL     OW10076   4.188   1.743   2.185
 3097SOL    HW110077   4.221   1.782   2.271
 3097SOL    HW210078   4.264   1.736   2.120
 3098SOL     OW10079   3.973   1.785   3.103
 3098SOL    HW110080   4.030   1.720   3.153
 3098SOL    HW210081   3.957   1.752   3.010
 3099SOL     OW10082   4.664   1.698   2.766
 3099SOL    HW110083   4.744   1.641   2.787
 3099SOL    HW210084   4.615   1.658   2.689
 3100SOL     OW10085   4.106   0.700   2.342
 3100SOL    HW110086   4.151   0.610   2.339
 3100SOL    HW210087   4.012   0.689   2.375
 3101SOL     OW10088   4.338   0.122   1.979
 3101SOL    HW110089   4.436   0.100   1.986
 3101SOL    HW210090   4.307   0.105   1.886
 3102SOL     OW10091   4.505   0.264   3.611
 3102SOL    HW110092   4.572   0.203   3.654
 3102SOL    HW210093   4.432   0.283   3.676
 3103SOL     OW10094   4.612   1.514   3.057
 3103SOL    HW110095   4.589   1.489   2.963
 3103SOL    HW210096   4.673   1.445   3.096
 3104SOL     OW10097   4.527   1.402   2.786
 3104SOL    HW110098   4.617   1.416   2.744
 3104SOL    HW210099   4.456   1.404   2.715
 3105SOL     OW10100   4.646   0.503   2.761
 3105SOL    HW110101   4.621   0.494   2.665
 3105SOL    HW210102   4.694   0.421   2.792
 3106SOL     OW10103   4.263   0.064   2.374
 3106SOL    HW110104   4.182   0.065   2.432
 3106SOL    HW210105   4.266   0.147   2.319
 3107SOL     OW10106   4.021   0.035   2.033
 3107SOL    HW110107   4.070   0.119   2.012
 3107SOL    HW210108   4.083  -0.030   2.078
 3108SOL     OW10109   4.659   0.236   2.342
 3108SOL    HW110110   4.611   0.277   2.264
 3108SOL    HW210111   4.758   0.234   2.323
 3109SOL     OW10112   4.800   0.683   3.326
 3109SOL    HW110113   4.720   0.622   3.329
 3109SOL    HW210114   4.881   0.630   3.302
 3110SOL     OW10115   4.951   1.570   2.655
 3110SOL    HW110116   4.972   1.644   2.590
 3110SOL    HW210117   5.019   1.570   2.728
 3111SOL     OW10118   4.183   1.152   2.603
 3111SOL    HW110119   4.112   1.125   2.668
 3111SOL    HW210120   4.157   1.124   2.510
 3112SOL     OW10121   4.995   1.797   2.453
 3112SOL    HW110122   5.039   1.861   2.389
 3112SOL    HW210123   4.945   1.849   2.523
 3113SOL     OW10124   4.756   0.549   1.878
 3113SOL    HW110125   4.715   0.631   1.839
 3113SOL    HW210126   4.820   0.575   1.951
 3114SOL     OW10127   3.802   0.556   3.248
 3114SOL    HW110128   3.894   0.555   3.207
 3114SOL    HW210129   3.796   0.630   3.315
 3115SOL     OW10130   4.285   0.222   3.009
 3115SOL    HW110131   4.323   0.138   3.046
 3115SOL    HW210132   4.197   0.241   3.053
 3116SOL     OW10133   4.590   0.454   2.504
 3116SOL    HW110134   4.558   0.526   2.442
 3116SOL    HW210135   4.614   0.373   2.451
 3117SOL     OW10136   4.741   0.039   2.615
 3117SOL    HW110137   4.669   0.044   2.546
 3117SOL    HW210138   4.717  -0.030   2.684
 3118SOL     OW10139   4.212   1.385   2.036
 3118SOL    HW110140   4.125   1.370   2.083
 3118SOL    HW210141   4.195   1.411   1.941
 3119SOL     OW10142   5.388   1.280   2.519
 3119SOL    HW110143   5.487   1.288   2.533
 3119SOL    HW210144   5.343   1.364   2.550
 3120SOL     OW10145   4.251   0.256   2.190
 3120SOL    HW110146   4.278   0.197   2.115
 3120SOL    HW210147   4.251   0.351   2.159
 3121SOL     OW10148   4.788   1.347   3.202
 3121SOL    HW110149   4.708   1.324   3.257
 3121SOL    HW210150   4.871   1.321   3.251
 3122SOL     OW10151   4.835   1.195   2.962
 3122SOL    HW110152   4.795   1.239   3.043
 3122SOL    HW210153   4.794   1.232   2.879
 3123SOL     OW10154   4.639   0.089   3.264
 3123SOL    HW110155   4.664   0.069   3.169
 3123SOL    HW210156   4.711   0.145   3.306
 3124SOL     OW10157   4.704   1.116   3.581
 3124SOL    HW110158   4.605   1.122   3.591
 3124SOL    HW210159   4.727   1.036   3.525
 3125SOL     OW10160   4.429   1.050   2.230
 3125SOL    HW110161   4.415   1.057   2.329
 3125SOL    HW210162   4.513   0.999   2.212
 3126SOL     OW10163   4.134   0.813   3.113
 3126SOL    HW110164   4.220   0.825   3.163
 3126SOL    HW210165   4.092   0.726   3.140
 3127SOL     OW10166   4.998   0.386   3.124
 3127SOL    HW110167   5.019   0.460   3.188
 3127SOL    HW210168   4.909   0.403   3.081
 3128SOL     OW10169   3.788   1.564   3.193
 3128SOL    HW110170   3.742   1.646   3.159
 3128SOL    HW210171   3.886   1.583   3.202
 3129SOL     OW10172   4.091   1.100   2.363
 3129SOL    HW110173   4.084   1.183   2.307
 3129SOL    HW210174   4.095   1.020   2.303
 3130SOL     OW10175   4.290   0.537   2.727
 3130SOL    HW110176   4.302   0.603   2.653
 3130SOL    HW210177   4.336   0.571   2.810
 3131SOL     OW10178   4.976   1.348   2.250
 3131SOL    HW110179   5.026   1.425   2.290
 3131SOL    HW210180   4.881   1.350   2.282
 3132SOL     OW10181   4.078   1.510   3.191
 3132SOL    HW110182   4.057   1.466   3.104
 3132SOL    HW210183   4.175   1.536   3.194
 3133SOL     OW10184   4.126   0.751   3.460
 3133SOL    HW110185   4.194   0.806   3.413
 3133SOL    HW210186   4.166   0.663   3.487
 3134SOL     OW10187   4.737   0.105   3.632
 3134SOL    HW110188   4.743   0.190   3.580
 3134SOL    HW210189   4.769   0.029   3.575
 3135SOL     OW10190   4.297   0.870   2.891
 3135SOL    HW110191   4.341   0.959   2.882
 3135SOL    HW210192   4.234   0.870   2.968
 3136SOL     OW10193   5.084   0.862   2.907
 3136SOL    HW110194   5.009   0.862   2.841
 3136SOL    HW210195   5.121   0.770   2.916
 3137SOL     OW10196   4.933   0.525   2.137
 3137SOL    HW110197   4.946   0.441   2.191
 3137SOL    HW210198   4.904   0.599   2.197
 3138SOL     OW10199   4.031   0.213   3.093
 3138SOL    HW110200   4.008   0.250   3.183
 3138SOL    HW210201   4.001   0.118   3.087
 3139SOL     OW10202   3.761   1.310   3.144
 3139SOL    HW110203   3.814   1.261   3.212
 3139SOL    HW210204   3.783   1.408   3.149
 3140SOL     OW10205   4.456   0.634   2.926
 3140SOL    HW110206   4.515   0.608   2.850
 3140SOL    HW210207   4.428   0.730   2.915
 3141SOL     OW10208   4.031   0.063   2.480
 3141SOL    HW110209   4.020   0.157   2.513
 3141SOL    HW210210   4.026   0.000   2.557
 3142SOL     OW10211   5.346   0.367   2.236
 3142SOL    HW110212   5.348   0.291   2.300
 3142SOL    HW210213   5.298   0.444   2.276
 3143SOL     OW10214   4.747   0.766   2.828
 3143SOL    HW110215   4.762   0.787   2.924
 3143SOL    HW210216   4.717   0.671   2.819
 3144SOL     OW10217   4.704   1.573   3.562
 3144SOL    HW110218   4.684   1.617   3.474
 3144SOL    HW210219   4.743   1.482   3.546
 3145SOL     OW10220   4.074   0.898   3.666
 3145SOL    HW110221   4.150   0.942   3.714
 3145SOL    HW210222   4.109   0.851   3.584
 3146SOL     OW10223   5.027   0.838   1.904
 3146SOL    HW110224   5.061   0.745   1.919
 3146SOL    HW210225   5.045   0.865   1.809
 3147SOL     OW10226   4.792   1.333   2.711
 3147SOL    HW110227   4.799   1.249   2.656
 3147SOL    HW210228   4.854   1.402   2.675
 3148SOL     OW10229   4.043   0.810   2.811
 3148SOL    HW110230   4.136   0.846   2.816
 3148SOL    HW210231   4.037   0.725   2.863
 3149SOL     OW10232   4.063   0.509   2.868
 3149SOL    HW110233   4.011   0.426   2.851
 3149SOL    HW210234   4.140   0.514   2.804
 3150SOL     OW10235   4.862   0.380   3.540
 3150SOL    HW110236   4.817   0.443   3.604
 3150SOL    HW210237   4.955   0.411   3.523
 3151SOL     OW10238   4.884   0.207   3.339
 3151SOL    HW110239   4.884   0.271   3.416
 3151SOL    HW210240   4.912   0.255   3.256
 3152SOL     OW10241   3.732   1.326   2.062
 3152SOL    HW110242   3.639   1.347   2.031
 3152SOL    HW210243   3.742   1.227   2.075
 3153SOL     OW10244   3.812   1.801   2.789
 3153SOL    HW110245   3.770   1.715   2.762
 3153SOL    HW210246   3.906   1.804   2.755
 3154SOL     OW10247   4.228   1.568   2.772
 3154SOL    HW110248   4.294   1.642   2.781
 3154SOL    HW210249   4.272   1.489   2.730
 3155SOL     OW10250   4.726   0.796   3.100
 3155SOL    HW110251   4.767   0.764   3.186
 3155SOL    HW210252   4.630   0.769   3.097
 3156SOL     OW10253   3.764   0.544   2.976
 3156SOL    HW110254   3.849   0.511   2.935
 3156SOL    HW210255   3.777   0.559   3.074
 3157SOL     OW10256   3.913   0.520   3.584
 3157SOL    HW110257   3.972   0.480   3.514
 3157SOL    HW210258   3.855   0.591   3.543
 3158SOL     OW10259   4.539   0.572   2.187
 3158SOL    HW110260   4.546   0.483   2.141
 3158SOL    HW210261   4.445   0.606   2.179
 3159SOL     OW10262   3.976   1.564   3.606
 3159SOL    HW110263   3.946   1.621   3.682
 3159SOL    HW210264   3.969   1.467   3.632
 3160SOL     OW10265   4.395   0.464   3.131
 3160SOL    HW110266   4.361   0.375   3.101
 3160SOL    HW210267   4.421   0.518   3.051
 3161SOL     OW10268   4.654   1.678   3.327
 3161SOL    HW110269   4.630   1.660   3.232
 3161SOL    HW210270   4.684   1.772   3.337
 3162SOL     OW10271   4.197   0.500   2.053
 3162SOL    HW110272   4.258   0.580   2.057
 3162SOL    HW210273   4.102   0.531   2.060
 3163SOL     OW10274   3.883   1.137   3.328
 3163SOL    HW110275   3.905   1.076   3.404
 3163SOL    HW210276   3.893   1.088   3.242
 3164SOL     OW10277   5.071   1.059   3.096
 3164SOL    HW110278   5.095   0.996   3.022
 3164SOL    HW210279   4.981   1.099   3.078
 3165SOL     OW10280   4.976   1.731   2.990
 3165SOL    HW110281   5.060   1.736   2.936
 3165SOL    HW210282   4.953   1.635   3.008
 3166SOL     OW10283   3.807   1.258   2.884
 3166SOL    HW110284   3.802   1.257   2.984
 3166SOL    HW210285   3.724   1.217   2.846
 3167SOL     OW10286   4.412   1.662   3.578
 3167SOL    HW110287   4.356   1.743   3.587
 3167SOL    HW210288   4.464   1.666   3.492
 3168SOL     OW10289   5.112   1.573   2.339
 3168SOL    HW110290   5.179   1.585   2.265
 3168SOL    HW210291   5.072   1.662   2.362
 3169SOL     OW10292   3.854   1.794   3.713
 3169SOL    HW110293   3.813   1.720   3.766
 3169SOL    HW210294   3.918   1.845   3.771
 3170SOL     OW10295   5.004   0.927   2.534
 3170SOL    HW110296   5.064   0.846   2.536
 3170SOL    HW210297   5.044   0.996   2.474
 3171SOL     OW10298   4.554   1.273   3.284
 3171SOL    HW110299   4.549   1.306   3.379
 3171SOL    HW210300   4.468   1.292   3.238
 3172SOL     OW10301   4.396   1.616   2.016
 3172SOL    HW110302   4.405   1.626   1.917
 3172SOL    HW210303   4.356   1.527   2.037
 3173SOL     OW10304   3.987   0.326   2.582
 3173SOL    HW110305   3.908   0.377   2.548
 3173SOL    HW210306   3.978   0.311   2.680
 3174SOL     OW10307   4.918   1.612   1.893
 3174SOL    HW110308   4.924   1.519   1.930
 3174SOL    HW210309   4.859   1.612   1.813
 3175SOL     OW10310   4.546   1.002   3.234
 3175SOL    HW110311   4.586   1.001   3.142
 3175SOL    HW210312   4.556   1.094   3.274
 3176SOL     OW10313   4.640   0.910   2.153
 3176SOL    HW110314   4.703   0.948   2.085
 3176SOL    HW210315   4.680   0.827   2.192
 3177SOL     OW10316   4.096   1.288   3.352
 3177SOL    HW110317   4.083   1.381   3.318
 3177SOL    HW210318   4.012   1.236   3.339
 3178SOL     OW10319   4.763   1.098   2.558
 3178SOL    HW110320   4.693   1.051   2.612
 3178SOL    HW210321   4.822   1.030   2.515
 3179SOL     OW10322   4.738   0.236   2.833
 3179SOL    HW110323   4.730   0.200   2.740
 3179SOL    HW210324   4.736   0.160   2.898
 3180SOL     OW10325   4.314   1.487   2.353
 3180SOL    HW110326   4.356   1.429   2.283
 3180SOL    HW210327   4.270   1.566   2.309
 3181SOL     OW10328   3.979   1.348   2.152
 3181SOL    HW110329   3.883   1.349   2.125
 3181SOL    HW210330   3.991   1.401   2.236
 3182SOL     OW10331   3.829   1.013   3.588
 3182SOL    HW110332   3.752   0.980   3.642
 3182SOL    HW210333   3.914   0.983   3.630
 3183SOL     OW10334   4.396   0.203   3.351
 3183SOL    HW110335   4.486   0.187   3.311
 3183SOL    HW210336   4.404   0.208   3.450
 3184SOL     OW10337   3.799   0.345   1.895
 3184SOL    HW110338   3.707   0.317   1.866
 3184SOL    HW210339   3.830   0.422   1.839
 3185SOL     OW10340   5.164   0.856   3.260
 3185SOL    HW110341   5.107   0.908   3.197
 3185SOL    HW210342   5.260   0.868   3.236
 3186SOL     OW10343   3.796   0.166   2.180
 3186SOL    HW110344   3.779   0.249   2.126
 3186SOL    HW210345   3.886   0.129   2.158
 3187SOL     OW10346   4.337   0.842   3.293
 3187SOL    HW110347   4.393   0.923   3.276
 3187SOL    HW210348   4.396   0.762   3.296
 3188SOL     OW10349   4.440   0.565   3.570
 3188SOL    HW110350   4.459   0.630   3.644
 3188SOL    HW210351   4.500   0.485   3.579
 3189SOL     OW10352   4.114   1.741   3.422
 3189SOL    HW110353   4.023   1.782   3.420
 3189SOL    HW210354   4.107   1.647   3.454
 3190SOL     OW10355   4.949   0.325   2.311
 3190SOL    HW110356   5.014   0.251   2.300
 3190SOL    HW210357   4.969   0.375   2.395
 3191SOL     OW10358   4.318   0.745   2.514
 3191SOL    HW110359   4.368   0.830   2.495
 3191SOL    HW210360   4.230   0.747   2.466
 3192SOL     OW10361   4.583   1.374   1.878
 3192SOL    HW110362   4.537   1.389   1.966
 3192SOL    HW210363   4.627   1.459   1.848
 3193SOL     OW10364   4.385   1.790   2.815
 3193SOL    HW110365   4.339   1.878   2.802
 3193SOL    HW210366   4.484   1.802   2.808
 3194SOL     OW10367   4.583   0.956   2.723
 3194SOL    HW110368   4.637   0.887   2.771
 3194SOL    HW210369   4.551   1.025   2.789
 3195SOL     OW10370   4.807   0.984   1.949
 3195SOL    HW110371   4.784   1.037   1.867
 3195SOL    HW210372   4.888   0.928   1.930
 3196SOL     OW10373   3.945   1.314   3.706
 3196SOL    HW110374   3.880   1.241   3.685
 3196SOL    HW210375   3.949   1.328   3.804
 3197SOL     OW10376   3.803   1.240   2.515
 3197SOL    HW110377   3.802   1.193   2.603
 3197SOL    HW210378   3.885   1.212   2.464
 3198SOL     OW10379   4.396   1.391   3.486
 3198SOL    HW110380   4.318   1.341   3.524
 3198SOL    HW210381   4.393   1.486   3.517
 3199SOL     OW10382   4.152   0.424   2.382
 3199SOL    HW110383   4.182   0.352   2.320
 3199SOL    HW210384   4.113   0.384   2.465
 3200SOL     OW10385   4.041   0.547   3.142
 3200SOL    HW110386   4.079   0.488   3.214
 3200SOL    HW210387   4.081   0.521   3.054
 3201SOL     OW10388   4.536   1.586   2.549
 3201SOL    HW110389   4.568   1.596   2.455
 3201SOL    HW210390   4.457   1.524   2.551
 3202SOL     OW10391   4.725   0.034   3.016
 3202SOL    HW110392   4.662  -0.038   2.985
 3202SOL    HW210393   4.818  -0.002   3.016
 3203SOL     OW10394   4.494   1.330   2.163
 3203SOL    HW110395   4.448   1.243   2.180
 3203SOL    HW210396   4.585   1.327   2.204
 3204SOL     OW10397   4.342   1.567   3.146
 3204SOL    HW110398   4.337   1.649   3.203
 3204SOL    HW210399   4.431   1.564   3.101
 3205SOL     OW10400   3.763   1.077   2.162
 3205SOL    HW110401   3.862   1.066   2.153
 3205SOL    HW210402   3.723   0.991   2.194
 3206SOL     OW10403   4.599   1.646   2.199
 3206SOL    HW110404   4.522   1.611   2.145
 3206SOL    HW210405   4.567   1.717   2.261
 3207SOL     OW10406   3.954   0.628   3.837
 3207SOL    HW110407   3.861   0.626   3.874
 3207SOL    HW210408   3.955   0.589   3.745
 3208SOL     OW10409   3.743   0.368   4.371
 3208SOL    HW110410   3.661   0.411   4.410
 3208SOL    HW210411   3.715   0.295   4.308
 3209SOL     OW10412   4.293   1.275   4.889
 3209SOL    HW110413   4.200   1.268   4.852
 3209SOL    HW210414   4.304   1.364   4.933
 3210SOL     OW10415   4.859   0.703   4.441
 3210SOL    HW110416   4.916   0.781   4.416
 3210SOL    HW210417   4.799   0.729   4.517
 3211SOL     OW10418   4.059   1.435   4.785
 3211SOL    HW110419   3.981   1.404   4.732
 3211SOL    HW210420   4.117   1.493   4.728
 3212SOL     OW10421   3.955   1.713   4.207
 3212SOL    HW110422   3.989   1.790   4.261
 3212SOL    HW210423   3.999   1.713   4.117
 3213SOL     OW10424   3.954   1.434   4.262
 3213SOL    HW110425   3.928   1.530   4.262
 3213SOL    HW210426   3.883   1.380   4.307
 3214SOL     OW10427   3.964   1.091   4.610
 3214SOL    HW110428   3.978   1.007   4.662
 3214SOL    HW210429   3.909   1.155   4.665
 3215SOL     OW10430   4.330   0.964   3.847
 3215SOL    HW110431   4.337   1.048   3.793
 3215SOL    HW210432   4.376   0.977   3.935
 3216SOL     OW10433   3.846   0.643   4.287
 3216SOL    HW110434   3.801   0.555   4.304
 3216SOL    HW210435   3.845   0.697   4.371
 3217SOL     OW10436   3.751   1.596   3.841
 3217SOL    HW110437   3.732   1.500   3.862
 3217SOL    HW210438   3.718   1.654   3.916
 3218SOL     OW10439   4.322   0.729   3.994
 3218SOL    HW110440   4.346   0.798   3.926
 3218SOL    HW210441   4.244   0.762   4.048
 3219SOL     OW10442   5.005   0.345   4.668
 3219SOL    HW110443   4.919   0.295   4.655
 3219SOL    HW210444   5.067   0.291   4.724
 3220SOL     OW10445   4.715   0.410   4.966
 3220SOL    HW110446   4.638   0.444   5.020
 3220SOL    HW210447   4.681   0.359   4.887
 3221SOL     OW10448   4.765   0.701   4.153
 3221SOL    HW110449   4.791   0.697   4.249
 3221SOL    HW210450   4.680   0.650   4.139
 3222SOL     OW10451   4.732   1.456   4.201
 3222SOL    HW110452   4.686   1.528   4.149
 3222SOL    HW210453   4.728   1.476   4.299
 3223SOL     OW10454   4.075   1.801   4.577
 3223SOL    HW110455   4.125   1.715   4.583
 3223SOL    HW210456   4.140   1.878   4.574
 3224SOL     OW10457   4.045   0.943   3.966
 3224SOL    HW110458   4.127   0.982   3.924
 3224SOL    HW210459   4.018   0.861   3.917
 3225SOL     OW10460   4.835   1.776   3.961
 3225SOL    HW110461   4.775   1.714   4.011
 3225SOL    HW210462   4.866   1.732   3.876
 3226SOL     OW10463   4.188   1.743   4.047
 3226SOL    HW110464   4.221   1.782   4.133
 3226SOL    HW210465   4.264   1.736   3.982
 3227SOL     OW10466   4.664   1.698   4.628
 3227SOL    HW110467   4.744   1.641   4.649
 3227SOL    HW210468   4.615   1.658   4.551
 3228SOL     OW10469   4.106   0.700   4.204
 3228SOL    HW110470   4.151   0.610   4.201
 3228SOL    HW210471   4.012   0.689   4.237
 3229SOL     OW10472   4.646   0.503   4.623
 3229SOL    HW110473   4.621   0.494   4.527
 3229SOL    HW210474   4.694   0.421   4.654
 3230SOL     OW10475   4.021   0.035   3.895
 3230SOL    HW110476   4.070   0.119   3.874
 3230SOL    HW210477   4.083  -0.030   3.940
 3231SOL     OW10478   4.951   1.570   4.517
 3231SOL    HW110479   4.972   1.644   4.452
 3231SOL    HW210480   5.019   1.570   4.590
 3232SOL     OW10481   4.995   1.797   4.315
 3232SOL    HW110482   5.039   1.861   4.251
 3232SOL    HW210483   4.945   1.849   4.385
 3233SOL     OW10484   4.756   0.549   3.740
 3233SOL    HW110485   4.715   0.631   3.701
 3233SOL    HW210486   4.820   0.575   3.813
 3234SOL     OW10487   4.285   0.222   4.871
 3234SOL    HW110488   4.323   0.138   4.908
 3234SOL    HW210489   4.197   0.241   4.915
 3235SOL     OW10490   4.741   0.039   4.477
 3235SOL    HW110491   4.669   0.044   4.408
 3235SOL    HW210492   4.717  -0.030   4.546
 3236SOL     OW10493   4.212   1.385   3.898
 3236SOL    HW110494   4.125   1.370   3.945
 3236SOL    HW210495   4.195   1.411   3.803
 3237SOL     OW10496   5.388   1.280   4.381
 3237SOL    HW110497   5.487   1.288   4.395
 3237SOL    HW210498   5.343   1.364   4.412
 3238SOL     OW10499   5.316   1.629   5.349
 3238SOL    HW110500   5.343   1.663   5.259
 3238SOL    HW210501   5.395   1.591   5.395
 3239SOL     OW10502   4.429   1.050   4.092
 3239SOL    HW110503   4.415   1.057   4.191
 3239SOL    HW210504   4.513   0.999   4.074
 3240SOL     OW10505   4.290   0.537   4.589
 3240SOL    HW110506   4.302   0.603   4.515
 3240SOL    HW210507   4.336   0.571   4.672
 3241SOL     OW10508   4.976   1.348   4.112
 3241SOL    HW110509   5.026   1.425   4.152
 3241SOL    HW210510   4.881   1.350   4.144
 3242SOL     OW10511   4.078   1.510   5.053
 3242SOL    HW110512   4.057   1.466   4.966
 3242SOL    HW210513   4.175   1.536   5.056
 3243SOL     OW10514   4.933   0.525   3.999
 3243SOL    HW110515   4.946   0.441   4.053
 3243SOL    HW210516   4.904   0.599   4.059
 3244SOL     OW10517   4.031   0.213   4.955
 3244SOL    HW110518   4.008   0.250   5.045
 3244SOL    HW210519   4.001   0.118   4.949
 3245SOL     OW10520   3.761   1.310   5.006
 3245SOL    HW110521   3.814   1.261   5.074
 3245SOL    HW210522   3.783   1.408   5.011
 3246SOL     OW10523   4.456   0.634   4.788
 3246SOL    HW110524   4.515   0.608   4.712
 3246SOL    HW210525   4.428   0.730   4.777
 3247SOL     OW10526   5.346   0.367   4.098
 3247SOL    HW110527   5.348   0.291   4.162
 3247SOL    HW210528   5.298   0.444   4.138
 3248SOL     OW10529   5.027   0.838   3.766
 3248SOL    HW110530   5.061   0.745   3.781
 3248SOL    HW210531   5.045   0.865   3.671
 3249SOL     OW10532   4.043   0.810   4.673
 3249SOL    HW110533   4.136   0.846   4.678
 3249SOL    HW210534   4.037   0.725   4.725
 3250SOL     OW10535   4.063   0.509   4.730
 3250SOL    HW110536   4.011   0.426   4.713
 3250SOL    HW210537   4.140   0.514   4.666
 3251SOL     OW10538   4.884   0.207   5.201
 3251SOL    HW110539   4.884   0.271   5.278
 3251SOL    HW210540   4.912   0.255   5.118
 3252SOL     OW10541   3.732   1.326   3.924
 3252SOL    HW110542   3.639   1.347   3.893
 3252SOL    HW210543   3.742   1.227   3.937
 3253SOL     OW10544   3.812   1.801   4.651
 3253SOL    HW110545   3.770   1.715   4.624
 3253SOL    HW210546   3.906   1.804   4.617
 3254SOL     OW10547   4.228   1.568   4.634
 3254SOL    HW110548   4.294   1.642   4.643
 3254SOL    HW210549   4.272   1.489   4.592
 3255SOL     OW10550   4.726   0.796   4.962
 3255SOL    HW110551   4.767   0.764   5.048
 3255SOL    HW210552   4.630   0.769   4.959
 3256SOL     OW10553   4.395   0.464   4.993
 3256SOL    HW110554   4.361   0.375   4.963
 3256SOL    HW210555   4.421   0.518   4.913
 3257SOL     OW10556   4.654   1.678   5.189
 3257SOL    HW110557   4.630   1.660   5.094
 3257SOL    HW210558   4.684   1.772   5.199
 3258SOL     OW10559   4.197   0.500   3.915
 3258SOL    HW110560   4.258   0.580   3.919
 3258SOL    HW210561   4.102   0.531   3.922
 3259SOL     OW10562   5.071   1.059   4.958
 3259SOL    HW110563   5.095   0.996   4.884
 3259SOL    HW210564   4.981   1.099   4.940
 3260SOL     OW10565   4.976   1.731   4.852
 3260SOL    HW110566   5.060   1.736   4.798
 3260SOL    HW210567   4.953   1.635   4.870
 3261SOL     OW10568   3.807   1.258   4.746
 3261SOL    HW110569   3.802   1.257   4.846
 3261SOL    HW210570   3.724   1.217   4.708
 3262SOL     OW10571   5.112   1.573   4.201
 3262SOL    HW110572   5.179   1.585   4.127
 3262SOL    HW210573   5.072   1.662   4.224
 3263SOL     OW10574   5.004   0.927   4.396
 3263SOL    HW110575   5.064   0.846   4.398
 3263SOL    HW210576   5.044   0.996   4.336
 3264SOL     OW10577   4.396   1.616   3.878
 3264SOL    HW110578   4.405   1.626   3.779
 3264SOL    HW210579   4.356   1.527   3.899
 3265SOL     OW10580   4.918   1.612   3.755
 3265SOL    HW110581   4.924   1.519   3.792
 3265SOL    HW210582   4.859   1.612   3.675
 3266SOL     OW10583   4.546   1.002   5.096
 3266SOL    HW110584   4.586   1.001   5.004
 3266SOL    HW210585   4.556   1.094   5.136
 3267SOL     OW10586   4.640   0.910   4.015
 3267SOL    HW110587   4.703   0.948   3.947
 3267SOL    HW210588   4.680   0.827   4.054
 3268SOL     OW10589   4.738   0.236   4.695
 3268SOL    HW110590   4.730   0.200   4.602
 3268SOL    HW210591   4.736   0.160   4.760
 3269SOL     OW10592   4.314   1.487   4.215
 3269SOL    HW110593   4.356   1.429   4.145
 3269SOL    HW210594   4.270   1.566   4.171
 3270SOL     OW10595   3.979   1.348   4.014
 3270SOL    HW110596   3.883   1.349   3.987
 3270SOL    HW210597   3.991   1.401   4.098
 3271SOL     OW10598   3.799   0.345   3.757
 3271SOL    HW110599   3.707   0.317   3.728
 3271SOL    HW210600   3.830   0.422   3.701
 3272SOL     OW10601   3.796   0.166   4.042
 3272SOL    HW110602   3.779   0.249   3.988
 3272SOL    HW210603   3.886   0.129   4.020
 3273SOL     OW10604   4.949   0.325   4.173
 3273SOL    HW110605   5.014   0.251   4.162
 3273SOL    HW210606   4.969   0.375   4.257
 3274SOL     OW10607   4.583   1.374   3.740
 3274SOL    HW110608   4.537   1.389   3.828
 3274SOL    HW210609   4.627   1.459   3.710
 3275SOL     OW10610   4.385   1.790   4.677
 3275SOL    HW110611   4.339   1.878   4.664
 3275SOL    HW210612   4.484   1.802   4.670
 3276SOL     OW10613   4.807   0.984   3.811
 3276SOL    HW110614   4.784   1.037   3.729
 3276SOL    HW210615   4.888   0.928   3.792
 3277SOL     OW10616   3.803   1.240   4.377
 3277SOL    HW110617   3.802   1.193   4.465
 3277SOL    HW210618   3.885   1.212   4.326
 3278SOL     OW10619   4.152   0.424   4.244
 3278SOL    HW110620   4.182   0.352   4.182
 3278SOL    HW210621   4.113   0.384   4.327
 3279SOL     OW10622   4.536   1.586   4.411
 3279SOL    HW110623   4.568   1.596   4.317
 3279SOL    HW210624   4.457   1.524   4.413
 3280SOL     OW10625   4.725   0.034   4.878
 3280SOL    HW110626   4.662  -0.038   4.847
 3280SOL    HW210627   4.818  -0.002   4.878
 3281SOL     OW10628   4.494   1.330   4.025
 3281SOL    HW110629   4.448   1.243   4.042
 3281SOL    HW210630   4.585   1.327   4.066
 3282SOL     OW10631   3.763   1.077   4.024
 3282SOL    HW110632   3.862   1.066   4.015
 3282SOL    HW210633   3.723   0.991   4.056
 3283SOL     OW10634   4.599   1.646   4.061
 3283SOL    HW110635   4.522   1.611   4.007
 3283SOL    HW210636   4.567   1.717   4.123
 3284SOL     OW10637   3.954   2.490   0.113
 3284SOL    HW110638   3.861   2.488   0.150
 3284SOL    HW210639   3.955   2.451   0.021
 3285SOL     OW10640   3.949   2.137   0.996
 3285SOL    HW110641   3.984   2.120   1.088
 3285SOL    HW210642   3.861   2.092   0.984
 3286SOL     OW10643   3.743   2.230   0.647
 3286SOL    HW110644   3.661   2.273   0.686
 3286SOL    HW210645   3.715   2.157   0.584
 3287SOL     OW10646   4.293   3.137   1.165
 3287SOL    HW110647   4.200   3.130   1.128
 3287SOL    HW210648   4.304   3.226   1.209
 3288SOL     OW10649   4.859   2.565   0.717
 3288SOL    HW110650   4.916   2.643   0.692
 3288SOL    HW210651   4.799   2.591   0.793
 3289SOL     OW10652   4.574   2.660   1.823
 3289SOL    HW110653   4.570   2.736   1.888
 3289SOL    HW210654   4.596   2.696   1.732
 3290SOL     OW10655   4.410   3.023   1.803
 3290SOL    HW110656   4.470   3.102   1.817
 3290SOL    HW210657   4.324   3.054   1.762
 3291SOL     OW10658   4.059   3.297   1.061
 3291SOL    HW110659   3.981   3.266   1.008
 3291SOL    HW210660   4.117   3.355   1.004
 3292SOL     OW10661   4.162   2.254   1.499
 3292SOL    HW110662   4.244   2.198   1.508
 3292SOL    HW210663   4.081   2.196   1.503
 3293SOL     OW10664   3.955   3.575   0.483
 3293SOL    HW110665   3.989   3.652   0.537
 3293SOL    HW210666   3.999   3.575   0.393
 3294SOL     OW10667   4.851   3.203   1.690
 3294SOL    HW110668   4.898   3.203   1.778
 3294SOL    HW210669   4.803   3.116   1.679
 3295SOL     OW10670   3.954   3.296   0.538
 3295SOL    HW110671   3.928   3.392   0.538
 3295SOL    HW210672   3.883   3.242   0.583
 3296SOL     OW10673   3.964   2.953   0.886
 3296SOL    HW110674   3.978   2.869   0.938
 3296SOL    HW210675   3.909   3.017   0.941
 3297SOL     OW10676   4.344   3.648   1.439
 3297SOL    HW110677   4.252   3.631   1.474
 3297SOL    HW210678   4.372   3.740   1.465
 3298SOL     OW10679   4.330   2.826   0.123
 3298SOL    HW110680   4.337   2.910   0.069
 3298SOL    HW210681   4.376   2.839   0.211
 3299SOL     OW10682   3.846   2.505   0.563
 3299SOL    HW110683   3.801   2.417   0.580
 3299SOL    HW210684   3.845   2.559   0.647
 3300SOL     OW10685   3.751   3.458   0.117
 3300SOL    HW110686   3.732   3.362   0.138
 3300SOL    HW210687   3.718   3.516   0.192
 3301SOL     OW10688   3.837   2.599   1.597
 3301SOL    HW110689   3.925   2.586   1.642
 3301SOL    HW210690   3.824   2.696   1.575
 3302SOL     OW10691   5.017   3.090   1.423
 3302SOL    HW110692   5.054   3.017   1.365
 3302SOL    HW210693   5.069   3.095   1.508
 3303SOL     OW10694   4.533   1.866   0.502
 3303SOL    HW110695   4.573   1.957   0.493
 3303SOL    HW210696   4.433   1.874   0.508
 3304SOL     OW10697   3.921   2.838   1.264
 3304SOL    HW110698   4.010   2.793   1.250
 3304SOL    HW210699   3.848   2.773   1.245
 3305SOL     OW10700   4.911   3.654   1.616
 3305SOL    HW110701   4.935   3.714   1.540
 3305SOL    HW210702   4.918   3.559   1.586
 3306SOL     OW10703   4.041   2.113   1.801
 3306SOL    HW110704   4.112   2.184   1.807
 3306SOL    HW210705   3.953   2.152   1.829
 3307SOL     OW10706   4.322   2.591   0.270
 3307SOL    HW110707   4.346   2.660   0.202
 3307SOL    HW210708   4.244   2.624   0.324
 3308SOL     OW10709   5.005   2.207   0.944
 3308SOL    HW110710   4.919   2.157   0.931
 3308SOL    HW210711   5.067   2.153   1.000
 3309SOL     OW10712   4.531   2.467   1.465
 3309SOL    HW110713   4.484   2.464   1.554
 3309SOL    HW210714   4.480   2.412   1.399
 3310SOL     OW10715   4.697   2.752   1.572
 3310SOL    HW110716   4.743   2.668   1.543
 3310SOL    HW210717   4.641   2.786   1.497
 3311SOL     OW10718   4.715   2.272   1.242
 3311SOL    HW110719   4.638   2.306   1.296
 3311SOL    HW210720   4.681   2.221   1.163
 3312SOL     OW10721   4.765   2.563   0.429
 3312SOL    HW110722   4.791   2.559   0.525
 3312SOL    HW210723   4.680   2.512   0.415
 3313SOL     OW10724   3.800   2.673   0.789
 3313SOL    HW110725   3.899   2.661   0.798
 3313SOL    HW210726   3.776   2.768   0.810
 3314SOL     OW10727   3.854   3.683   1.571
 3314SOL    HW110728   3.844   3.668   1.670
 3314SOL    HW210729   3.768   3.719   1.535
 3315SOL     OW10730   4.589   2.210   0.195
 3315SOL    HW110731   4.648   2.273   0.146
 3315SOL    HW210732   4.608   2.116   0.166
 3316SOL     OW10733   4.274   2.058   0.885
 3316SOL    HW110734   4.269   2.053   0.985
 3316SOL    HW210735   4.276   2.154   0.856
 3317SOL     OW10736   4.075   3.663   0.853
 3317SOL    HW110737   4.125   3.577   0.859
 3317SOL    HW210738   4.140   3.740   0.850
 3318SOL     OW10739   4.951   3.412   1.506
 3318SOL    HW110740   4.957   3.335   1.570
 3318SOL    HW210741   4.899   3.386   1.426
 3319SOL     OW10742   4.045   2.805   0.242
 3319SOL    HW110743   4.127   2.844   0.200
 3319SOL    HW210744   4.018   2.723   0.193
 3320SOL     OW10745   4.185   3.128   1.727
 3320SOL    HW110746   4.135   3.129   1.641
 3320SOL    HW210747   4.122   3.110   1.803
 3321SOL     OW10748   4.835   3.638   0.237
 3321SOL    HW110749   4.775   3.576   0.287
 3321SOL    HW210750   4.866   3.594   0.152
 3322SOL     OW10751   3.926   2.147   1.498
 3322SOL    HW110752   3.846   2.207   1.485
 3322SOL    HW210753   3.916   2.098   1.584
 3323SOL     OW10754   5.356   3.239   0.081
 3323SOL    HW110755   5.324   3.333   0.071
 3323SOL    HW210756   5.280   3.176   0.069
 3324SOL     OW10757   3.973   3.647   1.241
 3324SOL    HW110758   4.030   3.582   1.291
 3324SOL    HW210759   3.957   3.614   1.148
 3325SOL     OW10760   4.664   3.560   0.904
 3325SOL    HW110761   4.744   3.503   0.925
 3325SOL    HW210762   4.615   3.520   0.827
 3326SOL     OW10763   4.106   2.562   0.480
 3326SOL    HW110764   4.151   2.472   0.477
 3326SOL    HW210765   4.012   2.551   0.513
 3327SOL     OW10766   4.505   2.126   1.749
 3327SOL    HW110767   4.572   2.065   1.792
 3327SOL    HW210768   4.432   2.145   1.814
 3328SOL     OW10769   4.612   3.376   1.195
 3328SOL    HW110770   4.589   3.351   1.101
 3328SOL    HW210771   4.673   3.307   1.234
 3329SOL     OW10772   4.646   2.365   0.899
 3329SOL    HW110773   4.621   2.356   0.803
 3329SOL    HW210774   4.694   2.283   0.930
 3330SOL     OW10775   4.263   1.926   0.512
 3330SOL    HW110776   4.182   1.927   0.570
 3330SOL    HW210777   4.266   2.009   0.457
 3331SOL     OW10778   4.659   2.098   0.480
 3331SOL    HW110779   4.611   2.139   0.402
 3331SOL    HW210780   4.758   2.096   0.461
 3332SOL     OW10781   4.800   2.545   1.464
 3332SOL    HW110782   4.720   2.484   1.467
 3332SOL    HW210783   4.881   2.492   1.440
 3333SOL     OW10784   4.951   3.432   0.793
 3333SOL    HW110785   4.972   3.506   0.728
 3333SOL    HW210786   5.019   3.432   0.866
 3334SOL     OW10787   4.183   3.014   0.741
 3334SOL    HW110788   4.112   2.987   0.806
 3334SOL    HW210789   4.157   2.986   0.648
 3335SOL     OW10790   4.995   3.659   0.591
 3335SOL    HW110791   5.039   3.723   0.527
 3335SOL    HW210792   4.945   3.711   0.661
 3336SOL     OW10793   4.756   2.411   0.016
 3336SOL    HW110794   4.715   2.493  -0.023
 3336SOL    HW210795   4.820   2.437   0.089
 3337SOL     OW10796   3.802   2.418   1.386
 3337SOL    HW110797   3.894   2.417   1.345
 3337SOL    HW210798   3.796   2.492   1.453
 3338SOL     OW10799   4.285   2.084   1.147
 3338SOL    HW110800   4.323   2.000   1.184
 3338SOL    HW210801   4.197   2.103   1.191
 3339SOL     OW10802   4.590   2.316   0.642
 3339SOL    HW110803   4.558   2.388   0.580
 3339SOL    HW210804   4.614   2.235   0.589
 3340SOL     OW10805   4.741   1.901   0.753
 3340SOL    HW110806   4.669   1.906   0.684
 3340SOL    HW210807   4.717   1.832   0.822
 3341SOL     OW10808   5.388   3.142   0.657
 3341SOL    HW110809   5.487   3.150   0.671
 3341SOL    HW210810   5.343   3.226   0.688
 3342SOL     OW10811   4.251   2.118   0.328
 3342SOL    HW110812   4.278   2.059   0.253
 3342SOL    HW210813   4.251   2.213   0.297
 3343SOL     OW10814   4.788   3.209   1.340
 3343SOL    HW110815   4.708   3.186   1.395
 3343SOL    HW210816   4.871   3.183   1.389
 3344SOL     OW10817   4.835   3.057   1.100
 3344SOL    HW110818   4.795   3.101   1.181
 3344SOL    HW210819   4.794   3.094   1.017
 3345SOL     OW10820   4.639   1.951   1.402
 3345SOL    HW110821   4.664   1.931   1.307
 3345SOL    HW210822   4.711   2.007   1.444
 3346SOL     OW10823   4.704   2.978   1.719
 3346SOL    HW110824   4.605   2.984   1.729
 3346SOL    HW210825   4.727   2.898   1.663
 3347SOL     OW10826   4.429   2.912   0.368
 3347SOL    HW110827   4.415   2.919   0.467
 3347SOL    HW210828   4.513   2.861   0.350
 3348SOL     OW10829   4.134   2.675   1.251
 3348SOL    HW110830   4.220   2.687   1.301
 3348SOL    HW210831   4.092   2.588   1.278
 3349SOL     OW10832   4.998   2.248   1.262
 3349SOL    HW110833   5.019   2.322   1.326
 3349SOL    HW210834   4.909   2.265   1.219
 3350SOL     OW10835   3.788   3.426   1.331
 3350SOL    HW110836   3.742   3.508   1.297
 3350SOL    HW210837   3.886   3.445   1.340
 3351SOL     OW10838   4.290   2.399   0.865
 3351SOL    HW110839   4.302   2.465   0.791
 3351SOL    HW210840   4.336   2.433   0.948
 3352SOL     OW10841   4.976   3.210   0.388
 3352SOL    HW110842   5.026   3.287   0.428
 3352SOL    HW210843   4.881   3.212   0.420
 3353SOL     OW10844   4.078   3.372   1.329
 3353SOL    HW110845   4.057   3.328   1.242
 3353SOL    HW210846   4.175   3.398   1.332
 3354SOL     OW10847   4.126   2.613   1.598
 3354SOL    HW110848   4.194   2.668   1.551
 3354SOL    HW210849   4.166   2.525   1.625
 3355SOL     OW10850   4.737   1.967   1.770
 3355SOL    HW110851   4.743   2.052   1.718
 3355SOL    HW210852   4.769   1.891   1.713
 3356SOL     OW10853   4.228   1.912   1.740
 3356SOL    HW110854   4.186   1.855   1.670
 3356SOL    HW210855   4.162   1.981   1.772
 3357SOL     OW10856   4.297   2.732   1.029
 3357SOL    HW110857   4.341   2.821   1.020
 3357SOL    HW210858   4.234   2.732   1.106
 3358SOL     OW10859   5.084   2.724   1.045
 3358SOL    HW110860   5.009   2.724   0.979
 3358SOL    HW210861   5.121   2.632   1.054
 3359SOL     OW10862   4.933   2.387   0.275
 3359SOL    HW110863   4.946   2.303   0.329
 3359SOL    HW210864   4.904   2.461   0.335
 3360SOL     OW10865   4.031   2.075   1.231
 3360SOL    HW110866   4.008   2.112   1.321
 3360SOL    HW210867   4.001   1.980   1.225
 3361SOL     OW10868   3.761   3.172   1.282
 3361SOL    HW110869   3.814   3.123   1.350
 3361SOL    HW210870   3.783   3.270   1.287
 3362SOL     OW10871   4.456   2.496   1.064
 3362SOL    HW110872   4.515   2.470   0.988
 3362SOL    HW210873   4.428   2.592   1.053
 3363SOL     OW10874   4.031   1.925   0.618
 3363SOL    HW110875   4.020   2.019   0.651
 3363SOL    HW210876   4.026   1.862   0.695
 3364SOL     OW10877   5.346   2.229   0.374
 3364SOL    HW110878   5.348   2.153   0.438
 3364SOL    HW210879   5.298   2.306   0.414
 3365SOL     OW10880   4.747   2.628   0.966
 3365SOL    HW110881   4.762   2.649   1.062
 3365SOL    HW210882   4.717   2.533   0.957
 3366SOL     OW10883   4.704   3.435   1.700
 3366SOL    HW110884   4.684   3.479   1.612
 3366SOL    HW210885   4.743   3.344   1.684
 3367SOL     OW10886   4.074   2.760   1.804
 3367SOL    HW110887   4.150   2.804   1.852
 3367SOL    HW210888   4.109   2.713   1.722
 3368SOL     OW10889   5.027   2.700   0.042
 3368SOL    HW110890   5.061   2.607   0.057
 3368SOL    HW210891   5.045   2.727  -0.053
 3369SOL     OW10892   4.043   2.672   0.949
 3369SOL    HW110893   4.136   2.708   0.954
 3369SOL    HW210894   4.037   2.587   1.001
 3370SOL     OW10895   4.063   2.371   1.006
 3370SOL    HW110896   4.011   2.288   0.989
 3370SOL    HW210897   4.140   2.376   0.942
 3371SOL     OW10898   4.862   2.242   1.678
 3371SOL    HW110899   4.817   2.305   1.742
 3371SOL    HW210900   4.955   2.273   1.661
 3372SOL     OW10901   4.884   2.069   1.477
 3372SOL    HW110902   4.884   2.133   1.554
 3372SOL    HW210903   4.912   2.117   1.394
 3373SOL     OW10904   3.812   3.663   0.927
 3373SOL    HW110905   3.770   3.577   0.900
 3373SOL    HW210906   3.906   3.666   0.893
 3374SOL     OW10907   4.726   2.658   1.238
 3374SOL    HW110908   4.767   2.626   1.324
 3374SOL    HW210909   4.630   2.631   1.235
 3375SOL     OW10910   3.764   2.406   1.114
 3375SOL    HW110911   3.849   2.373   1.073
 3375SOL    HW210912   3.777   2.421   1.212
 3376SOL     OW10913   3.913   2.382   1.722
 3376SOL    HW110914   3.972   2.342   1.652
 3376SOL    HW210915   3.855   2.453   1.681
 3377SOL     OW10916   4.539   2.434   0.325
 3377SOL    HW110917   4.546   2.345   0.279
 3377SOL    HW210918   4.445   2.468   0.317
 3378SOL     OW10919   3.976   3.426   1.744
 3378SOL    HW110920   3.946   3.483   1.820
 3378SOL    HW210921   3.969   3.329   1.770
 3379SOL     OW10922   4.395   2.326   1.269
 3379SOL    HW110923   4.361   2.237   1.239
 3379SOL    HW210924   4.421   2.380   1.189
 3380SOL     OW10925   4.654   3.540   1.465
 3380SOL    HW110926   4.630   3.522   1.370
 3380SOL    HW210927   4.684   3.634   1.475
 3381SOL     OW10928   4.197   2.362   0.191
 3381SOL    HW110929   4.258   2.442   0.195
 3381SOL    HW210930   4.102   2.393   0.198
 3382SOL     OW10931   3.883   2.999   1.466
 3382SOL    HW110932   3.905   2.938   1.542
 3382SOL    HW210933   3.893   2.950   1.380
 3383SOL     OW10934   5.071   2.921   1.234
 3383SOL    HW110935   5.095   2.858   1.160
 3383SOL    HW210936   4.981   2.961   1.216
 3384SOL     OW10937   4.976   3.593   1.128
 3384SOL    HW110938   5.060   3.598   1.074
 3384SOL    HW210939   4.953   3.497   1.146
 3385SOL     OW10940   3.807   3.120   1.022
 3385SOL    HW110941   3.802   3.119   1.122
 3385SOL    HW210942   3.724   3.079   0.984
 3386SOL     OW10943   4.412   3.524   1.716
 3386SOL    HW110944   4.356   3.605   1.725
 3386SOL    HW210945   4.464   3.528   1.630
 3387SOL     OW10946   4.627   1.948   0.133
 3387SOL    HW110947   4.678   1.949   0.047
 3387SOL    HW210948   4.683   1.906   0.204
 3388SOL     OW10949   5.112   3.435   0.477
 3388SOL    HW110950   5.179   3.447   0.403
 3388SOL    HW210951   5.072   3.524   0.500
 3389SOL     OW10952   3.854   3.656   1.851
 3389SOL    HW110953   3.813   3.582   1.904
 3389SOL    HW210954   3.918   3.707   1.909
 3390SOL     OW10955   5.004   2.789   0.672
 3390SOL    HW110956   5.064   2.708   0.674
 3390SOL    HW210957   5.044   2.858   0.612
 3391SOL     OW10958   4.554   3.135   1.422
 3391SOL    HW110959   4.549   3.168   1.517
 3391SOL    HW210960   4.468   3.154   1.376
 3392SOL     OW10961   4.396   3.478   0.154
 3392SOL    HW110962   4.405   3.488   0.055
 3392SOL    HW210963   4.356   3.389   0.175
 3393SOL     OW10964   3.987   2.188   0.720
 3393SOL    HW110965   3.908   2.239   0.686
 3393SOL    HW210966   3.978   2.173   0.818
 3394SOL     OW10967   4.918   3.474   0.031
 3394SOL    HW110968   4.924   3.381   0.068
 3394SOL    HW210969   4.859   3.474  -0.049
 3395SOL     OW10970   4.546   2.864   1.372
 3395SOL    HW110971   4.586   2.863   1.280
 3395SOL    HW210972   4.556   2.956   1.412
 3396SOL     OW10973   4.640   2.772   0.291
 3396SOL    HW110974   4.703   2.810   0.223
 3396SOL    HW210975   4.680   2.689   0.330
 3397SOL     OW10976   4.096   3.150   1.490
 3397SOL    HW110977   4.083   3.243   1.456
 3397SOL    HW210978   4.012   3.098   1.477
 3398SOL     OW10979   4.763   2.960   0.696
 3398SOL    HW110980   4.693   2.913   0.750
 3398SOL    HW210981   4.822   2.892   0.653
 3399SOL     OW10982   4.738   2.098   0.971
 3399SOL    HW110983   4.730   2.062   0.878
 3399SOL    HW210984   4.736   2.022   1.036
 3400SOL     OW10985   3.829   2.875   1.726
 3400SOL    HW110986   3.752   2.842   1.780
 3400SOL    HW210987   3.914   2.845   1.768
 3401SOL     OW10988   4.396   2.065   1.489
 3401SOL    HW110989   4.486   2.049   1.449
 3401SOL    HW210990   4.404   2.070   1.588
 3402SOL     OW10991   5.164   2.718   1.398
 3402SOL    HW110992   5.107   2.770   1.335
 3402SOL    HW210993   5.260   2.730   1.374
 3403SOL     OW10994   3.796   2.028   0.318
 3403SOL    HW110995   3.779   2.111   0.264
 3403SOL    HW210996   3.886   1.991   0.296
 3404SOL     OW10997   4.337   2.704   1.431
 3404SOL    HW110998   4.393   2.785   1.414
 3404SOL    HW210999   4.396   2.624   1.434
 3405SOL     OW11000   4.440   2.427   1.708
 3405SOL    HW111001   4.459   2.492   1.782
 3405SOL    HW211002   4.500   2.347   1.717
 3406SOL     OW11003   4.114   3.603   1.560
 3406SOL    HW111004   4.023   3.644   1.558
 3406SOL    HW211005   4.107   3.509   1.592
 3407SOL     OW11006   4.949   2.187   0.449
 3407SOL    HW111007   5.014   2.113   0.438
 3407SOL    HW211008   4.969   2.237   0.533
 3408SOL     OW11009   4.318   2.607   0.652
 3408SOL    HW111010   4.368   2.692   0.633
 3408SOL    HW211011   4.230   2.609   0.604
 3409SOL     OW11012   4.583   3.236   0.016
 3409SOL    HW111013   4.537   3.251   0.104
 3409SOL    HW211014   4.627   3.321  -0.014
 3410SOL     OW11015   4.385   3.652   0.953
 3410SOL    HW111016   4.339   3.740   0.940
 3410SOL    HW211017   4.484   3.664   0.946
 3411SOL     OW11018   4.583   2.818   0.861
 3411SOL    HW111019   4.637   2.749   0.909
 3411SOL    HW211020   4.551   2.887   0.927
 3412SOL     OW11021   4.807   2.846   0.087
 3412SOL    HW111022   4.784   2.899   0.005
 3412SOL    HW211023   4.888   2.790   0.068
 3413SOL     OW11024   3.945   3.176   1.844
 3413SOL    HW111025   3.880   3.103   1.823
 3413SOL    HW211026   3.949   3.190   1.942
 3414SOL     OW11027   3.803   3.102   0.653
 3414SOL    HW111028   3.802   3.055   0.741
 3414SOL    HW211029   3.885   3.074   0.602
 3415SOL     OW11030   4.396   3.253   1.624
 3415SOL    HW111031   4.318   3.203   1.662
 3415SOL    HW211032   4.393   3.348   1.655
 3416SOL     OW11033   4.152   2.286   0.520
 3416SOL    HW111034   4.182   2.214   0.458
 3416SOL    HW211035   4.113   2.246   0.603
 3417SOL     OW11036   4.041   2.409   1.280
 3417SOL    HW111037   4.079   2.350   1.352
 3417SOL    HW211038   4.081   2.383   1.192
 3418SOL     OW11039   4.725   1.896   1.154
 3418SOL    HW111040   4.662   1.824   1.123
 3418SOL    HW211041   4.818   1.860   1.154
 3419SOL     OW11042   4.494   3.192   0.301
 3419SOL    HW111043   4.448   3.105   0.318
 3419SOL    HW211044   4.585   3.189   0.342
 3420SOL     OW11045   4.342   3.429   1.284
 3420SOL    HW111046   4.337   3.511   1.341
 3420SOL    HW211047   4.431   3.426   1.239
 3421SOL     OW11048   3.763   2.939   0.300
 3421SOL    HW111049   3.862   2.928   0.291
 3421SOL    HW211050   3.723   2.853   0.332
 3422SOL     OW11051   3.954   2.490   1.975
 3422SOL    HW111052   3.861   2.488   2.012
 3422SOL    HW211053   3.955   2.451   1.883
 3423SOL     OW11054   3.743   2.230   2.509
 3423SOL    HW111055   3.661   2.273   2.548
 3423SOL    HW211056   3.715   2.157   2.446
 3424SOL     OW11057   4.859   2.565   2.579
 3424SOL    HW111058   4.916   2.643   2.554
 3424SOL    HW211059   4.799   2.591   2.655
 3425SOL     OW11060   4.492   3.006   2.885
 3425SOL    HW111061   4.414   3.023   2.945
 3425SOL    HW211062   4.526   3.093   2.849
 3426SOL     OW11063   4.409   2.874   2.527
 3426SOL    HW111064   4.478   2.858   2.597
 3426SOL    HW211065   4.336   2.931   2.565
 3427SOL     OW11066   4.410   3.023   3.665
 3427SOL    HW111067   4.470   3.102   3.679
 3427SOL    HW211068   4.324   3.054   3.624
 3428SOL     OW11069   4.162   2.254   3.361
 3428SOL    HW111070   4.244   2.198   3.370
 3428SOL    HW211071   4.081   2.196   3.365
 3429SOL     OW11072   3.955   3.575   2.345
 3429SOL    HW111073   3.989   3.652   2.399
 3429SOL    HW211074   3.999   3.575   2.255
 3430SOL     OW11075   4.851   3.203   3.552
 3430SOL    HW111076   4.898   3.203   3.640
 3430SOL    HW211077   4.803   3.116   3.541
 3431SOL     OW11078   3.964   2.953   2.748
 3431SOL    HW111079   3.978   2.869   2.800
 3431SOL    HW211080   3.909   3.017   2.803
 3432SOL     OW11081   4.344   3.648   3.301
 3432SOL    HW111082   4.252   3.631   3.336
 3432SOL    HW211083   4.372   3.740   3.327
 3433SOL     OW11084   4.330   2.826   1.985
 3433SOL    HW111085   4.337   2.910   1.931
 3433SOL    HW211086   4.376   2.839   2.073
 3434SOL     OW11087   3.751   3.458   1.979
 3434SOL    HW111088   3.732   3.362   2.000
 3434SOL    HW211089   3.718   3.516   2.054
 3435SOL     OW11090   3.837   2.599   3.459
 3435SOL    HW111091   3.925   2.586   3.504
 3435SOL    HW211092   3.824   2.696   3.437
 3436SOL     OW11093   5.017   3.090   3.285
 3436SOL    HW111094   5.054   3.017   3.227
 3436SOL    HW211095   5.069   3.095   3.370
 3437SOL     OW11096   4.533   1.866   2.364
 3437SOL    HW111097   4.573   1.957   2.355
 3437SOL    HW211098   4.433   1.874   2.370
 3438SOL     OW11099   3.921   2.838   3.126
 3438SOL    HW111100   4.010   2.793   3.112
 3438SOL    HW211101   3.848   2.773   3.107
 3439SOL     OW11102   4.911   3.654   3.478
 3439SOL    HW111103   4.935   3.714   3.402
 3439SOL    HW211104   4.918   3.559   3.448
 3440SOL     OW11105   4.322   2.591   2.132
 3440SOL    HW111106   4.346   2.660   2.064
 3440SOL    HW211107   4.244   2.624   2.186
 3441SOL     OW11108   5.005   2.207   2.806
 3441SOL    HW111109   4.919   2.157   2.793
 3441SOL    HW211110   5.067   2.153   2.862
 3442SOL     OW11111   4.715   2.272   3.104
 3442SOL    HW111112   4.638   2.306   3.158
 3442SOL    HW211113   4.681   2.221   3.025
 3443SOL     OW11114   4.765   2.563   2.291
 3443SOL    HW111115   4.791   2.559   2.387
 3443SOL    HW211116   4.680   2.512   2.277
 3444SOL     OW11117   3.854   3.683   3.433
 3444SOL    HW111118   3.844   3.668   3.532
 3444SOL    HW211119   3.768   3.719   3.397
 3445SOL     OW11120   4.589   2.210   2.057
 3445SOL    HW111121   4.648   2.273   2.008
 3445SOL    HW211122   4.608   2.116   2.028
 3446SOL     OW11123   4.274   2.058   2.747
 3446SOL    HW111124   4.269   2.053   2.847
 3446SOL    HW211125   4.276   2.154   2.718
 3447SOL     OW11126   4.732   3.318   2.339
 3447SOL    HW111127   4.686   3.390   2.287
 3447SOL    HW211128   4.728   3.338   2.437
 3448SOL     OW11129   4.075   3.663   2.715
 3448SOL    HW111130   4.125   3.577   2.721
 3448SOL    HW211131   4.140   3.740   2.712
 3449SOL     OW11132   4.951   3.412   3.368
 3449SOL    HW111133   4.957   3.335   3.432
 3449SOL    HW211134   4.899   3.386   3.288
 3450SOL     OW11135   4.045   2.805   2.104
 3450SOL    HW111136   4.127   2.844   2.062
 3450SOL    HW211137   4.018   2.723   2.055
 3451SOL     OW11138   4.185   3.128   3.589
 3451SOL    HW111139   4.135   3.129   3.503
 3451SOL    HW211140   4.122   3.110   3.665
 3452SOL     OW11141   4.835   3.638   2.099
 3452SOL    HW111142   4.775   3.576   2.149
 3452SOL    HW211143   4.866   3.594   2.014
 3453SOL     OW11144   4.188   3.605   2.185
 3453SOL    HW111145   4.221   3.644   2.271
 3453SOL    HW211146   4.264   3.598   2.120
 3454SOL     OW11147   3.973   3.647   3.103
 3454SOL    HW111148   4.030   3.582   3.153
 3454SOL    HW211149   3.957   3.614   3.010
 3455SOL     OW11150   4.664   3.560   2.766
 3455SOL    HW111151   4.744   3.503   2.787
 3455SOL    HW211152   4.615   3.520   2.689
 3456SOL     OW11153   4.338   1.984   1.979
 3456SOL    HW111154   4.436   1.962   1.986
 3456SOL    HW211155   4.307   1.967   1.886
 3457SOL     OW11156   4.612   3.376   3.057
 3457SOL    HW111157   4.589   3.351   2.963
 3457SOL    HW211158   4.673   3.307   3.096
 3458SOL     OW11159   4.527   3.264   2.786
 3458SOL    HW111160   4.617   3.278   2.744
 3458SOL    HW211161   4.456   3.266   2.715
 3459SOL     OW11162   4.646   2.365   2.761
 3459SOL    HW111163   4.621   2.356   2.665
 3459SOL    HW211164   4.694   2.283   2.792
 3460SOL     OW11165   4.263   1.926   2.374
 3460SOL    HW111166   4.182   1.927   2.432
 3460SOL    HW211167   4.266   2.009   2.319
 3461SOL     OW11168   4.021   1.897   2.033
 3461SOL    HW111169   4.070   1.981   2.012
 3461SOL    HW211170   4.083   1.832   2.078
 3462SOL     OW11171   4.659   2.098   2.342
 3462SOL    HW111172   4.611   2.139   2.264
 3462SOL    HW211173   4.758   2.096   2.323
 3463SOL     OW11174   4.951   3.432   2.655
 3463SOL    HW111175   4.972   3.506   2.590
 3463SOL    HW211176   5.019   3.432   2.728
 3464SOL     OW11177   4.995   3.659   2.453
 3464SOL    HW111178   5.039   3.723   2.389
 3464SOL    HW211179   4.945   3.711   2.523
 3465SOL     OW11180   4.756   2.411   1.878
 3465SOL    HW111181   4.715   2.493   1.839
 3465SOL    HW211182   4.820   2.437   1.951
 3466SOL     OW11183   4.285   2.084   3.009
 3466SOL    HW111184   4.323   2.000   3.046
 3466SOL    HW211185   4.197   2.103   3.053
 3467SOL     OW11186   4.590   2.316   2.504
 3467SOL    HW111187   4.558   2.388   2.442
 3467SOL    HW211188   4.614   2.235   2.451
 3468SOL     OW11189   4.741   1.901   2.615
 3468SOL    HW111190   4.669   1.906   2.546
 3468SOL    HW211191   4.717   1.832   2.684
 3469SOL     OW11192   4.212   3.247   2.036
 3469SOL    HW111193   4.125   3.232   2.083
 3469SOL    HW211194   4.195   3.273   1.941
 3470SOL     OW11195   5.388   3.142   2.519
 3470SOL    HW111196   5.487   3.150   2.533
 3470SOL    HW211197   5.343   3.226   2.550
 3471SOL     OW11198   4.251   2.118   2.190
 3471SOL    HW111199   4.278   2.059   2.115
 3471SOL    HW211200   4.251   2.213   2.159
 3472SOL     OW11201   4.788   3.209   3.202
 3472SOL    HW111202   4.708   3.186   3.257
 3472SOL    HW211203   4.871   3.183   3.251
 3473SOL     OW11204   4.835   3.057   2.962
 3473SOL    HW111205   4.795   3.101   3.043
 3473SOL    HW211206   4.794   3.094   2.879
 3474SOL     OW11207   4.704   2.978   3.581
 3474SOL    HW111208   4.605   2.984   3.591
 3474SOL    HW211209   4.727   2.898   3.525
 3475SOL     OW11210   4.429   2.912   2.230
 3475SOL    HW111211   4.415   2.919   2.329
 3475SOL    HW211212   4.513   2.861   2.212
 3476SOL     OW11213   4.134   2.675   3.113
 3476SOL    HW111214   4.220   2.687   3.163
 3476SOL    HW211215   4.092   2.588   3.140
 3477SOL     OW11216   3.788   3.426   3.193
 3477SOL    HW111217   3.742   3.508   3.159
 3477SOL    HW211218   3.886   3.445   3.202
 3478SOL     OW11219   4.290   2.399   2.727
 3478SOL    HW111220   4.302   2.465   2.653
 3478SOL    HW211221   4.336   2.433   2.810
 3479SOL     OW11222   4.976   3.210   2.250
 3479SOL    HW111223   5.026   3.287   2.290
 3479SOL    HW211224   4.881   3.212   2.282
 3480SOL     OW11225   4.126   2.613   3.460
 3480SOL    HW111226   4.194   2.668   3.413
 3480SOL    HW211227   4.166   2.525   3.487
 3481SOL     OW11228   4.737   1.967   3.632
 3481SOL    HW111229   4.743   2.052   3.580
 3481SOL    HW211230   4.769   1.891   3.575
 3482SOL     OW11231   4.297   2.732   2.891
 3482SOL    HW111232   4.341   2.821   2.882
 3482SOL    HW211233   4.234   2.732   2.968
 3483SOL     OW11234   5.084   2.724   2.907
 3483SOL    HW111235   5.009   2.724   2.841
 3483SOL    HW211236   5.121   2.632   2.916
 3484SOL     OW11237   4.933   2.387   2.137
 3484SOL    HW111238   4.946   2.303   2.191
 3484SOL    HW211239   4.904   2.461   2.197
 3485SOL     OW11240   3.761   3.172   3.144
 3485SOL    HW111241   3.814   3.123   3.212
 3485SOL    HW211242   3.783   3.270   3.149
 3486SOL     OW11243   4.456   2.496   2.926
 3486SOL    HW111244   4.515   2.470   2.850
 3486SOL    HW211245   4.428   2.592   2.915
 3487SOL     OW11246   5.346   2.229   2.236
 3487SOL    HW111247   5.348   2.153   2.300
 3487SOL    HW211248   5.298   2.306   2.276
 3488SOL     OW11249   4.747   2.628   2.828
 3488SOL    HW111250   4.762   2.649   2.924
 3488SOL    HW211251   4.717   2.533   2.819
 3489SOL     OW11252   4.704   3.435   3.562
 3489SOL    HW111253   4.684   3.479   3.474
 3489SOL    HW211254   4.743   3.344   3.546
 3490SOL     OW11255   4.074   2.760   3.666
 3490SOL    HW111256   4.150   2.804   3.714
 3490SOL    HW211257   4.109   2.713   3.584
 3491SOL     OW11258   5.027   2.700   1.904
 3491SOL    HW111259   5.061   2.607   1.919
 3491SOL    HW211260   5.045   2.727   1.809
 3492SOL     OW11261   4.792   3.195   2.711
 3492SOL    HW111262   4.799   3.111   2.656
 3492SOL    HW211263   4.854   3.264   2.675
 3493SOL     OW11264   3.732   3.188   2.062
 3493SOL    HW111265   3.639   3.209   2.031
 3493SOL    HW211266   3.742   3.089   2.075
 3494SOL     OW11267   4.228   3.430   2.772
 3494SOL    HW111268   4.294   3.504   2.781
 3494SOL    HW211269   4.272   3.351   2.730
 3495SOL     OW11270   4.726   2.658   3.100
 3495SOL    HW111271   4.767   2.626   3.186
 3495SOL    HW211272   4.630   2.631   3.097
 3496SOL     OW11273   3.913   2.382   3.584
 3496SOL    HW111274   3.972   2.342   3.514
 3496SOL    HW211275   3.855   2.453   3.543
 3497SOL     OW11276   4.539   2.434   2.187
 3497SOL    HW111277   4.546   2.345   2.141
 3497SOL    HW211278   4.445   2.468   2.179
 3498SOL     OW11279   3.976   3.426   3.606
 3498SOL    HW111280   3.946   3.483   3.682
 3498SOL    HW211281   3.969   3.329   3.632
 3499SOL     OW11282   4.395   2.326   3.131
 3499SOL    HW111283   4.361   2.237   3.101
 3499SOL    HW211284   4.421   2.380   3.051
 3500SOL     OW11285   4.654   3.540   3.327
 3500SOL    HW111286   4.630   3.522   3.232
 3500SOL    HW211287   4.684   3.634   3.337
 3501SOL     OW11288   4.197   2.362   2.053
 3501SOL    HW111289   4.258   2.442   2.057
 3501SOL    HW211290   4.102   2.393   2.060
 3502SOL     OW11291   3.883   2.999   3.328
 3502SOL    HW111292   3.905   2.938   3.404
 3502SOL    HW211293   3.893   2.950   3.242
 3503SOL     OW11294   5.071   2.921   3.096
 3503SOL    HW111295   5.095   2.858   3.022
 3503SOL    HW211296   4.981   2.961   3.078
 3504SOL     OW11297   4.976   3.593   2.990
 3504SOL    HW111298   5.060   3.598   2.936
 3504SOL    HW211299   4.953   3.497   3.008
 3505SOL     OW11300   4.412   3.524   3.578
 3505SOL    HW111301   4.356   3.605   3.587
 3505SOL    HW211302   4.464   3.528   3.492
 3506SOL     OW11303   5.112   3.435   2.339
 3506SOL    HW111304   5.179   3.447   2.265
 3506SOL    HW211305   5.072   3.524   2.362
 3507SOL     OW11306   3.854   3.656   3.713
 3507SOL    HW111307   3.813   3.582   3.766
 3507SOL    HW211308   3.918   3.707   3.771
 3508SOL     OW11309   5.004   2.789   2.534
 3508SOL    HW111310   5.064   2.708   2.536
 3508SOL    HW211311   5.044   2.858   2.474
 3509SOL     OW11312   4.554   3.135   3.284
 3509SOL    HW111313   4.549   3.168   3.379
 3509SOL    HW211314   4.468   3.154   3.238
 3510SOL     OW11315   4.396   3.478   2.016
 3510SOL    HW111316   4.405   3.488   1.917
 3510SOL    HW211317   4.356   3.389   2.037
 3511SOL     OW11318   4.918   3.474   1.893
 3511SOL    HW111319   4.924   3.381   1.930
 3511SOL    HW211320   4.859   3.474   1.813
 3512SOL     OW11321   4.546   2.864   3.234
 3512SOL    HW111322   4.586   2.863   3.142
 3512SOL    HW211323   4.556   2.956   3.274
 3513SOL     OW11324   4.640   2.772   2.153
 3513SOL    HW111325   4.703   2.810   2.085
 3513SOL    HW211326   4.680   2.689   2.192
 3514SOL     OW11327   4.096   3.150   3.352
 3514SOL    HW111328   4.083   3.243   3.318
 3514SOL    HW211329   4.012   3.098   3.339
 3515SOL     OW11330   4.763   2.960   2.558
 3515SOL    HW111331   4.693   2.913   2.612
 3515SOL    HW211332   4.822   2.892   2.515
 3516SOL     OW11333   4.738   2.098   2.833
 3516SOL    HW111334   4.730   2.062   2.740
 3516SOL    HW211335   4.736   2.022   2.898
 3517SOL     OW11336   4.314   3.349   2.353
 3517SOL    HW111337   4.356   3.291   2.283
 3517SOL    HW211338   4.270   3.428   2.309
 3518SOL     OW11339   3.829   2.875   3.588
 3518SOL    HW111340   3.752   2.842   3.642
 3518SOL    HW211341   3.914   2.845   3.630
 3519SOL     OW11342   3.799   2.207   1.895
 3519SOL    HW111343   3.707   2.179   1.866
 3519SOL    HW211344   3.830   2.284   1.839
 3520SOL     OW11345   5.164   2.718   3.260
 3520SOL    HW111346   5.107   2.770   3.197
 3520SOL    HW211347   5.260   2.730   3.236
 3521SOL     OW11348   3.796   2.028   2.180
 3521SOL    HW111349   3.779   2.111   2.126
 3521SOL    HW211350   3.886   1.991   2.158
 3522SOL     OW11351   4.337   2.704   3.293
 3522SOL    HW111352   4.393   2.785   3.276
 3522SOL    HW211353   4.396   2.624   3.296
 3523SOL     OW11354   4.114   3.603   3.422
 3523SOL    HW111355   4.023   3.644   3.420
 3523SOL    HW211356   4.107   3.509   3.454
 3524SOL     OW11357   4.949   2.187   2.311
 3524SOL    HW111358   5.014   2.113   2.300
 3524SOL    HW211359   4.969   2.237   2.395
 3525SOL     OW11360   4.318   2.607   2.514
 3525SOL    HW111361   4.368   2.692   2.495
 3525SOL    HW211362   4.230   2.609   2.466
 3526SOL     OW11363   4.583   3.236   1.878
 3526SOL    HW111364   4.537   3.251   1.966
 3526SOL    HW211365   4.627   3.321   1.848
 3527SOL     OW11366   4.385   3.652   2.815
 3527SOL    HW111367   4.339   3.740   2.802
 3527SOL    HW211368   4.484   3.664   2.808
 3528SOL     OW11369   4.583   2.818   2.723
 3528SOL    HW111370   4.637   2.749   2.771
 3528SOL    HW211371   4.551   2.887   2.789
 3529SOL     OW11372   4.807   2.846   1.949
 3529SOL    HW111373   4.784   2.899   1.867
 3529SOL    HW211374   4.888   2.790   1.930
 3530SOL     OW11375   3.945   3.176   3.706
 3530SOL    HW111376   3.880   3.103   3.685
 3530SOL    HW211377   3.949   3.190   3.804
 3531SOL     OW11378   4.396   3.253   3.486
 3531SOL    HW111379   4.318   3.203   3.524
 3531SOL    HW211380   4.393   3.348   3.517
 3532SOL     OW11381   4.041   2.409   3.142
 3532SOL    HW111382   4.079   2.350   3.214
 3532SOL    HW211383   4.081   2.383   3.054
 3533SOL     OW11384   4.536   3.448   2.549
 3533SOL    HW111385   4.568   3.458   2.455
 3533SOL    HW211386   4.457   3.386   2.551
 3534SOL     OW11387   4.725   1.896   3.016
 3534SOL    HW111388   4.662   1.824   2.985
 3534SOL    HW211389   4.818   1.860   3.016
 3535SOL     OW11390   4.494   3.192   2.163
 3535SOL    HW111391   4.448   3.105   2.180
 3535SOL    HW211392   4.585   3.189   2.204
 3536SOL     OW11393   4.342   3.429   3.146
 3536SOL    HW111394   4.337   3.511   3.203
 3536SOL    HW211395   4.431   3.426   3.101
 3537SOL     OW11396   5.076   1.914   2.030
 3537SOL    HW111397   5.111   1.873   1.946
 3537SOL    HW211398   4.986   1.876   2.050
 3538SOL     OW11399   3.763   2.939   2.162
 3538SOL    HW111400   3.862   2.928   2.153
 3538SOL    HW211401   3.723   2.853   2.194
 3539SOL     OW11402   4.599   3.508   2.199
 3539SOL    HW111403   4.522   3.473   2.145
 3539SOL    HW211404   4.567   3.579   2.261
 3540SOL     OW11405   3.954   2.490   3.837
 3540SOL    HW111406   3.861   2.488   3.874
 3540SOL    HW211407   3.955   2.451   3.745
 3541SOL     OW11408   3.743   2.230   4.371
 3541SOL    HW111409   3.661   2.273   4.410
 3541SOL    HW211410   3.715   2.157   4.308
 3542SOL     OW11411   4.293   3.137   4.889
 3542SOL    HW111412   4.200   3.130   4.852
 3542SOL    HW211413   4.304   3.226   4.933
 3543SOL     OW11414   4.859   2.565   4.441
 3543SOL    HW111415   4.916   2.643   4.416
 3543SOL    HW211416   4.799   2.591   4.517
 3544SOL     OW11417   4.492   3.006   4.747
 3544SOL    HW111418   4.414   3.023   4.807
 3544SOL    HW211419   4.526   3.093   4.711
 3545SOL     OW11420   4.409   2.874   4.389
 3545SOL    HW111421   4.478   2.858   4.459
 3545SOL    HW211422   4.336   2.931   4.427
 3546SOL     OW11423   4.059   3.297   4.785
 3546SOL    HW111424   3.981   3.266   4.732
 3546SOL    HW211425   4.117   3.355   4.728
 3547SOL     OW11426   3.955   3.575   4.207
 3547SOL    HW111427   3.989   3.652   4.261
 3547SOL    HW211428   3.999   3.575   4.117
 3548SOL     OW11429   3.954   3.296   4.262
 3548SOL    HW111430   3.928   3.392   4.262
 3548SOL    HW211431   3.883   3.242   4.307
 3549SOL     OW11432   3.964   2.953   4.610
 3549SOL    HW111433   3.978   2.869   4.662
 3549SOL    HW211434   3.909   3.017   4.665
 3550SOL     OW11435   4.344   3.648   5.163
 3550SOL    HW111436   4.252   3.631   5.198
 3550SOL    HW211437   4.372   3.740   5.189
 3551SOL     OW11438   4.330   2.826   3.847
 3551SOL    HW111439   4.337   2.910   3.793
 3551SOL    HW211440   4.376   2.839   3.935
 3552SOL     OW11441   3.846   2.505   4.287
 3552SOL    HW111442   3.801   2.417   4.304
 3552SOL    HW211443   3.845   2.559   4.371
 3553SOL     OW11444   3.751   3.458   3.841
 3553SOL    HW111445   3.732   3.362   3.862
 3553SOL    HW211446   3.718   3.516   3.916
 3554SOL     OW11447   4.337   3.227   4.450
 3554SOL    HW111448   4.288   3.140   4.459
 3554SOL    HW211449   4.314   3.270   4.363
 3555SOL     OW11450   4.533   1.866   4.226
 3555SOL    HW111451   4.573   1.957   4.217
 3555SOL    HW211452   4.433   1.874   4.232
 3556SOL     OW11453   3.921   2.838   4.988
 3556SOL    HW111454   4.010   2.793   4.974
 3556SOL    HW211455   3.848   2.773   4.969
 3557SOL     OW11456   4.322   2.591   3.994
 3557SOL    HW111457   4.346   2.660   3.926
 3557SOL    HW211458   4.244   2.624   4.048
 3558SOL     OW11459   5.005   2.207   4.668
 3558SOL    HW111460   4.919   2.157   4.655
 3558SOL    HW211461   5.067   2.153   4.724
 3559SOL     OW11462   4.715   2.272   4.966
 3559SOL    HW111463   4.638   2.306   5.020
 3559SOL    HW211464   4.681   2.221   4.887
 3560SOL     OW11465   4.765   2.563   4.153
 3560SOL    HW111466   4.791   2.559   4.249
 3560SOL    HW211467   4.680   2.512   4.139
 3561SOL     OW11468   3.800   2.673   4.513
 3561SOL    HW111469   3.899   2.661   4.522
 3561SOL    HW211470   3.776   2.768   4.534
 3562SOL     OW11471   4.589   2.210   3.919
 3562SOL    HW111472   4.648   2.273   3.870
 3562SOL    HW211473   4.608   2.116   3.890
 3563SOL     OW11474   4.732   3.318   4.201
 3563SOL    HW111475   4.686   3.390   4.149
 3563SOL    HW211476   4.728   3.338   4.299
 3564SOL     OW11477   4.075   3.663   4.577
 3564SOL    HW111478   4.125   3.577   4.583
 3564SOL    HW211479   4.140   3.740   4.574
 3565SOL     OW11480   4.045   2.805   3.966
 3565SOL    HW111481   4.127   2.844   3.924
 3565SOL    HW211482   4.018   2.723   3.917
 3566SOL     OW11483   4.835   3.638   3.961
 3566SOL    HW111484   4.775   3.576   4.011
 3566SOL    HW211485   4.866   3.594   3.876
 3567SOL     OW11486   4.188   3.605   4.047
 3567SOL    HW111487   4.221   3.644   4.133
 3567SOL    HW211488   4.264   3.598   3.982
 3568SOL     OW11489   3.973   3.647   4.965
 3568SOL    HW111490   4.030   3.582   5.015
 3568SOL    HW211491   3.957   3.614   4.872
 3569SOL     OW11492   4.664   3.560   4.628
 3569SOL    HW111493   4.744   3.503   4.649
 3569SOL    HW211494   4.615   3.520   4.551
 3570SOL     OW11495   4.106   2.562   4.204
 3570SOL    HW111496   4.151   2.472   4.201
 3570SOL    HW211497   4.012   2.551   4.237
 3571SOL     OW11498   4.338   1.984   3.841
 3571SOL    HW111499   4.436   1.962   3.848
 3571SOL    HW211500   4.307   1.967   3.748
 3572SOL     OW11501   4.527   3.264   4.648
 3572SOL    HW111502   4.617   3.278   4.606
 3572SOL    HW211503   4.456   3.266   4.577
 3573SOL     OW11504   4.646   2.365   4.623
 3573SOL    HW111505   4.621   2.356   4.527
 3573SOL    HW211506   4.694   2.283   4.654
 3574SOL     OW11507   4.263   1.926   4.236
 3574SOL    HW111508   4.182   1.927   4.294
 3574SOL    HW211509   4.266   2.009   4.181
 3575SOL     OW11510   4.021   1.897   3.895
 3575SOL    HW111511   4.070   1.981   3.874
 3575SOL    HW211512   4.083   1.832   3.940
 3576SOL     OW11513   4.659   2.098   4.204
 3576SOL    HW111514   4.611   2.139   4.126
 3576SOL    HW211515   4.758   2.096   4.185
 3577SOL     OW11516   4.951   3.432   4.517
 3577SOL    HW111517   4.972   3.506   4.452
 3577SOL    HW211518   5.019   3.432   4.590
 3578SOL     OW11519   4.183   3.014   4.465
 3578SOL    HW111520   4.112   2.987   4.530
 3578SOL    HW211521   4.157   2.986   4.372
 3579SOL     OW11522   4.995   3.659   4.315
 3579SOL    HW111523   5.039   3.723   4.251
 3579SOL    HW211524   4.945   3.711   4.385
 3580SOL     OW11525   4.590   2.316   4.366
 3580SOL    HW111526   4.558   2.388   4.304
 3580SOL    HW211527   4.614   2.235   4.313
 3581SOL     OW11528   4.741   1.901   4.477
 3581SOL    HW111529   4.669   1.906   4.408
 3581SOL    HW211530   4.717   1.832   4.546
 3582SOL     OW11531   4.212   3.247   3.898
 3582SOL    HW111532   4.125   3.232   3.945
 3582SOL    HW211533   4.195   3.273   3.803
 3583SOL     OW11534   5.388   3.142   4.381
 3583SOL    HW111535   5.487   3.150   4.395
 3583SOL    HW211536   5.343   3.226   4.412
 3584SOL     OW11537   4.251   2.118   4.052
 3584SOL    HW111538   4.278   2.059   3.977
 3584SOL    HW211539   4.251   2.213   4.021
 3585SOL     OW11540   5.316   3.491   5.349
 3585SOL    HW111541   5.343   3.525   5.259
 3585SOL    HW211542   5.395   3.453   5.395
 3586SOL     OW11543   4.835   3.057   4.824
 3586SOL    HW111544   4.795   3.101   4.905
 3586SOL    HW211545   4.794   3.094   4.741
 3587SOL     OW11546   4.429   2.912   4.092
 3587SOL    HW111547   4.415   2.919   4.191
 3587SOL    HW211548   4.513   2.861   4.074
 3588SOL     OW11549   4.134   2.675   4.975
 3588SOL    HW111550   4.220   2.687   5.025
 3588SOL    HW211551   4.092   2.588   5.002
 3589SOL     OW11552   4.091   2.962   4.225
 3589SOL    HW111553   4.084   3.045   4.169
 3589SOL    HW211554   4.095   2.882   4.165
 3590SOL     OW11555   4.290   2.399   4.589
 3590SOL    HW111556   4.302   2.465   4.515
 3590SOL    HW211557   4.336   2.433   4.672
 3591SOL     OW11558   4.976   3.210   4.112
 3591SOL    HW111559   5.026   3.287   4.152
 3591SOL    HW211560   4.881   3.212   4.144
 3592SOL     OW11561   4.078   3.372   5.053
 3592SOL    HW111562   4.057   3.328   4.966
 3592SOL    HW211563   4.175   3.398   5.056
 3593SOL     OW11564   4.297   2.732   4.753
 3593SOL    HW111565   4.341   2.821   4.744
 3593SOL    HW211566   4.234   2.732   4.830
 3594SOL     OW11567   5.084   2.724   4.769
 3594SOL    HW111568   5.009   2.724   4.703
 3594SOL    HW211569   5.121   2.632   4.778
 3595SOL     OW11570   4.933   2.387   3.999
 3595SOL    HW111571   4.946   2.303   4.053
 3595SOL    HW211572   4.904   2.461   4.059
 3596SOL     OW11573   3.761   3.172   5.006
 3596SOL    HW111574   3.814   3.123   5.074
 3596SOL    HW211575   3.783   3.270   5.011
 3597SOL     OW11576   4.456   2.496   4.788
 3597SOL    HW111577   4.515   2.470   4.712
 3597SOL    HW211578   4.428   2.592   4.777
 3598SOL     OW11579   4.031   1.925   4.342
 3598SOL    HW111580   4.020   2.019   4.375
 3598SOL    HW211581   4.026   1.862   4.419
 3599SOL     OW11582   5.346   2.229   4.098
 3599SOL    HW111583   5.348   2.153   4.162
 3599SOL    HW211584   5.298   2.306   4.138
 3600SOL     OW11585   4.747   2.628   4.690
 3600SOL    HW111586   4.762   2.649   4.786
 3600SOL    HW211587   4.717   2.533   4.681
 3601SOL     OW11588   5.027   2.700   3.766
 3601SOL    HW111589   5.061   2.607   3.781
 3601SOL    HW211590   5.045   2.727   3.671
 3602SOL     OW11591   4.792   3.195   4.573
 3602SOL    HW111592   4.799   3.111   4.518
 3602SOL    HW211593   4.854   3.264   4.537
 3603SOL     OW11594   4.043   2.672   4.673
 3603SOL    HW111595   4.136   2.708   4.678
 3603SOL    HW211596   4.037   2.587   4.725
 3604SOL     OW11597   4.063   2.371   4.730
 3604SOL    HW111598   4.011   2.288   4.713
 3604SOL    HW211599   4.140   2.376   4.666
 3605SOL     OW11600   4.884   2.069   5.201
 3605SOL    HW111601   4.884   2.133   5.278
 3605SOL    HW211602   4.912   2.117   5.118
 3606SOL     OW11603   3.732   3.188   3.924
 3606SOL    HW111604   3.639   3.209   3.893
 3606SOL    HW211605   3.742   3.089   3.937
 3607SOL     OW11606   3.812   3.663   4.651
 3607SOL    HW111607   3.770   3.577   4.624
 3607SOL    HW211608   3.906   3.666   4.617
 3608SOL     OW11609   4.228   3.430   4.634
 3608SOL    HW111610   4.294   3.504   4.643
 3608SOL    HW211611   4.272   3.351   4.592
 3609SOL     OW11612   4.726   2.658   4.962
 3609SOL    HW111613   4.767   2.626   5.048
 3609SOL    HW211614   4.630   2.631   4.959
 3610SOL     OW11615   3.764   2.406   4.838
 3610SOL    HW111616   3.849   2.373   4.797
 3610SOL    HW211617   3.777   2.421   4.936
 3611SOL     OW11618   4.539   2.434   4.049
 3611SOL    HW111619   4.546   2.345   4.003
 3611SOL    HW211620   4.445   2.468   4.041
 3612SOL     OW11621   4.654   3.540   5.189
 3612SOL    HW111622   4.630   3.522   5.094
 3612SOL    HW211623   4.684   3.634   5.199
 3613SOL     OW11624   4.197   2.362   3.915
 3613SOL    HW111625   4.258   2.442   3.919
 3613SOL    HW211626   4.102   2.393   3.922
 3614SOL     OW11627   5.071   2.921   4.958
 3614SOL    HW111628   5.095   2.858   4.884
 3614SOL    HW211629   4.981   2.961   4.940
 3615SOL     OW11630   4.976   3.593   4.852
 3615SOL    HW111631   5.060   3.598   4.798
 3615SOL    HW211632   4.953   3.497   4.870
 3616SOL     OW11633   3.807   3.120   4.746
 3616SOL    HW111634   3.802   3.119   4.846
 3616SOL    HW211635   3.724   3.079   4.708
 3617SOL     OW11636   5.112   3.435   4.201
 3617SOL    HW111637   5.179   3.447   4.127
 3617SOL    HW211638   5.072   3.524   4.224
 3618SOL     OW11639   5.004   2.789   4.396
 3618SOL    HW111640   5.064   2.708   4.398
 3618SOL    HW211641   5.044   2.858   4.336
 3619SOL     OW11642   4.396   3.478   3.878
 3619SOL    HW111643   4.405   3.488   3.779
 3619SOL    HW211644   4.356   3.389   3.899
 3620SOL     OW11645   4.918   3.474   3.755
 3620SOL    HW111646   4.924   3.381   3.792
 3620SOL    HW211647   4.859   3.474   3.675
 3621SOL     OW11648   4.546   2.864   5.096
 3621SOL    HW111649   4.586   2.863   5.004
 3621SOL    HW211650   4.556   2.956   5.136
 3622SOL     OW11651   4.640   2.772   4.015
 3622SOL    HW111652   4.703   2.810   3.947
 3622SOL    HW211653   4.680   2.689   4.054
 3623SOL     OW11654   4.763   2.960   4.420
 3623SOL    HW111655   4.693   2.913   4.474
 3623SOL    HW211656   4.822   2.892   4.377
 3624SOL     OW11657   4.738   2.098   4.695
 3624SOL    HW111658   4.730   2.062   4.602
 3624SOL    HW211659   4.736   2.022   4.760
 3625SOL     OW11660   4.314   3.349   4.215
 3625SOL    HW111661   4.356   3.291   4.145
 3625SOL    HW211662   4.270   3.428   4.171
 3626SOL     OW11663   3.979   3.210   4.014
 3626SOL    HW111664   3.883   3.211   3.987
 3626SOL    HW211665   3.991   3.263   4.098
 3627SOL     OW11666   3.799   2.207   3.757
 3627SOL    HW111667   3.707   2.179   3.728
 3627SOL    HW211668   3.830   2.284   3.701
 3628SOL     OW11669   3.796   2.028   4.042
 3628SOL    HW111670   3.779   2.111   3.988
 3628SOL    HW211671   3.886   1.991   4.020
 3629SOL     OW11672   4.949   2.187   4.173
 3629SOL    HW111673   5.014   2.113   4.162
 3629SOL    HW211674   4.969   2.237   4.257
 3630SOL     OW11675   4.318   2.607   4.376
 3630SOL    HW111676   4.368   2.692   4.357
 3630SOL    HW211677   4.230   2.609   4.328
 3631SOL     OW11678   4.583   3.236   3.740
 3631SOL    HW111679   4.537   3.251   3.828
 3631SOL    HW211680   4.627   3.321   3.710
 3632SOL     OW11681   4.385   3.652   4.677
 3632SOL    HW111682   4.339   3.740   4.664
 3632SOL    HW211683   4.484   3.664   4.670
 3633SOL     OW11684   4.583   2.818   4.585
 3633SOL    HW111685   4.637   2.749   4.633
 3633SOL    HW211686   4.551   2.887   4.651
 3634SOL     OW11687   4.807   2.846   3.811
 3634SOL    HW111688   4.784   2.899   3.729
 3634SOL    HW211689   4.888   2.790   3.792
 3635SOL     OW11690   3.803   3.102   4.377
 3635SOL    HW111691   3.802   3.055   4.465
 3635SOL    HW211692   3.885   3.074   4.326
 3636SOL     OW11693   4.536   3.448   4.411
 3636SOL    HW111694   4.568   3.458   4.317
 3636SOL    HW211695   4.457   3.386   4.413
 3637SOL     OW11696   4.494   3.192   4.025
 3637SOL    HW111697   4.448   3.105   4.042
 3637SOL    HW211698   4.585   3.189   4.066
 3638SOL     OW11699   5.076   1.914   3.892
 3638SOL    HW111700   5.111   1.873   3.808
 3638SOL    HW211701   4.986   1.876   3.912
 3639SOL     OW11702   3.763   2.939   4.024
 3639SOL    HW111703   3.862   2.928   4.015
 3639SOL    HW211704   3.723   2.853   4.056
 3640SOL     OW11705   4.599   3.508   4.061
 3640SOL    HW111706   4.522   3.473   4.007
 3640SOL    HW211707   4.567   3.579   4.123
 3641SOL     OW11708   3.949   3.999   0.996
 3641SOL    HW111709   3.984   3.982   1.088
 3641SOL    HW211710   3.861   3.954   0.984
 3642SOL     OW11711   3.743   4.092   0.647
 3642SOL    HW111712   3.661   4.135   0.686
 3642SOL    HW211713   3.715   4.019   0.584
 3643SOL     OW11714   4.293   4.999   1.165
 3643SOL    HW111715   4.200   4.992   1.128
 3643SOL    HW211716   4.304   5.088   1.209
 3644SOL     OW11717   4.859   4.427   0.717
 3644SOL    HW111718   4.916   4.505   0.692
 3644SOL    HW211719   4.799   4.453   0.793
 3645SOL     OW11720   4.492   4.868   1.023
 3645SOL    HW111721   4.414   4.885   1.083
 3645SOL    HW211722   4.526   4.955   0.987
 3646SOL     OW11723   4.574   4.522   1.823
 3646SOL    HW111724   4.570   4.598   1.888
 3646SOL    HW211725   4.596   4.558   1.732
 3647SOL     OW11726   4.409   4.736   0.665
 3647SOL    HW111727   4.478   4.720   0.735
 3647SOL    HW211728   4.336   4.793   0.703
 3648SOL     OW11729   4.410   4.885   1.803
 3648SOL    HW111730   4.470   4.964   1.817
 3648SOL    HW211731   4.324   4.916   1.762
 3649SOL     OW11732   4.059   5.159   1.061
 3649SOL    HW111733   3.981   5.128   1.008
 3649SOL    HW211734   4.117   5.217   1.004
 3650SOL     OW11735   4.162   4.116   1.499
 3650SOL    HW111736   4.244   4.060   1.508
 3650SOL    HW211737   4.081   4.058   1.503
 3651SOL     OW11738   3.964   4.815   0.886
 3651SOL    HW111739   3.978   4.731   0.938
 3651SOL    HW211740   3.909   4.879   0.941
 3652SOL     OW11741   4.330   4.688   0.123
 3652SOL    HW111742   4.337   4.772   0.069
 3652SOL    HW211743   4.376   4.701   0.211
 3653SOL     OW11744   3.846   4.367   0.563
 3653SOL    HW111745   3.801   4.279   0.580
 3653SOL    HW211746   3.845   4.421   0.647
 3654SOL     OW11747   3.837   4.461   1.597
 3654SOL    HW111748   3.925   4.448   1.642
 3654SOL    HW211749   3.824   4.558   1.575
 3655SOL     OW11750   5.017   4.952   1.423
 3655SOL    HW111751   5.054   4.879   1.365
 3655SOL    HW211752   5.069   4.957   1.508
 3656SOL     OW11753   3.921   4.700   1.264
 3656SOL    HW111754   4.010   4.655   1.250
 3656SOL    HW211755   3.848   4.635   1.245
 3657SOL     OW11756   4.041   3.975   1.801
 3657SOL    HW111757   4.112   4.046   1.807
 3657SOL    HW211758   3.953   4.014   1.829
 3658SOL     OW11759   4.322   4.453   0.270
 3658SOL    HW111760   4.346   4.522   0.202
 3658SOL    HW211761   4.244   4.486   0.324
 3659SOL     OW11762   5.005   4.069   0.944
 3659SOL    HW111763   4.919   4.019   0.931
 3659SOL    HW211764   5.067   4.015   1.000
 3660SOL     OW11765   4.531   4.329   1.465
 3660SOL    HW111766   4.484   4.326   1.554
 3660SOL    HW211767   4.480   4.274   1.399
 3661SOL     OW11768   4.697   4.614   1.572
 3661SOL    HW111769   4.743   4.530   1.543
 3661SOL    HW211770   4.641   4.648   1.497
 3662SOL     OW11771   4.715   4.134   1.242
 3662SOL    HW111772   4.638   4.168   1.296
 3662SOL    HW211773   4.681   4.083   1.163
 3663SOL     OW11774   4.765   4.425   0.429
 3663SOL    HW111775   4.791   4.421   0.525
 3663SOL    HW211776   4.680   4.374   0.415
 3664SOL     OW11777   3.800   4.535   0.789
 3664SOL    HW111778   3.899   4.523   0.798
 3664SOL    HW211779   3.776   4.630   0.810
 3665SOL     OW11780   4.274   3.920   0.885
 3665SOL    HW111781   4.269   3.915   0.985
 3665SOL    HW211782   4.276   4.016   0.856
 3666SOL     OW11783   4.045   4.667   0.242
 3666SOL    HW111784   4.127   4.706   0.200
 3666SOL    HW211785   4.018   4.585   0.193
 3667SOL     OW11786   3.926   4.009   1.498
 3667SOL    HW111787   3.846   4.069   1.485
 3667SOL    HW211788   3.916   3.960   1.584
 3668SOL     OW11789   4.106   4.424   0.480
 3668SOL    HW111790   4.151   4.334   0.477
 3668SOL    HW211791   4.012   4.413   0.513
 3669SOL     OW11792   4.505   3.988   1.749
 3669SOL    HW111793   4.572   3.927   1.792
 3669SOL    HW211794   4.432   4.007   1.814
 3670SOL     OW11795   4.527   5.126   0.924
 3670SOL    HW111796   4.617   5.140   0.882
 3670SOL    HW211797   4.456   5.128   0.853
 3671SOL     OW11798   4.646   4.227   0.899
 3671SOL    HW111799   4.621   4.218   0.803
 3671SOL    HW211800   4.694   4.145   0.930
 3672SOL     OW11801   4.021   3.759   0.171
 3672SOL    HW111802   4.070   3.843   0.150
 3672SOL    HW211803   4.083   3.694   0.216
 3673SOL     OW11804   4.800   4.407   1.464
 3673SOL    HW111805   4.720   4.346   1.467
 3673SOL    HW211806   4.881   4.354   1.440
 3674SOL     OW11807   4.951   5.294   0.793
 3674SOL    HW111808   4.972   5.368   0.728
 3674SOL    HW211809   5.019   5.294   0.866
 3675SOL     OW11810   4.183   4.876   0.741
 3675SOL    HW111811   4.112   4.849   0.806
 3675SOL    HW211812   4.157   4.848   0.648
 3676SOL     OW11813   4.756   4.273   0.016
 3676SOL    HW111814   4.715   4.355  -0.023
 3676SOL    HW211815   4.820   4.299   0.089
 3677SOL     OW11816   3.802   4.280   1.386
 3677SOL    HW111817   3.894   4.279   1.345
 3677SOL    HW211818   3.796   4.354   1.453
 3678SOL     OW11819   4.285   3.946   1.147
 3678SOL    HW111820   4.323   3.862   1.184
 3678SOL    HW211821   4.197   3.965   1.191
 3679SOL     OW11822   4.590   4.178   0.642
 3679SOL    HW111823   4.558   4.250   0.580
 3679SOL    HW211824   4.614   4.097   0.589
 3680SOL     OW11825   4.741   3.763   0.753
 3680SOL    HW111826   4.669   3.768   0.684
 3680SOL    HW211827   4.717   3.694   0.822
 3681SOL     OW11828   4.639   3.813   1.402
 3681SOL    HW111829   4.664   3.793   1.307
 3681SOL    HW211830   4.711   3.869   1.444
 3682SOL     OW11831   4.704   4.840   1.719
 3682SOL    HW111832   4.605   4.846   1.729
 3682SOL    HW211833   4.727   4.760   1.663
 3683SOL     OW11834   4.429   4.774   0.368
 3683SOL    HW111835   4.415   4.781   0.467
 3683SOL    HW211836   4.513   4.723   0.350
 3684SOL     OW11837   4.134   4.537   1.251
 3684SOL    HW111838   4.220   4.549   1.301
 3684SOL    HW211839   4.092   4.450   1.278
 3685SOL     OW11840   4.998   4.110   1.262
 3685SOL    HW111841   5.019   4.184   1.326
 3685SOL    HW211842   4.909   4.127   1.219
 3686SOL     OW11843   4.091   4.824   0.501
 3686SOL    HW111844   4.084   4.907   0.445
 3686SOL    HW211845   4.095   4.744   0.441
 3687SOL     OW11846   4.290   4.261   0.865
 3687SOL    HW111847   4.302   4.327   0.791
 3687SOL    HW211848   4.336   4.295   0.948
 3688SOL     OW11849   4.976   5.072   0.388
 3688SOL    HW111850   5.026   5.149   0.428
 3688SOL    HW211851   4.881   5.074   0.420
 3689SOL     OW11852   4.126   4.475   1.598
 3689SOL    HW111853   4.194   4.530   1.551
 3689SOL    HW211854   4.166   4.387   1.625
 3690SOL     OW11855   4.737   3.829   1.770
 3690SOL    HW111856   4.743   3.914   1.718
 3690SOL    HW211857   4.769   3.753   1.713
 3691SOL     OW11858   4.228   3.774   1.740
 3691SOL    HW111859   4.186   3.717   1.670
 3691SOL    HW211860   4.162   3.843   1.772
 3692SOL     OW11861   4.297   4.594   1.029
 3692SOL    HW111862   4.341   4.683   1.020
 3692SOL    HW211863   4.234   4.594   1.106
 3693SOL     OW11864   5.084   4.586   1.045
 3693SOL    HW111865   5.009   4.586   0.979
 3693SOL    HW211866   5.121   4.494   1.054
 3694SOL     OW11867   4.933   4.249   0.275
 3694SOL    HW111868   4.946   4.165   0.329
 3694SOL    HW211869   4.904   4.323   0.335
 3695SOL     OW11870   4.031   3.937   1.231
 3695SOL    HW111871   4.008   3.974   1.321
 3695SOL    HW211872   4.001   3.842   1.225
 3696SOL     OW11873   4.456   4.358   1.064
 3696SOL    HW111874   4.515   4.332   0.988
 3696SOL    HW211875   4.428   4.454   1.053
 3697SOL     OW11876   4.031   3.787   0.618
 3697SOL    HW111877   4.020   3.881   0.651
 3697SOL    HW211878   4.026   3.724   0.695
 3698SOL     OW11879   5.346   4.091   0.374
 3698SOL    HW111880   5.348   4.015   0.438
 3698SOL    HW211881   5.298   4.168   0.414
 3699SOL     OW11882   4.747   4.490   0.966
 3699SOL    HW111883   4.762   4.511   1.062
 3699SOL    HW211884   4.717   4.395   0.957
 3700SOL     OW11885   4.074   4.622   1.804
 3700SOL    HW111886   4.150   4.666   1.852
 3700SOL    HW211887   4.109   4.575   1.722
 3701SOL     OW11888   5.027   4.562   0.042
 3701SOL    HW111889   5.061   4.469   0.057
 3701SOL    HW211890   5.045   4.589  -0.053
 3702SOL     OW11891   4.043   4.534   0.949
 3702SOL    HW111892   4.136   4.570   0.954
 3702SOL    HW211893   4.037   4.449   1.001
 3703SOL     OW11894   4.063   4.233   1.006
 3703SOL    HW111895   4.011   4.150   0.989
 3703SOL    HW211896   4.140   4.238   0.942
 3704SOL     OW11897   4.862   4.104   1.678
 3704SOL    HW111898   4.817   4.167   1.742
 3704SOL    HW211899   4.955   4.135   1.661
 3705SOL     OW11900   4.884   3.931   1.477
 3705SOL    HW111901   4.884   3.995   1.554
 3705SOL    HW211902   4.912   3.979   1.394
 3706SOL     OW11903   4.726   4.520   1.238
 3706SOL    HW111904   4.767   4.488   1.324
 3706SOL    HW211905   4.630   4.493   1.235
 3707SOL     OW11906   3.764   4.268   1.114
 3707SOL    HW111907   3.849   4.235   1.073
 3707SOL    HW211908   3.777   4.283   1.212
 3708SOL     OW11909   3.913   4.244   1.722
 3708SOL    HW111910   3.972   4.204   1.652
 3708SOL    HW211911   3.855   4.315   1.681
 3709SOL     OW11912   4.395   4.188   1.269
 3709SOL    HW111913   4.361   4.099   1.239
 3709SOL    HW211914   4.421   4.242   1.189
 3710SOL     OW11915   3.883   4.861   1.466
 3710SOL    HW111916   3.905   4.800   1.542
 3710SOL    HW211917   3.893   4.812   1.380
 3711SOL     OW11918   5.071   4.783   1.234
 3711SOL    HW111919   5.095   4.720   1.160
 3711SOL    HW211920   4.981   4.823   1.216
 3712SOL     OW11921   3.807   4.982   1.022
 3712SOL    HW111922   3.802   4.981   1.122
 3712SOL    HW211923   3.724   4.941   0.984
 3713SOL     OW11924   5.004   4.651   0.672
 3713SOL    HW111925   5.064   4.570   0.674
 3713SOL    HW211926   5.044   4.720   0.612
 3714SOL     OW11927   4.554   4.997   1.422
 3714SOL    HW111928   4.549   5.030   1.517
 3714SOL    HW211929   4.468   5.016   1.376
 3715SOL     OW11930   3.987   4.050   0.720
 3715SOL    HW111931   3.908   4.101   0.686
 3715SOL    HW211932   3.978   4.035   0.818
 3716SOL     OW11933   4.546   4.726   1.372
 3716SOL    HW111934   4.586   4.725   1.280
 3716SOL    HW211935   4.556   4.818   1.412
 3717SOL     OW11936   4.640   4.634   0.291
 3717SOL    HW111937   4.703   4.672   0.223
 3717SOL    HW211938   4.680   4.551   0.330
 3718SOL     OW11939   4.096   5.012   1.490
 3718SOL    HW111940   4.083   5.105   1.456
 3718SOL    HW211941   4.012   4.960   1.477
 3719SOL     OW11942   4.763   4.822   0.696
 3719SOL    HW111943   4.693   4.775   0.750
 3719SOL    HW211944   4.822   4.754   0.653
 3720SOL     OW11945   4.738   3.960   0.971
 3720SOL    HW111946   4.730   3.924   0.878
 3720SOL    HW211947   4.736   3.884   1.036
 3721SOL     OW11948   3.829   4.737   1.726
 3721SOL    HW111949   3.752   4.704   1.780
 3721SOL    HW211950   3.914   4.707   1.768
 3722SOL     OW11951   4.396   3.927   1.489
 3722SOL    HW111952   4.486   3.911   1.449
 3722SOL    HW211953   4.404   3.932   1.588
 3723SOL     OW11954   5.164   4.580   1.398
 3723SOL    HW111955   5.107   4.632   1.335
 3723SOL    HW211956   5.260   4.592   1.374
 3724SOL     OW11957   3.796   3.890   0.318
 3724SOL    HW111958   3.779   3.973   0.264
 3724SOL    HW211959   3.886   3.853   0.296
 3725SOL     OW11960   4.337   4.566   1.431
 3725SOL    HW111961   4.393   4.647   1.414
 3725SOL    HW211962   4.396   4.486   1.434
 3726SOL     OW11963   4.440   4.289   1.708
 3726SOL    HW111964   4.459   4.354   1.782
 3726SOL    HW211965   4.500   4.209   1.717
 3727SOL     OW11966   5.174   4.944   1.633
 3727SOL    HW111967   5.165   4.934   1.732
 3727SOL    HW211968   5.270   4.937   1.607
 3728SOL     OW11969   4.949   4.049   0.449
 3728SOL    HW111970   5.014   3.975   0.438
 3728SOL    HW211971   4.969   4.099   0.533
 3729SOL     OW11972   4.318   4.469   0.652
 3729SOL    HW111973   4.368   4.554   0.633
 3729SOL    HW211974   4.230   4.471   0.604
 3730SOL     OW11975   4.583   4.680   0.861
 3730SOL    HW111976   4.637   4.611   0.909
 3730SOL    HW211977   4.551   4.749   0.927
 3731SOL     OW11978   4.807   4.708   0.087
 3731SOL    HW111979   4.784   4.761   0.005
 3731SOL    HW211980   4.888   4.652   0.068
 3732SOL     OW11981   3.803   4.964   0.653
 3732SOL    HW111982   3.802   4.917   0.741
 3732SOL    HW211983   3.885   4.936   0.602
 3733SOL     OW11984   4.041   4.271   1.280
 3733SOL    HW111985   4.079   4.212   1.352
 3733SOL    HW211986   4.081   4.245   1.192
 3734SOL     OW11987   4.725   3.758   1.154
 3734SOL    HW111988   4.662   3.686   1.123
 3734SOL    HW211989   4.818   3.722   1.154
 3735SOL     OW11990   4.494   5.054   0.301
 3735SOL    HW111991   4.448   4.967   0.318
 3735SOL    HW211992   4.585   5.051   0.342
 3736SOL     OW11993   3.763   4.801   0.300
 3736SOL    HW111994   3.862   4.790   0.291
 3736SOL    HW211995   3.723   4.715   0.332
 3737SOL     OW11996   3.954   4.352   1.975
 3737SOL    HW111997   3.861   4.350   2.012
 3737SOL    HW211998   3.955   4.313   1.883
 3738SOL     OW11999   3.949   3.999   2.858
 3738SOL    HW112000   3.984   3.982   2.950
 3738SOL    HW212001   3.861   3.954   2.846
 3739SOL     OW12002   3.743   4.092   2.509
 3739SOL    HW112003   3.661   4.135   2.548
 3739SOL    HW212004   3.715   4.019   2.446
 3740SOL     OW12005   4.293   4.999   3.027
 3740SOL    HW112006   4.200   4.992   2.990
 3740SOL    HW212007   4.304   5.088   3.071
 3741SOL     OW12008   4.859   4.427   2.579
 3741SOL    HW112009   4.916   4.505   2.554
 3741SOL    HW212010   4.799   4.453   2.655
 3742SOL     OW12011   4.492   4.868   2.885
 3742SOL    HW112012   4.414   4.885   2.945
 3742SOL    HW212013   4.526   4.955   2.849
 3743SOL     OW12014   4.574   4.522   3.685
 3743SOL    HW112015   4.570   4.598   3.750
 3743SOL    HW212016   4.596   4.558   3.594
 3744SOL     OW12017   4.409   4.736   2.527
 3744SOL    HW112018   4.478   4.720   2.597
 3744SOL    HW212019   4.336   4.793   2.565
 3745SOL     OW12020   4.059   5.159   2.923
 3745SOL    HW112021   3.981   5.128   2.870
 3745SOL    HW212022   4.117   5.217   2.866
 3746SOL     OW12023   4.162   4.116   3.361
 3746SOL    HW112024   4.244   4.060   3.370
 3746SOL    HW212025   4.081   4.058   3.365
 3747SOL     OW12026   3.964   4.815   2.748
 3747SOL    HW112027   3.978   4.731   2.800
 3747SOL    HW212028   3.909   4.879   2.803
 3748SOL     OW12029   4.330   4.688   1.985
 3748SOL    HW112030   4.337   4.772   1.931
 3748SOL    HW212031   4.376   4.701   2.073
 3749SOL     OW12032   3.846   4.367   2.425
 3749SOL    HW112033   3.801   4.279   2.442
 3749SOL    HW212034   3.845   4.421   2.509
 3750SOL     OW12035   3.837   4.461   3.459
 3750SOL    HW112036   3.925   4.448   3.504
 3750SOL    HW212037   3.824   4.558   3.437
 3751SOL     OW12038   5.017   4.952   3.285
 3751SOL    HW112039   5.054   4.879   3.227
 3751SOL    HW212040   5.069   4.957   3.370
 3752SOL     OW12041   4.533   3.728   2.364
 3752SOL    HW112042   4.573   3.819   2.355
 3752SOL    HW212043   4.433   3.736   2.370
 3753SOL     OW12044   4.041   3.975   3.663
 3753SOL    HW112045   4.112   4.046   3.669
 3753SOL    HW212046   3.953   4.014   3.691
 3754SOL     OW12047   4.322   4.453   2.132
 3754SOL    HW112048   4.346   4.522   2.064
 3754SOL    HW212049   4.244   4.486   2.186
 3755SOL     OW12050   4.531   4.329   3.327
 3755SOL    HW112051   4.484   4.326   3.416
 3755SOL    HW212052   4.480   4.274   3.261
 3756SOL     OW12053   4.697   4.614   3.434
 3756SOL    HW112054   4.743   4.530   3.405
 3756SOL    HW212055   4.641   4.648   3.359
 3757SOL     OW12056   4.715   4.134   3.104
 3757SOL    HW112057   4.638   4.168   3.158
 3757SOL    HW212058   4.681   4.083   3.025
 3758SOL     OW12059   4.765   4.425   2.291
 3758SOL    HW112060   4.791   4.421   2.387
 3758SOL    HW212061   4.680   4.374   2.277
 3759SOL     OW12062   3.800   4.535   2.651
 3759SOL    HW112063   3.899   4.523   2.660
 3759SOL    HW212064   3.776   4.630   2.672
 3760SOL     OW12065   4.589   4.072   2.057
 3760SOL    HW112066   4.648   4.135   2.008
 3760SOL    HW212067   4.608   3.978   2.028
 3761SOL     OW12068   4.274   3.920   2.747
 3761SOL    HW112069   4.269   3.915   2.847
 3761SOL    HW212070   4.276   4.016   2.718
 3762SOL     OW12071   4.045   4.667   2.104
 3762SOL    HW112072   4.127   4.706   2.062
 3762SOL    HW212073   4.018   4.585   2.055
 3763SOL     OW12074   3.926   4.009   3.360
 3763SOL    HW112075   3.846   4.069   3.347
 3763SOL    HW212076   3.916   3.960   3.446
 3764SOL     OW12077   4.106   4.424   2.342
 3764SOL    HW112078   4.151   4.334   2.339
 3764SOL    HW212079   4.012   4.413   2.375
 3765SOL     OW12080   4.338   3.846   1.979
 3765SOL    HW112081   4.436   3.824   1.986
 3765SOL    HW212082   4.307   3.829   1.886
 3766SOL     OW12083   4.505   3.988   3.611
 3766SOL    HW112084   4.572   3.927   3.654
 3766SOL    HW212085   4.432   4.007   3.676
 3767SOL     OW12086   4.527   5.126   2.786
 3767SOL    HW112087   4.617   5.140   2.744
 3767SOL    HW212088   4.456   5.128   2.715
 3768SOL     OW12089   4.646   4.227   2.761
 3768SOL    HW112090   4.621   4.218   2.665
 3768SOL    HW212091   4.694   4.145   2.792
 3769SOL     OW12092   4.263   3.788   2.374
 3769SOL    HW112093   4.182   3.789   2.432
 3769SOL    HW212094   4.266   3.871   2.319
 3770SOL     OW12095   5.158   4.912   1.903
 3770SOL    HW112096   5.190   4.836   1.960
 3770SOL    HW212097   5.066   4.939   1.933
 3771SOL     OW12098   4.021   3.759   2.033
 3771SOL    HW112099   4.070   3.843   2.012
 3771SOL    HW212100   4.083   3.694   2.078
 3772SOL     OW12101   4.659   3.960   2.342
 3772SOL    HW112102   4.611   4.001   2.264
 3772SOL    HW212103   4.758   3.958   2.323
 3773SOL     OW12104   4.800   4.407   3.326
 3773SOL    HW112105   4.720   4.346   3.329
 3773SOL    HW212106   4.881   4.354   3.302
 3774SOL     OW12107   4.951   5.294   2.655
 3774SOL    HW112108   4.972   5.368   2.590
 3774SOL    HW212109   5.019   5.294   2.728
 3775SOL     OW12110   4.183   4.876   2.603
 3775SOL    HW112111   4.112   4.849   2.668
 3775SOL    HW212112   4.157   4.848   2.510
 3776SOL     OW12113   4.756   4.273   1.878
 3776SOL    HW112114   4.715   4.355   1.839
 3776SOL    HW212115   4.820   4.299   1.951
 3777SOL     OW12116   3.802   4.280   3.248
 3777SOL    HW112117   3.894   4.279   3.207
 3777SOL    HW212118   3.796   4.354   3.315
 3778SOL     OW12119   4.285   3.946   3.009
 3778SOL    HW112120   4.323   3.862   3.046
 3778SOL    HW212121   4.197   3.965   3.053
 3779SOL     OW12122   4.590   4.178   2.504
 3779SOL    HW112123   4.558   4.250   2.442
 3779SOL    HW212124   4.614   4.097   2.451
 3780SOL     OW12125   4.741   3.763   2.615
 3780SOL    HW112126   4.669   3.768   2.546
 3780SOL    HW212127   4.717   3.694   2.684
 3781SOL     OW12128   4.251   3.980   2.190
 3781SOL    HW112129   4.278   3.921   2.115
 3781SOL    HW212130   4.251   4.075   2.159
 3782SOL     OW12131   4.639   3.813   3.264
 3782SOL    HW112132   4.664   3.793   3.169
 3782SOL    HW212133   4.711   3.869   3.306
 3783SOL     OW12134   4.704   4.840   3.581
 3783SOL    HW112135   4.605   4.846   3.591
 3783SOL    HW212136   4.727   4.760   3.525
 3784SOL     OW12137   4.429   4.774   2.230
 3784SOL    HW112138   4.415   4.781   2.329
 3784SOL    HW212139   4.513   4.723   2.212
 3785SOL     OW12140   4.998   4.110   3.124
 3785SOL    HW112141   5.019   4.184   3.188
 3785SOL    HW212142   4.909   4.127   3.081
 3786SOL     OW12143   4.091   4.824   2.363
 3786SOL    HW112144   4.084   4.907   2.307
 3786SOL    HW212145   4.095   4.744   2.303
 3787SOL     OW12146   4.290   4.261   2.727
 3787SOL    HW112147   4.302   4.327   2.653
 3787SOL    HW212148   4.336   4.295   2.810
 3788SOL     OW12149   4.976   5.072   2.250
 3788SOL    HW112150   5.026   5.149   2.290
 3788SOL    HW212151   4.881   5.074   2.282
 3789SOL     OW12152   4.126   4.475   3.460
 3789SOL    HW112153   4.194   4.530   3.413
 3789SOL    HW212154   4.166   4.387   3.487
 3790SOL     OW12155   4.737   3.829   3.632
 3790SOL    HW112156   4.743   3.914   3.580
 3790SOL    HW212157   4.769   3.753   3.575
 3791SOL     OW12158   4.228   3.774   3.602
 3791SOL    HW112159   4.186   3.717   3.532
 3791SOL    HW212160   4.162   3.843   3.634
 3792SOL     OW12161   4.297   4.594   2.891
 3792SOL    HW112162   4.341   4.683   2.882
 3792SOL    HW212163   4.234   4.594   2.968
 3793SOL     OW12164   4.933   4.249   2.137
 3793SOL    HW112165   4.946   4.165   2.191
 3793SOL    HW212166   4.904   4.323   2.197
 3794SOL     OW12167   4.031   3.937   3.093
 3794SOL    HW112168   4.008   3.974   3.183
 3794SOL    HW212169   4.001   3.842   3.087
 3795SOL     OW12170   4.456   4.358   2.926
 3795SOL    HW112171   4.515   4.332   2.850
 3795SOL    HW212172   4.428   4.454   2.915
 3796SOL     OW12173   4.031   3.787   2.480
 3796SOL    HW112174   4.020   3.881   2.513
 3796SOL    HW212175   4.026   3.724   2.557
 3797SOL     OW12176   5.346   4.091   2.236
 3797SOL    HW112177   5.348   4.015   2.300
 3797SOL    HW212178   5.298   4.168   2.276
 3798SOL     OW12179   4.747   4.490   2.828
 3798SOL    HW112180   4.762   4.511   2.924
 3798SOL    HW212181   4.717   4.395   2.819
 3799SOL     OW12182   4.074   4.622   3.666
 3799SOL    HW112183   4.150   4.666   3.714
 3799SOL    HW212184   4.109   4.575   3.584
 3800SOL     OW12185   5.027   4.562   1.904
 3800SOL    HW112186   5.061   4.469   1.919
 3800SOL    HW212187   5.045   4.589   1.809
 3801SOL     OW12188   4.043   4.534   2.811
 3801SOL    HW112189   4.136   4.570   2.816
 3801SOL    HW212190   4.037   4.449   2.863
 3802SOL     OW12191   4.063   4.233   2.868
 3802SOL    HW112192   4.011   4.150   2.851
 3802SOL    HW212193   4.140   4.238   2.804
 3803SOL     OW12194   4.862   4.104   3.540
 3803SOL    HW112195   4.817   4.167   3.604
 3803SOL    HW212196   4.955   4.135   3.523
 3804SOL     OW12197   4.884   3.931   3.339
 3804SOL    HW112198   4.884   3.995   3.416
 3804SOL    HW212199   4.912   3.979   3.256
 3805SOL     OW12200   3.732   5.050   2.062
 3805SOL    HW112201   3.639   5.071   2.031
 3805SOL    HW212202   3.742   4.951   2.075
 3806SOL     OW12203   4.726   4.520   3.100
 3806SOL    HW112204   4.767   4.488   3.186
 3806SOL    HW212205   4.630   4.493   3.097
 3807SOL     OW12206   3.913   4.244   3.584
 3807SOL    HW112207   3.972   4.204   3.514
 3807SOL    HW212208   3.855   4.315   3.543
 3808SOL     OW12209   4.539   4.296   2.187
 3808SOL    HW112210   4.546   4.207   2.141
 3808SOL    HW212211   4.445   4.330   2.179
 3809SOL     OW12212   4.395   4.188   3.131
 3809SOL    HW112213   4.361   4.099   3.101
 3809SOL    HW212214   4.421   4.242   3.051
 3810SOL     OW12215   4.197   4.224   2.053
 3810SOL    HW112216   4.258   4.304   2.057
 3810SOL    HW212217   4.102   4.255   2.060
 3811SOL     OW12218   5.071   4.783   3.096
 3811SOL    HW112219   5.095   4.720   3.022
 3811SOL    HW212220   4.981   4.823   3.078
 3812SOL     OW12221   3.807   4.982   2.884
 3812SOL    HW112222   3.802   4.981   2.984
 3812SOL    HW212223   3.724   4.941   2.846
 3813SOL     OW12224   5.004   4.651   2.534
 3813SOL    HW112225   5.064   4.570   2.536
 3813SOL    HW212226   5.044   4.720   2.474
 3814SOL     OW12227   4.554   4.997   3.284
 3814SOL    HW112228   4.549   5.030   3.379
 3814SOL    HW212229   4.468   5.016   3.238
 3815SOL     OW12230   3.987   4.050   2.582
 3815SOL    HW112231   3.908   4.101   2.548
 3815SOL    HW212232   3.978   4.035   2.680
 3816SOL     OW12233   4.918   5.336   1.893
 3816SOL    HW112234   4.924   5.243   1.930
 3816SOL    HW212235   4.859   5.336   1.813
 3817SOL     OW12236   4.546   4.726   3.234
 3817SOL    HW112237   4.586   4.725   3.142
 3817SOL    HW212238   4.556   4.818   3.274
 3818SOL     OW12239   4.640   4.634   2.153
 3818SOL    HW112240   4.703   4.672   2.085
 3818SOL    HW212241   4.680   4.551   2.192
 3819SOL     OW12242   4.763   4.822   2.558
 3819SOL    HW112243   4.693   4.775   2.612
 3819SOL    HW212244   4.822   4.754   2.515
 3820SOL     OW12245   4.738   3.960   2.833
 3820SOL    HW112246   4.730   3.924   2.740
 3820SOL    HW212247   4.736   3.884   2.898
 3821SOL     OW12248   4.396   3.927   3.351
 3821SOL    HW112249   4.486   3.911   3.311
 3821SOL    HW212250   4.404   3.932   3.450
 3822SOL     OW12251   3.799   4.069   1.895
 3822SOL    HW112252   3.707   4.041   1.866
 3822SOL    HW212253   3.830   4.146   1.839
 3823SOL     OW12254   3.796   3.890   2.180
 3823SOL    HW112255   3.779   3.973   2.126
 3823SOL    HW212256   3.886   3.853   2.158
 3824SOL     OW12257   4.337   4.566   3.293
 3824SOL    HW112258   4.393   4.647   3.276
 3824SOL    HW212259   4.396   4.486   3.296
 3825SOL     OW12260   4.440   4.289   3.570
 3825SOL    HW112261   4.459   4.354   3.644
 3825SOL    HW212262   4.500   4.209   3.579
 3826SOL     OW12263   5.174   4.944   3.495
 3826SOL    HW112264   5.165   4.934   3.594
 3826SOL    HW212265   5.270   4.937   3.469
 3827SOL     OW12266   4.949   4.049   2.311
 3827SOL    HW112267   5.014   3.975   2.300
 3827SOL    HW212268   4.969   4.099   2.395
 3828SOL     OW12269   4.318   4.469   2.514
 3828SOL    HW112270   4.368   4.554   2.495
 3828SOL    HW212271   4.230   4.471   2.466
 3829SOL     OW12272   4.583   4.680   2.723
 3829SOL    HW112273   4.637   4.611   2.771
 3829SOL    HW212274   4.551   4.749   2.789
 3830SOL     OW12275   4.807   4.708   1.949
 3830SOL    HW112276   4.784   4.761   1.867
 3830SOL    HW212277   4.888   4.652   1.930
 3831SOL     OW12278   3.803   4.964   2.515
 3831SOL    HW112279   3.802   4.917   2.603
 3831SOL    HW212280   3.885   4.936   2.464
 3832SOL     OW12281   4.152   4.148   2.382
 3832SOL    HW112282   4.182   4.076   2.320
 3832SOL    HW212283   4.113   4.108   2.465
 3833SOL     OW12284   4.041   4.271   3.142
 3833SOL    HW112285   4.079   4.212   3.214
 3833SOL    HW212286   4.081   4.245   3.054
 3834SOL     OW12287   4.725   3.758   3.016
 3834SOL    HW112288   4.662   3.686   2.985
 3834SOL    HW212289   4.818   3.722   3.016
 3835SOL     OW12290   4.494   5.054   2.163
 3835SOL    HW112291   4.448   4.967   2.180
 3835SOL    HW212292   4.585   5.051   2.204
 3836SOL     OW12293   5.076   3.776   2.030
 3836SOL    HW112294   5.111   3.735   1.946
 3836SOL    HW212295   4.986   3.738   2.050
 3837SOL     OW12296   3.763   4.801   2.162
 3837SOL    HW112297   3.862   4.790   2.153
 3837SOL    HW212298   3.723   4.715   2.194
 3838SOL     OW12299   3.954   4.352   3.837
 3838SOL    HW112300   3.861   4.350   3.874
 3838SOL    HW212301   3.955   4.313   3.745
 3839SOL     OW12302   3.949   3.999   4.720
 3839SOL    HW112303   3.984   3.982   4.812
 3839SOL    HW212304   3.861   3.954   4.708
 3840SOL     OW12305   3.743   4.092   4.371
 3840SOL    HW112306   3.661   4.135   4.410
 3840SOL    HW212307   3.715   4.019   4.308
 3841SOL     OW12308   4.293   4.999   4.889
 3841SOL    HW112309   4.200   4.992   4.852
 3841SOL    HW212310   4.304   5.088   4.933
 3842SOL     OW12311   4.859   4.427   4.441
 3842SOL    HW112312   4.916   4.505   4.416
 3842SOL    HW212313   4.799   4.453   4.517
 3843SOL     OW12314   4.492   4.868   4.747
 3843SOL    HW112315   4.414   4.885   4.807
 3843SOL    HW212316   4.526   4.955   4.711
 3844SOL     OW12317   4.409   4.736   4.389
 3844SOL    HW112318   4.478   4.720   4.459
 3844SOL    HW212319   4.336   4.793   4.427
 3845SOL     OW12320   4.059   5.159   4.785
 3845SOL    HW112321   3.981   5.128   4.732
 3845SOL    HW212322   4.117   5.217   4.728
 3846SOL     OW12323   3.964   4.815   4.610
 3846SOL    HW112324   3.978   4.731   4.662
 3846SOL    HW212325   3.909   4.879   4.665
 3847SOL     OW12326   4.330   4.688   3.847
 3847SOL    HW112327   4.337   4.772   3.793
 3847SOL    HW212328   4.376   4.701   3.935
 3848SOL     OW12329   3.846   4.367   4.287
 3848SOL    HW112330   3.801   4.279   4.304
 3848SOL    HW212331   3.845   4.421   4.371
 3849SOL     OW12332   4.533   3.728   4.226
 3849SOL    HW112333   4.573   3.819   4.217
 3849SOL    HW212334   4.433   3.736   4.232
 3850SOL     OW12335   3.921   4.700   4.988
 3850SOL    HW112336   4.010   4.655   4.974
 3850SOL    HW212337   3.848   4.635   4.969
 3851SOL     OW12338   4.322   4.453   3.994
 3851SOL    HW112339   4.346   4.522   3.926
 3851SOL    HW212340   4.244   4.486   4.048
 3852SOL     OW12341   5.005   4.069   4.668
 3852SOL    HW112342   4.919   4.019   4.655
 3852SOL    HW212343   5.067   4.015   4.724
 3853SOL     OW12344   4.715   4.134   4.966
 3853SOL    HW112345   4.638   4.168   5.020
 3853SOL    HW212346   4.681   4.083   4.887
 3854SOL     OW12347   4.765   4.425   4.153
 3854SOL    HW112348   4.791   4.421   4.249
 3854SOL    HW212349   4.680   4.374   4.139
 3855SOL     OW12350   3.800   4.535   4.513
 3855SOL    HW112351   3.899   4.523   4.522
 3855SOL    HW212352   3.776   4.630   4.534
 3856SOL     OW12353   4.589   4.072   3.919
 3856SOL    HW112354   4.648   4.135   3.870
 3856SOL    HW212355   4.608   3.978   3.890
 3857SOL     OW12356   4.274   3.920   4.609
 3857SOL    HW112357   4.269   3.915   4.709
 3857SOL    HW212358   4.276   4.016   4.580
 3858SOL     OW12359   4.045   4.667   3.966
 3858SOL    HW112360   4.127   4.706   3.924
 3858SOL    HW212361   4.018   4.585   3.917
 3859SOL     OW12362   4.106   4.424   4.204
 3859SOL    HW112363   4.151   4.334   4.201
 3859SOL    HW212364   4.012   4.413   4.237
 3860SOL     OW12365   4.338   3.846   3.841
 3860SOL    HW112366   4.436   3.824   3.848
 3860SOL    HW212367   4.307   3.829   3.748
 3861SOL     OW12368   4.527   5.126   4.648
 3861SOL    HW112369   4.617   5.140   4.606
 3861SOL    HW212370   4.456   5.128   4.577
 3862SOL     OW12371   4.646   4.227   4.623
 3862SOL    HW112372   4.621   4.218   4.527
 3862SOL    HW212373   4.694   4.145   4.654
 3863SOL     OW12374   4.263   3.788   4.236
 3863SOL    HW112375   4.182   3.789   4.294
 3863SOL    HW212376   4.266   3.871   4.181
 3864SOL     OW12377   5.158   4.912   3.765
 3864SOL    HW112378   5.190   4.836   3.822
 3864SOL    HW212379   5.066   4.939   3.795
 3865SOL     OW12380   4.021   3.759   3.895
 3865SOL    HW112381   4.070   3.843   3.874
 3865SOL    HW212382   4.083   3.694   3.940
 3866SOL     OW12383   4.659   3.960   4.204
 3866SOL    HW112384   4.611   4.001   4.126
 3866SOL    HW212385   4.758   3.958   4.185
 3867SOL     OW12386   4.951   5.294   4.517
 3867SOL    HW112387   4.972   5.368   4.452
 3867SOL    HW212388   5.019   5.294   4.590
 3868SOL     OW12389   4.183   4.876   4.465
 3868SOL    HW112390   4.112   4.849   4.530
 3868SOL    HW212391   4.157   4.848   4.372
 3869SOL     OW12392   4.756   4.273   3.740
 3869SOL    HW112393   4.715   4.355   3.701
 3869SOL    HW212394   4.820   4.299   3.813
 3870SOL     OW12395   4.285   3.946   4.871
 3870SOL    HW112396   4.323   3.862   4.908
 3870SOL    HW212397   4.197   3.965   4.915
 3871SOL     OW12398   4.590   4.178   4.366
 3871SOL    HW112399   4.558   4.250   4.304
 3871SOL    HW212400   4.614   4.097   4.313
 3872SOL     OW12401   4.741   3.763   4.477
 3872SOL    HW112402   4.669   3.768   4.408
 3872SOL    HW212403   4.717   3.694   4.546
 3873SOL     OW12404   4.251   3.980   4.052
 3873SOL    HW112405   4.278   3.921   3.977
 3873SOL    HW212406   4.251   4.075   4.021
 3874SOL     OW12407   4.429   4.774   4.092
 3874SOL    HW112408   4.415   4.781   4.191
 3874SOL    HW212409   4.513   4.723   4.074
 3875SOL     OW12410   4.134   4.537   4.975
 3875SOL    HW112411   4.220   4.549   5.025
 3875SOL    HW212412   4.092   4.450   5.002
 3876SOL     OW12413   4.091   4.824   4.225
 3876SOL    HW112414   4.084   4.907   4.169
 3876SOL    HW212415   4.095   4.744   4.165
 3877SOL     OW12416   4.290   4.261   4.589
 3877SOL    HW112417   4.302   4.327   4.515
 3877SOL    HW212418   4.336   4.295   4.672
 3878SOL     OW12419   4.976   5.072   4.112
 3878SOL    HW112420   5.026   5.149   4.152
 3878SOL    HW212421   4.881   5.074   4.144
 3879SOL     OW12422   4.297   4.594   4.753
 3879SOL    HW112423   4.341   4.683   4.744
 3879SOL    HW212424   4.234   4.594   4.830
 3880SOL     OW12425   5.084   4.586   4.769
 3880SOL    HW112426   5.009   4.586   4.703
 3880SOL    HW212427   5.121   4.494   4.778
 3881SOL     OW12428   4.933   4.249   3.999
 3881SOL    HW112429   4.946   4.165   4.053
 3881SOL    HW212430   4.904   4.323   4.059
 3882SOL     OW12431   4.031   3.937   4.955
 3882SOL    HW112432   4.008   3.974   5.045
 3882SOL    HW212433   4.001   3.842   4.949
 3883SOL     OW12434   4.456   4.358   4.788
 3883SOL    HW112435   4.515   4.332   4.712
 3883SOL    HW212436   4.428   4.454   4.777
 3884SOL     OW12437   4.031   3.787   4.342
 3884SOL    HW112438   4.020   3.881   4.375
 3884SOL    HW212439   4.026   3.724   4.419
 3885SOL     OW12440   5.346   4.091   4.098
 3885SOL    HW112441   5.348   4.015   4.162
 3885SOL    HW212442   5.298   4.168   4.138
 3886SOL     OW12443   4.747   4.490   4.690
 3886SOL    HW112444   4.762   4.511   4.786
 3886SOL    HW212445   4.717   4.395   4.681
 3887SOL     OW12446   5.027   4.562   3.766
 3887SOL    HW112447   5.061   4.469   3.781
 3887SOL    HW212448   5.045   4.589   3.671
 3888SOL     OW12449   4.043   4.534   4.673
 3888SOL    HW112450   4.136   4.570   4.678
 3888SOL    HW212451   4.037   4.449   4.725
 3889SOL     OW12452   4.063   4.233   4.730
 3889SOL    HW112453   4.011   4.150   4.713
 3889SOL    HW212454   4.140   4.238   4.666
 3890SOL     OW12455   4.726   4.520   4.962
 3890SOL    HW112456   4.767   4.488   5.048
 3890SOL    HW212457   4.630   4.493   4.959
 3891SOL     OW12458   3.764   4.268   4.838
 3891SOL    HW112459   3.849   4.235   4.797
 3891SOL    HW212460   3.777   4.283   4.936
 3892SOL     OW12461   4.539   4.296   4.049
 3892SOL    HW112462   4.546   4.207   4.003
 3892SOL    HW212463   4.445   4.330   4.041
 3893SOL     OW12464   4.395   4.188   4.993
 3893SOL    HW112465   4.361   4.099   4.963
 3893SOL    HW212466   4.421   4.242   4.913
 3894SOL     OW12467   4.197   4.224   3.915
 3894SOL    HW112468   4.258   4.304   3.919
 3894SOL    HW212469   4.102   4.255   3.922
 3895SOL     OW12470   5.071   4.783   4.958
 3895SOL    HW112471   5.095   4.720   4.884
 3895SOL    HW212472   4.981   4.823   4.940
 3896SOL     OW12473   3.807   4.982   4.746
 3896SOL    HW112474   3.802   4.981   4.846
 3896SOL    HW212475   3.724   4.941   4.708
 3897SOL     OW12476   5.004   4.651   4.396
 3897SOL    HW112477   5.064   4.570   4.398
 3897SOL    HW212478   5.044   4.720   4.336
 3898SOL     OW12479   4.554   4.997   5.146
 3898SOL    HW112480   4.549   5.030   5.241
 3898SOL    HW212481   4.468   5.016   5.100
 3899SOL     OW12482   3.987   4.050   4.444
 3899SOL    HW112483   3.908   4.101   4.410
 3899SOL    HW212484   3.978   4.035   4.542
 3900SOL     OW12485   4.918   5.336   3.755
 3900SOL    HW112486   4.924   5.243   3.792
 3900SOL    HW212487   4.859   5.336   3.675
 3901SOL     OW12488   4.546   4.726   5.096
 3901SOL    HW112489   4.586   4.725   5.004
 3901SOL    HW212490   4.556   4.818   5.136
 3902SOL     OW12491   4.640   4.634   4.015
 3902SOL    HW112492   4.703   4.672   3.947
 3902SOL    HW212493   4.680   4.551   4.054
 3903SOL     OW12494   4.763   4.822   4.420
 3903SOL    HW112495   4.693   4.775   4.474
 3903SOL    HW212496   4.822   4.754   4.377
 3904SOL     OW12497   4.738   3.960   4.695
 3904SOL    HW112498   4.730   3.924   4.602
 3904SOL    HW212499   4.736   3.884   4.760
 3905SOL     OW12500   3.799   4.069   3.757
 3905SOL    HW112501   3.707   4.041   3.728
 3905SOL    HW212502   3.830   4.146   3.701
 3906SOL     OW12503   3.796   3.890   4.042
 3906SOL    HW112504   3.779   3.973   3.988
 3906SOL    HW212505   3.886   3.853   4.020
 3907SOL     OW12506   4.949   4.049   4.173
 3907SOL    HW112507   5.014   3.975   4.162
 3907SOL    HW212508   4.969   4.099   4.257
 3908SOL     OW12509   4.318   4.469   4.376
 3908SOL    HW112510   4.368   4.554   4.357
 3908SOL    HW212511   4.230   4.471   4.328
 3909SOL     OW12512   4.583   4.680   4.585
 3909SOL    HW112513   4.637   4.611   4.633
 3909SOL    HW212514   4.551   4.749   4.651
 3910SOL     OW12515   4.807   4.708   3.811
 3910SOL    HW112516   4.784   4.761   3.729
 3910SOL    HW212517   4.888   4.652   3.792
 3911SOL     OW12518   4.152   4.148   4.244
 3911SOL    HW112519   4.182   4.076   4.182
 3911SOL    HW212520   4.113   4.108   4.327
 3912SOL     OW12521   4.725   3.758   4.878
 3912SOL    HW112522   4.662   3.686   4.847
 3912SOL    HW212523   4.818   3.722   4.878
 3913SOL     OW12524   5.076   3.776   3.892
 3913SOL    HW112525   5.111   3.735   3.808
 3913SOL    HW212526   4.986   3.738   3.912
 3914SOL     OW12527   3.763   4.801   4.024
 3914SOL    HW112528   3.862   4.790   4.015
 3914SOL    HW212529   3.723   4.715   4.056
   5.08970   5.08970   5.08970
