UNITED ATOM STRUCTURE FOR MOLECULE UNK
12670
    0X2IT   H18    1   3.092   2.352   2.583
    0X2IT    N4    2   3.026   2.419   2.548
    0X2IT   H17    3   3.059   2.484   2.478
    0X2IT   C14    4   2.895   2.380   2.546
    0X2IT    O5    5   2.849   2.285   2.607
    0X2IT    O4    6   2.822   2.466   2.469
    0X2IT   C13    7   2.680   2.441   2.463
    0X2IT   C10    8   2.607   2.502   2.584
    0X2IT    C9    9   2.457   2.484   2.578
    0X2IT    C4   10   2.394   2.607   2.582
    0X2IT    C5   11   2.245   2.625   2.577
    0X2IT    O1   12   2.197   2.739   2.585
    0X2IT    C6   13   2.166   2.505   2.564
    0X2IT   C12   14   2.015   2.516   2.558
    0X2IT    C7   15   2.229   2.382   2.561
    0X2IT    C8   16   2.381   2.365   2.567
    0X2IT    O2   17   2.427   2.250   2.559
    0X2IT    N3   18   2.164   2.265   2.551
    0X2IT   H15   19   2.064   2.258   2.544
    0X2IT   H16   20   2.221   2.180   2.548
    0X2IT    N2   21   2.482   2.709   2.599
    0X2IT    C3   22   2.473   2.846   2.546
    0X2IT    C2   23   2.599   2.856   2.461
    0X2IT    H2   24   2.639   2.954   2.435
    0X2IT    N1   25   2.611   2.744   2.365
    0X2IT   H14   26   2.674   2.771   2.289
    0X2IT    C1   27   2.688   2.741   2.491
    0X2IT    H1   28   2.796   2.748   2.490
    0X2IT   C11   29   2.622   2.658   2.600
    0X2IT    O3   30   2.691   2.695   2.718
    0X2IT   C15   31   2.628   2.664   2.843
    1X2IT   H18   32   3.691   2.148   3.206
    1X2IT    N4   33   3.740   2.113   3.126
    1X2IT   H17   34   3.695   2.041   3.072
    1X2IT   C14   35   3.821   2.203   3.062
    1X2IT    O5   36   3.860   2.308   3.108
    1X2IT    O4   37   3.856   2.154   2.939
    1X2IT   C13   38   3.948   2.235   2.862
    1X2IT   C10   39   4.094   2.209   2.904
    1X2IT    C9   40   4.194   2.287   2.821
    1X2IT    C4   41   4.283   2.200   2.760
    1X2IT    C5   42   4.394   2.245   2.670
    1X2IT    O1   43   4.471   2.160   2.622
    1X2IT    C6   44   4.404   2.386   2.645
    1X2IT   C12   45   4.515   2.438   2.555
    1X2IT    C7   46   4.316   2.473   2.707
    1X2IT    C8   47   4.204   2.426   2.800
    1X2IT    O2   48   4.128   2.512   2.847
    1X2IT    N3   49   4.319   2.606   2.692
    1X2IT   H15   50   4.386   2.653   2.633
    1X2IT   H16   51   4.248   2.660   2.742
    1X2IT    N2   52   4.262   2.071   2.797
    1X2IT    C3   53   4.282   1.950   2.716
    1X2IT    C2   54   4.142   1.889   2.715
    1X2IT    H2   55   4.129   1.783   2.693
    1X2IT    N1   56   4.039   1.986   2.672
    1X2IT   H14   57   3.956   1.935   2.640
    1X2IT    C1   58   4.057   1.958   2.816
    1X2IT    H1   59   3.980   1.907   2.873
    1X2IT   C11   60   4.144   2.061   2.887
    1X2IT    O3   61   4.177   1.999   3.010
    1X2IT   C15   62   4.287   2.053   3.083
    2X2IT   H18   63   0.918   0.665   2.819
    2X2IT    N4   64   0.991   0.648   2.753
    2X2IT   H17   65   1.068   0.589   2.783
    2X2IT   C14   66   0.956   0.649   2.621
    2X2IT    O5   67   0.852   0.694   2.576
    2X2IT    O4   68   1.056   0.594   2.546
    2X2IT   C13   69   1.036   0.595   2.403
    2X2IT   C10   70   1.074   0.730   2.341
    2X2IT    C9   71   1.061   0.732   2.190
    2X2IT    C4   72   1.182   0.763   2.132
    2X2IT    C5   73   1.204   0.773   1.983
    2X2IT    O1   74   1.315   0.806   1.940
    2X2IT    C6   75   1.090   0.744   1.900
    2X2IT   C12   76   1.105   0.752   1.749
    2X2IT    C7   77   0.968   0.714   1.958
    2X2IT    C8   78   0.947   0.705   2.109
    2X2IT    O2   79   0.835   0.673   2.151
    2X2IT    N3   80   0.856   0.688   1.889
    2X2IT   H15   81   0.853   0.687   1.788
    2X2IT   H16   82   0.772   0.665   1.942
    2X2IT    N2   83   1.278   0.792   2.224
    2X2IT    C3   84   1.422   0.766   2.216
    2X2IT    C2   85   1.445   0.675   2.336
    2X2IT    H2   86   1.546   0.664   2.377
    2X2IT    N1   87   1.353   0.559   2.337
    2X2IT   H14   88   1.392   0.485   2.395
    2X2IT    C1   89   1.325   0.677   2.423
    2X2IT    H1   90   1.330   0.669   2.530
    2X2IT   C11   91   1.224   0.773   2.362
    2X2IT    O3   92   1.238   0.890   2.440
    2X2IT   C15   93   1.185   1.012   2.385
    3X2IT   H18   94   1.814   5.054   2.681
    3X2IT    N4   95   1.790   4.987   2.752
    3X2IT   H17   96   1.693   4.963   2.761
    3X2IT   C14   97   1.886   4.894   2.782
    3X2IT    O5   98   2.003   4.901   2.751
    3X2IT    O4   99   1.830   4.792   2.855
    3X2IT   C13  100   1.921   4.689   2.899
    3X2IT   C10  101   1.993   4.730   3.029
    3X2IT    C9  102   2.084   4.622   3.082
    3X2IT    C4  103   2.047   4.588   3.211
    3X2IT    C5  104   2.116   4.483   3.294
    3X2IT    O1  105   2.078   4.462   3.410
    3X2IT    C6  106   2.225   4.413   3.230
    3X2IT   C12  107   2.299   4.306   3.308
    3X2IT    C7  108   2.263   4.448   3.102
    3X2IT    C8  109   2.192   4.555   3.019
    3X2IT    O2  110   2.232   4.575   2.903
    3X2IT    N3  111   2.364   4.389   3.036
    3X2IT   H15  112   2.420   4.315   3.074
    3X2IT   H16  113   2.382   4.422   2.940
    3X2IT    N2  114   1.946   4.666   3.257
    3X2IT    C3  115   1.838   4.629   3.350
    3X2IT    C2  116   1.713   4.655   3.266
    3X2IT    H2  117   1.617   4.668   3.315
    3X2IT    N1  118   1.720   4.587   3.134
    3X2IT   H14  119   1.625   4.577   3.097
    3X2IT    C1  120   1.751   4.731   3.144
    3X2IT    H1  121   1.686   4.805   3.099
    3X2IT   C11  122   1.900   4.761   3.152
    3X2IT    O3  123   1.906   4.895   3.194
    3X2IT   C15  124   2.031   4.941   3.247
    4X2IT   H18  125   5.380   2.589   4.366
    4X2IT    N4  126   5.361   2.495   4.396
    4X2IT   H17  127   5.421   2.457   4.468
    4X2IT   C14  128   5.231   2.454   4.388
    4X2IT    O5  129   5.143   2.510   4.325
    4X2IT    O4  130   5.215   2.339   4.460
    4X2IT   C13  131   5.083   2.280   4.456
    4X2IT   C10  132   5.064   2.194   4.330
    4X2IT    C9  133   4.930   2.125   4.325
    4X2IT    C4  134   4.947   1.988   4.316
    4X2IT    C5  135   4.834   1.889   4.310
    4X2IT    O1  136   4.858   1.768   4.298
    4X2IT    C6  137   4.700   1.944   4.318
    4X2IT   C12  138   4.581   1.850   4.313
    4X2IT    C7  139   4.683   2.081   4.326
    4X2IT    C8  140   4.799   2.180   4.331
    4X2IT    O2  141   4.772   2.301   4.343
    4X2IT    N3  142   4.563   2.141   4.332
    4X2IT   H15  143   4.476   2.090   4.332
    4X2IT   H16  144   4.562   2.243   4.339
    4X2IT    N2  145   5.078   1.953   4.305
    4X2IT    C3  146   5.144   1.832   4.357
    4X2IT    C2  147   5.249   1.891   4.450
    4X2IT    H2  148   5.335   1.831   4.479
    4X2IT    N1  149   5.190   1.986   4.547
    4X2IT   H14  150   5.253   1.996   4.628
    4X2IT    C1  151   5.260   2.037   4.427
    4X2IT    H1  152   5.353   2.092   4.436
    4X2IT   C11  153   5.165   2.074   4.314
    4X2IT    O3  154   5.249   2.087   4.201
    4X2IT   C15  155   5.187   2.083   4.072
    5X2IT   H18  156   1.187   3.298   4.100
    5X2IT    N4  157   1.139   3.346   4.174
    5X2IT   H17  158   1.092   3.289   4.243
    5X2IT   C14  159   1.192   3.466   4.212
    5X2IT    O5  160   1.271   3.532   4.148
    5X2IT    O4  161   1.138   3.505   4.332
    5X2IT   C13  162   1.179   3.634   4.382
    5X2IT   C10  163   1.096   3.747   4.319
    5X2IT    C9  164   1.131   3.884   4.373
    5X2IT    C4  165   1.019   3.944   4.428
    5X2IT    C5  166   1.020   4.079   4.492
    5X2IT    O1  167   0.914   4.127   4.535
    5X2IT    C6  168   1.147   4.148   4.498
    5X2IT   C12  169   1.154   4.285   4.561
    5X2IT    C7  170   1.259   4.088   4.442
    5X2IT    C8  171   1.257   3.950   4.376
    5X2IT    O2  172   1.364   3.904   4.334
    5X2IT    N3  173   1.380   4.144   4.441
    5X2IT   H15  174   1.400   4.234   4.481
    5X2IT   H16  175   1.456   4.091   4.398
    5X2IT    N2  176   0.908   3.869   4.410
    5X2IT    C3  177   0.792   3.857   4.500
    5X2IT    C2  178   0.791   3.708   4.532
    5X2IT    H2  179   0.699   3.661   4.569
    5X2IT    N1  180   0.922   3.660   4.581
    5X2IT   H14  181   0.910   3.573   4.633
    5X2IT    C1  182   0.883   3.637   4.440
    5X2IT    H1  183   0.865   3.537   4.404
    5X2IT   C11  184   0.941   3.739   4.344
    5X2IT    O3  185   0.867   3.720   4.225
    5X2IT   C15  186   0.870   3.826   4.128
    6X2IT   H18  187   5.176   3.907   4.747
    6X2IT    N4  188   5.106   3.845   4.710
    6X2IT   H17  189   5.085   3.761   4.763
    6X2IT   C14  190   5.006   3.904   4.637
    6X2IT    O5  191   5.010   4.016   4.591
    6X2IT    O4  192   4.903   3.816   4.620
    6X2IT   C13  193   4.793   3.862   4.539
    6X2IT   C10  194   4.822   3.843   4.389
    6X2IT    C9  195   4.707   3.884   4.300
    6X2IT    C4  196   4.667   3.777   4.222
    6X2IT    C5  197   4.553   3.783   4.124
    6X2IT    O1  198   4.527   3.683   4.055
    6X2IT    C6  199   4.482   3.908   4.115
    6X2IT   C12  200   4.367   3.921   4.018
    6X2IT    C7  201   4.523   4.015   4.192
    6X2IT    C8  202   4.639   4.008   4.292
    6X2IT    O2  203   4.664   4.109   4.360
    6X2IT    N3  204   4.464   4.136   4.190
    6X2IT   H15  205   4.385   4.157   4.132
    6X2IT   H16  206   4.502   4.207   4.253
    6X2IT    N2  207   4.746   3.668   4.239
    6X2IT    C3  208   4.709   3.526   4.232
    6X2IT    C2  209   4.745   3.476   4.371
    6X2IT    H2  210   4.761   3.370   4.388
    6X2IT    N1  211   4.686   3.560   4.478
    6X2IT   H14  212   4.683   3.506   4.565
    6X2IT    C1  213   4.828   3.579   4.440
    6X2IT    H1  214   4.907   3.554   4.509
    6X2IT   C11  215   4.849   3.694   4.344
    6X2IT    O3  216   4.981   3.674   4.295
    6X2IT   C15  217   5.017   3.743   4.175
    7X2IT   H18  218   1.668   1.113   4.180
    7X2IT    N4  219   1.626   1.048   4.117
    7X2IT   H17  220   1.653   1.052   4.020
    7X2IT   C14  221   1.590   0.927   4.171
    7X2IT    O5  222   1.580   0.903   4.290
    7X2IT    O4  223   1.563   0.838   4.071
    7X2IT   C13  224   1.517   0.708   4.112
    7X2IT   C10  225   1.366   0.707   4.141
    7X2IT    C9  226   1.313   0.571   4.178
    7X2IT    C4  227   1.213   0.533   4.090
    7X2IT    C5  228   1.139   0.402   4.098
    7X2IT    O1  229   1.049   0.378   4.017
    7X2IT    C6  230   1.180   0.312   4.203
    7X2IT   C12  231   1.110   0.178   4.216
    7X2IT    C7  232   1.279   0.350   4.291
    7X2IT    C8  233   1.352   0.484   4.282
    7X2IT    O2  234   1.443   0.506   4.365
    7X2IT    N3  235   1.322   0.274   4.393
    7X2IT   H15  236   1.286   0.182   4.412
    7X2IT   H16  237   1.397   0.312   4.451
    7X2IT    N2  238   1.184   0.631   4.000
    7X2IT    C3  239   1.140   0.616   3.861
    7X2IT    C2  240   1.251   0.688   3.785
    7X2IT    H2  241   1.232   0.723   3.683
    7X2IT    N1  242   1.385   0.640   3.822
    7X2IT   H14  243   1.452   0.663   3.748
    7X2IT    C1  244   1.334   0.765   3.880
    7X2IT    H1  245   1.379   0.860   3.855
    7X2IT   C11  246   1.274   0.748   4.019
    7X2IT    O3  247   1.202   0.868   4.041
    7X2IT   C15  248   1.104   0.867   4.145
    8X2IT   H18  249   0.655   3.202   1.594
    8X2IT    N4  250   0.581   3.178   1.658
    8X2IT   H17  251   0.547   3.082   1.656
    8X2IT   C14  252   0.577   3.247   1.776
    8X2IT    O5  253   0.637   3.351   1.798
    8X2IT    O4  254   0.494   3.184   1.864
    8X2IT   C13  255   0.475   3.250   1.991
    8X2IT   C10  256   0.368   3.360   1.982
    8X2IT    C9  257   0.340   3.427   2.115
    8X2IT    C4  258   0.207   3.414   2.148
    8X2IT    C5  259   0.146   3.469   2.274
    8X2IT    O1  260   0.024   3.456   2.293
    8X2IT    C6  261   0.236   3.535   2.365
    8X2IT   C12  262   0.181   3.592   2.495
    8X2IT    C7  263   0.369   3.548   2.332
    8X2IT    C8  264   0.430   3.493   2.203
    8X2IT    O2  265   0.552   3.507   2.185
    8X2IT    N3  266   0.460   3.610   2.410
    8X2IT   H15  267   0.437   3.650   2.499
    8X2IT   H16  268   0.556   3.612   2.376
    8X2IT    N2  269   0.135   3.354   2.049
    8X2IT    C3  270   0.018   3.266   2.063
    8X2IT    C2  271   0.068   3.137   1.998
    8X2IT    H2  272  -0.005   3.063   1.963
    8X2IT    N1  273   0.197   3.092   2.054
    8X2IT   H14  274   0.209   2.992   2.035
    8X2IT    C1  275   0.194   3.164   1.925
    8X2IT    H1  276   0.220   3.113   1.833
    8X2IT   C11  277   0.225   3.312   1.938
    8X2IT    O3  278   0.184   3.367   1.813
    8X2IT   C15  279   0.164   3.509   1.808
    9X2IT   H18  280   2.208   0.824   0.097
    9X2IT    N4  281   2.193   0.813   0.195
    9X2IT   H17  282   2.202   0.720   0.234
    9X2IT   C14  283   2.223   0.921   0.274
    9X2IT    O5  284   2.240   1.035   0.234
    9X2IT    O4  285   2.227   0.883   0.405
    9X2IT   C13  286   2.252   0.988   0.501
    9X2IT   C10  287   2.122   1.063   0.536
    9X2IT    C9  288   2.142   1.170   0.641
    9X2IT    C4  289   2.061   1.146   0.750
    9X2IT    C5  290   2.057   1.232   0.873
    9X2IT    O1  291   1.978   1.205   0.964
    9X2IT    C6  292   2.147   1.345   0.876
    9X2IT   C12  293   2.148   1.436   0.997
    9X2IT    C7  294   2.228   1.370   0.766
    9X2IT    C8  295   2.230   1.281   0.641
    9X2IT    O2  296   2.310   1.310   0.551
    9X2IT    N3  297   2.313   1.473   0.759
    9X2IT   H15  298   2.326   1.539   0.833
    9X2IT   H16  299   2.370   1.480   0.674
    9X2IT    N2  300   1.979   1.039   0.730
    9X2IT    C3  301   1.930   0.943   0.830
    9X2IT    C2  302   1.985   0.811   0.776
    9X2IT    H2  303   1.939   0.717   0.808
    9X2IT    N1  304   2.130   0.817   0.750
    9X2IT   H14  305   2.168   0.722   0.748
    9X2IT    C1  306   2.035   0.830   0.638
    9X2IT    H1  307   2.028   0.754   0.561
    9X2IT   C11  308   2.008   0.975   0.599
    9X2IT    O3  309   1.893   0.968   0.517
    9X2IT   C15  310   1.820   1.089   0.496
   10X2IT   H18  311   5.241   3.593   3.582
   10X2IT    N4  312   5.202   3.584   3.674
   10X2IT   H17  313   5.198   3.667   3.731
   10X2IT   C14  314   5.105   3.489   3.689
   10X2IT    O5  315   5.083   3.398   3.611
   10X2IT    O4  316   5.040   3.507   3.808
   10X2IT   C13  317   4.939   3.410   3.841
   10X2IT   C10  318   5.001   3.285   3.906
   10X2IT    C9  319   4.898   3.182   3.948
   10X2IT    C4  320   4.909   3.157   4.084
   10X2IT    C5  321   4.821   3.061   4.159
   10X2IT    O1  322   4.841   3.042   4.280
   10X2IT    C6  323   4.718   2.996   4.082
   10X2IT   C12  324   4.626   2.898   4.152
   10X2IT    C7  325   4.708   3.020   3.947
   10X2IT    C8  326   4.799   3.117   3.871
   10X2IT    O2  327   4.778   3.135   3.750
   10X2IT    N3  328   4.617   2.962   3.867
   10X2IT   H15  329   4.548   2.897   3.900
   10X2IT   H16  330   4.617   2.989   3.768
   10X2IT    N2  331   5.014   3.224   4.140
   10X2IT    C3  332   5.024   3.278   4.276
   10X2IT    C2  333   5.046   3.427   4.250
   10X2IT    H2  334   5.090   3.489   4.327
   10X2IT    N1  335   4.944   3.483   4.158
   10X2IT   H14  336   4.941   3.585   4.170
   10X2IT    C1  337   5.078   3.447   4.106
   10X2IT    H1  338   5.146   3.523   4.071
   10X2IT   C11  339   5.081   3.310   4.039
   10X2IT    O3  340   5.219   3.281   4.027
   10X2IT   C15  341   5.255   3.144   4.004
   11X2IT   H18  342   1.940   4.126   1.118
   11X2IT    N4  343   1.917   4.048   1.177
   11X2IT   H17  344   1.870   3.970   1.133
   11X2IT   C14  345   2.001   4.024   1.282
   11X2IT    O5  346   2.083   4.104   1.326
   11X2IT    O4  347   1.977   3.900   1.334
   11X2IT   C13  348   2.054   3.864   1.451
   11X2IT   C10  349   1.991   3.920   1.579
   11X2IT    C9  350   2.065   3.879   1.704
   11X2IT    C4  351   1.980   3.811   1.790
   11X2IT    C5  352   2.021   3.755   1.923
   11X2IT    O1  353   1.937   3.700   1.995
   11X2IT    C6  354   2.160   3.772   1.959
   11X2IT   C12  355   2.209   3.718   2.092
   11X2IT    C7  356   2.245   3.841   1.874
   11X2IT    C8  357   2.201   3.898   1.739
   11X2IT    O2  358   2.286   3.954   1.669
   11X2IT    N3  359   2.374   3.863   1.900
   11X2IT   H15  360   2.420   3.831   1.984
   11X2IT   H16  361   2.428   3.914   1.829
   11X2IT    N2  362   1.852   3.808   1.743
   11X2IT    C3  363   1.752   3.702   1.761
   11X2IT    C2  364   1.722   3.662   1.617
   11X2IT    H2  365   1.629   3.609   1.593
   11X2IT    N1  366   1.845   3.631   1.540
   11X2IT   H14  367   1.821   3.573   1.459
   11X2IT    C1  368   1.780   3.763   1.524
   11X2IT    H1  369   1.734   3.790   1.431
   11X2IT   C11  370   1.844   3.872   1.609
   11X2IT    O3  371   1.749   3.977   1.606
   11X2IT   C15  372   1.762   4.079   1.706
   12X2IT   H18  373   3.581   1.280   2.119
   12X2IT    N4  374   3.538   1.336   2.047
   12X2IT   H17  375   3.537   1.436   2.060
   12X2IT   C14  376   3.546   1.286   1.920
   12X2IT    O5  377   3.573   1.170   1.891
   12X2IT    O4  378   3.513   1.383   1.830
   12X2IT   C13  379   3.510   1.343   1.691
   12X2IT   C10  380   3.376   1.277   1.655
   12X2IT    C9  381   3.366   1.240   1.508
   12X2IT    C4  382   3.257   1.303   1.451
   12X2IT    C5  383   3.219   1.288   1.306
   12X2IT    O1  384   3.117   1.345   1.264
   12X2IT    C6  385   3.304   1.205   1.225
   12X2IT   C12  386   3.272   1.186   1.078
   12X2IT    C7  387   3.413   1.142   1.283
   12X2IT    C8  388   3.450   1.157   1.431
   12X2IT    O2  389   3.552   1.099   1.471
   12X2IT    N3  390   3.497   1.061   1.216
   12X2IT   H15  391   3.488   1.042   1.118
   12X2IT   H16  392   3.574   1.021   1.269
   12X2IT    N2  393   3.184   1.373   1.541
   12X2IT    C3  394   3.109   1.498   1.520
   12X2IT    C2  395   3.177   1.593   1.618
   12X2IT    H2  396   3.125   1.683   1.651
   12X2IT    N1  397   3.324   1.595   1.602
   12X2IT   H14  398   3.361   1.682   1.642
   12X2IT    C1  399   3.263   1.515   1.710
   12X2IT    H1  400   3.279   1.542   1.814
   12X2IT   C11  401   3.249   1.368   1.676
   12X2IT    O3  402   3.161   1.318   1.775
   12X2IT   C15  403   3.096   1.193   1.748
   13X2IT   H18  404   4.557   2.968   2.110
   13X2IT    N4  405   4.598   3.055   2.080
   13X2IT   H17  406   4.615   3.125   2.150
   13X2IT   C14  407   4.680   3.049   1.970
   13X2IT    O5  408   4.686   2.956   1.892
   13X2IT    O4  409   4.751   3.165   1.959
   13X2IT   C13  410   4.837   3.175   1.844
   13X2IT   C10  411   4.759   3.222   1.720
   13X2IT    C9  412   4.848   3.241   1.598
   13X2IT    C4  413   4.838   3.371   1.552
   13X2IT    C5  414   4.913   3.424   1.433
   13X2IT    O1  415   4.895   3.541   1.396
   13X2IT    C6  416   5.003   3.332   1.368
   13X2IT   C12  417   5.082   3.378   1.248
   13X2IT    C7  418   5.012   3.201   1.414
   13X2IT    C8  419   4.934   3.149   1.534
   13X2IT    O2  420   4.954   3.031   1.569
   13X2IT    N3  421   5.091   3.108   1.358
   13X2IT   H15  422   5.151   3.126   1.280
   13X2IT   H16  423   5.092   3.015   1.402
   13X2IT    N2  424   4.746   3.443   1.621
   13X2IT    C3  425   4.748   3.587   1.652
   13X2IT    C2  426   4.747   3.587   1.805
   13X2IT    H2  427   4.716   3.676   1.859
   13X2IT    N1  428   4.853   3.500   1.862
   13X2IT   H14  429   4.872   3.529   1.958
   13X2IT    C1  430   4.714   3.451   1.854
   13X2IT    H1  431   4.657   3.432   1.944
   13X2IT   C11  432   4.689   3.362   1.733
   13X2IT    O3  433   4.548   3.354   1.725
   13X2IT   C15  434   4.491   3.310   1.601
   14X2IT   H18  435   0.113   4.128   0.818
   14X2IT    N4  436   0.193   4.188   0.818
   14X2IT   H17  437   0.269   4.163   0.756
   14X2IT   C14  438   0.170   4.319   0.847
   14X2IT    O5  439   0.069   4.364   0.898
   14X2IT    O4  440   0.280   4.394   0.814
   14X2IT   C13  441   0.273   4.534   0.845
   14X2IT   C10  442   0.310   4.562   0.992
   14X2IT    C9  443   0.311   4.709   1.026
   14X2IT    C4  444   0.435   4.746   1.074
   14X2IT    C5  445   0.470   4.886   1.117
   14X2IT    O1  446   0.583   4.909   1.162
   14X2IT    C6  447   0.366   4.985   1.103
   14X2IT   C12  448   0.395   5.128   1.144
   14X2IT    C7  449   0.242   4.948   1.057
   14X2IT    C8  450   0.207   4.805   1.014
   14X2IT    O2  451   0.093   4.783   0.970
   14X2IT    N3  452   0.139   5.032   1.042
   14X2IT   H15  453   0.145   5.130   1.064
   14X2IT   H16  454   0.051   4.994   1.005
   14X2IT    N2  455   0.520   4.640   1.085
   14X2IT    C3  456   0.665   4.639   1.066
   14X2IT    C2  457   0.682   4.539   0.952
   14X2IT    H2  458   0.779   4.491   0.936
   14X2IT    N1  459   0.597   4.573   0.836
   14X2IT   H14  460   0.634   4.528   0.752
   14X2IT    C1  461   0.554   4.467   0.930
   14X2IT    H1  462   0.549   4.364   0.899
   14X2IT   C11  463   0.455   4.516   1.034
   14X2IT    O3  464   0.454   4.413   1.132
   14X2IT   C15  465   0.400   4.446   1.261
   15X2IT   H18  466   0.040   2.010   1.642
   15X2IT    N4  467   0.061   2.101   1.607
   15X2IT   H17  468   0.124   2.158   1.663
   15X2IT   C14  469   0.061   2.117   1.471
   15X2IT    O5  470   0.011   2.039   1.392
   15X2IT    O4  471   0.121   2.235   1.438
   15X2IT   C13  472   0.122   2.268   1.297
   15X2IT   C10  473  -0.011   2.334   1.254
   15X2IT    C9  474  -0.011   2.376   1.109
   15X2IT    C4  475  -0.036   2.512   1.099
   15X2IT    C5  476  -0.042   2.587   0.969
   15X2IT    O1  477  -0.069   2.708   0.970
   15X2IT    C6  478  -0.018   2.510   0.849
   15X2IT   C12  479  -0.022   2.579   0.715
   15X2IT    C7  480   0.006   2.374   0.859
   15X2IT    C8  481   0.011   2.299   0.992
   15X2IT    O2  482   0.038   2.178   0.990
   15X2IT    N3  483   0.028   2.294   0.754
   15X2IT   H15  484   0.030   2.328   0.659
   15X2IT   H16  485   0.046   2.195   0.773
   15X2IT    N2  486  -0.061   2.568   1.220
   15X2IT    C3  487  -0.028   2.704   1.265
   15X2IT    C2  488   0.062   2.677   1.385
   15X2IT    H2  489   0.077   2.755   1.460
   15X2IT    N1  490   0.173   2.585   1.352
   15X2IT   H14  491   0.248   2.597   1.421
   15X2IT    C1  492   0.053   2.534   1.422
   15X2IT    H1  493   0.060   2.498   1.524
   15X2IT   C11  494  -0.047   2.467   1.329
   15X2IT    O3  495  -0.165   2.457   1.407
   15X2IT   C15  496  -0.288   2.434   1.337
   16SOL     OW  497   0.230   0.628   0.113
   16SOL    HW1  498   0.137   0.626   0.150
   16SOL    HW2  499   0.231   0.589   0.021
   17SOL     OW  500   0.225   0.275   0.996
   17SOL    HW1  501   0.260   0.258   1.088
   17SOL    HW2  502   0.137   0.230   0.984
   18SOL     OW  503   0.019   0.368   0.647
   18SOL    HW1  504  -0.063   0.411   0.686
   18SOL    HW2  505  -0.009   0.295   0.584
   19SOL     OW  506   0.569   1.275   1.165
   19SOL    HW1  507   0.476   1.268   1.128
   19SOL    HW2  508   0.580   1.364   1.209
   20SOL     OW  509   1.555   1.511   0.703
   20SOL    HW1  510   1.498   1.495   0.784
   20SOL    HW2  511   1.496   1.521   0.623
   21SOL     OW  512   1.135   0.703   0.717
   21SOL    HW1  513   1.192   0.781   0.692
   21SOL    HW2  514   1.075   0.729   0.793
   22SOL     OW  515   1.755   0.607   0.231
   22SOL    HW1  516   1.743   0.594   0.132
   22SOL    HW2  517   1.725   0.526   0.280
   23SOL     OW  518   0.768   1.144   1.023
   23SOL    HW1  519   0.690   1.161   1.083
   23SOL    HW2  520   0.802   1.231   0.987
   24SOL     OW  521   0.685   1.012   0.665
   24SOL    HW1  522   0.754   0.996   0.735
   24SOL    HW2  523   0.612   1.069   0.703
   25SOL     OW  524   0.686   1.161   1.803
   25SOL    HW1  525   0.746   1.240   1.817
   25SOL    HW2  526   0.600   1.192   1.762
   26SOL     OW  527   0.335   1.435   1.061
   26SOL    HW1  528   0.257   1.404   1.008
   26SOL    HW2  529   0.393   1.493   1.004
   27SOL     OW  530   1.460   1.505   1.339
   27SOL    HW1  531   1.484   1.599   1.365
   27SOL    HW2  532   1.444   1.451   1.421
   28SOL     OW  533   0.438   0.392   1.499
   28SOL    HW1  534   0.520   0.336   1.508
   28SOL    HW2  535   0.357   0.334   1.503
   29SOL     OW  536   1.603   0.447   0.737
   29SOL    HW1  537   1.529   0.493   0.687
   29SOL    HW2  538   1.654   0.515   0.790
   30SOL     OW  539   0.231   1.713   0.483
   30SOL    HW1  540   0.265   1.790   0.537
   30SOL    HW2  541   0.275   1.713   0.393
   31SOL     OW  542   1.127   1.341   1.690
   31SOL    HW1  543   1.174   1.341   1.778
   31SOL    HW2  544   1.079   1.254   1.679
   32SOL     OW  545   0.230   1.434   0.538
   32SOL    HW1  546   0.204   1.530   0.538
   32SOL    HW2  547   0.159   1.380   0.583
   33SOL     OW  548   0.240   1.091   0.886
   33SOL    HW1  549   0.254   1.007   0.938
   33SOL    HW2  550   0.185   1.155   0.941
   34SOL     OW  551   0.620   1.786   1.439
   34SOL    HW1  552   0.528   1.769   1.474
   34SOL    HW2  553   0.648   1.878   1.465
   35SOL     OW  554   0.606   0.964   0.123
   35SOL    HW1  555   0.613   1.048   0.069
   35SOL    HW2  556   0.652   0.977   0.211
   36SOL     OW  557   1.594   0.114   1.480
   36SOL    HW1  558   1.576   0.181   1.408
   36SOL    HW2  559   1.591   0.160   1.569
   37SOL     OW  560   0.122   0.643   0.563
   37SOL    HW1  561   0.077   0.555   0.580
   37SOL    HW2  562   0.121   0.697   0.647
   38SOL     OW  563   1.842   1.767   0.359
   38SOL    HW1  564   1.896   1.738   0.439
   38SOL    HW2  565   1.872   1.857   0.330
   39SOL     OW  566   0.027   1.596   0.117
   39SOL    HW1  567   0.008   1.500   0.138
   39SOL    HW2  568  -0.006   1.654   0.192
   40SOL     OW  569   1.689   0.922   0.612
   40SOL    HW1  570   1.784   0.893   0.620
   40SOL    HW2  571   1.681   0.987   0.537
   41SOL     OW  572   0.113   0.737   1.597
   41SOL    HW1  573   0.201   0.724   1.642
   41SOL    HW2  574   0.100   0.834   1.575
   42SOL     OW  575   0.613   1.365   0.726
   42SOL    HW1  576   0.564   1.278   0.735
   42SOL    HW2  577   0.590   1.408   0.639
   43SOL     OW  578   1.293   1.228   1.423
   43SOL    HW1  579   1.330   1.155   1.365
   43SOL    HW2  580   1.345   1.233   1.508
   44SOL     OW  581   0.809   0.004   0.502
   44SOL    HW1  582   0.849   0.095   0.493
   44SOL    HW2  583   0.709   0.012   0.508
   45SOL     OW  584   0.197   0.976   1.264
   45SOL    HW1  585   0.286   0.931   1.250
   45SOL    HW2  586   0.124   0.911   1.245
   46SOL     OW  587   1.525   0.999   0.190
   46SOL    HW1  588   1.462   0.923   0.203
   46SOL    HW2  589   1.573   1.017   0.276
   47SOL     OW  590   1.187   1.792   1.616
   47SOL    HW1  591   1.211   1.852   1.540
   47SOL    HW2  592   1.194   1.697   1.586
   48SOL     OW  593   0.317   0.251   1.801
   48SOL    HW1  594   0.388   0.322   1.807
   48SOL    HW2  595   0.229   0.290   1.829
   49SOL     OW  596   1.466   1.417   0.953
   49SOL    HW1  597   1.407   1.423   1.033
   49SOL    HW2  598   1.451   1.329   0.907
   50SOL     OW  599   1.667   1.714   0.572
   50SOL    HW1  600   1.626   1.691   0.484
   50SOL    HW2  601   1.649   1.640   0.637
   51SOL     OW  602   0.598   0.729   0.270
   51SOL    HW1  603   0.622   0.798   0.202
   51SOL    HW2  604   0.520   0.762   0.324
   52SOL     OW  605   1.281   0.345   0.944
   52SOL    HW1  606   1.195   0.295   0.931
   52SOL    HW2  607   1.343   0.291   1.000
   53SOL     OW  608   1.576   1.662   0.307
   53SOL    HW1  609   1.665   1.708   0.310
   53SOL    HW2  610   1.555   1.638   0.212
   54SOL     OW  611   0.807   0.605   1.465
   54SOL    HW1  612   0.760   0.602   1.554
   54SOL    HW2  613   0.756   0.550   1.399
   55SOL     OW  614   1.394   0.469   1.674
   55SOL    HW1  615   1.374   0.512   1.762
   55SOL    HW2  616   1.472   0.407   1.683
   56SOL     OW  617   0.973   0.890   1.572
   56SOL    HW1  618   1.019   0.806   1.543
   56SOL    HW2  619   0.917   0.924   1.497
   57SOL     OW  620   0.991   0.410   1.242
   57SOL    HW1  621   0.914   0.444   1.296
   57SOL    HW2  622   0.957   0.359   1.163
   58SOL     OW  623   1.041   0.701   0.429
   58SOL    HW1  624   1.067   0.697   0.525
   58SOL    HW2  625   0.956   0.650   0.415
   59SOL     OW  626   0.076   0.811   0.789
   59SOL    HW1  627   0.175   0.799   0.798
   59SOL    HW2  628   0.052   0.906   0.810
   60SOL     OW  629   0.130   1.821   1.571
   60SOL    HW1  630   0.120   1.806   1.670
   60SOL    HW2  631   0.044   1.857   1.535
   61SOL     OW  632   0.865   0.348   0.195
   61SOL    HW1  633   0.924   0.411   0.146
   61SOL    HW2  634   0.884   0.254   0.166
   62SOL     OW  635   1.719   0.585   1.831
   62SOL    HW1  636   1.693   0.674   1.795
   62SOL    HW2  637   1.717   0.517   1.758
   63SOL     OW  638   1.362   1.144   0.545
   63SOL    HW1  639   1.445   1.115   0.497
   63SOL    HW2  640   1.313   1.211   0.489
   64SOL     OW  641   0.550   0.196   0.885
   64SOL    HW1  642   0.545   0.191   0.985
   64SOL    HW2  643   0.552   0.292   0.856
   65SOL     OW  644   1.008   1.456   0.477
   65SOL    HW1  645   0.962   1.528   0.425
   65SOL    HW2  646   1.004   1.476   0.575
   66SOL     OW  647   0.351   1.801   0.853
   66SOL    HW1  648   0.401   1.715   0.859
   66SOL    HW2  649   0.416   1.878   0.850
   67SOL     OW  650   1.795   1.066   0.873
   67SOL    HW1  651   1.733   1.051   0.797
   67SOL    HW2  652   1.743   1.077   0.958
   68SOL     OW  653   1.227   1.550   1.506
   68SOL    HW1  654   1.233   1.473   1.570
   68SOL    HW2  655   1.175   1.524   1.426
   69SOL     OW  656   0.321   0.943   0.242
   69SOL    HW1  657   0.403   0.982   0.200
   69SOL    HW2  658   0.294   0.861   0.193
   70SOL     OW  659   1.458   0.735   0.728
   70SOL    HW1  660   1.453   0.670   0.803
   70SOL    HW2  661   1.538   0.794   0.741
   71SOL     OW  662   0.461   1.266   1.727
   71SOL    HW1  663   0.411   1.267   1.641
   71SOL    HW2  664   0.398   1.248   1.803
   72SOL     OW  665   1.111   1.776   0.237
   72SOL    HW1  666   1.051   1.714   0.287
   72SOL    HW2  667   1.142   1.732   0.152
   73SOL     OW  668   0.202   0.285   1.498
   73SOL    HW1  669   0.122   0.345   1.485
   73SOL    HW2  670   0.192   0.236   1.584
   74SOL     OW  671   1.632   1.377   0.081
   74SOL    HW1  672   1.600   1.471   0.071
   74SOL    HW2  673   1.556   1.314   0.069
   75SOL     OW  674   0.464   1.743   0.323
   75SOL    HW1  675   0.497   1.782   0.409
   75SOL    HW2  676   0.540   1.736   0.258
   76SOL     OW  677   1.400   0.107   0.426
   76SOL    HW1  678   1.376   0.070   0.336
   76SOL    HW2  679   1.499   0.123   0.430
   77SOL     OW  680   0.249   1.785   1.241
   77SOL    HW1  681   0.306   1.720   1.291
   77SOL    HW2  682   0.233   1.752   1.148
   78SOL     OW  683   0.940   1.698   0.904
   78SOL    HW1  684   1.020   1.641   0.925
   78SOL    HW2  685   0.891   1.658   0.827
   79SOL     OW  686   0.382   0.700   0.480
   79SOL    HW1  687   0.427   0.610   0.477
   79SOL    HW2  688   0.288   0.689   0.513
   80SOL     OW  689   1.547   0.222   1.729
   80SOL    HW1  690   1.542   0.259   1.821
   80SOL    HW2  691   1.475   0.153   1.717
   81SOL     OW  692   0.614   0.122   0.117
   81SOL    HW1  693   0.712   0.100   0.124
   81SOL    HW2  694   0.583   0.105   0.024
   82SOL     OW  695   0.781   0.264   1.749
   82SOL    HW1  696   0.848   0.203   1.792
   82SOL    HW2  697   0.708   0.283   1.814
   83SOL     OW  698   0.888   1.514   1.195
   83SOL    HW1  699   0.865   1.489   1.101
   83SOL    HW2  700   0.949   1.445   1.234
   84SOL     OW  701   1.351   0.590   1.433
   84SOL    HW1  702   1.379   0.547   1.518
   84SOL    HW2  703   1.376   0.686   1.434
   85SOL     OW  704   0.803   1.402   0.924
   85SOL    HW1  705   0.893   1.416   0.882
   85SOL    HW2  706   0.732   1.404   0.853
   86SOL     OW  707   0.922   0.503   0.899
   86SOL    HW1  708   0.897   0.494   0.803
   86SOL    HW2  709   0.970   0.421   0.930
   87SOL     OW  710   0.539   0.064   0.512
   87SOL    HW1  711   0.458   0.065   0.570
   87SOL    HW2  712   0.542   0.147   0.457
   88SOL     OW  713   1.434   1.188   0.041
   88SOL    HW1  714   1.466   1.112   0.098
   88SOL    HW2  715   1.342   1.215   0.071
   89SOL     OW  716   0.297   0.035   0.171
   89SOL    HW1  717   0.346   0.119   0.150
   89SOL    HW2  718   0.359  -0.030   0.216
   90SOL     OW  719   0.935   0.236   0.480
   90SOL    HW1  720   0.887   0.277   0.402
   90SOL    HW2  721   1.034   0.234   0.461
   91SOL     OW  722   1.076   0.683   1.464
   91SOL    HW1  723   0.996   0.622   1.467
   91SOL    HW2  724   1.157   0.630   1.440
   92SOL     OW  725   1.227   1.570   0.793
   92SOL    HW1  726   1.248   1.644   0.728
   92SOL    HW2  727   1.295   1.570   0.866
   93SOL     OW  728   0.459   1.152   0.741
   93SOL    HW1  729   0.388   1.125   0.806
   93SOL    HW2  730   0.433   1.124   0.648
   94SOL     OW  731   1.271   1.797   0.591
   94SOL    HW1  732   1.315   1.861   0.527
   94SOL    HW2  733   1.221   1.849   0.661
   95SOL     OW  734   1.032   0.549   0.016
   95SOL    HW1  735   0.991   0.631  -0.023
   95SOL    HW2  736   1.096   0.575   0.089
   96SOL     OW  737   0.078   0.556   1.386
   96SOL    HW1  738   0.170   0.555   1.345
   96SOL    HW2  739   0.072   0.630   1.453
   97SOL     OW  740   0.561   0.222   1.147
   97SOL    HW1  741   0.599   0.138   1.184
   97SOL    HW2  742   0.473   0.241   1.191
   98SOL     OW  743   0.866   0.454   0.642
   98SOL    HW1  744   0.834   0.526   0.580
   98SOL    HW2  745   0.890   0.373   0.589
   99SOL     OW  746   1.017   0.039   0.753
   99SOL    HW1  747   0.945   0.044   0.684
   99SOL    HW2  748   0.993  -0.030   0.822
  100SOL     OW  749   1.429   1.173   0.867
  100SOL    HW1  750   1.374   1.089   0.860
  100SOL    HW2  751   1.455   1.202   0.775
  101SOL     OW  752   1.466   0.590   0.992
  101SOL    HW1  753   1.436   0.495   0.999
  101SOL    HW2  754   1.539   0.606   1.058
  102SOL     OW  755   1.857   0.833   0.377
  102SOL    HW1  756   1.899   0.769   0.441
  102SOL    HW2  757   1.819   0.782   0.299
  103SOL     OW  758   0.488   1.385   0.174
  103SOL    HW1  759   0.401   1.370   0.221
  103SOL    HW2  760   0.471   1.411   0.079
  104SOL     OW  761   1.664   1.280   0.657
  104SOL    HW1  762   1.763   1.288   0.671
  104SOL    HW2  763   1.619   1.364   0.688
  105SOL     OW  764   1.390   0.575   0.078
  105SOL    HW1  765   1.336   0.554   0.159
  105SOL    HW2  766   1.481   0.534   0.087
  106SOL     OW  767   0.527   0.256   0.328
  106SOL    HW1  768   0.554   0.197   0.253
  106SOL    HW2  769   0.527   0.351   0.297
  107SOL     OW  770   1.754   1.223   1.588
  107SOL    HW1  771   1.845   1.184   1.575
  107SOL    HW2  772   1.762   1.319   1.612
  108SOL     OW  773   1.064   1.347   1.340
  108SOL    HW1  774   0.984   1.324   1.395
  108SOL    HW2  775   1.147   1.321   1.389
  109SOL     OW  776   1.592   1.629   1.625
  109SOL    HW1  777   1.619   1.663   1.535
  109SOL    HW2  778   1.671   1.591   1.671
  110SOL     OW  779   1.111   1.195   1.100
  110SOL    HW1  780   1.071   1.239   1.181
  110SOL    HW2  781   1.070   1.232   1.017
  111SOL     OW  782   1.638   1.099   1.079
  111SOL    HW1  783   1.643   1.180   1.138
  111SOL    HW2  784   1.552   1.101   1.028
  112SOL     OW  785   0.915   0.089   1.402
  112SOL    HW1  786   0.940   0.069   1.307
  112SOL    HW2  787   0.987   0.145   1.444
  113SOL     OW  788   0.980   1.116   1.719
  113SOL    HW1  789   0.881   1.122   1.729
  113SOL    HW2  790   1.003   1.036   1.663
  114SOL     OW  791   0.705   1.050   0.368
  114SOL    HW1  792   0.691   1.057   0.467
  114SOL    HW2  793   0.789   0.999   0.350
  115SOL     OW  794   0.410   0.813   1.251
  115SOL    HW1  795   0.496   0.825   1.301
  115SOL    HW2  796   0.368   0.726   1.278
  116SOL     OW  797   1.274   0.386   1.262
  116SOL    HW1  798   1.295   0.460   1.326
  116SOL    HW2  799   1.185   0.403   1.219
  117SOL     OW  800   0.064   1.564   1.331
  117SOL    HW1  801   0.018   1.646   1.297
  117SOL    HW2  802   0.162   1.583   1.340
  118SOL     OW  803   0.367   1.100   0.501
  118SOL    HW1  804   0.360   1.183   0.445
  118SOL    HW2  805   0.371   1.020   0.441
  119SOL     OW  806   0.566   0.537   0.865
  119SOL    HW1  807   0.578   0.603   0.791
  119SOL    HW2  808   0.612   0.571   0.948
  120SOL     OW  809   1.252   1.348   0.388
  120SOL    HW1  810   1.302   1.425   0.428
  120SOL    HW2  811   1.157   1.350   0.420
  121SOL     OW  812   1.272   1.445   1.142
  121SOL    HW1  813   1.319   1.458   1.229
  121SOL    HW2  814   1.206   1.371   1.151
  122SOL     OW  815   1.582   0.639   0.472
  122SOL    HW1  816   1.551   0.700   0.545
  122SOL    HW2  817   1.632   0.691   0.403
  123SOL     OW  818   0.354   1.510   1.329
  123SOL    HW1  819   0.333   1.466   1.242
  123SOL    HW2  820   0.451   1.536   1.332
  124SOL     OW  821   0.402   0.751   1.598
  124SOL    HW1  822   0.470   0.806   1.551
  124SOL    HW2  823   0.442   0.663   1.625
  125SOL     OW  824   1.587   0.779   1.670
  125SOL    HW1  825   1.495   0.817   1.665
  125SOL    HW2  826   1.647   0.826   1.605
  126SOL     OW  827   1.013   0.105   1.770
  126SOL    HW1  828   1.019   0.190   1.718
  126SOL    HW2  829   1.045   0.029   1.713
  127SOL     OW  830   0.504   0.050   1.740
  127SOL    HW1  831   0.462  -0.007   1.670
  127SOL    HW2  832   0.438   0.119   1.772
  128SOL     OW  833   0.573   0.870   1.029
  128SOL    HW1  834   0.617   0.959   1.020
  128SOL    HW2  835   0.510   0.870   1.106
  129SOL     OW  836   1.360   0.862   1.045
  129SOL    HW1  837   1.285   0.862   0.979
  129SOL    HW2  838   1.397   0.770   1.054
  130SOL     OW  839   1.209   0.525   0.275
  130SOL    HW1  840   1.222   0.441   0.329
  130SOL    HW2  841   1.180   0.599   0.335
  131SOL     OW  842   0.037   1.310   1.282
  131SOL    HW1  843   0.090   1.261   1.350
  131SOL    HW2  844   0.059   1.408   1.287
  132SOL     OW  845   0.732   0.634   1.064
  132SOL    HW1  846   0.791   0.608   0.988
  132SOL    HW2  847   0.704   0.730   1.053
  133SOL     OW  848   1.728   0.935   1.854
  133SOL    HW1  849   1.682   0.928   1.765
  133SOL    HW2  850   1.666   0.979   1.920
  134SOL     OW  851   0.307   0.063   0.618
  134SOL    HW1  852   0.296   0.157   0.651
  134SOL    HW2  853   0.302   0.000   0.695
  135SOL     OW  854   1.622   0.367   0.374
  135SOL    HW1  855   1.624   0.291   0.438
  135SOL    HW2  856   1.574   0.444   0.414
  136SOL     OW  857   1.023   0.766   0.966
  136SOL    HW1  858   1.038   0.787   1.062
  136SOL    HW2  859   0.993   0.671   0.957
  137SOL     OW  860   0.980   1.573   1.700
  137SOL    HW1  861   0.960   1.617   1.612
  137SOL    HW2  862   1.019   1.482   1.684
  138SOL     OW  863   1.859   1.518   1.605
  138SOL    HW1  864   1.873   1.545   1.510
  138SOL    HW2  865   1.942   1.540   1.658
  139SOL     OW  866   0.350   0.898   1.804
  139SOL    HW1  867   0.426   0.942   1.852
  139SOL    HW2  868   0.385   0.851   1.722
  140SOL     OW  869   1.540   0.274   0.125
  140SOL    HW1  870   1.479   0.199   0.148
  140SOL    HW2  871   1.562   0.326   0.208
  141SOL     OW  872   1.303   0.838   0.042
  141SOL    HW1  873   1.337   0.745   0.057
  141SOL    HW2  874   1.321   0.865  -0.053
  142SOL     OW  875   1.068   1.333   0.849
  142SOL    HW1  876   1.075   1.249   0.794
  142SOL    HW2  877   1.130   1.402   0.813
  143SOL     OW  878   0.319   0.810   0.949
  143SOL    HW1  879   0.412   0.846   0.954
  143SOL    HW2  880   0.313   0.725   1.001
  144SOL     OW  881   0.339   0.509   1.006
  144SOL    HW1  882   0.287   0.426   0.989
  144SOL    HW2  883   0.416   0.514   0.942
  145SOL     OW  884   1.138   0.380   1.678
  145SOL    HW1  885   1.093   0.443   1.742
  145SOL    HW2  886   1.231   0.411   1.661
  146SOL     OW  887   1.160   0.207   1.477
  146SOL    HW1  888   1.160   0.271   1.554
  146SOL    HW2  889   1.188   0.255   1.394
  147SOL     OW  890   0.008   1.326   0.200
  147SOL    HW1  891  -0.085   1.347   0.169
  147SOL    HW2  892   0.018   1.227   0.213
  148SOL     OW  893   0.088   1.801   0.927
  148SOL    HW1  894   0.046   1.715   0.900
  148SOL    HW2  895   0.182   1.804   0.893
  149SOL     OW  896   0.504   1.568   0.910
  149SOL    HW1  897   0.570   1.642   0.919
  149SOL    HW2  898   0.548   1.489   0.868
  150SOL     OW  899   1.002   0.796   1.238
  150SOL    HW1  900   1.043   0.764   1.324
  150SOL    HW2  901   0.906   0.769   1.235
  151SOL     OW  902   0.040   0.544   1.114
  151SOL    HW1  903   0.125   0.511   1.073
  151SOL    HW2  904   0.053   0.559   1.212
  152SOL     OW  905   0.189   0.520   1.722
  152SOL    HW1  906   0.248   0.480   1.652
  152SOL    HW2  907   0.131   0.591   1.681
  153SOL     OW  908   1.369   0.950   1.660
  153SOL    HW1  909   1.408   1.039   1.680
  153SOL    HW2  910   1.379   0.930   1.563
  154SOL     OW  911   0.815   0.572   0.325
  154SOL    HW1  912   0.822   0.483   0.279
  154SOL    HW2  913   0.721   0.606   0.317
  155SOL     OW  914   1.657   0.604   1.206
  155SOL    HW1  915   1.619   0.535   1.268
  155SOL    HW2  916   1.739   0.568   1.162
  156SOL     OW  917   0.252   1.564   1.744
  156SOL    HW1  918   0.222   1.621   1.820
  156SOL    HW2  919   0.245   1.467   1.770
  157SOL     OW  920   0.671   0.464   1.269
  157SOL    HW1  921   0.637   0.375   1.239
  157SOL    HW2  922   0.697   0.518   1.189
  158SOL     OW  923   0.930   1.678   1.465
  158SOL    HW1  924   0.906   1.660   1.370
  158SOL    HW2  925   0.960   1.772   1.475
  159SOL     OW  926   0.473   0.500   0.191
  159SOL    HW1  927   0.534   0.580   0.195
  159SOL    HW2  928   0.378   0.531   0.198
  160SOL     OW  929   0.159   1.137   1.466
  160SOL    HW1  930   0.181   1.076   1.542
  160SOL    HW2  931   0.169   1.088   1.380
  161SOL     OW  932   1.347   1.059   1.234
  161SOL    HW1  933   1.371   0.996   1.160
  161SOL    HW2  934   1.257   1.099   1.216
  162SOL     OW  935   1.302   0.855   0.309
  162SOL    HW1  936   1.216   0.824   0.351
  162SOL    HW2  937   1.298   0.841   0.210
  163SOL     OW  938   1.759   1.747   1.154
  163SOL    HW1  939   1.820   1.777   1.081
  163SOL    HW2  940   1.721   1.658   1.132
  164SOL     OW  941   1.252   1.731   1.128
  164SOL    HW1  942   1.336   1.736   1.074
  164SOL    HW2  943   1.229   1.635   1.146
  165SOL     OW  944   0.083   1.258   1.022
  165SOL    HW1  945   0.078   1.257   1.122
  165SOL    HW2  946   0.000   1.217   0.984
  166SOL     OW  947   0.688   1.662   1.716
  166SOL    HW1  948   0.632   1.743   1.725
  166SOL    HW2  949   0.740   1.666   1.630
  167SOL     OW  950   0.903   0.086   0.133
  167SOL    HW1  951   0.954   0.087   0.047
  167SOL    HW2  952   0.959   0.044   0.204
  168SOL     OW  953   1.726   0.135   0.523
  168SOL    HW1  954   1.799   0.118   0.456
  168SOL    HW2  955   1.695   0.048   0.561
  169SOL     OW  956   1.388   1.573   0.477
  169SOL    HW1  957   1.455   1.585   0.403
  169SOL    HW2  958   1.348   1.662   0.500
  170SOL     OW  959   0.130   1.794   1.851
  170SOL    HW1  960   0.089   1.720   1.904
  170SOL    HW2  961   0.194   1.845   1.909
  171SOL     OW  962   1.280   0.927   0.672
  171SOL    HW1  963   1.340   0.846   0.674
  171SOL    HW2  964   1.320   0.996   0.612
  172SOL     OW  965   0.830   1.273   1.422
  172SOL    HW1  966   0.825   1.306   1.517
  172SOL    HW2  967   0.744   1.292   1.376
  173SOL     OW  968   0.672   1.616   0.154
  173SOL    HW1  969   0.681   1.626   0.055
  173SOL    HW2  970   0.632   1.527   0.175
  174SOL     OW  971   1.650   1.720   1.394
  174SOL    HW1  972   1.703   1.730   1.310
  174SOL    HW2  973   1.623   1.810   1.428
  175SOL     OW  974   1.841   0.175   0.963
  175SOL    HW1  975   1.880   0.090   0.927
  175SOL    HW2  976   1.743   0.177   0.944
  176SOL     OW  977   0.263   0.326   0.720
  176SOL    HW1  978   0.184   0.377   0.686
  176SOL    HW2  979   0.254   0.311   0.818
  177SOL     OW  980   1.194   1.612   0.031
  177SOL    HW1  981   1.200   1.519   0.068
  177SOL    HW2  982   1.135   1.612  -0.049
  178SOL     OW  983   0.822   1.002   1.372
  178SOL    HW1  984   0.862   1.001   1.280
  178SOL    HW2  985   0.832   1.094   1.412
  179SOL     OW  986   0.916   0.910   0.291
  179SOL    HW1  987   0.979   0.948   0.223
  179SOL    HW2  988   0.956   0.827   0.330
  180SOL     OW  989   1.504   1.607   0.044
  180SOL    HW1  990   1.412   1.644   0.051
  180SOL    HW2  991   1.542   1.627  -0.046
  181SOL     OW  992   0.372   1.288   1.490
  181SOL    HW1  993   0.359   1.381   1.456
  181SOL    HW2  994   0.288   1.236   1.477
  182SOL     OW  995   1.614   1.292   1.289
  182SOL    HW1  996   1.674   1.295   1.369
  182SOL    HW2  997   1.539   1.356   1.302
  183SOL     OW  998   1.039   1.098   0.696
  183SOL    HW1  999   0.969   1.051   0.750
  183SOL    HW2 1000   1.098   1.030   0.653
  184SOL     OW 1001   1.014   0.236   0.971
  184SOL    HW1 1002   1.006   0.200   0.878
  184SOL    HW2 1003   1.012   0.160   1.036
  185SOL     OW 1004   0.590   1.487   0.491
  185SOL    HW1 1005   0.632   1.429   0.421
  185SOL    HW2 1006   0.546   1.566   0.447
  186SOL     OW 1007   1.709   0.385   1.381
  186SOL    HW1 1008   1.782   0.454   1.385
  186SOL    HW2 1009   1.737   0.310   1.322
  187SOL     OW 1010   0.255   1.348   0.290
  187SOL    HW1 1011   0.159   1.349   0.263
  187SOL    HW2 1012   0.267   1.401   0.374
  188SOL     OW 1013   0.105   1.013   1.726
  188SOL    HW1 1014   0.028   0.980   1.780
  188SOL    HW2 1015   0.190   0.983   1.768
  189SOL     OW 1016   0.672   0.203   1.489
  189SOL    HW1 1017   0.762   0.187   1.449
  189SOL    HW2 1018   0.680   0.208   1.588
  190SOL     OW 1019   0.075   0.345   0.033
  190SOL    HW1 1020  -0.017   0.317   0.004
  190SOL    HW2 1021   0.106   0.422  -0.023
  191SOL     OW 1022   1.440   0.856   1.398
  191SOL    HW1 1023   1.383   0.908   1.335
  191SOL    HW2 1024   1.536   0.868   1.374
  192SOL     OW 1025   0.072   0.166   0.318
  192SOL    HW1 1026   0.055   0.249   0.264
  192SOL    HW2 1027   0.162   0.129   0.296
  193SOL     OW 1028   1.183   1.335   0.119
  193SOL    HW1 1029   1.084   1.324   0.121
  193SOL    HW2 1030   1.217   1.350   0.212
  194SOL     OW 1031   0.613   0.842   1.431
  194SOL    HW1 1032   0.669   0.923   1.414
  194SOL    HW2 1033   0.672   0.762   1.434
  195SOL     OW 1034   1.493   1.767   0.959
  195SOL    HW1 1035   1.526   1.831   0.890
  195SOL    HW2 1036   1.559   1.761   1.034
  196SOL     OW 1037   1.450   1.220   1.633
  196SOL    HW1 1038   1.441   1.210   1.732
  196SOL    HW2 1039   1.546   1.213   1.607
  197SOL     OW 1040   0.390   1.741   1.560
  197SOL    HW1 1041   0.299   1.782   1.558
  197SOL    HW2 1042   0.383   1.647   1.592
  198SOL     OW 1043   1.674   0.883   1.254
  198SOL    HW1 1044   1.647   0.794   1.217
  198SOL    HW2 1045   1.675   0.951   1.181
  199SOL     OW 1046   1.225   0.325   0.449
  199SOL    HW1 1047   1.290   0.251   0.438
  199SOL    HW2 1048   1.245   0.375   0.533
  200SOL     OW 1049   0.594   0.745   0.652
  200SOL    HW1 1050   0.644   0.830   0.633
  200SOL    HW2 1051   0.506   0.747   0.604
  201SOL     OW 1052   1.777   0.342   1.642
  201SOL    HW1 1053   1.760   0.373   1.548
  201SOL    HW2 1054   1.693   0.305   1.680
  202SOL     OW 1055   1.730   0.934   1.517
  202SOL    HW1 1056   1.768   1.025   1.532
  202SOL    HW2 1057   1.722   0.917   1.418
  203SOL     OW 1058   0.859   1.374   0.016
  203SOL    HW1 1059   0.813   1.389   0.104
  203SOL    HW2 1060   0.903   1.459  -0.014
  204SOL     OW 1061   0.661   1.790   0.953
  204SOL    HW1 1062   0.615   1.878   0.940
  204SOL    HW2 1063   0.760   1.802   0.946
  205SOL     OW 1064   0.859   0.956   0.861
  205SOL    HW1 1065   0.913   0.887   0.909
  205SOL    HW2 1066   0.827   1.025   0.927
  206SOL     OW 1067   1.083   0.984   0.087
  206SOL    HW1 1068   1.060   1.037   0.005
  206SOL    HW2 1069   1.164   0.928   0.068
  207SOL     OW 1070   1.861   1.569   0.851
  207SOL    HW1 1071   1.790   1.557   0.781
  207SOL    HW2 1072   1.862   1.490   0.911
  208SOL     OW 1073   0.221   1.314   1.844
  208SOL    HW1 1074   0.156   1.241   1.823
  208SOL    HW2 1075   0.225   1.328   1.942
  209SOL     OW 1076   0.079   1.240   0.653
  209SOL    HW1 1077   0.078   1.193   0.741
  209SOL    HW2 1078   0.161   1.212   0.602
  210SOL     OW 1079   0.672   1.391   1.624
  210SOL    HW1 1080   0.594   1.341   1.662
  210SOL    HW2 1081   0.669   1.486   1.655
  211SOL     OW 1082   1.824   0.192   1.227
  211SOL    HW1 1083   1.820   0.102   1.271
  211SOL    HW2 1084   1.827   0.181   1.128
  212SOL     OW 1085   0.428   0.424   0.520
  212SOL    HW1 1086   0.458   0.352   0.458
  212SOL    HW2 1087   0.389   0.384   0.603
  213SOL     OW 1088   1.705   1.487   1.104
  213SOL    HW1 1089   1.612   1.462   1.077
  213SOL    HW2 1090   1.731   1.437   1.186
  214SOL     OW 1091   0.317   0.547   1.280
  214SOL    HW1 1092   0.355   0.488   1.352
  214SOL    HW2 1093   0.357   0.521   1.192
  215SOL     OW 1094   0.812   1.586   0.687
  215SOL    HW1 1095   0.844   1.596   0.593
  215SOL    HW2 1096   0.733   1.524   0.689
  216SOL     OW 1097   1.424   0.214   1.112
  216SOL    HW1 1098   1.476   0.149   1.167
  216SOL    HW2 1099   1.375   0.277   1.173
  217SOL     OW 1100   1.001   0.034   1.154
  217SOL    HW1 1101   0.938  -0.038   1.123
  217SOL    HW2 1102   1.094  -0.002   1.154
  218SOL     OW 1103   0.770   1.330   0.301
  218SOL    HW1 1104   0.724   1.243   0.318
  218SOL    HW2 1105   0.861   1.327   0.342
  219SOL     OW 1106   0.618   1.567   1.284
  219SOL    HW1 1107   0.613   1.649   1.341
  219SOL    HW2 1108   0.707   1.564   1.239
  220SOL     OW 1109   1.352   0.052   0.168
  220SOL    HW1 1110   1.387   0.011   0.084
  220SOL    HW2 1111   1.262   0.014   0.188
  221SOL     OW 1112   1.300   0.453   0.691
  221SOL    HW1 1113   1.241   0.533   0.695
  221SOL    HW2 1114   1.315   0.418   0.784
  222SOL     OW 1115   1.593   0.221   0.882
  222SOL    HW1 1116   1.509   0.220   0.936
  222SOL    HW2 1117   1.595   0.304   0.826
  223SOL     OW 1118   0.039   1.077   0.300
  223SOL    HW1 1119   0.138   1.066   0.291
  223SOL    HW2 1120  -0.001   0.991   0.332
  224SOL     OW 1121   0.875   1.646   0.337
  224SOL    HW1 1122   0.798   1.611   0.283
  224SOL    HW2 1123   0.843   1.717   0.399
  225SOL     OW 1124   0.230   0.628   1.975
  225SOL    HW1 1125   0.137   0.626   2.012
  225SOL    HW2 1126   0.231   0.589   1.883
  226SOL     OW 1127   0.225   0.275   2.858
  226SOL    HW1 1128   0.260   0.258   2.950
  226SOL    HW2 1129   0.137   0.230   2.846
  227SOL     OW 1130   0.019   0.368   2.509
  227SOL    HW1 1131  -0.063   0.411   2.548
  227SOL    HW2 1132  -0.009   0.295   2.446
  228SOL     OW 1133   0.569   1.275   3.027
  228SOL    HW1 1134   0.476   1.268   2.990
  228SOL    HW2 1135   0.580   1.364   3.071
  229SOL     OW 1136   1.555   1.511   2.565
  229SOL    HW1 1137   1.498   1.495   2.646
  229SOL    HW2 1138   1.496   1.521   2.485
  230SOL     OW 1139   1.755   0.607   2.093
  230SOL    HW1 1140   1.743   0.594   1.994
  230SOL    HW2 1141   1.725   0.526   2.142
  231SOL     OW 1142   0.768   1.144   2.885
  231SOL    HW1 1143   0.690   1.161   2.945
  231SOL    HW2 1144   0.802   1.231   2.849
  232SOL     OW 1145   0.850   0.798   3.685
  232SOL    HW1 1146   0.846   0.874   3.750
  232SOL    HW2 1147   0.872   0.834   3.594
  233SOL     OW 1148   0.685   1.012   2.527
  233SOL    HW1 1149   0.754   0.996   2.597
  233SOL    HW2 1150   0.612   1.069   2.565
  234SOL     OW 1151   0.686   1.161   3.665
  234SOL    HW1 1152   0.746   1.240   3.679
  234SOL    HW2 1153   0.600   1.192   3.624
  235SOL     OW 1154   0.335   1.435   2.923
  235SOL    HW1 1155   0.257   1.404   2.870
  235SOL    HW2 1156   0.393   1.493   2.866
  236SOL     OW 1157   1.460   1.505   3.201
  236SOL    HW1 1158   1.484   1.599   3.227
  236SOL    HW2 1159   1.444   1.451   3.283
  237SOL     OW 1160   0.438   0.392   3.361
  237SOL    HW1 1161   0.520   0.336   3.370
  237SOL    HW2 1162   0.357   0.334   3.365
  238SOL     OW 1163   1.603   0.447   2.599
  238SOL    HW1 1164   1.529   0.493   2.549
  238SOL    HW2 1165   1.654   0.515   2.652
  239SOL     OW 1166   0.231   1.713   2.345
  239SOL    HW1 1167   0.265   1.790   2.399
  239SOL    HW2 1168   0.275   1.713   2.255
  240SOL     OW 1169   1.127   1.341   3.552
  240SOL    HW1 1170   1.174   1.341   3.640
  240SOL    HW2 1171   1.079   1.254   3.541
  241SOL     OW 1172   0.230   1.434   2.400
  241SOL    HW1 1173   0.204   1.530   2.400
  241SOL    HW2 1174   0.159   1.380   2.445
  242SOL     OW 1175   0.240   1.091   2.748
  242SOL    HW1 1176   0.254   1.007   2.800
  242SOL    HW2 1177   0.185   1.155   2.803
  243SOL     OW 1178   0.620   1.786   3.301
  243SOL    HW1 1179   0.528   1.769   3.336
  243SOL    HW2 1180   0.648   1.878   3.327
  244SOL     OW 1181   0.606   0.964   1.985
  244SOL    HW1 1182   0.613   1.048   1.931
  244SOL    HW2 1183   0.652   0.977   2.073
  245SOL     OW 1184   1.594   0.114   3.342
  245SOL    HW1 1185   1.576   0.181   3.270
  245SOL    HW2 1186   1.591   0.160   3.431
  246SOL     OW 1187   0.122   0.643   2.425
  246SOL    HW1 1188   0.077   0.555   2.442
  246SOL    HW2 1189   0.121   0.697   2.509
  247SOL     OW 1190   1.842   1.767   2.221
  247SOL    HW1 1191   1.896   1.738   2.301
  247SOL    HW2 1192   1.872   1.857   2.192
  248SOL     OW 1193   0.027   1.596   1.979
  248SOL    HW1 1194   0.008   1.500   2.000
  248SOL    HW2 1195  -0.006   1.654   2.054
  249SOL     OW 1196   1.689   0.922   2.474
  249SOL    HW1 1197   1.784   0.893   2.482
  249SOL    HW2 1198   1.681   0.987   2.399
  250SOL     OW 1199   1.641   1.108   2.294
  250SOL    HW1 1200   1.727   1.110   2.242
  250SOL    HW2 1201   1.655   1.155   2.382
  251SOL     OW 1202   0.113   0.737   3.459
  251SOL    HW1 1203   0.201   0.724   3.504
  251SOL    HW2 1204   0.100   0.834   3.437
  252SOL     OW 1205   0.613   1.365   2.588
  252SOL    HW1 1206   0.564   1.278   2.597
  252SOL    HW2 1207   0.590   1.408   2.501
  253SOL     OW 1208   1.293   1.228   3.285
  253SOL    HW1 1209   1.330   1.155   3.227
  253SOL    HW2 1210   1.345   1.233   3.370
  254SOL     OW 1211   0.809   0.004   2.364
  254SOL    HW1 1212   0.849   0.095   2.355
  254SOL    HW2 1213   0.709   0.012   2.370
  255SOL     OW 1214   0.197   0.976   3.126
  255SOL    HW1 1215   0.286   0.931   3.112
  255SOL    HW2 1216   0.124   0.911   3.107
  256SOL     OW 1217   1.525   0.999   2.052
  256SOL    HW1 1218   1.462   0.923   2.065
  256SOL    HW2 1219   1.573   1.017   2.138
  257SOL     OW 1220   1.187   1.792   3.478
  257SOL    HW1 1221   1.211   1.852   3.402
  257SOL    HW2 1222   1.194   1.697   3.448
  258SOL     OW 1223   0.317   0.251   3.663
  258SOL    HW1 1224   0.388   0.322   3.669
  258SOL    HW2 1225   0.229   0.290   3.691
  259SOL     OW 1226   1.466   1.417   2.815
  259SOL    HW1 1227   1.407   1.423   2.895
  259SOL    HW2 1228   1.451   1.329   2.769
  260SOL     OW 1229   1.667   1.714   2.434
  260SOL    HW1 1230   1.626   1.691   2.346
  260SOL    HW2 1231   1.649   1.640   2.499
  261SOL     OW 1232   0.598   0.729   2.132
  261SOL    HW1 1233   0.622   0.798   2.064
  261SOL    HW2 1234   0.520   0.762   2.186
  262SOL     OW 1235   1.281   0.345   2.806
  262SOL    HW1 1236   1.195   0.295   2.793
  262SOL    HW2 1237   1.343   0.291   2.862
  263SOL     OW 1238   1.576   1.662   2.169
  263SOL    HW1 1239   1.665   1.708   2.172
  263SOL    HW2 1240   1.555   1.638   2.074
  264SOL     OW 1241   0.807   0.605   3.327
  264SOL    HW1 1242   0.760   0.602   3.416
  264SOL    HW2 1243   0.756   0.550   3.261
  265SOL     OW 1244   1.394   0.469   3.536
  265SOL    HW1 1245   1.374   0.512   3.624
  265SOL    HW2 1246   1.472   0.407   3.545
  266SOL     OW 1247   0.973   0.890   3.434
  266SOL    HW1 1248   1.019   0.806   3.405
  266SOL    HW2 1249   0.917   0.924   3.359
  267SOL     OW 1250   0.991   0.410   3.104
  267SOL    HW1 1251   0.914   0.444   3.158
  267SOL    HW2 1252   0.957   0.359   3.025
  268SOL     OW 1253   0.076   0.811   2.651
  268SOL    HW1 1254   0.175   0.799   2.660
  268SOL    HW2 1255   0.052   0.906   2.672
  269SOL     OW 1256   0.130   1.821   3.433
  269SOL    HW1 1257   0.120   1.806   3.532
  269SOL    HW2 1258   0.044   1.857   3.397
  270SOL     OW 1259   0.865   0.348   2.057
  270SOL    HW1 1260   0.924   0.411   2.008
  270SOL    HW2 1261   0.884   0.254   2.028
  271SOL     OW 1262   1.719   0.585   3.693
  271SOL    HW1 1263   1.693   0.674   3.657
  271SOL    HW2 1264   1.717   0.517   3.620
  272SOL     OW 1265   1.362   1.144   2.407
  272SOL    HW1 1266   1.445   1.115   2.359
  272SOL    HW2 1267   1.313   1.211   2.351
  273SOL     OW 1268   0.550   0.196   2.747
  273SOL    HW1 1269   0.545   0.191   2.847
  273SOL    HW2 1270   0.552   0.292   2.718
  274SOL     OW 1271   1.008   1.456   2.339
  274SOL    HW1 1272   0.962   1.528   2.287
  274SOL    HW2 1273   1.004   1.476   2.437
  275SOL     OW 1274   0.351   1.801   2.715
  275SOL    HW1 1275   0.401   1.715   2.721
  275SOL    HW2 1276   0.416   1.878   2.712
  276SOL     OW 1277   1.795   1.066   2.735
  276SOL    HW1 1278   1.733   1.051   2.659
  276SOL    HW2 1279   1.743   1.077   2.820
  277SOL     OW 1280   1.227   1.550   3.368
  277SOL    HW1 1281   1.233   1.473   3.432
  277SOL    HW2 1282   1.175   1.524   3.288
  278SOL     OW 1283   0.321   0.943   2.104
  278SOL    HW1 1284   0.403   0.982   2.062
  278SOL    HW2 1285   0.294   0.861   2.055
  279SOL     OW 1286   1.458   0.735   2.590
  279SOL    HW1 1287   1.453   0.670   2.665
  279SOL    HW2 1288   1.538   0.794   2.603
  280SOL     OW 1289   0.461   1.266   3.589
  280SOL    HW1 1290   0.411   1.267   3.503
  280SOL    HW2 1291   0.398   1.248   3.665
  281SOL     OW 1292   1.111   1.776   2.099
  281SOL    HW1 1293   1.051   1.714   2.149
  281SOL    HW2 1294   1.142   1.732   2.014
  282SOL     OW 1295   0.202   0.285   3.360
  282SOL    HW1 1296   0.122   0.345   3.347
  282SOL    HW2 1297   0.192   0.236   3.446
  283SOL     OW 1298   1.632   1.377   1.943
  283SOL    HW1 1299   1.600   1.471   1.933
  283SOL    HW2 1300   1.556   1.314   1.931
  284SOL     OW 1301   0.464   1.743   2.185
  284SOL    HW1 1302   0.497   1.782   2.271
  284SOL    HW2 1303   0.540   1.736   2.120
  285SOL     OW 1304   1.400   0.107   2.288
  285SOL    HW1 1305   1.376   0.070   2.198
  285SOL    HW2 1306   1.499   0.123   2.292
  286SOL     OW 1307   0.249   1.785   3.103
  286SOL    HW1 1308   0.306   1.720   3.153
  286SOL    HW2 1309   0.233   1.752   3.010
  287SOL     OW 1310   0.940   1.698   2.766
  287SOL    HW1 1311   1.020   1.641   2.787
  287SOL    HW2 1312   0.891   1.658   2.689
  288SOL     OW 1313   0.382   0.700   2.342
  288SOL    HW1 1314   0.427   0.610   2.339
  288SOL    HW2 1315   0.288   0.689   2.375
  289SOL     OW 1316   1.547   0.222   3.591
  289SOL    HW1 1317   1.542   0.259   3.683
  289SOL    HW2 1318   1.475   0.153   3.579
  290SOL     OW 1319   0.614   0.122   1.979
  290SOL    HW1 1320   0.712   0.100   1.986
  290SOL    HW2 1321   0.583   0.105   1.886
  291SOL     OW 1322   0.781   0.264   3.611
  291SOL    HW1 1323   0.848   0.203   3.654
  291SOL    HW2 1324   0.708   0.283   3.676
  292SOL     OW 1325   0.888   1.514   3.057
  292SOL    HW1 1326   0.865   1.489   2.963
  292SOL    HW2 1327   0.949   1.445   3.096
  293SOL     OW 1328   1.351   0.590   3.295
  293SOL    HW1 1329   1.379   0.547   3.380
  293SOL    HW2 1330   1.376   0.686   3.296
  294SOL     OW 1331   0.803   1.402   2.786
  294SOL    HW1 1332   0.893   1.416   2.744
  294SOL    HW2 1333   0.732   1.404   2.715
  295SOL     OW 1334   0.539   0.064   2.374
  295SOL    HW1 1335   0.458   0.065   2.432
  295SOL    HW2 1336   0.542   0.147   2.319
  296SOL     OW 1337   1.434   1.188   1.903
  296SOL    HW1 1338   1.466   1.112   1.960
  296SOL    HW2 1339   1.342   1.215   1.933
  297SOL     OW 1340   0.297   0.035   2.033
  297SOL    HW1 1341   0.346   0.119   2.012
  297SOL    HW2 1342   0.359  -0.030   2.078
  298SOL     OW 1343   0.935   0.236   2.342
  298SOL    HW1 1344   0.887   0.277   2.264
  298SOL    HW2 1345   1.034   0.234   2.323
  299SOL     OW 1346   1.076   0.683   3.326
  299SOL    HW1 1347   0.996   0.622   3.329
  299SOL    HW2 1348   1.157   0.630   3.302
  300SOL     OW 1349   1.227   1.570   2.655
  300SOL    HW1 1350   1.248   1.644   2.590
  300SOL    HW2 1351   1.295   1.570   2.728
  301SOL     OW 1352   0.459   1.152   2.603
  301SOL    HW1 1353   0.388   1.125   2.668
  301SOL    HW2 1354   0.433   1.124   2.510
  302SOL     OW 1355   1.271   1.797   2.453
  302SOL    HW1 1356   1.315   1.861   2.389
  302SOL    HW2 1357   1.221   1.849   2.523
  303SOL     OW 1358   0.078   0.556   3.248
  303SOL    HW1 1359   0.170   0.555   3.207
  303SOL    HW2 1360   0.072   0.630   3.315
  304SOL     OW 1361   0.561   0.222   3.009
  304SOL    HW1 1362   0.599   0.138   3.046
  304SOL    HW2 1363   0.473   0.241   3.053
  305SOL     OW 1364   0.866   0.454   2.504
  305SOL    HW1 1365   0.834   0.526   2.442
  305SOL    HW2 1366   0.890   0.373   2.451
  306SOL     OW 1367   1.017   0.039   2.615
  306SOL    HW1 1368   0.945   0.044   2.546
  306SOL    HW2 1369   0.993  -0.030   2.684
  307SOL     OW 1370   1.429   1.173   2.729
  307SOL    HW1 1371   1.374   1.089   2.722
  307SOL    HW2 1372   1.455   1.202   2.637
  308SOL     OW 1373   1.466   0.590   2.854
  308SOL    HW1 1374   1.436   0.495   2.861
  308SOL    HW2 1375   1.539   0.606   2.920
  309SOL     OW 1376   1.857   0.833   2.239
  309SOL    HW1 1377   1.899   0.769   2.303
  309SOL    HW2 1378   1.819   0.782   2.161
  310SOL     OW 1379   0.488   1.385   2.036
  310SOL    HW1 1380   0.401   1.370   2.083
  310SOL    HW2 1381   0.471   1.411   1.941
  311SOL     OW 1382   1.664   1.280   2.519
  311SOL    HW1 1383   1.763   1.288   2.533
  311SOL    HW2 1384   1.619   1.364   2.550
  312SOL     OW 1385   1.390   0.575   1.940
  312SOL    HW1 1386   1.336   0.554   2.021
  312SOL    HW2 1387   1.481   0.534   1.949
  313SOL     OW 1388   0.527   0.256   2.190
  313SOL    HW1 1389   0.554   0.197   2.115
  313SOL    HW2 1390   0.527   0.351   2.159
  314SOL     OW 1391   1.754   1.223   3.450
  314SOL    HW1 1392   1.845   1.184   3.437
  314SOL    HW2 1393   1.762   1.319   3.474
  315SOL     OW 1394   1.064   1.347   3.202
  315SOL    HW1 1395   0.984   1.324   3.257
  315SOL    HW2 1396   1.147   1.321   3.251
  316SOL     OW 1397   1.592   1.629   3.487
  316SOL    HW1 1398   1.619   1.663   3.397
  316SOL    HW2 1399   1.671   1.591   3.533
  317SOL     OW 1400   1.111   1.195   2.962
  317SOL    HW1 1401   1.071   1.239   3.043
  317SOL    HW2 1402   1.070   1.232   2.879
  318SOL     OW 1403   1.638   1.099   2.941
  318SOL    HW1 1404   1.643   1.180   3.000
  318SOL    HW2 1405   1.552   1.101   2.890
  319SOL     OW 1406   0.915   0.089   3.264
  319SOL    HW1 1407   0.940   0.069   3.169
  319SOL    HW2 1408   0.987   0.145   3.306
  320SOL     OW 1409   0.980   1.116   3.581
  320SOL    HW1 1410   0.881   1.122   3.591
  320SOL    HW2 1411   1.003   1.036   3.525
  321SOL     OW 1412   0.705   1.050   2.230
  321SOL    HW1 1413   0.691   1.057   2.329
  321SOL    HW2 1414   0.789   0.999   2.212
  322SOL     OW 1415   0.410   0.813   3.113
  322SOL    HW1 1416   0.496   0.825   3.163
  322SOL    HW2 1417   0.368   0.726   3.140
  323SOL     OW 1418   1.274   0.386   3.124
  323SOL    HW1 1419   1.295   0.460   3.188
  323SOL    HW2 1420   1.185   0.403   3.081
  324SOL     OW 1421   0.064   1.564   3.193
  324SOL    HW1 1422   0.018   1.646   3.159
  324SOL    HW2 1423   0.162   1.583   3.202
  325SOL     OW 1424   0.367   1.100   2.363
  325SOL    HW1 1425   0.360   1.183   2.307
  325SOL    HW2 1426   0.371   1.020   2.303
  326SOL     OW 1427   0.566   0.537   2.727
  326SOL    HW1 1428   0.578   0.603   2.653
  326SOL    HW2 1429   0.612   0.571   2.810
  327SOL     OW 1430   1.252   1.348   2.250
  327SOL    HW1 1431   1.302   1.425   2.290
  327SOL    HW2 1432   1.157   1.350   2.282
  328SOL     OW 1433   1.272   1.445   3.004
  328SOL    HW1 1434   1.319   1.458   3.091
  328SOL    HW2 1435   1.206   1.371   3.013
  329SOL     OW 1436   0.354   1.510   3.191
  329SOL    HW1 1437   0.333   1.466   3.104
  329SOL    HW2 1438   0.451   1.536   3.194
  330SOL     OW 1439   0.402   0.751   3.460
  330SOL    HW1 1440   0.470   0.806   3.413
  330SOL    HW2 1441   0.442   0.663   3.487
  331SOL     OW 1442   1.587   0.779   3.532
  331SOL    HW1 1443   1.495   0.817   3.527
  331SOL    HW2 1444   1.647   0.826   3.467
  332SOL     OW 1445   1.013   0.105   3.632
  332SOL    HW1 1446   1.019   0.190   3.580
  332SOL    HW2 1447   1.045   0.029   3.575
  333SOL     OW 1448   0.504   0.050   3.602
  333SOL    HW1 1449   0.462  -0.007   3.532
  333SOL    HW2 1450   0.438   0.119   3.634
  334SOL     OW 1451   0.573   0.870   2.891
  334SOL    HW1 1452   0.617   0.959   2.882
  334SOL    HW2 1453   0.510   0.870   2.968
  335SOL     OW 1454   1.360   0.862   2.907
  335SOL    HW1 1455   1.285   0.862   2.841
  335SOL    HW2 1456   1.397   0.770   2.916
  336SOL     OW 1457   1.209   0.525   2.137
  336SOL    HW1 1458   1.222   0.441   2.191
  336SOL    HW2 1459   1.180   0.599   2.197
  337SOL     OW 1460   0.307   0.213   3.093
  337SOL    HW1 1461   0.284   0.250   3.183
  337SOL    HW2 1462   0.277   0.118   3.087
  338SOL     OW 1463   0.037   1.310   3.144
  338SOL    HW1 1464   0.090   1.261   3.212
  338SOL    HW2 1465   0.059   1.408   3.149
  339SOL     OW 1466   0.732   0.634   2.926
  339SOL    HW1 1467   0.791   0.608   2.850
  339SOL    HW2 1468   0.704   0.730   2.915
  340SOL     OW 1469   1.728   0.935   3.716
  340SOL    HW1 1470   1.682   0.928   3.627
  340SOL    HW2 1471   1.666   0.979   3.782
  341SOL     OW 1472   0.307   0.063   2.480
  341SOL    HW1 1473   0.296   0.157   2.513
  341SOL    HW2 1474   0.302   0.000   2.557
  342SOL     OW 1475   1.622   0.367   2.236
  342SOL    HW1 1476   1.624   0.291   2.300
  342SOL    HW2 1477   1.574   0.444   2.276
  343SOL     OW 1478   0.980   1.573   3.562
  343SOL    HW1 1479   0.960   1.617   3.474
  343SOL    HW2 1480   1.019   1.482   3.546
  344SOL     OW 1481   1.859   1.518   3.467
  344SOL    HW1 1482   1.873   1.545   3.372
  344SOL    HW2 1483   1.942   1.540   3.520
  345SOL     OW 1484   0.350   0.898   3.666
  345SOL    HW1 1485   0.426   0.942   3.714
  345SOL    HW2 1486   0.385   0.851   3.584
  346SOL     OW 1487   1.540   0.274   1.987
  346SOL    HW1 1488   1.479   0.199   2.010
  346SOL    HW2 1489   1.562   0.326   2.070
  347SOL     OW 1490   1.068   1.333   2.711
  347SOL    HW1 1491   1.075   1.249   2.656
  347SOL    HW2 1492   1.130   1.402   2.675
  348SOL     OW 1493   0.319   0.810   2.811
  348SOL    HW1 1494   0.412   0.846   2.816
  348SOL    HW2 1495   0.313   0.725   2.863
  349SOL     OW 1496   0.339   0.509   2.868
  349SOL    HW1 1497   0.287   0.426   2.851
  349SOL    HW2 1498   0.416   0.514   2.804
  350SOL     OW 1499   1.138   0.380   3.540
  350SOL    HW1 1500   1.093   0.443   3.604
  350SOL    HW2 1501   1.231   0.411   3.523
  351SOL     OW 1502   1.160   0.207   3.339
  351SOL    HW1 1503   1.160   0.271   3.416
  351SOL    HW2 1504   1.188   0.255   3.256
  352SOL     OW 1505   0.008   1.326   2.062
  352SOL    HW1 1506  -0.085   1.347   2.031
  352SOL    HW2 1507   0.018   1.227   2.075
  353SOL     OW 1508   0.088   1.801   2.789
  353SOL    HW1 1509   0.046   1.715   2.762
  353SOL    HW2 1510   0.182   1.804   2.755
  354SOL     OW 1511   0.504   1.568   2.772
  354SOL    HW1 1512   0.570   1.642   2.781
  354SOL    HW2 1513   0.548   1.489   2.730
  355SOL     OW 1514   1.002   0.796   3.100
  355SOL    HW1 1515   1.043   0.764   3.186
  355SOL    HW2 1516   0.906   0.769   3.097
  356SOL     OW 1517   0.040   0.544   2.976
  356SOL    HW1 1518   0.125   0.511   2.935
  356SOL    HW2 1519   0.053   0.559   3.074
  357SOL     OW 1520   0.189   0.520   3.584
  357SOL    HW1 1521   0.248   0.480   3.514
  357SOL    HW2 1522   0.131   0.591   3.543
  358SOL     OW 1523   1.369   0.950   3.522
  358SOL    HW1 1524   1.408   1.039   3.542
  358SOL    HW2 1525   1.379   0.930   3.425
  359SOL     OW 1526   1.657   0.604   3.068
  359SOL    HW1 1527   1.619   0.535   3.130
  359SOL    HW2 1528   1.739   0.568   3.024
  360SOL     OW 1529   0.252   1.564   3.606
  360SOL    HW1 1530   0.222   1.621   3.682
  360SOL    HW2 1531   0.245   1.467   3.632
  361SOL     OW 1532   0.671   0.464   3.131
  361SOL    HW1 1533   0.637   0.375   3.101
  361SOL    HW2 1534   0.697   0.518   3.051
  362SOL     OW 1535   0.930   1.678   3.327
  362SOL    HW1 1536   0.906   1.660   3.232
  362SOL    HW2 1537   0.960   1.772   3.337
  363SOL     OW 1538   0.473   0.500   2.053
  363SOL    HW1 1539   0.534   0.580   2.057
  363SOL    HW2 1540   0.378   0.531   2.060
  364SOL     OW 1541   0.159   1.137   3.328
  364SOL    HW1 1542   0.181   1.076   3.404
  364SOL    HW2 1543   0.169   1.088   3.242
  365SOL     OW 1544   1.347   1.059   3.096
  365SOL    HW1 1545   1.371   0.996   3.022
  365SOL    HW2 1546   1.257   1.099   3.078
  366SOL     OW 1547   1.759   1.747   3.016
  366SOL    HW1 1548   1.820   1.777   2.943
  366SOL    HW2 1549   1.721   1.658   2.994
  367SOL     OW 1550   1.252   1.731   2.990
  367SOL    HW1 1551   1.336   1.736   2.936
  367SOL    HW2 1552   1.229   1.635   3.008
  368SOL     OW 1553   0.083   1.258   2.884
  368SOL    HW1 1554   0.078   1.257   2.984
  368SOL    HW2 1555   0.000   1.217   2.846
  369SOL     OW 1556   0.688   1.662   3.578
  369SOL    HW1 1557   0.632   1.743   3.587
  369SOL    HW2 1558   0.740   1.666   3.492
  370SOL     OW 1559   1.726   0.135   2.385
  370SOL    HW1 1560   1.799   0.118   2.318
  370SOL    HW2 1561   1.695   0.048   2.423
  371SOL     OW 1562   1.388   1.573   2.339
  371SOL    HW1 1563   1.455   1.585   2.265
  371SOL    HW2 1564   1.348   1.662   2.362
  372SOL     OW 1565   0.130   1.794   3.713
  372SOL    HW1 1566   0.089   1.720   3.766
  372SOL    HW2 1567   0.194   1.845   3.771
  373SOL     OW 1568   0.830   1.273   3.284
  373SOL    HW1 1569   0.825   1.306   3.379
  373SOL    HW2 1570   0.744   1.292   3.238
  374SOL     OW 1571   0.672   1.616   2.016
  374SOL    HW1 1572   0.681   1.626   1.917
  374SOL    HW2 1573   0.632   1.527   2.037
  375SOL     OW 1574   1.650   1.720   3.256
  375SOL    HW1 1575   1.703   1.730   3.172
  375SOL    HW2 1576   1.623   1.810   3.290
  376SOL     OW 1577   1.841   0.175   2.825
  376SOL    HW1 1578   1.880   0.090   2.789
  376SOL    HW2 1579   1.743   0.177   2.806
  377SOL     OW 1580   0.263   0.326   2.582
  377SOL    HW1 1581   0.184   0.377   2.548
  377SOL    HW2 1582   0.254   0.311   2.680
  378SOL     OW 1583   1.194   1.612   1.893
  378SOL    HW1 1584   1.200   1.519   1.930
  378SOL    HW2 1585   1.135   1.612   1.813
  379SOL     OW 1586   0.822   1.002   3.234
  379SOL    HW1 1587   0.862   1.001   3.142
  379SOL    HW2 1588   0.832   1.094   3.274
  380SOL     OW 1589   1.504   1.607   1.906
  380SOL    HW1 1590   1.412   1.644   1.913
  380SOL    HW2 1591   1.542   1.627   1.816
  381SOL     OW 1592   0.372   1.288   3.352
  381SOL    HW1 1593   0.359   1.381   3.318
  381SOL    HW2 1594   0.288   1.236   3.339
  382SOL     OW 1595   1.614   1.292   3.151
  382SOL    HW1 1596   1.674   1.295   3.231
  382SOL    HW2 1597   1.539   1.356   3.164
  383SOL     OW 1598   1.014   0.236   2.833
  383SOL    HW1 1599   1.006   0.200   2.740
  383SOL    HW2 1600   1.012   0.160   2.898
  384SOL     OW 1601   0.590   1.487   2.353
  384SOL    HW1 1602   0.632   1.429   2.283
  384SOL    HW2 1603   0.546   1.566   2.309
  385SOL     OW 1604   1.709   0.385   3.243
  385SOL    HW1 1605   1.782   0.454   3.247
  385SOL    HW2 1606   1.737   0.310   3.184
  386SOL     OW 1607   0.255   1.348   2.152
  386SOL    HW1 1608   0.159   1.349   2.125
  386SOL    HW2 1609   0.267   1.401   2.236
  387SOL     OW 1610   0.105   1.013   3.588
  387SOL    HW1 1611   0.028   0.980   3.642
  387SOL    HW2 1612   0.190   0.983   3.630
  388SOL     OW 1613   0.672   0.203   3.351
  388SOL    HW1 1614   0.762   0.187   3.311
  388SOL    HW2 1615   0.680   0.208   3.450
  389SOL     OW 1616   0.075   0.345   1.895
  389SOL    HW1 1617  -0.017   0.317   1.866
  389SOL    HW2 1618   0.106   0.422   1.839
  390SOL     OW 1619   1.440   0.856   3.260
  390SOL    HW1 1620   1.383   0.908   3.197
  390SOL    HW2 1621   1.536   0.868   3.236
  391SOL     OW 1622   0.072   0.166   2.180
  391SOL    HW1 1623   0.055   0.249   2.126
  391SOL    HW2 1624   0.162   0.129   2.158
  392SOL     OW 1625   1.183   1.335   1.981
  392SOL    HW1 1626   1.084   1.324   1.983
  392SOL    HW2 1627   1.217   1.350   2.074
  393SOL     OW 1628   0.613   0.842   3.293
  393SOL    HW1 1629   0.669   0.923   3.276
  393SOL    HW2 1630   0.672   0.762   3.296
  394SOL     OW 1631   1.493   1.767   2.821
  394SOL    HW1 1632   1.526   1.831   2.752
  394SOL    HW2 1633   1.559   1.761   2.896
  395SOL     OW 1634   0.716   0.565   3.570
  395SOL    HW1 1635   0.735   0.630   3.644
  395SOL    HW2 1636   0.776   0.485   3.579
  396SOL     OW 1637   1.450   1.220   3.495
  396SOL    HW1 1638   1.441   1.210   3.594
  396SOL    HW2 1639   1.546   1.213   3.469
  397SOL     OW 1640   0.390   1.741   3.422
  397SOL    HW1 1641   0.299   1.782   3.420
  397SOL    HW2 1642   0.383   1.647   3.454
  398SOL     OW 1643   1.674   0.883   3.116
  398SOL    HW1 1644   1.647   0.794   3.079
  398SOL    HW2 1645   1.675   0.951   3.043
  399SOL     OW 1646   1.225   0.325   2.311
  399SOL    HW1 1647   1.290   0.251   2.300
  399SOL    HW2 1648   1.245   0.375   2.395
  400SOL     OW 1649   0.594   0.745   2.514
  400SOL    HW1 1650   0.644   0.830   2.495
  400SOL    HW2 1651   0.506   0.747   2.466
  401SOL     OW 1652   1.777   0.342   3.504
  401SOL    HW1 1653   1.760   0.373   3.410
  401SOL    HW2 1654   1.693   0.305   3.542
  402SOL     OW 1655   1.730   0.934   3.379
  402SOL    HW1 1656   1.768   1.025   3.394
  402SOL    HW2 1657   1.722   0.917   3.280
  403SOL     OW 1658   0.859   1.374   1.878
  403SOL    HW1 1659   0.813   1.389   1.966
  403SOL    HW2 1660   0.903   1.459   1.848
  404SOL     OW 1661   0.661   1.790   2.815
  404SOL    HW1 1662   0.615   1.878   2.802
  404SOL    HW2 1663   0.760   1.802   2.808
  405SOL     OW 1664   0.859   0.956   2.723
  405SOL    HW1 1665   0.913   0.887   2.771
  405SOL    HW2 1666   0.827   1.025   2.789
  406SOL     OW 1667   1.083   0.984   1.949
  406SOL    HW1 1668   1.060   1.037   1.867
  406SOL    HW2 1669   1.164   0.928   1.930
  407SOL     OW 1670   1.861   1.569   2.713
  407SOL    HW1 1671   1.790   1.557   2.643
  407SOL    HW2 1672   1.862   1.490   2.773
  408SOL     OW 1673   0.221   1.314   3.706
  408SOL    HW1 1674   0.156   1.241   3.685
  408SOL    HW2 1675   0.225   1.328   3.804
  409SOL     OW 1676   0.079   1.240   2.515
  409SOL    HW1 1677   0.078   1.193   2.603
  409SOL    HW2 1678   0.161   1.212   2.464
  410SOL     OW 1679   0.672   1.391   3.486
  410SOL    HW1 1680   0.594   1.341   3.524
  410SOL    HW2 1681   0.669   1.486   3.517
  411SOL     OW 1682   1.824   0.192   3.089
  411SOL    HW1 1683   1.820   0.102   3.133
  411SOL    HW2 1684   1.827   0.181   2.990
  412SOL     OW 1685   0.428   0.424   2.382
  412SOL    HW1 1686   0.458   0.352   2.320
  412SOL    HW2 1687   0.389   0.384   2.465
  413SOL     OW 1688   1.705   1.487   2.966
  413SOL    HW1 1689   1.612   1.462   2.939
  413SOL    HW2 1690   1.731   1.437   3.048
  414SOL     OW 1691   0.317   0.547   3.142
  414SOL    HW1 1692   0.355   0.488   3.214
  414SOL    HW2 1693   0.357   0.521   3.054
  415SOL     OW 1694   0.812   1.586   2.549
  415SOL    HW1 1695   0.844   1.596   2.455
  415SOL    HW2 1696   0.733   1.524   2.551
  416SOL     OW 1697   1.424   0.214   2.974
  416SOL    HW1 1698   1.476   0.149   3.029
  416SOL    HW2 1699   1.375   0.277   3.035
  417SOL     OW 1700   1.001   0.034   3.016
  417SOL    HW1 1701   0.938  -0.038   2.985
  417SOL    HW2 1702   1.094  -0.002   3.016
  418SOL     OW 1703   0.770   1.330   2.163
  418SOL    HW1 1704   0.724   1.243   2.180
  418SOL    HW2 1705   0.861   1.327   2.204
  419SOL     OW 1706   0.618   1.567   3.146
  419SOL    HW1 1707   0.613   1.649   3.203
  419SOL    HW2 1708   0.707   1.564   3.101
  420SOL     OW 1709   1.352   0.052   2.030
  420SOL    HW1 1710   1.387   0.011   1.946
  420SOL    HW2 1711   1.262   0.014   2.050
  421SOL     OW 1712   1.300   0.453   2.553
  421SOL    HW1 1713   1.241   0.533   2.557
  421SOL    HW2 1714   1.315   0.418   2.646
  422SOL     OW 1715   1.593   0.221   2.744
  422SOL    HW1 1716   1.509   0.220   2.798
  422SOL    HW2 1717   1.595   0.304   2.688
  423SOL     OW 1718   0.039   1.077   2.162
  423SOL    HW1 1719   0.138   1.066   2.153
  423SOL    HW2 1720  -0.001   0.991   2.194
  424SOL     OW 1721   0.875   1.646   2.199
  424SOL    HW1 1722   0.798   1.611   2.145
  424SOL    HW2 1723   0.843   1.717   2.261
  425SOL     OW 1724   0.230   0.628   3.837
  425SOL    HW1 1725   0.137   0.626   3.874
  425SOL    HW2 1726   0.231   0.589   3.745
  426SOL     OW 1727   0.225   0.275   4.720
  426SOL    HW1 1728   0.260   0.258   4.812
  426SOL    HW2 1729   0.137   0.230   4.708
  427SOL     OW 1730   0.019   0.368   4.371
  427SOL    HW1 1731  -0.063   0.411   4.410
  427SOL    HW2 1732  -0.009   0.295   4.308
  428SOL     OW 1733   0.569   1.275   4.889
  428SOL    HW1 1734   0.476   1.268   4.852
  428SOL    HW2 1735   0.580   1.364   4.933
  429SOL     OW 1736   1.555   1.511   4.427
  429SOL    HW1 1737   1.498   1.495   4.508
  429SOL    HW2 1738   1.496   1.521   4.347
  430SOL     OW 1739   1.135   0.703   4.441
  430SOL    HW1 1740   1.192   0.781   4.416
  430SOL    HW2 1741   1.075   0.729   4.517
  431SOL     OW 1742   1.755   0.607   3.955
  431SOL    HW1 1743   1.743   0.594   3.856
  431SOL    HW2 1744   1.725   0.526   4.004
  432SOL     OW 1745   0.768   1.144   4.747
  432SOL    HW1 1746   0.690   1.161   4.807
  432SOL    HW2 1747   0.802   1.231   4.711
  433SOL     OW 1748   0.685   1.012   4.389
  433SOL    HW1 1749   0.754   0.996   4.459
  433SOL    HW2 1750   0.612   1.069   4.427
  434SOL     OW 1751   0.335   1.435   4.785
  434SOL    HW1 1752   0.257   1.404   4.732
  434SOL    HW2 1753   0.393   1.493   4.728
  435SOL     OW 1754   0.231   1.713   4.207
  435SOL    HW1 1755   0.265   1.790   4.261
  435SOL    HW2 1756   0.275   1.713   4.117
  436SOL     OW 1757   0.230   1.434   4.262
  436SOL    HW1 1758   0.204   1.530   4.262
  436SOL    HW2 1759   0.159   1.380   4.307
  437SOL     OW 1760   0.240   1.091   4.610
  437SOL    HW1 1761   0.254   1.007   4.662
  437SOL    HW2 1762   0.185   1.155   4.665
  438SOL     OW 1763   0.620   1.786   5.163
  438SOL    HW1 1764   0.528   1.769   5.198
  438SOL    HW2 1765   0.648   1.878   5.189
  439SOL     OW 1766   0.606   0.964   3.847
  439SOL    HW1 1767   0.613   1.048   3.793
  439SOL    HW2 1768   0.652   0.977   3.935
  440SOL     OW 1769   0.122   0.643   4.287
  440SOL    HW1 1770   0.077   0.555   4.304
  440SOL    HW2 1771   0.121   0.697   4.371
  441SOL     OW 1772   1.842   1.767   4.083
  441SOL    HW1 1773   1.896   1.738   4.163
  441SOL    HW2 1774   1.872   1.857   4.054
  442SOL     OW 1775   0.027   1.596   3.841
  442SOL    HW1 1776   0.008   1.500   3.862
  442SOL    HW2 1777  -0.006   1.654   3.916
  443SOL     OW 1778   0.613   1.365   4.450
  443SOL    HW1 1779   0.564   1.278   4.459
  443SOL    HW2 1780   0.590   1.408   4.363
  444SOL     OW 1781   0.809   0.004   4.226
  444SOL    HW1 1782   0.849   0.095   4.217
  444SOL    HW2 1783   0.709   0.012   4.232
  445SOL     OW 1784   0.197   0.976   4.988
  445SOL    HW1 1785   0.286   0.931   4.974
  445SOL    HW2 1786   0.124   0.911   4.969
  446SOL     OW 1787   1.466   1.417   4.677
  446SOL    HW1 1788   1.407   1.423   4.757
  446SOL    HW2 1789   1.451   1.329   4.631
  447SOL     OW 1790   1.667   1.714   4.296
  447SOL    HW1 1791   1.626   1.691   4.208
  447SOL    HW2 1792   1.649   1.640   4.361
  448SOL     OW 1793   0.598   0.729   3.994
  448SOL    HW1 1794   0.622   0.798   3.926
  448SOL    HW2 1795   0.520   0.762   4.048
  449SOL     OW 1796   1.281   0.345   4.668
  449SOL    HW1 1797   1.195   0.295   4.655
  449SOL    HW2 1798   1.343   0.291   4.724
  450SOL     OW 1799   1.576   1.662   4.031
  450SOL    HW1 1800   1.665   1.708   4.034
  450SOL    HW2 1801   1.555   1.638   3.936
  451SOL     OW 1802   0.991   0.410   4.966
  451SOL    HW1 1803   0.914   0.444   5.020
  451SOL    HW2 1804   0.957   0.359   4.887
  452SOL     OW 1805   0.076   0.811   4.513
  452SOL    HW1 1806   0.175   0.799   4.522
  452SOL    HW2 1807   0.052   0.906   4.534
  453SOL     OW 1808   0.130   1.821   5.295
  453SOL    HW1 1809   0.120   1.806   5.394
  453SOL    HW2 1810   0.044   1.857   5.259
  454SOL     OW 1811   0.865   0.348   3.919
  454SOL    HW1 1812   0.924   0.411   3.870
  454SOL    HW2 1813   0.884   0.254   3.890
  455SOL     OW 1814   1.362   1.144   4.269
  455SOL    HW1 1815   1.445   1.115   4.221
  455SOL    HW2 1816   1.313   1.211   4.213
  456SOL     OW 1817   0.550   0.196   4.609
  456SOL    HW1 1818   0.545   0.191   4.709
  456SOL    HW2 1819   0.552   0.292   4.580
  457SOL     OW 1820   1.008   1.456   4.201
  457SOL    HW1 1821   0.962   1.528   4.149
  457SOL    HW2 1822   1.004   1.476   4.299
  458SOL     OW 1823   1.795   1.066   4.597
  458SOL    HW1 1824   1.733   1.051   4.521
  458SOL    HW2 1825   1.743   1.077   4.682
  459SOL     OW 1826   0.321   0.943   3.966
  459SOL    HW1 1827   0.403   0.982   3.924
  459SOL    HW2 1828   0.294   0.861   3.917
  460SOL     OW 1829   1.458   0.735   4.452
  460SOL    HW1 1830   1.453   0.670   4.527
  460SOL    HW2 1831   1.538   0.794   4.465
  461SOL     OW 1832   1.111   1.776   3.961
  461SOL    HW1 1833   1.051   1.714   4.011
  461SOL    HW2 1834   1.142   1.732   3.876
  462SOL     OW 1835   1.632   1.377   3.805
  462SOL    HW1 1836   1.600   1.471   3.795
  462SOL    HW2 1837   1.556   1.314   3.793
  463SOL     OW 1838   0.464   1.743   4.047
  463SOL    HW1 1839   0.497   1.782   4.133
  463SOL    HW2 1840   0.540   1.736   3.982
  464SOL     OW 1841   1.400   0.107   4.150
  464SOL    HW1 1842   1.376   0.070   4.060
  464SOL    HW2 1843   1.499   0.123   4.154
  465SOL     OW 1844   0.249   1.785   4.965
  465SOL    HW1 1845   0.306   1.720   5.015
  465SOL    HW2 1846   0.233   1.752   4.872
  466SOL     OW 1847   0.940   1.698   4.628
  466SOL    HW1 1848   1.020   1.641   4.649
  466SOL    HW2 1849   0.891   1.658   4.551
  467SOL     OW 1850   0.382   0.700   4.204
  467SOL    HW1 1851   0.427   0.610   4.201
  467SOL    HW2 1852   0.288   0.689   4.237
  468SOL     OW 1853   0.614   0.122   3.841
  468SOL    HW1 1854   0.712   0.100   3.848
  468SOL    HW2 1855   0.583   0.105   3.748
  469SOL     OW 1856   0.803   1.402   4.648
  469SOL    HW1 1857   0.893   1.416   4.606
  469SOL    HW2 1858   0.732   1.404   4.577
  470SOL     OW 1859   0.922   0.503   4.623
  470SOL    HW1 1860   0.897   0.494   4.527
  470SOL    HW2 1861   0.970   0.421   4.654
  471SOL     OW 1862   0.539   0.064   4.236
  471SOL    HW1 1863   0.458   0.065   4.294
  471SOL    HW2 1864   0.542   0.147   4.181
  472SOL     OW 1865   1.434   1.188   3.765
  472SOL    HW1 1866   1.466   1.112   3.822
  472SOL    HW2 1867   1.342   1.215   3.795
  473SOL     OW 1868   0.297   0.035   3.895
  473SOL    HW1 1869   0.346   0.119   3.874
  473SOL    HW2 1870   0.359  -0.030   3.940
  474SOL     OW 1871   1.227   1.570   4.517
  474SOL    HW1 1872   1.248   1.644   4.452
  474SOL    HW2 1873   1.295   1.570   4.590
  475SOL     OW 1874   0.459   1.152   4.465
  475SOL    HW1 1875   0.388   1.125   4.530
  475SOL    HW2 1876   0.433   1.124   4.372
  476SOL     OW 1877   1.271   1.797   4.315
  476SOL    HW1 1878   1.315   1.861   4.251
  476SOL    HW2 1879   1.221   1.849   4.385
  477SOL     OW 1880   0.561   0.222   4.871
  477SOL    HW1 1881   0.599   0.138   4.908
  477SOL    HW2 1882   0.473   0.241   4.915
  478SOL     OW 1883   0.866   0.454   4.366
  478SOL    HW1 1884   0.834   0.526   4.304
  478SOL    HW2 1885   0.890   0.373   4.313
  479SOL     OW 1886   1.017   0.039   4.477
  479SOL    HW1 1887   0.945   0.044   4.408
  479SOL    HW2 1888   0.993  -0.030   4.546
  480SOL     OW 1889   1.429   1.173   4.591
  480SOL    HW1 1890   1.374   1.089   4.584
  480SOL    HW2 1891   1.455   1.202   4.499
  481SOL     OW 1892   1.466   0.590   4.716
  481SOL    HW1 1893   1.436   0.495   4.723
  481SOL    HW2 1894   1.539   0.606   4.782
  482SOL     OW 1895   1.857   0.833   4.101
  482SOL    HW1 1896   1.899   0.769   4.165
  482SOL    HW2 1897   1.819   0.782   4.023
  483SOL     OW 1898   0.488   1.385   3.898
  483SOL    HW1 1899   0.401   1.370   3.945
  483SOL    HW2 1900   0.471   1.411   3.803
  484SOL     OW 1901   1.664   1.280   4.381
  484SOL    HW1 1902   1.763   1.288   4.395
  484SOL    HW2 1903   1.619   1.364   4.412
  485SOL     OW 1904   0.527   0.256   4.052
  485SOL    HW1 1905   0.554   0.197   3.977
  485SOL    HW2 1906   0.527   0.351   4.021
  486SOL     OW 1907   1.111   1.195   4.824
  486SOL    HW1 1908   1.071   1.239   4.905
  486SOL    HW2 1909   1.070   1.232   4.741
  487SOL     OW 1910   1.638   1.099   4.803
  487SOL    HW1 1911   1.643   1.180   4.862
  487SOL    HW2 1912   1.552   1.101   4.752
  488SOL     OW 1913   0.705   1.050   4.092
  488SOL    HW1 1914   0.691   1.057   4.191
  488SOL    HW2 1915   0.789   0.999   4.074
  489SOL     OW 1916   0.410   0.813   4.975
  489SOL    HW1 1917   0.496   0.825   5.025
  489SOL    HW2 1918   0.368   0.726   5.002
  490SOL     OW 1919   1.274   0.386   4.986
  490SOL    HW1 1920   1.295   0.460   5.050
  490SOL    HW2 1921   1.185   0.403   4.943
  491SOL     OW 1922   0.367   1.100   4.225
  491SOL    HW1 1923   0.360   1.183   4.169
  491SOL    HW2 1924   0.371   1.020   4.165
  492SOL     OW 1925   0.566   0.537   4.589
  492SOL    HW1 1926   0.578   0.603   4.515
  492SOL    HW2 1927   0.612   0.571   4.672
  493SOL     OW 1928   1.252   1.348   4.112
  493SOL    HW1 1929   1.302   1.425   4.152
  493SOL    HW2 1930   1.157   1.350   4.144
  494SOL     OW 1931   1.272   1.445   4.866
  494SOL    HW1 1932   1.319   1.458   4.953
  494SOL    HW2 1933   1.206   1.371   4.875
  495SOL     OW 1934   0.354   1.510   5.053
  495SOL    HW1 1935   0.333   1.466   4.966
  495SOL    HW2 1936   0.451   1.536   5.056
  496SOL     OW 1937   0.573   0.870   4.753
  496SOL    HW1 1938   0.617   0.959   4.744
  496SOL    HW2 1939   0.510   0.870   4.830
  497SOL     OW 1940   1.360   0.862   4.769
  497SOL    HW1 1941   1.285   0.862   4.703
  497SOL    HW2 1942   1.397   0.770   4.778
  498SOL     OW 1943   0.307   0.213   4.955
  498SOL    HW1 1944   0.284   0.250   5.045
  498SOL    HW2 1945   0.277   0.118   4.949
  499SOL     OW 1946   0.037   1.310   5.006
  499SOL    HW1 1947   0.090   1.261   5.074
  499SOL    HW2 1948   0.059   1.408   5.011
  500SOL     OW 1949   0.732   0.634   4.788
  500SOL    HW1 1950   0.791   0.608   4.712
  500SOL    HW2 1951   0.704   0.730   4.777
  501SOL     OW 1952   0.307   0.063   4.342
  501SOL    HW1 1953   0.296   0.157   4.375
  501SOL    HW2 1954   0.302   0.000   4.419
  502SOL     OW 1955   1.622   0.367   4.098
  502SOL    HW1 1956   1.624   0.291   4.162
  502SOL    HW2 1957   1.574   0.444   4.138
  503SOL     OW 1958   1.023   0.766   4.690
  503SOL    HW1 1959   1.038   0.787   4.786
  503SOL    HW2 1960   0.993   0.671   4.681
  504SOL     OW 1961   1.540   0.274   3.849
  504SOL    HW1 1962   1.479   0.199   3.872
  504SOL    HW2 1963   1.562   0.326   3.932
  505SOL     OW 1964   1.068   1.333   4.573
  505SOL    HW1 1965   1.075   1.249   4.518
  505SOL    HW2 1966   1.130   1.402   4.537
  506SOL     OW 1967   0.319   0.810   4.673
  506SOL    HW1 1968   0.412   0.846   4.678
  506SOL    HW2 1969   0.313   0.725   4.725
  507SOL     OW 1970   0.339   0.509   4.730
  507SOL    HW1 1971   0.287   0.426   4.713
  507SOL    HW2 1972   0.416   0.514   4.666
  508SOL     OW 1973   1.160   0.207   5.201
  508SOL    HW1 1974   1.160   0.271   5.278
  508SOL    HW2 1975   1.188   0.255   5.118
  509SOL     OW 1976   0.008   1.326   3.924
  509SOL    HW1 1977  -0.085   1.347   3.893
  509SOL    HW2 1978   0.018   1.227   3.937
  510SOL     OW 1979   0.088   1.801   4.651
  510SOL    HW1 1980   0.046   1.715   4.624
  510SOL    HW2 1981   0.182   1.804   4.617
  511SOL     OW 1982   0.504   1.568   4.634
  511SOL    HW1 1983   0.570   1.642   4.643
  511SOL    HW2 1984   0.548   1.489   4.592
  512SOL     OW 1985   1.002   0.796   4.962
  512SOL    HW1 1986   1.043   0.764   5.048
  512SOL    HW2 1987   0.906   0.769   4.959
  513SOL     OW 1988   0.040   0.544   4.838
  513SOL    HW1 1989   0.125   0.511   4.797
  513SOL    HW2 1990   0.053   0.559   4.936
  514SOL     OW 1991   0.815   0.572   4.049
  514SOL    HW1 1992   0.822   0.483   4.003
  514SOL    HW2 1993   0.721   0.606   4.041
  515SOL     OW 1994   1.657   0.604   4.930
  515SOL    HW1 1995   1.619   0.535   4.992
  515SOL    HW2 1996   1.739   0.568   4.886
  516SOL     OW 1997   0.671   0.464   4.993
  516SOL    HW1 1998   0.637   0.375   4.963
  516SOL    HW2 1999   0.697   0.518   4.913
  517SOL     OW 2000   0.930   1.678   5.189
  517SOL    HW1 2001   0.906   1.660   5.094
  517SOL    HW2 2002   0.960   1.772   5.199
  518SOL     OW 2003   0.473   0.500   3.915
  518SOL    HW1 2004   0.534   0.580   3.919
  518SOL    HW2 2005   0.378   0.531   3.922
  519SOL     OW 2006   1.347   1.059   4.958
  519SOL    HW1 2007   1.371   0.996   4.884
  519SOL    HW2 2008   1.257   1.099   4.940
  520SOL     OW 2009   1.759   1.747   4.878
  520SOL    HW1 2010   1.820   1.777   4.805
  520SOL    HW2 2011   1.721   1.658   4.856
  521SOL     OW 2012   1.252   1.731   4.852
  521SOL    HW1 2013   1.336   1.736   4.798
  521SOL    HW2 2014   1.229   1.635   4.870
  522SOL     OW 2015   0.083   1.258   4.746
  522SOL    HW1 2016   0.078   1.257   4.846
  522SOL    HW2 2017   0.000   1.217   4.708
  523SOL     OW 2018   1.726   0.135   4.247
  523SOL    HW1 2019   1.799   0.118   4.180
  523SOL    HW2 2020   1.695   0.048   4.285
  524SOL     OW 2021   1.388   1.573   4.201
  524SOL    HW1 2022   1.455   1.585   4.127
  524SOL    HW2 2023   1.348   1.662   4.224
  525SOL     OW 2024   1.280   0.927   4.396
  525SOL    HW1 2025   1.340   0.846   4.398
  525SOL    HW2 2026   1.320   0.996   4.336
  526SOL     OW 2027   0.672   1.616   3.878
  526SOL    HW1 2028   0.681   1.626   3.779
  526SOL    HW2 2029   0.632   1.527   3.899
  527SOL     OW 2030   1.650   1.720   5.118
  527SOL    HW1 2031   1.703   1.730   5.034
  527SOL    HW2 2032   1.623   1.810   5.152
  528SOL     OW 2033   1.841   0.175   4.687
  528SOL    HW1 2034   1.880   0.090   4.651
  528SOL    HW2 2035   1.743   0.177   4.668
  529SOL     OW 2036   0.263   0.326   4.444
  529SOL    HW1 2037   0.184   0.377   4.410
  529SOL    HW2 2038   0.254   0.311   4.542
  530SOL     OW 2039   1.194   1.612   3.755
  530SOL    HW1 2040   1.200   1.519   3.792
  530SOL    HW2 2041   1.135   1.612   3.675
  531SOL     OW 2042   0.822   1.002   5.096
  531SOL    HW1 2043   0.862   1.001   5.004
  531SOL    HW2 2044   0.832   1.094   5.136
  532SOL     OW 2045   0.916   0.910   4.015
  532SOL    HW1 2046   0.979   0.948   3.947
  532SOL    HW2 2047   0.956   0.827   4.054
  533SOL     OW 2048   1.504   1.607   3.768
  533SOL    HW1 2049   1.412   1.644   3.775
  533SOL    HW2 2050   1.542   1.627   3.678
  534SOL     OW 2051   1.039   1.098   4.420
  534SOL    HW1 2052   0.969   1.051   4.474
  534SOL    HW2 2053   1.098   1.030   4.377
  535SOL     OW 2054   1.014   0.236   4.695
  535SOL    HW1 2055   1.006   0.200   4.602
  535SOL    HW2 2056   1.012   0.160   4.760
  536SOL     OW 2057   0.590   1.487   4.215
  536SOL    HW1 2058   0.632   1.429   4.145
  536SOL    HW2 2059   0.546   1.566   4.171
  537SOL     OW 2060   1.709   0.385   5.105
  537SOL    HW1 2061   1.782   0.454   5.109
  537SOL    HW2 2062   1.737   0.310   5.046
  538SOL     OW 2063   0.255   1.348   4.014
  538SOL    HW1 2064   0.159   1.349   3.987
  538SOL    HW2 2065   0.267   1.401   4.098
  539SOL     OW 2066   0.075   0.345   3.757
  539SOL    HW1 2067  -0.017   0.317   3.728
  539SOL    HW2 2068   0.106   0.422   3.701
  540SOL     OW 2069   0.072   0.166   4.042
  540SOL    HW1 2070   0.055   0.249   3.988
  540SOL    HW2 2071   0.162   0.129   4.020
  541SOL     OW 2072   1.183   1.335   3.843
  541SOL    HW1 2073   1.084   1.324   3.845
  541SOL    HW2 2074   1.217   1.350   3.936
  542SOL     OW 2075   1.493   1.767   4.683
  542SOL    HW1 2076   1.526   1.831   4.614
  542SOL    HW2 2077   1.559   1.761   4.758
  543SOL     OW 2078   1.450   1.220   5.357
  543SOL    HW1 2079   1.441   1.210   5.456
  543SOL    HW2 2080   1.546   1.213   5.331
  544SOL     OW 2081   1.674   0.883   4.978
  544SOL    HW1 2082   1.647   0.794   4.941
  544SOL    HW2 2083   1.675   0.951   4.905
  545SOL     OW 2084   0.594   0.745   4.376
  545SOL    HW1 2085   0.644   0.830   4.357
  545SOL    HW2 2086   0.506   0.747   4.328
  546SOL     OW 2087   1.730   0.934   5.241
  546SOL    HW1 2088   1.768   1.025   5.256
  546SOL    HW2 2089   1.722   0.917   5.142
  547SOL     OW 2090   0.859   1.374   3.740
  547SOL    HW1 2091   0.813   1.389   3.828
  547SOL    HW2 2092   0.903   1.459   3.710
  548SOL     OW 2093   0.661   1.790   4.677
  548SOL    HW1 2094   0.615   1.878   4.664
  548SOL    HW2 2095   0.760   1.802   4.670
  549SOL     OW 2096   0.859   0.956   4.585
  549SOL    HW1 2097   0.913   0.887   4.633
  549SOL    HW2 2098   0.827   1.025   4.651
  550SOL     OW 2099   1.083   0.984   3.811
  550SOL    HW1 2100   1.060   1.037   3.729
  550SOL    HW2 2101   1.164   0.928   3.792
  551SOL     OW 2102   1.861   1.569   4.575
  551SOL    HW1 2103   1.790   1.557   4.505
  551SOL    HW2 2104   1.862   1.490   4.635
  552SOL     OW 2105   0.079   1.240   4.377
  552SOL    HW1 2106   0.078   1.193   4.465
  552SOL    HW2 2107   0.161   1.212   4.326
  553SOL     OW 2108   1.824   0.192   4.951
  553SOL    HW1 2109   1.820   0.102   4.995
  553SOL    HW2 2110   1.827   0.181   4.852
  554SOL     OW 2111   0.428   0.424   4.244
  554SOL    HW1 2112   0.458   0.352   4.182
  554SOL    HW2 2113   0.389   0.384   4.327
  555SOL     OW 2114   1.705   1.487   4.828
  555SOL    HW1 2115   1.612   1.462   4.801
  555SOL    HW2 2116   1.731   1.437   4.910
  556SOL     OW 2117   0.812   1.586   4.411
  556SOL    HW1 2118   0.844   1.596   4.317
  556SOL    HW2 2119   0.733   1.524   4.413
  557SOL     OW 2120   1.424   0.214   4.836
  557SOL    HW1 2121   1.476   0.149   4.891
  557SOL    HW2 2122   1.375   0.277   4.897
  558SOL     OW 2123   1.001   0.034   4.878
  558SOL    HW1 2124   0.938  -0.038   4.847
  558SOL    HW2 2125   1.094  -0.002   4.878
  559SOL     OW 2126   0.770   1.330   4.025
  559SOL    HW1 2127   0.724   1.243   4.042
  559SOL    HW2 2128   0.861   1.327   4.066
  560SOL     OW 2129   1.352   0.052   3.892
  560SOL    HW1 2130   1.387   0.011   3.808
  560SOL    HW2 2131   1.262   0.014   3.912
  561SOL     OW 2132   1.593   0.221   4.606
  561SOL    HW1 2133   1.509   0.220   4.660
  561SOL    HW2 2134   1.595   0.304   4.550
  562SOL     OW 2135   0.039   1.077   4.024
  562SOL    HW1 2136   0.138   1.066   4.015
  562SOL    HW2 2137  -0.001   0.991   4.056
  563SOL     OW 2138   0.875   1.646   4.061
  563SOL    HW1 2139   0.798   1.611   4.007
  563SOL    HW2 2140   0.843   1.717   4.123
  564SOL     OW 2141   0.230   2.490   0.113
  564SOL    HW1 2142   0.137   2.488   0.150
  564SOL    HW2 2143   0.231   2.451   0.021
  565SOL     OW 2144   0.569   3.137   1.165
  565SOL    HW1 2145   0.476   3.130   1.128
  565SOL    HW2 2146   0.580   3.226   1.209
  566SOL     OW 2147   1.555   3.373   0.703
  566SOL    HW1 2148   1.498   3.357   0.784
  566SOL    HW2 2149   1.496   3.383   0.623
  567SOL     OW 2150   1.135   2.565   0.717
  567SOL    HW1 2151   1.192   2.643   0.692
  567SOL    HW2 2152   1.075   2.591   0.793
  568SOL     OW 2153   1.755   2.469   0.231
  568SOL    HW1 2154   1.743   2.456   0.132
  568SOL    HW2 2155   1.725   2.388   0.280
  569SOL     OW 2156   0.768   3.006   1.023
  569SOL    HW1 2157   0.690   3.023   1.083
  569SOL    HW2 2158   0.802   3.093   0.987
  570SOL     OW 2159   0.850   2.660   1.823
  570SOL    HW1 2160   0.846   2.736   1.888
  570SOL    HW2 2161   0.872   2.696   1.732
  571SOL     OW 2162   0.685   2.874   0.665
  571SOL    HW1 2163   0.754   2.858   0.735
  571SOL    HW2 2164   0.612   2.931   0.703
  572SOL     OW 2165   0.335   3.297   1.061
  572SOL    HW1 2166   0.257   3.266   1.008
  572SOL    HW2 2167   0.393   3.355   1.004
  573SOL     OW 2168   1.460   3.367   1.339
  573SOL    HW1 2169   1.484   3.461   1.365
  573SOL    HW2 2170   1.444   3.313   1.421
  574SOL     OW 2171   0.438   2.254   1.499
  574SOL    HW1 2172   0.520   2.198   1.508
  574SOL    HW2 2173   0.357   2.196   1.503
  575SOL     OW 2174   1.603   2.309   0.737
  575SOL    HW1 2175   1.529   2.355   0.687
  575SOL    HW2 2176   1.654   2.377   0.790
  576SOL     OW 2177   0.231   3.575   0.483
  576SOL    HW1 2178   0.265   3.652   0.537
  576SOL    HW2 2179   0.275   3.575   0.393
  577SOL     OW 2180   1.127   3.203   1.690
  577SOL    HW1 2181   1.174   3.203   1.778
  577SOL    HW2 2182   1.079   3.116   1.679
  578SOL     OW 2183   0.230   3.296   0.538
  578SOL    HW1 2184   0.204   3.392   0.538
  578SOL    HW2 2185   0.159   3.242   0.583
  579SOL     OW 2186   0.240   2.953   0.886
  579SOL    HW1 2187   0.254   2.869   0.938
  579SOL    HW2 2188   0.185   3.017   0.941
  580SOL     OW 2189   0.620   3.648   1.439
  580SOL    HW1 2190   0.528   3.631   1.474
  580SOL    HW2 2191   0.648   3.740   1.465
  581SOL     OW 2192   0.606   2.826   0.123
  581SOL    HW1 2193   0.613   2.910   0.069
  581SOL    HW2 2194   0.652   2.839   0.211
  582SOL     OW 2195   1.594   1.976   1.480
  582SOL    HW1 2196   1.576   2.043   1.408
  582SOL    HW2 2197   1.591   2.022   1.569
  583SOL     OW 2198   1.842   3.629   0.359
  583SOL    HW1 2199   1.896   3.600   0.439
  583SOL    HW2 2200   1.872   3.719   0.330
  584SOL     OW 2201   0.027   3.458   0.117
  584SOL    HW1 2202   0.008   3.362   0.138
  584SOL    HW2 2203  -0.006   3.516   0.192
  585SOL     OW 2204   1.689   2.784   0.612
  585SOL    HW1 2205   1.784   2.755   0.620
  585SOL    HW2 2206   1.681   2.849   0.537
  586SOL     OW 2207   1.641   2.970   0.432
  586SOL    HW1 2208   1.727   2.972   0.380
  586SOL    HW2 2209   1.655   3.017   0.520
  587SOL     OW 2210   0.613   3.227   0.726
  587SOL    HW1 2211   0.564   3.140   0.735
  587SOL    HW2 2212   0.590   3.270   0.639
  588SOL     OW 2213   1.293   3.090   1.423
  588SOL    HW1 2214   1.330   3.017   1.365
  588SOL    HW2 2215   1.345   3.095   1.508
  589SOL     OW 2216   0.809   1.866   0.502
  589SOL    HW1 2217   0.849   1.957   0.493
  589SOL    HW2 2218   0.709   1.874   0.508
  590SOL     OW 2219   0.197   2.838   1.264
  590SOL    HW1 2220   0.286   2.793   1.250
  590SOL    HW2 2221   0.124   2.773   1.245
  591SOL     OW 2222   1.525   2.861   0.190
  591SOL    HW1 2223   1.462   2.785   0.203
  591SOL    HW2 2224   1.573   2.879   0.276
  592SOL     OW 2225   1.187   3.654   1.616
  592SOL    HW1 2226   1.211   3.714   1.540
  592SOL    HW2 2227   1.194   3.559   1.586
  593SOL     OW 2228   0.317   2.113   1.801
  593SOL    HW1 2229   0.388   2.184   1.807
  593SOL    HW2 2230   0.229   2.152   1.829
  594SOL     OW 2231   1.466   3.279   0.953
  594SOL    HW1 2232   1.407   3.285   1.033
  594SOL    HW2 2233   1.451   3.191   0.907
  595SOL     OW 2234   1.667   3.576   0.572
  595SOL    HW1 2235   1.626   3.553   0.484
  595SOL    HW2 2236   1.649   3.502   0.637
  596SOL     OW 2237   0.598   2.591   0.270
  596SOL    HW1 2238   0.622   2.660   0.202
  596SOL    HW2 2239   0.520   2.624   0.324
  597SOL     OW 2240   1.281   2.207   0.944
  597SOL    HW1 2241   1.195   2.157   0.931
  597SOL    HW2 2242   1.343   2.153   1.000
  598SOL     OW 2243   1.576   3.524   0.307
  598SOL    HW1 2244   1.665   3.570   0.310
  598SOL    HW2 2245   1.555   3.500   0.212
  599SOL     OW 2246   0.807   2.467   1.465
  599SOL    HW1 2247   0.760   2.464   1.554
  599SOL    HW2 2248   0.756   2.412   1.399
  600SOL     OW 2249   1.394   2.331   1.674
  600SOL    HW1 2250   1.374   2.374   1.762
  600SOL    HW2 2251   1.472   2.269   1.683
  601SOL     OW 2252   0.973   2.752   1.572
  601SOL    HW1 2253   1.019   2.668   1.543
  601SOL    HW2 2254   0.917   2.786   1.497
  602SOL     OW 2255   0.991   2.272   1.242
  602SOL    HW1 2256   0.914   2.306   1.296
  602SOL    HW2 2257   0.957   2.221   1.163
  603SOL     OW 2258   1.041   2.563   0.429
  603SOL    HW1 2259   1.067   2.559   0.525
  603SOL    HW2 2260   0.956   2.512   0.415
  604SOL     OW 2261   0.130   3.683   1.571
  604SOL    HW1 2262   0.120   3.668   1.670
  604SOL    HW2 2263   0.044   3.719   1.535
  605SOL     OW 2264   0.865   2.210   0.195
  605SOL    HW1 2265   0.924   2.273   0.146
  605SOL    HW2 2266   0.884   2.116   0.166
  606SOL     OW 2267   1.719   2.447   1.831
  606SOL    HW1 2268   1.693   2.536   1.795
  606SOL    HW2 2269   1.717   2.379   1.758
  607SOL     OW 2270   1.362   3.006   0.545
  607SOL    HW1 2271   1.445   2.977   0.497
  607SOL    HW2 2272   1.313   3.073   0.489
  608SOL     OW 2273   0.550   2.058   0.885
  608SOL    HW1 2274   0.545   2.053   0.985
  608SOL    HW2 2275   0.552   2.154   0.856
  609SOL     OW 2276   1.008   3.318   0.477
  609SOL    HW1 2277   0.962   3.390   0.425
  609SOL    HW2 2278   1.004   3.338   0.575
  610SOL     OW 2279   0.351   3.663   0.853
  610SOL    HW1 2280   0.401   3.577   0.859
  610SOL    HW2 2281   0.416   3.740   0.850
  611SOL     OW 2282   1.795   2.928   0.873
  611SOL    HW1 2283   1.733   2.913   0.797
  611SOL    HW2 2284   1.743   2.939   0.958
  612SOL     OW 2285   1.227   3.412   1.506
  612SOL    HW1 2286   1.233   3.335   1.570
  612SOL    HW2 2287   1.175   3.386   1.426
  613SOL     OW 2288   0.321   2.805   0.242
  613SOL    HW1 2289   0.403   2.844   0.200
  613SOL    HW2 2290   0.294   2.723   0.193
  614SOL     OW 2291   1.458   2.597   0.728
  614SOL    HW1 2292   1.453   2.532   0.803
  614SOL    HW2 2293   1.538   2.656   0.741
  615SOL     OW 2294   1.111   3.638   0.237
  615SOL    HW1 2295   1.051   3.576   0.287
  615SOL    HW2 2296   1.142   3.594   0.152
  616SOL     OW 2297   1.632   3.239   0.081
  616SOL    HW1 2298   1.600   3.333   0.071
  616SOL    HW2 2299   1.556   3.176   0.069
  617SOL     OW 2300   0.464   3.605   0.323
  617SOL    HW1 2301   0.497   3.644   0.409
  617SOL    HW2 2302   0.540   3.598   0.258
  618SOL     OW 2303   1.400   1.969   0.426
  618SOL    HW1 2304   1.376   1.932   0.336
  618SOL    HW2 2305   1.499   1.985   0.430
  619SOL     OW 2306   0.249   3.647   1.241
  619SOL    HW1 2307   0.306   3.582   1.291
  619SOL    HW2 2308   0.233   3.614   1.148
  620SOL     OW 2309   0.940   3.560   0.904
  620SOL    HW1 2310   1.020   3.503   0.925
  620SOL    HW2 2311   0.891   3.520   0.827
  621SOL     OW 2312   0.382   2.562   0.480
  621SOL    HW1 2313   0.427   2.472   0.477
  621SOL    HW2 2314   0.288   2.551   0.513
  622SOL     OW 2315   1.547   2.084   1.729
  622SOL    HW1 2316   1.542   2.121   1.821
  622SOL    HW2 2317   1.475   2.015   1.717
  623SOL     OW 2318   0.781   2.126   1.749
  623SOL    HW1 2319   0.848   2.065   1.792
  623SOL    HW2 2320   0.708   2.145   1.814
  624SOL     OW 2321   0.888   3.376   1.195
  624SOL    HW1 2322   0.865   3.351   1.101
  624SOL    HW2 2323   0.949   3.307   1.234
  625SOL     OW 2324   1.351   2.452   1.433
  625SOL    HW1 2325   1.379   2.409   1.518
  625SOL    HW2 2326   1.376   2.548   1.434
  626SOL     OW 2327   0.803   3.264   0.924
  626SOL    HW1 2328   0.893   3.278   0.882
  626SOL    HW2 2329   0.732   3.266   0.853
  627SOL     OW 2330   0.922   2.365   0.899
  627SOL    HW1 2331   0.897   2.356   0.803
  627SOL    HW2 2332   0.970   2.283   0.930
  628SOL     OW 2333   0.539   1.926   0.512
  628SOL    HW1 2334   0.458   1.927   0.570
  628SOL    HW2 2335   0.542   2.009   0.457
  629SOL     OW 2336   1.434   3.050   0.041
  629SOL    HW1 2337   1.466   2.974   0.098
  629SOL    HW2 2338   1.342   3.077   0.071
  630SOL     OW 2339   0.297   1.897   0.171
  630SOL    HW1 2340   0.346   1.981   0.150
  630SOL    HW2 2341   0.359   1.832   0.216
  631SOL     OW 2342   0.935   2.098   0.480
  631SOL    HW1 2343   0.887   2.139   0.402
  631SOL    HW2 2344   1.034   2.096   0.461
  632SOL     OW 2345   1.076   2.545   1.464
  632SOL    HW1 2346   0.996   2.484   1.467
  632SOL    HW2 2347   1.157   2.492   1.440
  633SOL     OW 2348   1.227   3.432   0.793
  633SOL    HW1 2349   1.248   3.506   0.728
  633SOL    HW2 2350   1.295   3.432   0.866
  634SOL     OW 2351   0.459   3.014   0.741
  634SOL    HW1 2352   0.388   2.987   0.806
  634SOL    HW2 2353   0.433   2.986   0.648
  635SOL     OW 2354   1.271   3.659   0.591
  635SOL    HW1 2355   1.315   3.723   0.527
  635SOL    HW2 2356   1.221   3.711   0.661
  636SOL     OW 2357   1.032   2.411   0.016
  636SOL    HW1 2358   0.991   2.493  -0.023
  636SOL    HW2 2359   1.096   2.437   0.089
  637SOL     OW 2360   0.561   2.084   1.147
  637SOL    HW1 2361   0.599   2.000   1.184
  637SOL    HW2 2362   0.473   2.103   1.191
  638SOL     OW 2363   0.866   2.316   0.642
  638SOL    HW1 2364   0.834   2.388   0.580
  638SOL    HW2 2365   0.890   2.235   0.589
  639SOL     OW 2366   1.017   1.901   0.753
  639SOL    HW1 2367   0.945   1.906   0.684
  639SOL    HW2 2368   0.993   1.832   0.822
  640SOL     OW 2369   1.429   3.035   0.867
  640SOL    HW1 2370   1.374   2.951   0.860
  640SOL    HW2 2371   1.455   3.064   0.775
  641SOL     OW 2372   1.466   2.452   0.992
  641SOL    HW1 2373   1.436   2.357   0.999
  641SOL    HW2 2374   1.539   2.468   1.058
  642SOL     OW 2375   1.857   2.695   0.377
  642SOL    HW1 2376   1.899   2.631   0.441
  642SOL    HW2 2377   1.819   2.644   0.299
  643SOL     OW 2378   0.488   3.247   0.174
  643SOL    HW1 2379   0.401   3.232   0.221
  643SOL    HW2 2380   0.471   3.273   0.079
  644SOL     OW 2381   1.664   3.142   0.657
  644SOL    HW1 2382   1.763   3.150   0.671
  644SOL    HW2 2383   1.619   3.226   0.688
  645SOL     OW 2384   1.390   2.437   0.078
  645SOL    HW1 2385   1.336   2.416   0.159
  645SOL    HW2 2386   1.481   2.396   0.087
  646SOL     OW 2387   0.527   2.118   0.328
  646SOL    HW1 2388   0.554   2.059   0.253
  646SOL    HW2 2389   0.527   2.213   0.297
  647SOL     OW 2390   1.754   3.085   1.588
  647SOL    HW1 2391   1.845   3.046   1.575
  647SOL    HW2 2392   1.762   3.181   1.612
  648SOL     OW 2393   1.064   3.209   1.340
  648SOL    HW1 2394   0.984   3.186   1.395
  648SOL    HW2 2395   1.147   3.183   1.389
  649SOL     OW 2396   1.111   3.057   1.100
  649SOL    HW1 2397   1.071   3.101   1.181
  649SOL    HW2 2398   1.070   3.094   1.017
  650SOL     OW 2399   1.638   2.961   1.079
  650SOL    HW1 2400   1.643   3.042   1.138
  650SOL    HW2 2401   1.552   2.963   1.028
  651SOL     OW 2402   0.915   1.951   1.402
  651SOL    HW1 2403   0.940   1.931   1.307
  651SOL    HW2 2404   0.987   2.007   1.444
  652SOL     OW 2405   0.980   2.978   1.719
  652SOL    HW1 2406   0.881   2.984   1.729
  652SOL    HW2 2407   1.003   2.898   1.663
  653SOL     OW 2408   0.705   2.912   0.368
  653SOL    HW1 2409   0.691   2.919   0.467
  653SOL    HW2 2410   0.789   2.861   0.350
  654SOL     OW 2411   0.410   2.675   1.251
  654SOL    HW1 2412   0.496   2.687   1.301
  654SOL    HW2 2413   0.368   2.588   1.278
  655SOL     OW 2414   1.274   2.248   1.262
  655SOL    HW1 2415   1.295   2.322   1.326
  655SOL    HW2 2416   1.185   2.265   1.219
  656SOL     OW 2417   0.367   2.962   0.501
  656SOL    HW1 2418   0.360   3.045   0.445
  656SOL    HW2 2419   0.371   2.882   0.441
  657SOL     OW 2420   0.566   2.399   0.865
  657SOL    HW1 2421   0.578   2.465   0.791
  657SOL    HW2 2422   0.612   2.433   0.948
  658SOL     OW 2423   1.252   3.210   0.388
  658SOL    HW1 2424   1.302   3.287   0.428
  658SOL    HW2 2425   1.157   3.212   0.420
  659SOL     OW 2426   1.272   3.307   1.142
  659SOL    HW1 2427   1.319   3.320   1.229
  659SOL    HW2 2428   1.206   3.233   1.151
  660SOL     OW 2429   1.582   2.501   0.472
  660SOL    HW1 2430   1.551   2.562   0.545
  660SOL    HW2 2431   1.632   2.553   0.403
  661SOL     OW 2432   0.354   3.372   1.329
  661SOL    HW1 2433   0.333   3.328   1.242
  661SOL    HW2 2434   0.451   3.398   1.332
  662SOL     OW 2435   0.402   2.613   1.598
  662SOL    HW1 2436   0.470   2.668   1.551
  662SOL    HW2 2437   0.442   2.525   1.625
  663SOL     OW 2438   1.587   2.641   1.670
  663SOL    HW1 2439   1.495   2.679   1.665
  663SOL    HW2 2440   1.647   2.688   1.605
  664SOL     OW 2441   1.013   1.967   1.770
  664SOL    HW1 2442   1.019   2.052   1.718
  664SOL    HW2 2443   1.045   1.891   1.713
  665SOL     OW 2444   0.504   1.912   1.740
  665SOL    HW1 2445   0.462   1.855   1.670
  665SOL    HW2 2446   0.438   1.981   1.772
  666SOL     OW 2447   0.573   2.732   1.029
  666SOL    HW1 2448   0.617   2.821   1.020
  666SOL    HW2 2449   0.510   2.732   1.106
  667SOL     OW 2450   1.360   2.724   1.045
  667SOL    HW1 2451   1.285   2.724   0.979
  667SOL    HW2 2452   1.397   2.632   1.054
  668SOL     OW 2453   1.209   2.387   0.275
  668SOL    HW1 2454   1.222   2.303   0.329
  668SOL    HW2 2455   1.180   2.461   0.335
  669SOL     OW 2456   0.307   2.075   1.231
  669SOL    HW1 2457   0.284   2.112   1.321
  669SOL    HW2 2458   0.277   1.980   1.225
  670SOL     OW 2459   0.732   2.496   1.064
  670SOL    HW1 2460   0.791   2.470   0.988
  670SOL    HW2 2461   0.704   2.592   1.053
  671SOL     OW 2462   1.728   2.797   1.854
  671SOL    HW1 2463   1.682   2.790   1.765
  671SOL    HW2 2464   1.666   2.841   1.920
  672SOL     OW 2465   0.307   1.925   0.618
  672SOL    HW1 2466   0.296   2.019   0.651
  672SOL    HW2 2467   0.302   1.862   0.695
  673SOL     OW 2468   1.622   2.229   0.374
  673SOL    HW1 2469   1.624   2.153   0.438
  673SOL    HW2 2470   1.574   2.306   0.414
  674SOL     OW 2471   1.023   2.628   0.966
  674SOL    HW1 2472   1.038   2.649   1.062
  674SOL    HW2 2473   0.993   2.533   0.957
  675SOL     OW 2474   0.980   3.435   1.700
  675SOL    HW1 2475   0.960   3.479   1.612
  675SOL    HW2 2476   1.019   3.344   1.684
  676SOL     OW 2477   1.859   3.380   1.605
  676SOL    HW1 2478   1.873   3.407   1.510
  676SOL    HW2 2479   1.942   3.402   1.658
  677SOL     OW 2480   0.350   2.760   1.804
  677SOL    HW1 2481   0.426   2.804   1.852
  677SOL    HW2 2482   0.385   2.713   1.722
  678SOL     OW 2483   1.540   2.136   0.125
  678SOL    HW1 2484   1.479   2.061   0.148
  678SOL    HW2 2485   1.562   2.188   0.208
  679SOL     OW 2486   1.303   2.700   0.042
  679SOL    HW1 2487   1.337   2.607   0.057
  679SOL    HW2 2488   1.321   2.727  -0.053
  680SOL     OW 2489   1.068   3.195   0.849
  680SOL    HW1 2490   1.075   3.111   0.794
  680SOL    HW2 2491   1.130   3.264   0.813
  681SOL     OW 2492   0.319   2.672   0.949
  681SOL    HW1 2493   0.412   2.708   0.954
  681SOL    HW2 2494   0.313   2.587   1.001
  682SOL     OW 2495   0.339   2.371   1.006
  682SOL    HW1 2496   0.287   2.288   0.989
  682SOL    HW2 2497   0.416   2.376   0.942
  683SOL     OW 2498   1.138   2.242   1.678
  683SOL    HW1 2499   1.093   2.305   1.742
  683SOL    HW2 2500   1.231   2.273   1.661
  684SOL     OW 2501   1.160   2.069   1.477
  684SOL    HW1 2502   1.160   2.133   1.554
  684SOL    HW2 2503   1.188   2.117   1.394
  685SOL     OW 2504   0.008   3.188   0.200
  685SOL    HW1 2505  -0.085   3.209   0.169
  685SOL    HW2 2506   0.018   3.089   0.213
  686SOL     OW 2507   0.088   3.663   0.927
  686SOL    HW1 2508   0.046   3.577   0.900
  686SOL    HW2 2509   0.182   3.666   0.893
  687SOL     OW 2510   0.504   3.430   0.910
  687SOL    HW1 2511   0.570   3.504   0.919
  687SOL    HW2 2512   0.548   3.351   0.868
  688SOL     OW 2513   1.002   2.658   1.238
  688SOL    HW1 2514   1.043   2.626   1.324
  688SOL    HW2 2515   0.906   2.631   1.235
  689SOL     OW 2516   0.189   2.382   1.722
  689SOL    HW1 2517   0.248   2.342   1.652
  689SOL    HW2 2518   0.131   2.453   1.681
  690SOL     OW 2519   1.369   2.812   1.660
  690SOL    HW1 2520   1.408   2.901   1.680
  690SOL    HW2 2521   1.379   2.792   1.563
  691SOL     OW 2522   0.815   2.434   0.325
  691SOL    HW1 2523   0.822   2.345   0.279
  691SOL    HW2 2524   0.721   2.468   0.317
  692SOL     OW 2525   1.657   2.466   1.206
  692SOL    HW1 2526   1.619   2.397   1.268
  692SOL    HW2 2527   1.739   2.430   1.162
  693SOL     OW 2528   0.671   2.326   1.269
  693SOL    HW1 2529   0.637   2.237   1.239
  693SOL    HW2 2530   0.697   2.380   1.189
  694SOL     OW 2531   0.930   3.540   1.465
  694SOL    HW1 2532   0.906   3.522   1.370
  694SOL    HW2 2533   0.960   3.634   1.475
  695SOL     OW 2534   0.473   2.362   0.191
  695SOL    HW1 2535   0.534   2.442   0.195
  695SOL    HW2 2536   0.378   2.393   0.198
  696SOL     OW 2537   0.159   2.999   1.466
  696SOL    HW1 2538   0.181   2.938   1.542
  696SOL    HW2 2539   0.169   2.950   1.380
  697SOL     OW 2540   1.347   2.921   1.234
  697SOL    HW1 2541   1.371   2.858   1.160
  697SOL    HW2 2542   1.257   2.961   1.216
  698SOL     OW 2543   1.302   2.717   0.309
  698SOL    HW1 2544   1.216   2.686   0.351
  698SOL    HW2 2545   1.298   2.703   0.210
  699SOL     OW 2546   1.759   3.609   1.154
  699SOL    HW1 2547   1.820   3.639   1.081
  699SOL    HW2 2548   1.721   3.520   1.132
  700SOL     OW 2549   1.252   3.593   1.128
  700SOL    HW1 2550   1.336   3.598   1.074
  700SOL    HW2 2551   1.229   3.497   1.146
  701SOL     OW 2552   0.083   3.120   1.022
  701SOL    HW1 2553   0.078   3.119   1.122
  701SOL    HW2 2554   0.000   3.079   0.984
  702SOL     OW 2555   0.688   3.524   1.716
  702SOL    HW1 2556   0.632   3.605   1.725
  702SOL    HW2 2557   0.740   3.528   1.630
  703SOL     OW 2558   0.903   1.948   0.133
  703SOL    HW1 2559   0.954   1.949   0.047
  703SOL    HW2 2560   0.959   1.906   0.204
  704SOL     OW 2561   1.726   1.997   0.523
  704SOL    HW1 2562   1.799   1.980   0.456
  704SOL    HW2 2563   1.695   1.910   0.561
  705SOL     OW 2564   1.388   3.435   0.477
  705SOL    HW1 2565   1.455   3.447   0.403
  705SOL    HW2 2566   1.348   3.524   0.500
  706SOL     OW 2567   1.280   2.789   0.672
  706SOL    HW1 2568   1.340   2.708   0.674
  706SOL    HW2 2569   1.320   2.858   0.612
  707SOL     OW 2570   0.830   3.135   1.422
  707SOL    HW1 2571   0.825   3.168   1.517
  707SOL    HW2 2572   0.744   3.154   1.376
  708SOL     OW 2573   0.672   3.478   0.154
  708SOL    HW1 2574   0.681   3.488   0.055
  708SOL    HW2 2575   0.632   3.389   0.175
  709SOL     OW 2576   1.650   3.582   1.394
  709SOL    HW1 2577   1.703   3.592   1.310
  709SOL    HW2 2578   1.623   3.672   1.428
  710SOL     OW 2579   1.841   2.037   0.963
  710SOL    HW1 2580   1.880   1.952   0.927
  710SOL    HW2 2581   1.743   2.039   0.944
  711SOL     OW 2582   0.263   2.188   0.720
  711SOL    HW1 2583   0.184   2.239   0.686
  711SOL    HW2 2584   0.254   2.173   0.818
  712SOL     OW 2585   1.194   3.474   0.031
  712SOL    HW1 2586   1.200   3.381   0.068
  712SOL    HW2 2587   1.135   3.474  -0.049
  713SOL     OW 2588   0.822   2.864   1.372
  713SOL    HW1 2589   0.862   2.863   1.280
  713SOL    HW2 2590   0.832   2.956   1.412
  714SOL     OW 2591   0.916   2.772   0.291
  714SOL    HW1 2592   0.979   2.810   0.223
  714SOL    HW2 2593   0.956   2.689   0.330
  715SOL     OW 2594   1.504   3.469   0.044
  715SOL    HW1 2595   1.412   3.506   0.051
  715SOL    HW2 2596   1.542   3.489  -0.046
  716SOL     OW 2597   0.372   3.150   1.490
  716SOL    HW1 2598   0.359   3.243   1.456
  716SOL    HW2 2599   0.288   3.098   1.477
  717SOL     OW 2600   1.614   3.154   1.289
  717SOL    HW1 2601   1.674   3.157   1.369
  717SOL    HW2 2602   1.539   3.218   1.302
  718SOL     OW 2603   1.039   2.960   0.696
  718SOL    HW1 2604   0.969   2.913   0.750
  718SOL    HW2 2605   1.098   2.892   0.653
  719SOL     OW 2606   1.014   2.098   0.971
  719SOL    HW1 2607   1.006   2.062   0.878
  719SOL    HW2 2608   1.012   2.022   1.036
  720SOL     OW 2609   0.590   3.349   0.491
  720SOL    HW1 2610   0.632   3.291   0.421
  720SOL    HW2 2611   0.546   3.428   0.447
  721SOL     OW 2612   1.709   2.247   1.381
  721SOL    HW1 2613   1.782   2.316   1.385
  721SOL    HW2 2614   1.737   2.172   1.322
  722SOL     OW 2615   0.255   3.210   0.290
  722SOL    HW1 2616   0.159   3.211   0.263
  722SOL    HW2 2617   0.267   3.263   0.374
  723SOL     OW 2618   0.105   2.875   1.726
  723SOL    HW1 2619   0.028   2.842   1.780
  723SOL    HW2 2620   0.190   2.845   1.768
  724SOL     OW 2621   0.672   2.065   1.489
  724SOL    HW1 2622   0.762   2.049   1.449
  724SOL    HW2 2623   0.680   2.070   1.588
  725SOL     OW 2624   0.075   2.207   0.033
  725SOL    HW1 2625  -0.017   2.179   0.004
  725SOL    HW2 2626   0.106   2.284  -0.023
  726SOL     OW 2627   1.440   2.718   1.398
  726SOL    HW1 2628   1.383   2.770   1.335
  726SOL    HW2 2629   1.536   2.730   1.374
  727SOL     OW 2630   0.072   2.028   0.318
  727SOL    HW1 2631   0.055   2.111   0.264
  727SOL    HW2 2632   0.162   1.991   0.296
  728SOL     OW 2633   1.183   3.197   0.119
  728SOL    HW1 2634   1.084   3.186   0.121
  728SOL    HW2 2635   1.217   3.212   0.212
  729SOL     OW 2636   0.613   2.704   1.431
  729SOL    HW1 2637   0.669   2.785   1.414
  729SOL    HW2 2638   0.672   2.624   1.434
  730SOL     OW 2639   1.493   3.629   0.959
  730SOL    HW1 2640   1.526   3.693   0.890
  730SOL    HW2 2641   1.559   3.623   1.034
  731SOL     OW 2642   0.716   2.427   1.708
  731SOL    HW1 2643   0.735   2.492   1.782
  731SOL    HW2 2644   0.776   2.347   1.717
  732SOL     OW 2645   1.450   3.082   1.633
  732SOL    HW1 2646   1.441   3.072   1.732
  732SOL    HW2 2647   1.546   3.075   1.607
  733SOL     OW 2648   0.390   3.603   1.560
  733SOL    HW1 2649   0.299   3.644   1.558
  733SOL    HW2 2650   0.383   3.509   1.592
  734SOL     OW 2651   1.674   2.745   1.254
  734SOL    HW1 2652   1.647   2.656   1.217
  734SOL    HW2 2653   1.675   2.813   1.181
  735SOL     OW 2654   1.225   2.187   0.449
  735SOL    HW1 2655   1.290   2.113   0.438
  735SOL    HW2 2656   1.245   2.237   0.533
  736SOL     OW 2657   0.594   2.607   0.652
  736SOL    HW1 2658   0.644   2.692   0.633
  736SOL    HW2 2659   0.506   2.609   0.604
  737SOL     OW 2660   1.777   2.204   1.642
  737SOL    HW1 2661   1.760   2.235   1.548
  737SOL    HW2 2662   1.693   2.167   1.680
  738SOL     OW 2663   1.730   2.796   1.517
  738SOL    HW1 2664   1.768   2.887   1.532
  738SOL    HW2 2665   1.722   2.779   1.418
  739SOL     OW 2666   0.859   3.236   0.016
  739SOL    HW1 2667   0.813   3.251   0.104
  739SOL    HW2 2668   0.903   3.321  -0.014
  740SOL     OW 2669   0.661   3.652   0.953
  740SOL    HW1 2670   0.615   3.740   0.940
  740SOL    HW2 2671   0.760   3.664   0.946
  741SOL     OW 2672   0.859   2.818   0.861
  741SOL    HW1 2673   0.913   2.749   0.909
  741SOL    HW2 2674   0.827   2.887   0.927
  742SOL     OW 2675   1.083   2.846   0.087
  742SOL    HW1 2676   1.060   2.899   0.005
  742SOL    HW2 2677   1.164   2.790   0.068
  743SOL     OW 2678   1.861   3.431   0.851
  743SOL    HW1 2679   1.790   3.419   0.781
  743SOL    HW2 2680   1.862   3.352   0.911
  744SOL     OW 2681   0.079   3.102   0.653
  744SOL    HW1 2682   0.078   3.055   0.741
  744SOL    HW2 2683   0.161   3.074   0.602
  745SOL     OW 2684   1.824   2.054   1.227
  745SOL    HW1 2685   1.820   1.964   1.271
  745SOL    HW2 2686   1.827   2.043   1.128
  746SOL     OW 2687   0.428   2.286   0.520
  746SOL    HW1 2688   0.458   2.214   0.458
  746SOL    HW2 2689   0.389   2.246   0.603
  747SOL     OW 2690   1.705   3.349   1.104
  747SOL    HW1 2691   1.612   3.324   1.077
  747SOL    HW2 2692   1.731   3.299   1.186
  748SOL     OW 2693   0.317   2.409   1.280
  748SOL    HW1 2694   0.355   2.350   1.352
  748SOL    HW2 2695   0.357   2.383   1.192
  749SOL     OW 2696   0.812   3.448   0.687
  749SOL    HW1 2697   0.844   3.458   0.593
  749SOL    HW2 2698   0.733   3.386   0.689
  750SOL     OW 2699   1.424   2.076   1.112
  750SOL    HW1 2700   1.476   2.011   1.167
  750SOL    HW2 2701   1.375   2.139   1.173
  751SOL     OW 2702   1.001   1.896   1.154
  751SOL    HW1 2703   0.938   1.824   1.123
  751SOL    HW2 2704   1.094   1.860   1.154
  752SOL     OW 2705   0.770   3.192   0.301
  752SOL    HW1 2706   0.724   3.105   0.318
  752SOL    HW2 2707   0.861   3.189   0.342
  753SOL     OW 2708   0.618   3.429   1.284
  753SOL    HW1 2709   0.613   3.511   1.341
  753SOL    HW2 2710   0.707   3.426   1.239
  754SOL     OW 2711   1.352   1.914   0.168
  754SOL    HW1 2712   1.387   1.873   0.084
  754SOL    HW2 2713   1.262   1.876   0.188
  755SOL     OW 2714   1.300   2.315   0.691
  755SOL    HW1 2715   1.241   2.395   0.695
  755SOL    HW2 2716   1.315   2.280   0.784
  756SOL     OW 2717   1.593   2.083   0.882
  756SOL    HW1 2718   1.509   2.082   0.936
  756SOL    HW2 2719   1.595   2.166   0.826
  757SOL     OW 2720   0.039   2.939   0.300
  757SOL    HW1 2721   0.138   2.928   0.291
  757SOL    HW2 2722  -0.001   2.853   0.332
  758SOL     OW 2723   0.875   3.508   0.337
  758SOL    HW1 2724   0.798   3.473   0.283
  758SOL    HW2 2725   0.843   3.579   0.399
  759SOL     OW 2726   0.230   2.490   1.975
  759SOL    HW1 2727   0.137   2.488   2.012
  759SOL    HW2 2728   0.231   2.451   1.883
  760SOL     OW 2729   0.225   2.137   2.858
  760SOL    HW1 2730   0.260   2.120   2.950
  760SOL    HW2 2731   0.137   2.092   2.846
  761SOL     OW 2732   0.019   2.230   2.509
  761SOL    HW1 2733  -0.063   2.273   2.548
  761SOL    HW2 2734  -0.009   2.157   2.446
  762SOL     OW 2735   0.569   3.137   3.027
  762SOL    HW1 2736   0.476   3.130   2.990
  762SOL    HW2 2737   0.580   3.226   3.071
  763SOL     OW 2738   1.555   3.373   2.565
  763SOL    HW1 2739   1.498   3.357   2.646
  763SOL    HW2 2740   1.496   3.383   2.485
  764SOL     OW 2741   1.135   2.565   2.579
  764SOL    HW1 2742   1.192   2.643   2.554
  764SOL    HW2 2743   1.075   2.591   2.655
  765SOL     OW 2744   1.755   2.469   2.093
  765SOL    HW1 2745   1.743   2.456   1.994
  765SOL    HW2 2746   1.725   2.388   2.142
  766SOL     OW 2747   0.768   3.006   2.885
  766SOL    HW1 2748   0.690   3.023   2.945
  766SOL    HW2 2749   0.802   3.093   2.849
  767SOL     OW 2750   0.850   2.660   3.685
  767SOL    HW1 2751   0.846   2.736   3.750
  767SOL    HW2 2752   0.872   2.696   3.594
  768SOL     OW 2753   0.685   2.874   2.527
  768SOL    HW1 2754   0.754   2.858   2.597
  768SOL    HW2 2755   0.612   2.931   2.565
  769SOL     OW 2756   0.686   3.023   3.665
  769SOL    HW1 2757   0.746   3.102   3.679
  769SOL    HW2 2758   0.600   3.054   3.624
  770SOL     OW 2759   0.335   3.297   2.923
  770SOL    HW1 2760   0.257   3.266   2.870
  770SOL    HW2 2761   0.393   3.355   2.866
  771SOL     OW 2762   1.460   3.367   3.201
  771SOL    HW1 2763   1.484   3.461   3.227
  771SOL    HW2 2764   1.444   3.313   3.283
  772SOL     OW 2765   0.438   2.254   3.361
  772SOL    HW1 2766   0.520   2.198   3.370
  772SOL    HW2 2767   0.357   2.196   3.365
  773SOL     OW 2768   1.603   2.309   2.599
  773SOL    HW1 2769   1.529   2.355   2.549
  773SOL    HW2 2770   1.654   2.377   2.652
  774SOL     OW 2771   1.127   3.203   3.552
  774SOL    HW1 2772   1.174   3.203   3.640
  774SOL    HW2 2773   1.079   3.116   3.541
  775SOL     OW 2774   0.240   2.953   2.748
  775SOL    HW1 2775   0.254   2.869   2.800
  775SOL    HW2 2776   0.185   3.017   2.803
  776SOL     OW 2777   0.620   3.648   3.301
  776SOL    HW1 2778   0.528   3.631   3.336
  776SOL    HW2 2779   0.648   3.740   3.327
  777SOL     OW 2780   0.606   2.826   1.985
  777SOL    HW1 2781   0.613   2.910   1.931
  777SOL    HW2 2782   0.652   2.839   2.073
  778SOL     OW 2783   1.594   1.976   3.342
  778SOL    HW1 2784   1.576   2.043   3.270
  778SOL    HW2 2785   1.591   2.022   3.431
  779SOL     OW 2786   0.122   2.505   2.425
  779SOL    HW1 2787   0.077   2.417   2.442
  779SOL    HW2 2788   0.121   2.559   2.509
  780SOL     OW 2789   1.842   3.629   2.221
  780SOL    HW1 2790   1.896   3.600   2.301
  780SOL    HW2 2791   1.872   3.719   2.192
  781SOL     OW 2792   1.689   2.784   2.474
  781SOL    HW1 2793   1.784   2.755   2.482
  781SOL    HW2 2794   1.681   2.849   2.399
  782SOL     OW 2795   1.641   2.970   2.294
  782SOL    HW1 2796   1.727   2.972   2.242
  782SOL    HW2 2797   1.655   3.017   2.382
  783SOL     OW 2798   0.113   2.599   3.459
  783SOL    HW1 2799   0.201   2.586   3.504
  783SOL    HW2 2800   0.100   2.696   3.437
  784SOL     OW 2801   0.613   3.227   2.588
  784SOL    HW1 2802   0.564   3.140   2.597
  784SOL    HW2 2803   0.590   3.270   2.501
  785SOL     OW 2804   1.293   3.090   3.285
  785SOL    HW1 2805   1.330   3.017   3.227
  785SOL    HW2 2806   1.345   3.095   3.370
  786SOL     OW 2807   0.809   1.866   2.364
  786SOL    HW1 2808   0.849   1.957   2.355
  786SOL    HW2 2809   0.709   1.874   2.370
  787SOL     OW 2810   0.197   2.838   3.126
  787SOL    HW1 2811   0.286   2.793   3.112
  787SOL    HW2 2812   0.124   2.773   3.107
  788SOL     OW 2813   1.525   2.861   2.052
  788SOL    HW1 2814   1.462   2.785   2.065
  788SOL    HW2 2815   1.573   2.879   2.138
  789SOL     OW 2816   1.187   3.654   3.478
  789SOL    HW1 2817   1.211   3.714   3.402
  789SOL    HW2 2818   1.194   3.559   3.448
  790SOL     OW 2819   0.317   2.113   3.663
  790SOL    HW1 2820   0.388   2.184   3.669
  790SOL    HW2 2821   0.229   2.152   3.691
  791SOL     OW 2822   1.466   3.279   2.815
  791SOL    HW1 2823   1.407   3.285   2.895
  791SOL    HW2 2824   1.451   3.191   2.769
  792SOL     OW 2825   1.667   3.576   2.434
  792SOL    HW1 2826   1.626   3.553   2.346
  792SOL    HW2 2827   1.649   3.502   2.499
  793SOL     OW 2828   0.598   2.591   2.132
  793SOL    HW1 2829   0.622   2.660   2.064
  793SOL    HW2 2830   0.520   2.624   2.186
  794SOL     OW 2831   1.281   2.207   2.806
  794SOL    HW1 2832   1.195   2.157   2.793
  794SOL    HW2 2833   1.343   2.153   2.862
  795SOL     OW 2834   1.576   3.524   2.169
  795SOL    HW1 2835   1.665   3.570   2.172
  795SOL    HW2 2836   1.555   3.500   2.074
  796SOL     OW 2837   0.807   2.467   3.327
  796SOL    HW1 2838   0.760   2.464   3.416
  796SOL    HW2 2839   0.756   2.412   3.261
  797SOL     OW 2840   1.394   2.331   3.536
  797SOL    HW1 2841   1.374   2.374   3.624
  797SOL    HW2 2842   1.472   2.269   3.545
  798SOL     OW 2843   0.973   2.752   3.434
  798SOL    HW1 2844   1.019   2.668   3.405
  798SOL    HW2 2845   0.917   2.786   3.359
  799SOL     OW 2846   0.991   2.272   3.104
  799SOL    HW1 2847   0.914   2.306   3.158
  799SOL    HW2 2848   0.957   2.221   3.025
  800SOL     OW 2849   1.041   2.563   2.291
  800SOL    HW1 2850   1.067   2.559   2.387
  800SOL    HW2 2851   0.956   2.512   2.277
  801SOL     OW 2852   0.076   2.673   2.651
  801SOL    HW1 2853   0.175   2.661   2.660
  801SOL    HW2 2854   0.052   2.768   2.672
  802SOL     OW 2855   0.865   2.210   2.057
  802SOL    HW1 2856   0.924   2.273   2.008
  802SOL    HW2 2857   0.884   2.116   2.028
  803SOL     OW 2858   1.719   2.447   3.693
  803SOL    HW1 2859   1.693   2.536   3.657
  803SOL    HW2 2860   1.717   2.379   3.620
  804SOL     OW 2861   1.362   3.006   2.407
  804SOL    HW1 2862   1.445   2.977   2.359
  804SOL    HW2 2863   1.313   3.073   2.351
  805SOL     OW 2864   0.550   2.058   2.747
  805SOL    HW1 2865   0.545   2.053   2.847
  805SOL    HW2 2866   0.552   2.154   2.718
  806SOL     OW 2867   1.008   3.318   2.339
  806SOL    HW1 2868   0.962   3.390   2.287
  806SOL    HW2 2869   1.004   3.338   2.437
  807SOL     OW 2870   0.351   3.663   2.715
  807SOL    HW1 2871   0.401   3.577   2.721
  807SOL    HW2 2872   0.416   3.740   2.712
  808SOL     OW 2873   1.795   2.928   2.735
  808SOL    HW1 2874   1.733   2.913   2.659
  808SOL    HW2 2875   1.743   2.939   2.820
  809SOL     OW 2876   1.227   3.412   3.368
  809SOL    HW1 2877   1.233   3.335   3.432
  809SOL    HW2 2878   1.175   3.386   3.288
  810SOL     OW 2879   0.321   2.805   2.104
  810SOL    HW1 2880   0.403   2.844   2.062
  810SOL    HW2 2881   0.294   2.723   2.055
  811SOL     OW 2882   1.458   2.597   2.590
  811SOL    HW1 2883   1.453   2.532   2.665
  811SOL    HW2 2884   1.538   2.656   2.603
  812SOL     OW 2885   0.461   3.128   3.589
  812SOL    HW1 2886   0.411   3.129   3.503
  812SOL    HW2 2887   0.398   3.110   3.665
  813SOL     OW 2888   1.111   3.638   2.099
  813SOL    HW1 2889   1.051   3.576   2.149
  813SOL    HW2 2890   1.142   3.594   2.014
  814SOL     OW 2891   0.202   2.147   3.360
  814SOL    HW1 2892   0.122   2.207   3.347
  814SOL    HW2 2893   0.192   2.098   3.446
  815SOL     OW 2894   1.632   3.239   1.943
  815SOL    HW1 2895   1.600   3.333   1.933
  815SOL    HW2 2896   1.556   3.176   1.931
  816SOL     OW 2897   1.400   1.969   2.288
  816SOL    HW1 2898   1.376   1.932   2.198
  816SOL    HW2 2899   1.499   1.985   2.292
  817SOL     OW 2900   0.249   3.647   3.103
  817SOL    HW1 2901   0.306   3.582   3.153
  817SOL    HW2 2902   0.233   3.614   3.010
  818SOL     OW 2903   0.940   3.560   2.766
  818SOL    HW1 2904   1.020   3.503   2.787
  818SOL    HW2 2905   0.891   3.520   2.689
  819SOL     OW 2906   0.382   2.562   2.342
  819SOL    HW1 2907   0.427   2.472   2.339
  819SOL    HW2 2908   0.288   2.551   2.375
  820SOL     OW 2909   1.547   2.084   3.591
  820SOL    HW1 2910   1.542   2.121   3.683
  820SOL    HW2 2911   1.475   2.015   3.579
  821SOL     OW 2912   0.614   1.984   1.979
  821SOL    HW1 2913   0.712   1.962   1.986
  821SOL    HW2 2914   0.583   1.967   1.886
  822SOL     OW 2915   0.781   2.126   3.611
  822SOL    HW1 2916   0.848   2.065   3.654
  822SOL    HW2 2917   0.708   2.145   3.676
  823SOL     OW 2918   0.888   3.376   3.057
  823SOL    HW1 2919   0.865   3.351   2.963
  823SOL    HW2 2920   0.949   3.307   3.096
  824SOL     OW 2921   1.351   2.452   3.295
  824SOL    HW1 2922   1.379   2.409   3.380
  824SOL    HW2 2923   1.376   2.548   3.296
  825SOL     OW 2924   0.803   3.264   2.786
  825SOL    HW1 2925   0.893   3.278   2.744
  825SOL    HW2 2926   0.732   3.266   2.715
  826SOL     OW 2927   0.922   2.365   2.761
  826SOL    HW1 2928   0.897   2.356   2.665
  826SOL    HW2 2929   0.970   2.283   2.792
  827SOL     OW 2930   0.539   1.926   2.374
  827SOL    HW1 2931   0.458   1.927   2.432
  827SOL    HW2 2932   0.542   2.009   2.319
  828SOL     OW 2933   1.434   3.050   1.903
  828SOL    HW1 2934   1.466   2.974   1.960
  828SOL    HW2 2935   1.342   3.077   1.933
  829SOL     OW 2936   0.297   1.897   2.033
  829SOL    HW1 2937   0.346   1.981   2.012
  829SOL    HW2 2938   0.359   1.832   2.078
  830SOL     OW 2939   0.935   2.098   2.342
  830SOL    HW1 2940   0.887   2.139   2.264
  830SOL    HW2 2941   1.034   2.096   2.323
  831SOL     OW 2942   1.076   2.545   3.326
  831SOL    HW1 2943   0.996   2.484   3.329
  831SOL    HW2 2944   1.157   2.492   3.302
  832SOL     OW 2945   1.227   3.432   2.655
  832SOL    HW1 2946   1.248   3.506   2.590
  832SOL    HW2 2947   1.295   3.432   2.728
  833SOL     OW 2948   0.459   3.014   2.603
  833SOL    HW1 2949   0.388   2.987   2.668
  833SOL    HW2 2950   0.433   2.986   2.510
  834SOL     OW 2951   1.271   3.659   2.453
  834SOL    HW1 2952   1.315   3.723   2.389
  834SOL    HW2 2953   1.221   3.711   2.523
  835SOL     OW 2954   1.032   2.411   1.878
  835SOL    HW1 2955   0.991   2.493   1.839
  835SOL    HW2 2956   1.096   2.437   1.951
  836SOL     OW 2957   0.078   2.418   3.248
  836SOL    HW1 2958   0.170   2.417   3.207
  836SOL    HW2 2959   0.072   2.492   3.315
  837SOL     OW 2960   0.561   2.084   3.009
  837SOL    HW1 2961   0.599   2.000   3.046
  837SOL    HW2 2962   0.473   2.103   3.053
  838SOL     OW 2963   0.866   2.316   2.504
  838SOL    HW1 2964   0.834   2.388   2.442
  838SOL    HW2 2965   0.890   2.235   2.451
  839SOL     OW 2966   1.017   1.901   2.615
  839SOL    HW1 2967   0.945   1.906   2.546
  839SOL    HW2 2968   0.993   1.832   2.684
  840SOL     OW 2969   1.429   3.035   2.729
  840SOL    HW1 2970   1.374   2.951   2.722
  840SOL    HW2 2971   1.455   3.064   2.637
  841SOL     OW 2972   1.466   2.452   2.854
  841SOL    HW1 2973   1.436   2.357   2.861
  841SOL    HW2 2974   1.539   2.468   2.920
  842SOL     OW 2975   1.857   2.695   2.239
  842SOL    HW1 2976   1.899   2.631   2.303
  842SOL    HW2 2977   1.819   2.644   2.161
  843SOL     OW 2978   1.664   3.142   2.519
  843SOL    HW1 2979   1.763   3.150   2.533
  843SOL    HW2 2980   1.619   3.226   2.550
  844SOL     OW 2981   1.390   2.437   1.940
  844SOL    HW1 2982   1.336   2.416   2.021
  844SOL    HW2 2983   1.481   2.396   1.949
  845SOL     OW 2984   0.527   2.118   2.190
  845SOL    HW1 2985   0.554   2.059   2.115
  845SOL    HW2 2986   0.527   2.213   2.159
  846SOL     OW 2987   1.754   3.085   3.450
  846SOL    HW1 2988   1.845   3.046   3.437
  846SOL    HW2 2989   1.762   3.181   3.474
  847SOL     OW 2990   1.064   3.209   3.202
  847SOL    HW1 2991   0.984   3.186   3.257
  847SOL    HW2 2992   1.147   3.183   3.251
  848SOL     OW 2993   1.592   3.491   3.487
  848SOL    HW1 2994   1.619   3.525   3.397
  848SOL    HW2 2995   1.671   3.453   3.533
  849SOL     OW 2996   1.111   3.057   2.962
  849SOL    HW1 2997   1.071   3.101   3.043
  849SOL    HW2 2998   1.070   3.094   2.879
  850SOL     OW 2999   1.638   2.961   2.941
  850SOL    HW1 3000   1.643   3.042   3.000
  850SOL    HW2 3001   1.552   2.963   2.890
  851SOL     OW 3002   0.915   1.951   3.264
  851SOL    HW1 3003   0.940   1.931   3.169
  851SOL    HW2 3004   0.987   2.007   3.306
  852SOL     OW 3005   0.980   2.978   3.581
  852SOL    HW1 3006   0.881   2.984   3.591
  852SOL    HW2 3007   1.003   2.898   3.525
  853SOL     OW 3008   0.705   2.912   2.230
  853SOL    HW1 3009   0.691   2.919   2.329
  853SOL    HW2 3010   0.789   2.861   2.212
  854SOL     OW 3011   0.410   2.675   3.113
  854SOL    HW1 3012   0.496   2.687   3.163
  854SOL    HW2 3013   0.368   2.588   3.140
  855SOL     OW 3014   1.274   2.248   3.124
  855SOL    HW1 3015   1.295   2.322   3.188
  855SOL    HW2 3016   1.185   2.265   3.081
  856SOL     OW 3017   0.064   3.426   3.193
  856SOL    HW1 3018   0.018   3.508   3.159
  856SOL    HW2 3019   0.162   3.445   3.202
  857SOL     OW 3020   0.367   2.962   2.363
  857SOL    HW1 3021   0.360   3.045   2.307
  857SOL    HW2 3022   0.371   2.882   2.303
  858SOL     OW 3023   0.566   2.399   2.727
  858SOL    HW1 3024   0.578   2.465   2.653
  858SOL    HW2 3025   0.612   2.433   2.810
  859SOL     OW 3026   1.252   3.210   2.250
  859SOL    HW1 3027   1.302   3.287   2.290
  859SOL    HW2 3028   1.157   3.212   2.282
  860SOL     OW 3029   1.272   3.307   3.004
  860SOL    HW1 3030   1.319   3.320   3.091
  860SOL    HW2 3031   1.206   3.233   3.013
  861SOL     OW 3032   1.582   2.501   2.334
  861SOL    HW1 3033   1.551   2.562   2.407
  861SOL    HW2 3034   1.632   2.553   2.265
  862SOL     OW 3035   0.354   3.372   3.191
  862SOL    HW1 3036   0.333   3.328   3.104
  862SOL    HW2 3037   0.451   3.398   3.194
  863SOL     OW 3038   0.402   2.613   3.460
  863SOL    HW1 3039   0.470   2.668   3.413
  863SOL    HW2 3040   0.442   2.525   3.487
  864SOL     OW 3041   1.587   2.641   3.532
  864SOL    HW1 3042   1.495   2.679   3.527
  864SOL    HW2 3043   1.647   2.688   3.467
  865SOL     OW 3044   1.013   1.967   3.632
  865SOL    HW1 3045   1.019   2.052   3.580
  865SOL    HW2 3046   1.045   1.891   3.575
  866SOL     OW 3047   0.504   1.912   3.602
  866SOL    HW1 3048   0.462   1.855   3.532
  866SOL    HW2 3049   0.438   1.981   3.634
  867SOL     OW 3050   0.573   2.732   2.891
  867SOL    HW1 3051   0.617   2.821   2.882
  867SOL    HW2 3052   0.510   2.732   2.968
  868SOL     OW 3053   1.360   2.724   2.907
  868SOL    HW1 3054   1.285   2.724   2.841
  868SOL    HW2 3055   1.397   2.632   2.916
  869SOL     OW 3056   1.209   2.387   2.137
  869SOL    HW1 3057   1.222   2.303   2.191
  869SOL    HW2 3058   1.180   2.461   2.197
  870SOL     OW 3059   0.307   2.075   3.093
  870SOL    HW1 3060   0.284   2.112   3.183
  870SOL    HW2 3061   0.277   1.980   3.087
  871SOL     OW 3062   0.037   3.172   3.144
  871SOL    HW1 3063   0.090   3.123   3.212
  871SOL    HW2 3064   0.059   3.270   3.149
  872SOL     OW 3065   0.732   2.496   2.926
  872SOL    HW1 3066   0.791   2.470   2.850
  872SOL    HW2 3067   0.704   2.592   2.915
  873SOL     OW 3068   1.728   2.797   3.716
  873SOL    HW1 3069   1.682   2.790   3.627
  873SOL    HW2 3070   1.666   2.841   3.782
  874SOL     OW 3071   0.307   1.925   2.480
  874SOL    HW1 3072   0.296   2.019   2.513
  874SOL    HW2 3073   0.302   1.862   2.557
  875SOL     OW 3074   1.622   2.229   2.236
  875SOL    HW1 3075   1.624   2.153   2.300
  875SOL    HW2 3076   1.574   2.306   2.276
  876SOL     OW 3077   1.023   2.628   2.828
  876SOL    HW1 3078   1.038   2.649   2.924
  876SOL    HW2 3079   0.993   2.533   2.819
  877SOL     OW 3080   0.980   3.435   3.562
  877SOL    HW1 3081   0.960   3.479   3.474
  877SOL    HW2 3082   1.019   3.344   3.546
  878SOL     OW 3083   1.859   3.380   3.467
  878SOL    HW1 3084   1.873   3.407   3.372
  878SOL    HW2 3085   1.942   3.402   3.520
  879SOL     OW 3086   0.350   2.760   3.666
  879SOL    HW1 3087   0.426   2.804   3.714
  879SOL    HW2 3088   0.385   2.713   3.584
  880SOL     OW 3089   1.540   2.136   1.987
  880SOL    HW1 3090   1.479   2.061   2.010
  880SOL    HW2 3091   1.562   2.188   2.070
  881SOL     OW 3092   1.303   2.700   1.904
  881SOL    HW1 3093   1.337   2.607   1.919
  881SOL    HW2 3094   1.321   2.727   1.809
  882SOL     OW 3095   1.068   3.195   2.711
  882SOL    HW1 3096   1.075   3.111   2.656
  882SOL    HW2 3097   1.130   3.264   2.675
  883SOL     OW 3098   0.319   2.672   2.811
  883SOL    HW1 3099   0.412   2.708   2.816
  883SOL    HW2 3100   0.313   2.587   2.863
  884SOL     OW 3101   0.339   2.371   2.868
  884SOL    HW1 3102   0.287   2.288   2.851
  884SOL    HW2 3103   0.416   2.376   2.804
  885SOL     OW 3104   1.138   2.242   3.540
  885SOL    HW1 3105   1.093   2.305   3.604
  885SOL    HW2 3106   1.231   2.273   3.523
  886SOL     OW 3107   1.160   2.069   3.339
  886SOL    HW1 3108   1.160   2.133   3.416
  886SOL    HW2 3109   1.188   2.117   3.256
  887SOL     OW 3110   0.088   3.663   2.789
  887SOL    HW1 3111   0.046   3.577   2.762
  887SOL    HW2 3112   0.182   3.666   2.755
  888SOL     OW 3113   0.504   3.430   2.772
  888SOL    HW1 3114   0.570   3.504   2.781
  888SOL    HW2 3115   0.548   3.351   2.730
  889SOL     OW 3116   1.002   2.658   3.100
  889SOL    HW1 3117   1.043   2.626   3.186
  889SOL    HW2 3118   0.906   2.631   3.097
  890SOL     OW 3119   0.040   2.406   2.976
  890SOL    HW1 3120   0.125   2.373   2.935
  890SOL    HW2 3121   0.053   2.421   3.074
  891SOL     OW 3122   0.189   2.382   3.584
  891SOL    HW1 3123   0.248   2.342   3.514
  891SOL    HW2 3124   0.131   2.453   3.543
  892SOL     OW 3125   1.369   2.812   3.522
  892SOL    HW1 3126   1.408   2.901   3.542
  892SOL    HW2 3127   1.379   2.792   3.425
  893SOL     OW 3128   0.815   2.434   2.187
  893SOL    HW1 3129   0.822   2.345   2.141
  893SOL    HW2 3130   0.721   2.468   2.179
  894SOL     OW 3131   1.657   2.466   3.068
  894SOL    HW1 3132   1.619   2.397   3.130
  894SOL    HW2 3133   1.739   2.430   3.024
  895SOL     OW 3134   0.671   2.326   3.131
  895SOL    HW1 3135   0.637   2.237   3.101
  895SOL    HW2 3136   0.697   2.380   3.051
  896SOL     OW 3137   0.930   3.540   3.327
  896SOL    HW1 3138   0.906   3.522   3.232
  896SOL    HW2 3139   0.960   3.634   3.337
  897SOL     OW 3140   0.473   2.362   2.053
  897SOL    HW1 3141   0.534   2.442   2.057
  897SOL    HW2 3142   0.378   2.393   2.060
  898SOL     OW 3143   0.159   2.999   3.328
  898SOL    HW1 3144   0.181   2.938   3.404
  898SOL    HW2 3145   0.169   2.950   3.242
  899SOL     OW 3146   1.347   2.921   3.096
  899SOL    HW1 3147   1.371   2.858   3.022
  899SOL    HW2 3148   1.257   2.961   3.078
  900SOL     OW 3149   1.302   2.717   2.171
  900SOL    HW1 3150   1.216   2.686   2.213
  900SOL    HW2 3151   1.298   2.703   2.072
  901SOL     OW 3152   1.759   3.609   3.016
  901SOL    HW1 3153   1.820   3.639   2.943
  901SOL    HW2 3154   1.721   3.520   2.994
  902SOL     OW 3155   1.252   3.593   2.990
  902SOL    HW1 3156   1.336   3.598   2.936
  902SOL    HW2 3157   1.229   3.497   3.008
  903SOL     OW 3158   0.083   3.120   2.884
  903SOL    HW1 3159   0.078   3.119   2.984
  903SOL    HW2 3160   0.000   3.079   2.846
  904SOL     OW 3161   0.688   3.524   3.578
  904SOL    HW1 3162   0.632   3.605   3.587
  904SOL    HW2 3163   0.740   3.528   3.492
  905SOL     OW 3164   1.726   1.997   2.385
  905SOL    HW1 3165   1.799   1.980   2.318
  905SOL    HW2 3166   1.695   1.910   2.423
  906SOL     OW 3167   1.388   3.435   2.339
  906SOL    HW1 3168   1.455   3.447   2.265
  906SOL    HW2 3169   1.348   3.524   2.362
  907SOL     OW 3170   1.280   2.789   2.534
  907SOL    HW1 3171   1.340   2.708   2.536
  907SOL    HW2 3172   1.320   2.858   2.474
  908SOL     OW 3173   0.830   3.135   3.284
  908SOL    HW1 3174   0.825   3.168   3.379
  908SOL    HW2 3175   0.744   3.154   3.238
  909SOL     OW 3176   0.672   3.478   2.016
  909SOL    HW1 3177   0.681   3.488   1.917
  909SOL    HW2 3178   0.632   3.389   2.037
  910SOL     OW 3179   1.650   3.582   3.256
  910SOL    HW1 3180   1.703   3.592   3.172
  910SOL    HW2 3181   1.623   3.672   3.290
  911SOL     OW 3182   1.841   2.037   2.825
  911SOL    HW1 3183   1.880   1.952   2.789
  911SOL    HW2 3184   1.743   2.039   2.806
  912SOL     OW 3185   0.263   2.188   2.582
  912SOL    HW1 3186   0.184   2.239   2.548
  912SOL    HW2 3187   0.254   2.173   2.680
  913SOL     OW 3188   1.194   3.474   1.893
  913SOL    HW1 3189   1.200   3.381   1.930
  913SOL    HW2 3190   1.135   3.474   1.813
  914SOL     OW 3191   0.822   2.864   3.234
  914SOL    HW1 3192   0.862   2.863   3.142
  914SOL    HW2 3193   0.832   2.956   3.274
  915SOL     OW 3194   0.916   2.772   2.153
  915SOL    HW1 3195   0.979   2.810   2.085
  915SOL    HW2 3196   0.956   2.689   2.192
  916SOL     OW 3197   1.504   3.469   1.906
  916SOL    HW1 3198   1.412   3.506   1.913
  916SOL    HW2 3199   1.542   3.489   1.816
  917SOL     OW 3200   0.372   3.150   3.352
  917SOL    HW1 3201   0.359   3.243   3.318
  917SOL    HW2 3202   0.288   3.098   3.339
  918SOL     OW 3203   1.614   3.154   3.151
  918SOL    HW1 3204   1.674   3.157   3.231
  918SOL    HW2 3205   1.539   3.218   3.164
  919SOL     OW 3206   1.039   2.960   2.558
  919SOL    HW1 3207   0.969   2.913   2.612
  919SOL    HW2 3208   1.098   2.892   2.515
  920SOL     OW 3209   1.014   2.098   2.833
  920SOL    HW1 3210   1.006   2.062   2.740
  920SOL    HW2 3211   1.012   2.022   2.898
  921SOL     OW 3212   1.709   2.247   3.243
  921SOL    HW1 3213   1.782   2.316   3.247
  921SOL    HW2 3214   1.737   2.172   3.184
  922SOL     OW 3215   0.105   2.875   3.588
  922SOL    HW1 3216   0.028   2.842   3.642
  922SOL    HW2 3217   0.190   2.845   3.630
  923SOL     OW 3218   0.672   2.065   3.351
  923SOL    HW1 3219   0.762   2.049   3.311
  923SOL    HW2 3220   0.680   2.070   3.450
  924SOL     OW 3221   0.075   2.207   1.895
  924SOL    HW1 3222  -0.017   2.179   1.866
  924SOL    HW2 3223   0.106   2.284   1.839
  925SOL     OW 3224   1.440   2.718   3.260
  925SOL    HW1 3225   1.383   2.770   3.197
  925SOL    HW2 3226   1.536   2.730   3.236
  926SOL     OW 3227   0.072   2.028   2.180
  926SOL    HW1 3228   0.055   2.111   2.126
  926SOL    HW2 3229   0.162   1.991   2.158
  927SOL     OW 3230   1.183   3.197   1.981
  927SOL    HW1 3231   1.084   3.186   1.983
  927SOL    HW2 3232   1.217   3.212   2.074
  928SOL     OW 3233   0.613   2.704   3.293
  928SOL    HW1 3234   0.669   2.785   3.276
  928SOL    HW2 3235   0.672   2.624   3.296
  929SOL     OW 3236   1.493   3.629   2.821
  929SOL    HW1 3237   1.526   3.693   2.752
  929SOL    HW2 3238   1.559   3.623   2.896
  930SOL     OW 3239   0.716   2.427   3.570
  930SOL    HW1 3240   0.735   2.492   3.644
  930SOL    HW2 3241   0.776   2.347   3.579
  931SOL     OW 3242   1.450   3.082   3.495
  931SOL    HW1 3243   1.441   3.072   3.594
  931SOL    HW2 3244   1.546   3.075   3.469
  932SOL     OW 3245   0.390   3.603   3.422
  932SOL    HW1 3246   0.299   3.644   3.420
  932SOL    HW2 3247   0.383   3.509   3.454
  933SOL     OW 3248   1.674   2.745   3.116
  933SOL    HW1 3249   1.647   2.656   3.079
  933SOL    HW2 3250   1.675   2.813   3.043
  934SOL     OW 3251   1.225   2.187   2.311
  934SOL    HW1 3252   1.290   2.113   2.300
  934SOL    HW2 3253   1.245   2.237   2.395
  935SOL     OW 3254   0.594   2.607   2.514
  935SOL    HW1 3255   0.644   2.692   2.495
  935SOL    HW2 3256   0.506   2.609   2.466
  936SOL     OW 3257   1.777   2.204   3.504
  936SOL    HW1 3258   1.760   2.235   3.410
  936SOL    HW2 3259   1.693   2.167   3.542
  937SOL     OW 3260   1.730   2.796   3.379
  937SOL    HW1 3261   1.768   2.887   3.394
  937SOL    HW2 3262   1.722   2.779   3.280
  938SOL     OW 3263   0.859   3.236   1.878
  938SOL    HW1 3264   0.813   3.251   1.966
  938SOL    HW2 3265   0.903   3.321   1.848
  939SOL     OW 3266   0.661   3.652   2.815
  939SOL    HW1 3267   0.615   3.740   2.802
  939SOL    HW2 3268   0.760   3.664   2.808
  940SOL     OW 3269   0.859   2.818   2.723
  940SOL    HW1 3270   0.913   2.749   2.771
  940SOL    HW2 3271   0.827   2.887   2.789
  941SOL     OW 3272   1.083   2.846   1.949
  941SOL    HW1 3273   1.060   2.899   1.867
  941SOL    HW2 3274   1.164   2.790   1.930
  942SOL     OW 3275   1.861   3.431   2.713
  942SOL    HW1 3276   1.790   3.419   2.643
  942SOL    HW2 3277   1.862   3.352   2.773
  943SOL     OW 3278   0.221   3.176   3.706
  943SOL    HW1 3279   0.156   3.103   3.685
  943SOL    HW2 3280   0.225   3.190   3.804
  944SOL     OW 3281   0.079   3.102   2.515
  944SOL    HW1 3282   0.078   3.055   2.603
  944SOL    HW2 3283   0.161   3.074   2.464
  945SOL     OW 3284   0.672   3.253   3.486
  945SOL    HW1 3285   0.594   3.203   3.524
  945SOL    HW2 3286   0.669   3.348   3.517
  946SOL     OW 3287   1.824   2.054   3.089
  946SOL    HW1 3288   1.820   1.964   3.133
  946SOL    HW2 3289   1.827   2.043   2.990
  947SOL     OW 3290   0.428   2.286   2.382
  947SOL    HW1 3291   0.458   2.214   2.320
  947SOL    HW2 3292   0.389   2.246   2.465
  948SOL     OW 3293   1.705   3.349   2.966
  948SOL    HW1 3294   1.612   3.324   2.939
  948SOL    HW2 3295   1.731   3.299   3.048
  949SOL     OW 3296   0.317   2.409   3.142
  949SOL    HW1 3297   0.355   2.350   3.214
  949SOL    HW2 3298   0.357   2.383   3.054
  950SOL     OW 3299   0.812   3.448   2.549
  950SOL    HW1 3300   0.844   3.458   2.455
  950SOL    HW2 3301   0.733   3.386   2.551
  951SOL     OW 3302   1.424   2.076   2.974
  951SOL    HW1 3303   1.476   2.011   3.029
  951SOL    HW2 3304   1.375   2.139   3.035
  952SOL     OW 3305   1.001   1.896   3.016
  952SOL    HW1 3306   0.938   1.824   2.985
  952SOL    HW2 3307   1.094   1.860   3.016
  953SOL     OW 3308   0.770   3.192   2.163
  953SOL    HW1 3309   0.724   3.105   2.180
  953SOL    HW2 3310   0.861   3.189   2.204
  954SOL     OW 3311   0.618   3.429   3.146
  954SOL    HW1 3312   0.613   3.511   3.203
  954SOL    HW2 3313   0.707   3.426   3.101
  955SOL     OW 3314   1.352   1.914   2.030
  955SOL    HW1 3315   1.387   1.873   1.946
  955SOL    HW2 3316   1.262   1.876   2.050
  956SOL     OW 3317   1.300   2.315   2.553
  956SOL    HW1 3318   1.241   2.395   2.557
  956SOL    HW2 3319   1.315   2.280   2.646
  957SOL     OW 3320   1.593   2.083   2.744
  957SOL    HW1 3321   1.509   2.082   2.798
  957SOL    HW2 3322   1.595   2.166   2.688
  958SOL     OW 3323   0.039   2.939   2.162
  958SOL    HW1 3324   0.138   2.928   2.153
  958SOL    HW2 3325  -0.001   2.853   2.194
  959SOL     OW 3326   0.875   3.508   2.199
  959SOL    HW1 3327   0.798   3.473   2.145
  959SOL    HW2 3328   0.843   3.579   2.261
  960SOL     OW 3329   0.230   2.490   3.837
  960SOL    HW1 3330   0.137   2.488   3.874
  960SOL    HW2 3331   0.231   2.451   3.745
  961SOL     OW 3332   0.569   3.137   4.889
  961SOL    HW1 3333   0.476   3.130   4.852
  961SOL    HW2 3334   0.580   3.226   4.933
  962SOL     OW 3335   1.555   3.373   4.427
  962SOL    HW1 3336   1.498   3.357   4.508
  962SOL    HW2 3337   1.496   3.383   4.347
  963SOL     OW 3338   1.135   2.565   4.441
  963SOL    HW1 3339   1.192   2.643   4.416
  963SOL    HW2 3340   1.075   2.591   4.517
  964SOL     OW 3341   1.755   2.469   3.955
  964SOL    HW1 3342   1.743   2.456   3.856
  964SOL    HW2 3343   1.725   2.388   4.004
  965SOL     OW 3344   0.768   3.006   4.747
  965SOL    HW1 3345   0.690   3.023   4.807
  965SOL    HW2 3346   0.802   3.093   4.711
  966SOL     OW 3347   0.685   2.874   4.389
  966SOL    HW1 3348   0.754   2.858   4.459
  966SOL    HW2 3349   0.612   2.931   4.427
  967SOL     OW 3350   0.335   3.297   4.785
  967SOL    HW1 3351   0.257   3.266   4.732
  967SOL    HW2 3352   0.393   3.355   4.728
  968SOL     OW 3353   1.603   2.309   4.461
  968SOL    HW1 3354   1.529   2.355   4.411
  968SOL    HW2 3355   1.654   2.377   4.514
  969SOL     OW 3356   0.231   3.575   4.207
  969SOL    HW1 3357   0.265   3.652   4.261
  969SOL    HW2 3358   0.275   3.575   4.117
  970SOL     OW 3359   0.230   3.296   4.262
  970SOL    HW1 3360   0.204   3.392   4.262
  970SOL    HW2 3361   0.159   3.242   4.307
  971SOL     OW 3362   0.240   2.953   4.610
  971SOL    HW1 3363   0.254   2.869   4.662
  971SOL    HW2 3364   0.185   3.017   4.665
  972SOL     OW 3365   0.620   3.648   5.163
  972SOL    HW1 3366   0.528   3.631   5.198
  972SOL    HW2 3367   0.648   3.740   5.189
  973SOL     OW 3368   0.606   2.826   3.847
  973SOL    HW1 3369   0.613   2.910   3.793
  973SOL    HW2 3370   0.652   2.839   3.935
  974SOL     OW 3371   1.842   3.629   4.083
  974SOL    HW1 3372   1.896   3.600   4.163
  974SOL    HW2 3373   1.872   3.719   4.054
  975SOL     OW 3374   1.689   2.784   4.336
  975SOL    HW1 3375   1.784   2.755   4.344
  975SOL    HW2 3376   1.681   2.849   4.261
  976SOL     OW 3377   1.641   2.970   4.156
  976SOL    HW1 3378   1.727   2.972   4.104
  976SOL    HW2 3379   1.655   3.017   4.244
  977SOL     OW 3380   0.613   3.227   4.450
  977SOL    HW1 3381   0.564   3.140   4.459
  977SOL    HW2 3382   0.590   3.270   4.363
  978SOL     OW 3383   0.809   1.866   4.226
  978SOL    HW1 3384   0.849   1.957   4.217
  978SOL    HW2 3385   0.709   1.874   4.232
  979SOL     OW 3386   0.197   2.838   4.988
  979SOL    HW1 3387   0.286   2.793   4.974
  979SOL    HW2 3388   0.124   2.773   4.969
  980SOL     OW 3389   1.525   2.861   3.914
  980SOL    HW1 3390   1.462   2.785   3.927
  980SOL    HW2 3391   1.573   2.879   4.000
  981SOL     OW 3392   1.466   3.279   4.677
  981SOL    HW1 3393   1.407   3.285   4.757
  981SOL    HW2 3394   1.451   3.191   4.631
  982SOL     OW 3395   1.667   3.576   4.296
  982SOL    HW1 3396   1.626   3.553   4.208
  982SOL    HW2 3397   1.649   3.502   4.361
  983SOL     OW 3398   0.598   2.591   3.994
  983SOL    HW1 3399   0.622   2.660   3.926
  983SOL    HW2 3400   0.520   2.624   4.048
  984SOL     OW 3401   1.281   2.207   4.668
  984SOL    HW1 3402   1.195   2.157   4.655
  984SOL    HW2 3403   1.343   2.153   4.724
  985SOL     OW 3404   1.576   3.524   4.031
  985SOL    HW1 3405   1.665   3.570   4.034
  985SOL    HW2 3406   1.555   3.500   3.936
  986SOL     OW 3407   0.991   2.272   4.966
  986SOL    HW1 3408   0.914   2.306   5.020
  986SOL    HW2 3409   0.957   2.221   4.887
  987SOL     OW 3410   1.041   2.563   4.153
  987SOL    HW1 3411   1.067   2.559   4.249
  987SOL    HW2 3412   0.956   2.512   4.139
  988SOL     OW 3413   0.076   2.673   4.513
  988SOL    HW1 3414   0.175   2.661   4.522
  988SOL    HW2 3415   0.052   2.768   4.534
  989SOL     OW 3416   0.130   3.683   5.295
  989SOL    HW1 3417   0.120   3.668   5.394
  989SOL    HW2 3418   0.044   3.719   5.259
  990SOL     OW 3419   0.865   2.210   3.919
  990SOL    HW1 3420   0.924   2.273   3.870
  990SOL    HW2 3421   0.884   2.116   3.890
  991SOL     OW 3422   1.362   3.006   4.269
  991SOL    HW1 3423   1.445   2.977   4.221
  991SOL    HW2 3424   1.313   3.073   4.213
  992SOL     OW 3425   0.550   2.058   4.609
  992SOL    HW1 3426   0.545   2.053   4.709
  992SOL    HW2 3427   0.552   2.154   4.580
  993SOL     OW 3428   0.351   3.663   4.577
  993SOL    HW1 3429   0.401   3.577   4.583
  993SOL    HW2 3430   0.416   3.740   4.574
  994SOL     OW 3431   1.795   2.928   4.597
  994SOL    HW1 3432   1.733   2.913   4.521
  994SOL    HW2 3433   1.743   2.939   4.682
  995SOL     OW 3434   0.321   2.805   3.966
  995SOL    HW1 3435   0.403   2.844   3.924
  995SOL    HW2 3436   0.294   2.723   3.917
  996SOL     OW 3437   1.458   2.597   4.452
  996SOL    HW1 3438   1.453   2.532   4.527
  996SOL    HW2 3439   1.538   2.656   4.465
  997SOL     OW 3440   1.111   3.638   3.961
  997SOL    HW1 3441   1.051   3.576   4.011
  997SOL    HW2 3442   1.142   3.594   3.876
  998SOL     OW 3443   1.632   3.239   3.805
  998SOL    HW1 3444   1.600   3.333   3.795
  998SOL    HW2 3445   1.556   3.176   3.793
  999SOL     OW 3446   0.464   3.605   4.047
  999SOL    HW1 3447   0.497   3.644   4.133
  999SOL    HW2 3448   0.540   3.598   3.982
 1000SOL     OW 3449   1.400   1.969   4.150
 1000SOL    HW1 3450   1.376   1.932   4.060
 1000SOL    HW2 3451   1.499   1.985   4.154
 1001SOL     OW 3452   0.249   3.647   4.965
 1001SOL    HW1 3453   0.306   3.582   5.015
 1001SOL    HW2 3454   0.233   3.614   4.872
 1002SOL     OW 3455   0.614   1.984   3.841
 1002SOL    HW1 3456   0.712   1.962   3.848
 1002SOL    HW2 3457   0.583   1.967   3.748
 1003SOL     OW 3458   0.803   3.264   4.648
 1003SOL    HW1 3459   0.893   3.278   4.606
 1003SOL    HW2 3460   0.732   3.266   4.577
 1004SOL     OW 3461   0.922   2.365   4.623
 1004SOL    HW1 3462   0.897   2.356   4.527
 1004SOL    HW2 3463   0.970   2.283   4.654
 1005SOL     OW 3464   0.539   1.926   4.236
 1005SOL    HW1 3465   0.458   1.927   4.294
 1005SOL    HW2 3466   0.542   2.009   4.181
 1006SOL     OW 3467   1.434   3.050   3.765
 1006SOL    HW1 3468   1.466   2.974   3.822
 1006SOL    HW2 3469   1.342   3.077   3.795
 1007SOL     OW 3470   0.297   1.897   3.895
 1007SOL    HW1 3471   0.346   1.981   3.874
 1007SOL    HW2 3472   0.359   1.832   3.940
 1008SOL     OW 3473   0.935   2.098   4.204
 1008SOL    HW1 3474   0.887   2.139   4.126
 1008SOL    HW2 3475   1.034   2.096   4.185
 1009SOL     OW 3476   0.459   3.014   4.465
 1009SOL    HW1 3477   0.388   2.987   4.530
 1009SOL    HW2 3478   0.433   2.986   4.372
 1010SOL     OW 3479   1.032   2.411   3.740
 1010SOL    HW1 3480   0.991   2.493   3.701
 1010SOL    HW2 3481   1.096   2.437   3.813
 1011SOL     OW 3482   0.561   2.084   4.871
 1011SOL    HW1 3483   0.599   2.000   4.908
 1011SOL    HW2 3484   0.473   2.103   4.915
 1012SOL     OW 3485   0.866   2.316   4.366
 1012SOL    HW1 3486   0.834   2.388   4.304
 1012SOL    HW2 3487   0.890   2.235   4.313
 1013SOL     OW 3488   1.017   1.901   4.477
 1013SOL    HW1 3489   0.945   1.906   4.408
 1013SOL    HW2 3490   0.993   1.832   4.546
 1014SOL     OW 3491   1.429   3.035   4.591
 1014SOL    HW1 3492   1.374   2.951   4.584
 1014SOL    HW2 3493   1.455   3.064   4.499
 1015SOL     OW 3494   1.466   2.452   4.716
 1015SOL    HW1 3495   1.436   2.357   4.723
 1015SOL    HW2 3496   1.539   2.468   4.782
 1016SOL     OW 3497   1.857   2.695   4.101
 1016SOL    HW1 3498   1.899   2.631   4.165
 1016SOL    HW2 3499   1.819   2.644   4.023
 1017SOL     OW 3500   0.488   3.247   3.898
 1017SOL    HW1 3501   0.401   3.232   3.945
 1017SOL    HW2 3502   0.471   3.273   3.803
 1018SOL     OW 3503   1.664   3.142   4.381
 1018SOL    HW1 3504   1.763   3.150   4.395
 1018SOL    HW2 3505   1.619   3.226   4.412
 1019SOL     OW 3506   1.390   2.437   3.802
 1019SOL    HW1 3507   1.336   2.416   3.883
 1019SOL    HW2 3508   1.481   2.396   3.811
 1020SOL     OW 3509   0.527   2.118   4.052
 1020SOL    HW1 3510   0.554   2.059   3.977
 1020SOL    HW2 3511   0.527   2.213   4.021
 1021SOL     OW 3512   1.111   3.057   4.824
 1021SOL    HW1 3513   1.071   3.101   4.905
 1021SOL    HW2 3514   1.070   3.094   4.741
 1022SOL     OW 3515   1.638   2.961   4.803
 1022SOL    HW1 3516   1.643   3.042   4.862
 1022SOL    HW2 3517   1.552   2.963   4.752
 1023SOL     OW 3518   0.705   2.912   4.092
 1023SOL    HW1 3519   0.691   2.919   4.191
 1023SOL    HW2 3520   0.789   2.861   4.074
 1024SOL     OW 3521   0.410   2.675   4.975
 1024SOL    HW1 3522   0.496   2.687   5.025
 1024SOL    HW2 3523   0.368   2.588   5.002
 1025SOL     OW 3524   1.274   2.248   4.986
 1025SOL    HW1 3525   1.295   2.322   5.050
 1025SOL    HW2 3526   1.185   2.265   4.943
 1026SOL     OW 3527   0.367   2.962   4.225
 1026SOL    HW1 3528   0.360   3.045   4.169
 1026SOL    HW2 3529   0.371   2.882   4.165
 1027SOL     OW 3530   0.566   2.399   4.589
 1027SOL    HW1 3531   0.578   2.465   4.515
 1027SOL    HW2 3532   0.612   2.433   4.672
 1028SOL     OW 3533   1.272   3.307   4.866
 1028SOL    HW1 3534   1.319   3.320   4.953
 1028SOL    HW2 3535   1.206   3.233   4.875
 1029SOL     OW 3536   1.582   2.501   4.196
 1029SOL    HW1 3537   1.551   2.562   4.269
 1029SOL    HW2 3538   1.632   2.553   4.127
 1030SOL     OW 3539   0.354   3.372   5.053
 1030SOL    HW1 3540   0.333   3.328   4.966
 1030SOL    HW2 3541   0.451   3.398   5.056
 1031SOL     OW 3542   0.573   2.732   4.753
 1031SOL    HW1 3543   0.617   2.821   4.744
 1031SOL    HW2 3544   0.510   2.732   4.830
 1032SOL     OW 3545   1.360   2.724   4.769
 1032SOL    HW1 3546   1.285   2.724   4.703
 1032SOL    HW2 3547   1.397   2.632   4.778
 1033SOL     OW 3548   1.209   2.387   3.999
 1033SOL    HW1 3549   1.222   2.303   4.053
 1033SOL    HW2 3550   1.180   2.461   4.059
 1034SOL     OW 3551   0.307   2.075   4.955
 1034SOL    HW1 3552   0.284   2.112   5.045
 1034SOL    HW2 3553   0.277   1.980   4.949
 1035SOL     OW 3554   0.037   3.172   5.006
 1035SOL    HW1 3555   0.090   3.123   5.074
 1035SOL    HW2 3556   0.059   3.270   5.011
 1036SOL     OW 3557   0.732   2.496   4.788
 1036SOL    HW1 3558   0.791   2.470   4.712
 1036SOL    HW2 3559   0.704   2.592   4.777
 1037SOL     OW 3560   1.622   2.229   4.098
 1037SOL    HW1 3561   1.624   2.153   4.162
 1037SOL    HW2 3562   1.574   2.306   4.138
 1038SOL     OW 3563   1.023   2.628   4.690
 1038SOL    HW1 3564   1.038   2.649   4.786
 1038SOL    HW2 3565   0.993   2.533   4.681
 1039SOL     OW 3566   1.540   2.136   3.849
 1039SOL    HW1 3567   1.479   2.061   3.872
 1039SOL    HW2 3568   1.562   2.188   3.932
 1040SOL     OW 3569   1.303   2.700   3.766
 1040SOL    HW1 3570   1.337   2.607   3.781
 1040SOL    HW2 3571   1.321   2.727   3.671
 1041SOL     OW 3572   1.068   3.195   4.573
 1041SOL    HW1 3573   1.075   3.111   4.518
 1041SOL    HW2 3574   1.130   3.264   4.537
 1042SOL     OW 3575   0.319   2.672   4.673
 1042SOL    HW1 3576   0.412   2.708   4.678
 1042SOL    HW2 3577   0.313   2.587   4.725
 1043SOL     OW 3578   0.339   2.371   4.730
 1043SOL    HW1 3579   0.287   2.288   4.713
 1043SOL    HW2 3580   0.416   2.376   4.666
 1044SOL     OW 3581   1.160   2.069   5.201
 1044SOL    HW1 3582   1.160   2.133   5.278
 1044SOL    HW2 3583   1.188   2.117   5.118
 1045SOL     OW 3584   0.088   3.663   4.651
 1045SOL    HW1 3585   0.046   3.577   4.624
 1045SOL    HW2 3586   0.182   3.666   4.617
 1046SOL     OW 3587   0.504   3.430   4.634
 1046SOL    HW1 3588   0.570   3.504   4.643
 1046SOL    HW2 3589   0.548   3.351   4.592
 1047SOL     OW 3590   1.002   2.658   4.962
 1047SOL    HW1 3591   1.043   2.626   5.048
 1047SOL    HW2 3592   0.906   2.631   4.959
 1048SOL     OW 3593   0.040   2.406   4.838
 1048SOL    HW1 3594   0.125   2.373   4.797
 1048SOL    HW2 3595   0.053   2.421   4.936
 1049SOL     OW 3596   0.815   2.434   4.049
 1049SOL    HW1 3597   0.822   2.345   4.003
 1049SOL    HW2 3598   0.721   2.468   4.041
 1050SOL     OW 3599   1.657   2.466   4.930
 1050SOL    HW1 3600   1.619   2.397   4.992
 1050SOL    HW2 3601   1.739   2.430   4.886
 1051SOL     OW 3602   0.671   2.326   4.993
 1051SOL    HW1 3603   0.637   2.237   4.963
 1051SOL    HW2 3604   0.697   2.380   4.913
 1052SOL     OW 3605   0.930   3.540   5.189
 1052SOL    HW1 3606   0.906   3.522   5.094
 1052SOL    HW2 3607   0.960   3.634   5.199
 1053SOL     OW 3608   0.473   2.362   3.915
 1053SOL    HW1 3609   0.534   2.442   3.919
 1053SOL    HW2 3610   0.378   2.393   3.922
 1054SOL     OW 3611   1.347   2.921   4.958
 1054SOL    HW1 3612   1.371   2.858   4.884
 1054SOL    HW2 3613   1.257   2.961   4.940
 1055SOL     OW 3614   1.302   2.717   4.033
 1055SOL    HW1 3615   1.216   2.686   4.075
 1055SOL    HW2 3616   1.298   2.703   3.934
 1056SOL     OW 3617   1.759   3.609   4.878
 1056SOL    HW1 3618   1.820   3.639   4.805
 1056SOL    HW2 3619   1.721   3.520   4.856
 1057SOL     OW 3620   1.252   3.593   4.852
 1057SOL    HW1 3621   1.336   3.598   4.798
 1057SOL    HW2 3622   1.229   3.497   4.870
 1058SOL     OW 3623   0.083   3.120   4.746
 1058SOL    HW1 3624   0.078   3.119   4.846
 1058SOL    HW2 3625   0.000   3.079   4.708
 1059SOL     OW 3626   1.726   1.997   4.247
 1059SOL    HW1 3627   1.799   1.980   4.180
 1059SOL    HW2 3628   1.695   1.910   4.285
 1060SOL     OW 3629   1.280   2.789   4.396
 1060SOL    HW1 3630   1.340   2.708   4.398
 1060SOL    HW2 3631   1.320   2.858   4.336
 1061SOL     OW 3632   0.672   3.478   3.878
 1061SOL    HW1 3633   0.681   3.488   3.779
 1061SOL    HW2 3634   0.632   3.389   3.899
 1062SOL     OW 3635   1.650   3.582   5.118
 1062SOL    HW1 3636   1.703   3.592   5.034
 1062SOL    HW2 3637   1.623   3.672   5.152
 1063SOL     OW 3638   1.841   2.037   4.687
 1063SOL    HW1 3639   1.880   1.952   4.651
 1063SOL    HW2 3640   1.743   2.039   4.668
 1064SOL     OW 3641   1.194   3.474   3.755
 1064SOL    HW1 3642   1.200   3.381   3.792
 1064SOL    HW2 3643   1.135   3.474   3.675
 1065SOL     OW 3644   0.822   2.864   5.096
 1065SOL    HW1 3645   0.862   2.863   5.004
 1065SOL    HW2 3646   0.832   2.956   5.136
 1066SOL     OW 3647   0.916   2.772   4.015
 1066SOL    HW1 3648   0.979   2.810   3.947
 1066SOL    HW2 3649   0.956   2.689   4.054
 1067SOL     OW 3650   1.504   3.469   3.768
 1067SOL    HW1 3651   1.412   3.506   3.775
 1067SOL    HW2 3652   1.542   3.489   3.678
 1068SOL     OW 3653   1.039   2.960   4.420
 1068SOL    HW1 3654   0.969   2.913   4.474
 1068SOL    HW2 3655   1.098   2.892   4.377
 1069SOL     OW 3656   1.014   2.098   4.695
 1069SOL    HW1 3657   1.006   2.062   4.602
 1069SOL    HW2 3658   1.012   2.022   4.760
 1070SOL     OW 3659   0.590   3.349   4.215
 1070SOL    HW1 3660   0.632   3.291   4.145
 1070SOL    HW2 3661   0.546   3.428   4.171
 1071SOL     OW 3662   1.709   2.247   5.105
 1071SOL    HW1 3663   1.782   2.316   5.109
 1071SOL    HW2 3664   1.737   2.172   5.046
 1072SOL     OW 3665   0.075   2.207   3.757
 1072SOL    HW1 3666  -0.017   2.179   3.728
 1072SOL    HW2 3667   0.106   2.284   3.701
 1073SOL     OW 3668   1.183   3.197   3.843
 1073SOL    HW1 3669   1.084   3.186   3.845
 1073SOL    HW2 3670   1.217   3.212   3.936
 1074SOL     OW 3671   1.493   3.629   4.683
 1074SOL    HW1 3672   1.526   3.693   4.614
 1074SOL    HW2 3673   1.559   3.623   4.758
 1075SOL     OW 3674   1.450   3.082   5.357
 1075SOL    HW1 3675   1.441   3.072   5.456
 1075SOL    HW2 3676   1.546   3.075   5.331
 1076SOL     OW 3677   1.674   2.745   4.978
 1076SOL    HW1 3678   1.647   2.656   4.941
 1076SOL    HW2 3679   1.675   2.813   4.905
 1077SOL     OW 3680   1.225   2.187   4.173
 1077SOL    HW1 3681   1.290   2.113   4.162
 1077SOL    HW2 3682   1.245   2.237   4.257
 1078SOL     OW 3683   0.594   2.607   4.376
 1078SOL    HW1 3684   0.644   2.692   4.357
 1078SOL    HW2 3685   0.506   2.609   4.328
 1079SOL     OW 3686   1.730   2.796   5.241
 1079SOL    HW1 3687   1.768   2.887   5.256
 1079SOL    HW2 3688   1.722   2.779   5.142
 1080SOL     OW 3689   0.859   3.236   3.740
 1080SOL    HW1 3690   0.813   3.251   3.828
 1080SOL    HW2 3691   0.903   3.321   3.710
 1081SOL     OW 3692   0.859   2.818   4.585
 1081SOL    HW1 3693   0.913   2.749   4.633
 1081SOL    HW2 3694   0.827   2.887   4.651
 1082SOL     OW 3695   1.083   2.846   3.811
 1082SOL    HW1 3696   1.060   2.899   3.729
 1082SOL    HW2 3697   1.164   2.790   3.792
 1083SOL     OW 3698   1.861   3.431   4.575
 1083SOL    HW1 3699   1.790   3.419   4.505
 1083SOL    HW2 3700   1.862   3.352   4.635
 1084SOL     OW 3701   0.079   3.102   4.377
 1084SOL    HW1 3702   0.078   3.055   4.465
 1084SOL    HW2 3703   0.161   3.074   4.326
 1085SOL     OW 3704   1.824   2.054   4.951
 1085SOL    HW1 3705   1.820   1.964   4.995
 1085SOL    HW2 3706   1.827   2.043   4.852
 1086SOL     OW 3707   0.428   2.286   4.244
 1086SOL    HW1 3708   0.458   2.214   4.182
 1086SOL    HW2 3709   0.389   2.246   4.327
 1087SOL     OW 3710   1.705   3.349   4.828
 1087SOL    HW1 3711   1.612   3.324   4.801
 1087SOL    HW2 3712   1.731   3.299   4.910
 1088SOL     OW 3713   1.424   2.076   4.836
 1088SOL    HW1 3714   1.476   2.011   4.891
 1088SOL    HW2 3715   1.375   2.139   4.897
 1089SOL     OW 3716   1.001   1.896   4.878
 1089SOL    HW1 3717   0.938   1.824   4.847
 1089SOL    HW2 3718   1.094   1.860   4.878
 1090SOL     OW 3719   0.770   3.192   4.025
 1090SOL    HW1 3720   0.724   3.105   4.042
 1090SOL    HW2 3721   0.861   3.189   4.066
 1091SOL     OW 3722   1.352   1.914   3.892
 1091SOL    HW1 3723   1.387   1.873   3.808
 1091SOL    HW2 3724   1.262   1.876   3.912
 1092SOL     OW 3725   1.300   2.315   4.415
 1092SOL    HW1 3726   1.241   2.395   4.419
 1092SOL    HW2 3727   1.315   2.280   4.508
 1093SOL     OW 3728   1.593   2.083   4.606
 1093SOL    HW1 3729   1.509   2.082   4.660
 1093SOL    HW2 3730   1.595   2.166   4.550
 1094SOL     OW 3731   0.039   2.939   4.024
 1094SOL    HW1 3732   0.138   2.928   4.015
 1094SOL    HW2 3733  -0.001   2.853   4.056
 1095SOL     OW 3734   0.875   3.508   4.061
 1095SOL    HW1 3735   0.798   3.473   4.007
 1095SOL    HW2 3736   0.843   3.579   4.123
 1096SOL     OW 3737   0.230   4.352   0.113
 1096SOL    HW1 3738   0.137   4.350   0.150
 1096SOL    HW2 3739   0.231   4.313   0.021
 1097SOL     OW 3740   0.225   3.999   0.996
 1097SOL    HW1 3741   0.260   3.982   1.088
 1097SOL    HW2 3742   0.137   3.954   0.984
 1098SOL     OW 3743   0.019   4.092   0.647
 1098SOL    HW1 3744  -0.063   4.135   0.686
 1098SOL    HW2 3745  -0.009   4.019   0.584
 1099SOL     OW 3746   1.555   5.235   0.703
 1099SOL    HW1 3747   1.498   5.219   0.784
 1099SOL    HW2 3748   1.496   5.245   0.623
 1100SOL     OW 3749   1.135   4.427   0.717
 1100SOL    HW1 3750   1.192   4.505   0.692
 1100SOL    HW2 3751   1.075   4.453   0.793
 1101SOL     OW 3752   1.755   4.331   0.231
 1101SOL    HW1 3753   1.743   4.318   0.132
 1101SOL    HW2 3754   1.725   4.250   0.280
 1102SOL     OW 3755   0.850   4.522   1.823
 1102SOL    HW1 3756   0.846   4.598   1.888
 1102SOL    HW2 3757   0.872   4.558   1.732
 1103SOL     OW 3758   0.685   4.736   0.665
 1103SOL    HW1 3759   0.754   4.720   0.735
 1103SOL    HW2 3760   0.612   4.793   0.703
 1104SOL     OW 3761   0.686   4.885   1.803
 1104SOL    HW1 3762   0.746   4.964   1.817
 1104SOL    HW2 3763   0.600   4.916   1.762
 1105SOL     OW 3764   0.438   4.116   1.499
 1105SOL    HW1 3765   0.520   4.060   1.508
 1105SOL    HW2 3766   0.357   4.058   1.503
 1106SOL     OW 3767   1.603   4.171   0.737
 1106SOL    HW1 3768   1.529   4.217   0.687
 1106SOL    HW2 3769   1.654   4.239   0.790
 1107SOL     OW 3770   0.606   4.688   0.123
 1107SOL    HW1 3771   0.613   4.772   0.069
 1107SOL    HW2 3772   0.652   4.701   0.211
 1108SOL     OW 3773   1.594   3.838   1.480
 1108SOL    HW1 3774   1.576   3.905   1.408
 1108SOL    HW2 3775   1.591   3.884   1.569
 1109SOL     OW 3776   0.122   4.367   0.563
 1109SOL    HW1 3777   0.077   4.279   0.580
 1109SOL    HW2 3778   0.121   4.421   0.647
 1110SOL     OW 3779   1.689   4.646   0.612
 1110SOL    HW1 3780   1.784   4.617   0.620
 1110SOL    HW2 3781   1.681   4.711   0.537
 1111SOL     OW 3782   1.641   4.832   0.432
 1111SOL    HW1 3783   1.727   4.834   0.380
 1111SOL    HW2 3784   1.655   4.879   0.520
 1112SOL     OW 3785   0.113   4.461   1.597
 1112SOL    HW1 3786   0.201   4.448   1.642
 1112SOL    HW2 3787   0.100   4.558   1.575
 1113SOL     OW 3788   1.293   4.952   1.423
 1113SOL    HW1 3789   1.330   4.879   1.365
 1113SOL    HW2 3790   1.345   4.957   1.508
 1114SOL     OW 3791   0.809   3.728   0.502
 1114SOL    HW1 3792   0.849   3.819   0.493
 1114SOL    HW2 3793   0.709   3.736   0.508
 1115SOL     OW 3794   0.197   4.700   1.264
 1115SOL    HW1 3795   0.286   4.655   1.250
 1115SOL    HW2 3796   0.124   4.635   1.245
 1116SOL     OW 3797   1.525   4.723   0.190
 1116SOL    HW1 3798   1.462   4.647   0.203
 1116SOL    HW2 3799   1.573   4.741   0.276
 1117SOL     OW 3800   0.317   3.975   1.801
 1117SOL    HW1 3801   0.388   4.046   1.807
 1117SOL    HW2 3802   0.229   4.014   1.829
 1118SOL     OW 3803   1.466   5.141   0.953
 1118SOL    HW1 3804   1.407   5.147   1.033
 1118SOL    HW2 3805   1.451   5.053   0.907
 1119SOL     OW 3806   0.598   4.453   0.270
 1119SOL    HW1 3807   0.622   4.522   0.202
 1119SOL    HW2 3808   0.520   4.486   0.324
 1120SOL     OW 3809   1.281   4.069   0.944
 1120SOL    HW1 3810   1.195   4.019   0.931
 1120SOL    HW2 3811   1.343   4.015   1.000
 1121SOL     OW 3812   0.807   4.329   1.465
 1121SOL    HW1 3813   0.760   4.326   1.554
 1121SOL    HW2 3814   0.756   4.274   1.399
 1122SOL     OW 3815   1.394   4.193   1.674
 1122SOL    HW1 3816   1.374   4.236   1.762
 1122SOL    HW2 3817   1.472   4.131   1.683
 1123SOL     OW 3818   0.973   4.614   1.572
 1123SOL    HW1 3819   1.019   4.530   1.543
 1123SOL    HW2 3820   0.917   4.648   1.497
 1124SOL     OW 3821   0.991   4.134   1.242
 1124SOL    HW1 3822   0.914   4.168   1.296
 1124SOL    HW2 3823   0.957   4.083   1.163
 1125SOL     OW 3824   1.041   4.425   0.429
 1125SOL    HW1 3825   1.067   4.421   0.525
 1125SOL    HW2 3826   0.956   4.374   0.415
 1126SOL     OW 3827   0.865   4.072   0.195
 1126SOL    HW1 3828   0.924   4.135   0.146
 1126SOL    HW2 3829   0.884   3.978   0.166
 1127SOL     OW 3830   1.719   4.309   1.831
 1127SOL    HW1 3831   1.693   4.398   1.795
 1127SOL    HW2 3832   1.717   4.241   1.758
 1128SOL     OW 3833   1.362   4.868   0.545
 1128SOL    HW1 3834   1.445   4.839   0.497
 1128SOL    HW2 3835   1.313   4.935   0.489
 1129SOL     OW 3836   0.550   3.920   0.885
 1129SOL    HW1 3837   0.545   3.915   0.985
 1129SOL    HW2 3838   0.552   4.016   0.856
 1130SOL     OW 3839   1.795   4.790   0.873
 1130SOL    HW1 3840   1.733   4.775   0.797
 1130SOL    HW2 3841   1.743   4.801   0.958
 1131SOL     OW 3842   0.321   4.667   0.242
 1131SOL    HW1 3843   0.403   4.706   0.200
 1131SOL    HW2 3844   0.294   4.585   0.193
 1132SOL     OW 3845   1.458   4.459   0.728
 1132SOL    HW1 3846   1.453   4.394   0.803
 1132SOL    HW2 3847   1.538   4.518   0.741
 1133SOL     OW 3848   0.202   4.009   1.498
 1133SOL    HW1 3849   0.122   4.069   1.485
 1133SOL    HW2 3850   0.192   3.960   1.584
 1134SOL     OW 3851   1.632   5.101   0.081
 1134SOL    HW1 3852   1.600   5.195   0.071
 1134SOL    HW2 3853   1.556   5.038   0.069
 1135SOL     OW 3854   1.400   3.831   0.426
 1135SOL    HW1 3855   1.376   3.794   0.336
 1135SOL    HW2 3856   1.499   3.847   0.430
 1136SOL     OW 3857   0.382   4.424   0.480
 1136SOL    HW1 3858   0.427   4.334   0.477
 1136SOL    HW2 3859   0.288   4.413   0.513
 1137SOL     OW 3860   1.547   3.946   1.729
 1137SOL    HW1 3861   1.542   3.983   1.821
 1137SOL    HW2 3862   1.475   3.877   1.717
 1138SOL     OW 3863   0.781   3.988   1.749
 1138SOL    HW1 3864   0.848   3.927   1.792
 1138SOL    HW2 3865   0.708   4.007   1.814
 1139SOL     OW 3866   1.351   4.314   1.433
 1139SOL    HW1 3867   1.379   4.271   1.518
 1139SOL    HW2 3868   1.376   4.410   1.434
 1140SOL     OW 3869   0.803   5.126   0.924
 1140SOL    HW1 3870   0.893   5.140   0.882
 1140SOL    HW2 3871   0.732   5.128   0.853
 1141SOL     OW 3872   0.922   4.227   0.899
 1141SOL    HW1 3873   0.897   4.218   0.803
 1141SOL    HW2 3874   0.970   4.145   0.930
 1142SOL     OW 3875   0.539   3.788   0.512
 1142SOL    HW1 3876   0.458   3.789   0.570
 1142SOL    HW2 3877   0.542   3.871   0.457
 1143SOL     OW 3878   1.434   4.912   0.041
 1143SOL    HW1 3879   1.466   4.836   0.098
 1143SOL    HW2 3880   1.342   4.939   0.071
 1144SOL     OW 3881   0.297   3.759   0.171
 1144SOL    HW1 3882   0.346   3.843   0.150
 1144SOL    HW2 3883   0.359   3.694   0.216
 1145SOL     OW 3884   0.935   3.960   0.480
 1145SOL    HW1 3885   0.887   4.001   0.402
 1145SOL    HW2 3886   1.034   3.958   0.461
 1146SOL     OW 3887   1.076   4.407   1.464
 1146SOL    HW1 3888   0.996   4.346   1.467
 1146SOL    HW2 3889   1.157   4.354   1.440
 1147SOL     OW 3890   1.227   5.294   0.793
 1147SOL    HW1 3891   1.248   5.368   0.728
 1147SOL    HW2 3892   1.295   5.294   0.866
 1148SOL     OW 3893   0.459   4.876   0.741
 1148SOL    HW1 3894   0.388   4.849   0.806
 1148SOL    HW2 3895   0.433   4.848   0.648
 1149SOL     OW 3896   1.032   4.273   0.016
 1149SOL    HW1 3897   0.991   4.355  -0.023
 1149SOL    HW2 3898   1.096   4.299   0.089
 1150SOL     OW 3899   0.078   4.280   1.386
 1150SOL    HW1 3900   0.170   4.279   1.345
 1150SOL    HW2 3901   0.072   4.354   1.453
 1151SOL     OW 3902   0.561   3.946   1.147
 1151SOL    HW1 3903   0.599   3.862   1.184
 1151SOL    HW2 3904   0.473   3.965   1.191
 1152SOL     OW 3905   0.866   4.178   0.642
 1152SOL    HW1 3906   0.834   4.250   0.580
 1152SOL    HW2 3907   0.890   4.097   0.589
 1153SOL     OW 3908   1.017   3.763   0.753
 1153SOL    HW1 3909   0.945   3.768   0.684
 1153SOL    HW2 3910   0.993   3.694   0.822
 1154SOL     OW 3911   1.429   4.897   0.867
 1154SOL    HW1 3912   1.374   4.813   0.860
 1154SOL    HW2 3913   1.455   4.926   0.775
 1155SOL     OW 3914   1.466   4.314   0.992
 1155SOL    HW1 3915   1.436   4.219   0.999
 1155SOL    HW2 3916   1.539   4.330   1.058
 1156SOL     OW 3917   1.857   4.557   0.377
 1156SOL    HW1 3918   1.899   4.493   0.441
 1156SOL    HW2 3919   1.819   4.506   0.299
 1157SOL     OW 3920   1.664   5.004   0.657
 1157SOL    HW1 3921   1.763   5.012   0.671
 1157SOL    HW2 3922   1.619   5.088   0.688
 1158SOL     OW 3923   1.390   4.299   0.078
 1158SOL    HW1 3924   1.336   4.278   0.159
 1158SOL    HW2 3925   1.481   4.258   0.087
 1159SOL     OW 3926   0.527   3.980   0.328
 1159SOL    HW1 3927   0.554   3.921   0.253
 1159SOL    HW2 3928   0.527   4.075   0.297
 1160SOL     OW 3929   1.754   4.947   1.588
 1160SOL    HW1 3930   1.845   4.908   1.575
 1160SOL    HW2 3931   1.762   5.043   1.612
 1161SOL     OW 3932   1.638   4.823   1.079
 1161SOL    HW1 3933   1.643   4.904   1.138
 1161SOL    HW2 3934   1.552   4.825   1.028
 1162SOL     OW 3935   0.915   3.813   1.402
 1162SOL    HW1 3936   0.940   3.793   1.307
 1162SOL    HW2 3937   0.987   3.869   1.444
 1163SOL     OW 3938   0.980   4.840   1.719
 1163SOL    HW1 3939   0.881   4.846   1.729
 1163SOL    HW2 3940   1.003   4.760   1.663
 1164SOL     OW 3941   0.705   4.774   0.368
 1164SOL    HW1 3942   0.691   4.781   0.467
 1164SOL    HW2 3943   0.789   4.723   0.350
 1165SOL     OW 3944   1.274   4.110   1.262
 1165SOL    HW1 3945   1.295   4.184   1.326
 1165SOL    HW2 3946   1.185   4.127   1.219
 1166SOL     OW 3947   0.367   4.824   0.501
 1166SOL    HW1 3948   0.360   4.907   0.445
 1166SOL    HW2 3949   0.371   4.744   0.441
 1167SOL     OW 3950   1.582   4.363   0.472
 1167SOL    HW1 3951   1.551   4.424   0.545
 1167SOL    HW2 3952   1.632   4.415   0.403
 1168SOL     OW 3953   0.402   4.475   1.598
 1168SOL    HW1 3954   0.470   4.530   1.551
 1168SOL    HW2 3955   0.442   4.387   1.625
 1169SOL     OW 3956   1.587   4.503   1.670
 1169SOL    HW1 3957   1.495   4.541   1.665
 1169SOL    HW2 3958   1.647   4.550   1.605
 1170SOL     OW 3959   1.013   3.829   1.770
 1170SOL    HW1 3960   1.019   3.914   1.718
 1170SOL    HW2 3961   1.045   3.753   1.713
 1171SOL     OW 3962   0.504   3.774   1.740
 1171SOL    HW1 3963   0.462   3.717   1.670
 1171SOL    HW2 3964   0.438   3.843   1.772
 1172SOL     OW 3965   1.360   4.586   1.045
 1172SOL    HW1 3966   1.285   4.586   0.979
 1172SOL    HW2 3967   1.397   4.494   1.054
 1173SOL     OW 3968   1.209   4.249   0.275
 1173SOL    HW1 3969   1.222   4.165   0.329
 1173SOL    HW2 3970   1.180   4.323   0.335
 1174SOL     OW 3971   0.307   3.937   1.231
 1174SOL    HW1 3972   0.284   3.974   1.321
 1174SOL    HW2 3973   0.277   3.842   1.225
 1175SOL     OW 3974   0.037   5.034   1.282
 1175SOL    HW1 3975   0.090   4.985   1.350
 1175SOL    HW2 3976   0.059   5.132   1.287
 1176SOL     OW 3977   1.728   4.659   1.854
 1176SOL    HW1 3978   1.682   4.652   1.765
 1176SOL    HW2 3979   1.666   4.703   1.920
 1177SOL     OW 3980   0.307   3.787   0.618
 1177SOL    HW1 3981   0.296   3.881   0.651
 1177SOL    HW2 3982   0.302   3.724   0.695
 1178SOL     OW 3983   1.622   4.091   0.374
 1178SOL    HW1 3984   1.624   4.015   0.438
 1178SOL    HW2 3985   1.574   4.168   0.414
 1179SOL     OW 3986   1.023   4.490   0.966
 1179SOL    HW1 3987   1.038   4.511   1.062
 1179SOL    HW2 3988   0.993   4.395   0.957
 1180SOL     OW 3989   1.859   5.242   1.605
 1180SOL    HW1 3990   1.873   5.269   1.510
 1180SOL    HW2 3991   1.942   5.264   1.658
 1181SOL     OW 3992   0.350   4.622   1.804
 1181SOL    HW1 3993   0.426   4.666   1.852
 1181SOL    HW2 3994   0.385   4.575   1.722
 1182SOL     OW 3995   1.540   3.998   0.125
 1182SOL    HW1 3996   1.479   3.923   0.148
 1182SOL    HW2 3997   1.562   4.050   0.208
 1183SOL     OW 3998   1.303   4.562   0.042
 1183SOL    HW1 3999   1.337   4.469   0.057
 1183SOL    HW2 4000   1.321   4.589  -0.053
 1184SOL     OW 4001   0.339   4.233   1.006
 1184SOL    HW1 4002   0.287   4.150   0.989
 1184SOL    HW2 4003   0.416   4.238   0.942
 1185SOL     OW 4004   1.138   4.104   1.678
 1185SOL    HW1 4005   1.093   4.167   1.742
 1185SOL    HW2 4006   1.231   4.135   1.661
 1186SOL     OW 4007   1.160   3.931   1.477
 1186SOL    HW1 4008   1.160   3.995   1.554
 1186SOL    HW2 4009   1.188   3.979   1.394
 1187SOL     OW 4010   0.008   5.050   0.200
 1187SOL    HW1 4011  -0.085   5.071   0.169
 1187SOL    HW2 4012   0.018   4.951   0.213
 1188SOL     OW 4013   1.002   4.520   1.238
 1188SOL    HW1 4014   1.043   4.488   1.324
 1188SOL    HW2 4015   0.906   4.493   1.235
 1189SOL     OW 4016   0.040   4.268   1.114
 1189SOL    HW1 4017   0.125   4.235   1.073
 1189SOL    HW2 4018   0.053   4.283   1.212
 1190SOL     OW 4019   0.189   4.244   1.722
 1190SOL    HW1 4020   0.248   4.204   1.652
 1190SOL    HW2 4021   0.131   4.315   1.681
 1191SOL     OW 4022   1.369   4.674   1.660
 1191SOL    HW1 4023   1.408   4.763   1.680
 1191SOL    HW2 4024   1.379   4.654   1.563
 1192SOL     OW 4025   0.815   4.296   0.325
 1192SOL    HW1 4026   0.822   4.207   0.279
 1192SOL    HW2 4027   0.721   4.330   0.317
 1193SOL     OW 4028   1.657   4.328   1.206
 1193SOL    HW1 4029   1.619   4.259   1.268
 1193SOL    HW2 4030   1.739   4.292   1.162
 1194SOL     OW 4031   0.671   4.188   1.269
 1194SOL    HW1 4032   0.637   4.099   1.239
 1194SOL    HW2 4033   0.697   4.242   1.189
 1195SOL     OW 4034   0.473   4.224   0.191
 1195SOL    HW1 4035   0.534   4.304   0.195
 1195SOL    HW2 4036   0.378   4.255   0.198
 1196SOL     OW 4037   0.159   4.861   1.466
 1196SOL    HW1 4038   0.181   4.800   1.542
 1196SOL    HW2 4039   0.169   4.812   1.380
 1197SOL     OW 4040   1.347   4.783   1.234
 1197SOL    HW1 4041   1.371   4.720   1.160
 1197SOL    HW2 4042   1.257   4.823   1.216
 1198SOL     OW 4043   1.302   4.579   0.309
 1198SOL    HW1 4044   1.216   4.548   0.351
 1198SOL    HW2 4045   1.298   4.565   0.210
 1199SOL     OW 4046   0.903   3.810   0.133
 1199SOL    HW1 4047   0.954   3.811   0.047
 1199SOL    HW2 4048   0.959   3.768   0.204
 1200SOL     OW 4049   1.726   3.859   0.523
 1200SOL    HW1 4050   1.799   3.842   0.456
 1200SOL    HW2 4051   1.695   3.772   0.561
 1201SOL     OW 4052   1.280   4.651   0.672
 1201SOL    HW1 4053   1.340   4.570   0.674
 1201SOL    HW2 4054   1.320   4.720   0.612
 1202SOL     OW 4055   0.830   4.997   1.422
 1202SOL    HW1 4056   0.825   5.030   1.517
 1202SOL    HW2 4057   0.744   5.016   1.376
 1203SOL     OW 4058   1.841   3.899   0.963
 1203SOL    HW1 4059   1.880   3.814   0.927
 1203SOL    HW2 4060   1.743   3.901   0.944
 1204SOL     OW 4061   0.822   4.726   1.372
 1204SOL    HW1 4062   0.862   4.725   1.280
 1204SOL    HW2 4063   0.832   4.818   1.412
 1205SOL     OW 4064   0.916   4.634   0.291
 1205SOL    HW1 4065   0.979   4.672   0.223
 1205SOL    HW2 4066   0.956   4.551   0.330
 1206SOL     OW 4067   0.372   5.012   1.490
 1206SOL    HW1 4068   0.359   5.105   1.456
 1206SOL    HW2 4069   0.288   4.960   1.477
 1207SOL     OW 4070   1.614   5.016   1.289
 1207SOL    HW1 4071   1.674   5.019   1.369
 1207SOL    HW2 4072   1.539   5.080   1.302
 1208SOL     OW 4073   1.039   4.822   0.696
 1208SOL    HW1 4074   0.969   4.775   0.750
 1208SOL    HW2 4075   1.098   4.754   0.653
 1209SOL     OW 4076   1.014   3.960   0.971
 1209SOL    HW1 4077   1.006   3.924   0.878
 1209SOL    HW2 4078   1.012   3.884   1.036
 1210SOL     OW 4079   1.709   4.109   1.381
 1210SOL    HW1 4080   1.782   4.178   1.385
 1210SOL    HW2 4081   1.737   4.034   1.322
 1211SOL     OW 4082   0.105   4.737   1.726
 1211SOL    HW1 4083   0.028   4.704   1.780
 1211SOL    HW2 4084   0.190   4.707   1.768
 1212SOL     OW 4085   0.672   3.927   1.489
 1212SOL    HW1 4086   0.762   3.911   1.449
 1212SOL    HW2 4087   0.680   3.932   1.588
 1213SOL     OW 4088   0.075   4.069   0.033
 1213SOL    HW1 4089  -0.017   4.041   0.004
 1213SOL    HW2 4090   0.106   4.146  -0.023
 1214SOL     OW 4091   1.440   4.580   1.398
 1214SOL    HW1 4092   1.383   4.632   1.335
 1214SOL    HW2 4093   1.536   4.592   1.374
 1215SOL     OW 4094   0.072   3.890   0.318
 1215SOL    HW1 4095   0.055   3.973   0.264
 1215SOL    HW2 4096   0.162   3.853   0.296
 1216SOL     OW 4097   0.613   4.566   1.431
 1216SOL    HW1 4098   0.669   4.647   1.414
 1216SOL    HW2 4099   0.672   4.486   1.434
 1217SOL     OW 4100   0.716   4.289   1.708
 1217SOL    HW1 4101   0.735   4.354   1.782
 1217SOL    HW2 4102   0.776   4.209   1.717
 1218SOL     OW 4103   1.450   4.944   1.633
 1218SOL    HW1 4104   1.441   4.934   1.732
 1218SOL    HW2 4105   1.546   4.937   1.607
 1219SOL     OW 4106   1.674   4.607   1.254
 1219SOL    HW1 4107   1.647   4.518   1.217
 1219SOL    HW2 4108   1.675   4.675   1.181
 1220SOL     OW 4109   1.225   4.049   0.449
 1220SOL    HW1 4110   1.290   3.975   0.438
 1220SOL    HW2 4111   1.245   4.099   0.533
 1221SOL     OW 4112   1.730   4.658   1.517
 1221SOL    HW1 4113   1.768   4.749   1.532
 1221SOL    HW2 4114   1.722   4.641   1.418
 1222SOL     OW 4115   0.859   4.680   0.861
 1222SOL    HW1 4116   0.913   4.611   0.909
 1222SOL    HW2 4117   0.827   4.749   0.927
 1223SOL     OW 4118   1.083   4.708   0.087
 1223SOL    HW1 4119   1.060   4.761   0.005
 1223SOL    HW2 4120   1.164   4.652   0.068
 1224SOL     OW 4121   0.079   4.964   0.653
 1224SOL    HW1 4122   0.078   4.917   0.741
 1224SOL    HW2 4123   0.161   4.936   0.602
 1225SOL     OW 4124   0.428   4.148   0.520
 1225SOL    HW1 4125   0.458   4.076   0.458
 1225SOL    HW2 4126   0.389   4.108   0.603
 1226SOL     OW 4127   0.317   4.271   1.280
 1226SOL    HW1 4128   0.355   4.212   1.352
 1226SOL    HW2 4129   0.357   4.245   1.192
 1227SOL     OW 4130   1.424   3.938   1.112
 1227SOL    HW1 4131   1.476   3.873   1.167
 1227SOL    HW2 4132   1.375   4.001   1.173
 1228SOL     OW 4133   1.001   3.758   1.154
 1228SOL    HW1 4134   0.938   3.686   1.123
 1228SOL    HW2 4135   1.094   3.722   1.154
 1229SOL     OW 4136   0.770   5.054   0.301
 1229SOL    HW1 4137   0.724   4.967   0.318
 1229SOL    HW2 4138   0.861   5.051   0.342
 1230SOL     OW 4139   1.352   3.776   0.168
 1230SOL    HW1 4140   1.387   3.735   0.084
 1230SOL    HW2 4141   1.262   3.738   0.188
 1231SOL     OW 4142   1.300   4.177   0.691
 1231SOL    HW1 4143   1.241   4.257   0.695
 1231SOL    HW2 4144   1.315   4.142   0.784
 1232SOL     OW 4145   1.593   3.945   0.882
 1232SOL    HW1 4146   1.509   3.944   0.936
 1232SOL    HW2 4147   1.595   4.028   0.826
 1233SOL     OW 4148   0.039   4.801   0.300
 1233SOL    HW1 4149   0.138   4.790   0.291
 1233SOL    HW2 4150  -0.001   4.715   0.332
 1234SOL     OW 4151   0.230   4.352   1.975
 1234SOL    HW1 4152   0.137   4.350   2.012
 1234SOL    HW2 4153   0.231   4.313   1.883
 1235SOL     OW 4154   0.225   3.999   2.858
 1235SOL    HW1 4155   0.260   3.982   2.950
 1235SOL    HW2 4156   0.137   3.954   2.846
 1236SOL     OW 4157   0.019   4.092   2.509
 1236SOL    HW1 4158  -0.063   4.135   2.548
 1236SOL    HW2 4159  -0.009   4.019   2.446
 1237SOL     OW 4160   0.569   4.999   3.027
 1237SOL    HW1 4161   0.476   4.992   2.990
 1237SOL    HW2 4162   0.580   5.088   3.071
 1238SOL     OW 4163   1.555   5.235   2.565
 1238SOL    HW1 4164   1.498   5.219   2.646
 1238SOL    HW2 4165   1.496   5.245   2.485
 1239SOL     OW 4166   1.135   4.427   2.579
 1239SOL    HW1 4167   1.192   4.505   2.554
 1239SOL    HW2 4168   1.075   4.453   2.655
 1240SOL     OW 4169   1.755   4.331   2.093
 1240SOL    HW1 4170   1.743   4.318   1.994
 1240SOL    HW2 4171   1.725   4.250   2.142
 1241SOL     OW 4172   0.768   4.868   2.885
 1241SOL    HW1 4173   0.690   4.885   2.945
 1241SOL    HW2 4174   0.802   4.955   2.849
 1242SOL     OW 4175   0.850   4.522   3.685
 1242SOL    HW1 4176   0.846   4.598   3.750
 1242SOL    HW2 4177   0.872   4.558   3.594
 1243SOL     OW 4178   0.685   4.736   2.527
 1243SOL    HW1 4179   0.754   4.720   2.597
 1243SOL    HW2 4180   0.612   4.793   2.565
 1244SOL     OW 4181   0.686   4.885   3.665
 1244SOL    HW1 4182   0.746   4.964   3.679
 1244SOL    HW2 4183   0.600   4.916   3.624
 1245SOL     OW 4184   0.335   5.159   2.923
 1245SOL    HW1 4185   0.257   5.128   2.870
 1245SOL    HW2 4186   0.393   5.217   2.866
 1246SOL     OW 4187   0.438   4.116   3.361
 1246SOL    HW1 4188   0.520   4.060   3.370
 1246SOL    HW2 4189   0.357   4.058   3.365
 1247SOL     OW 4190   1.603   4.171   2.599
 1247SOL    HW1 4191   1.529   4.217   2.549
 1247SOL    HW2 4192   1.654   4.239   2.652
 1248SOL     OW 4193   0.240   4.815   2.748
 1248SOL    HW1 4194   0.254   4.731   2.800
 1248SOL    HW2 4195   0.185   4.879   2.803
 1249SOL     OW 4196   0.606   4.688   1.985
 1249SOL    HW1 4197   0.613   4.772   1.931
 1249SOL    HW2 4198   0.652   4.701   2.073
 1250SOL     OW 4199   1.594   3.838   3.342
 1250SOL    HW1 4200   1.576   3.905   3.270
 1250SOL    HW2 4201   1.591   3.884   3.431
 1251SOL     OW 4202   0.122   4.367   2.425
 1251SOL    HW1 4203   0.077   4.279   2.442
 1251SOL    HW2 4204   0.121   4.421   2.509
 1252SOL     OW 4205   1.689   4.646   2.474
 1252SOL    HW1 4206   1.784   4.617   2.482
 1252SOL    HW2 4207   1.681   4.711   2.399
 1253SOL     OW 4208   1.641   4.832   2.294
 1253SOL    HW1 4209   1.727   4.834   2.242
 1253SOL    HW2 4210   1.655   4.879   2.382
 1254SOL     OW 4211   0.113   4.461   3.459
 1254SOL    HW1 4212   0.201   4.448   3.504
 1254SOL    HW2 4213   0.100   4.558   3.437
 1255SOL     OW 4214   1.293   4.952   3.285
 1255SOL    HW1 4215   1.330   4.879   3.227
 1255SOL    HW2 4216   1.345   4.957   3.370
 1256SOL     OW 4217   0.809   3.728   2.364
 1256SOL    HW1 4218   0.849   3.819   2.355
 1256SOL    HW2 4219   0.709   3.736   2.370
 1257SOL     OW 4220   0.197   4.700   3.126
 1257SOL    HW1 4221   0.286   4.655   3.112
 1257SOL    HW2 4222   0.124   4.635   3.107
 1258SOL     OW 4223   1.525   4.723   2.052
 1258SOL    HW1 4224   1.462   4.647   2.065
 1258SOL    HW2 4225   1.573   4.741   2.138
 1259SOL     OW 4226   0.317   3.975   3.663
 1259SOL    HW1 4227   0.388   4.046   3.669
 1259SOL    HW2 4228   0.229   4.014   3.691
 1260SOL     OW 4229   1.466   5.141   2.815
 1260SOL    HW1 4230   1.407   5.147   2.895
 1260SOL    HW2 4231   1.451   5.053   2.769
 1261SOL     OW 4232   0.598   4.453   2.132
 1261SOL    HW1 4233   0.622   4.522   2.064
 1261SOL    HW2 4234   0.520   4.486   2.186
 1262SOL     OW 4235   1.281   4.069   2.806
 1262SOL    HW1 4236   1.195   4.019   2.793
 1262SOL    HW2 4237   1.343   4.015   2.862
 1263SOL     OW 4238   0.807   4.329   3.327
 1263SOL    HW1 4239   0.760   4.326   3.416
 1263SOL    HW2 4240   0.756   4.274   3.261
 1264SOL     OW 4241   1.394   4.193   3.536
 1264SOL    HW1 4242   1.374   4.236   3.624
 1264SOL    HW2 4243   1.472   4.131   3.545
 1265SOL     OW 4244   0.973   4.614   3.434
 1265SOL    HW1 4245   1.019   4.530   3.405
 1265SOL    HW2 4246   0.917   4.648   3.359
 1266SOL     OW 4247   0.991   4.134   3.104
 1266SOL    HW1 4248   0.914   4.168   3.158
 1266SOL    HW2 4249   0.957   4.083   3.025
 1267SOL     OW 4250   1.041   4.425   2.291
 1267SOL    HW1 4251   1.067   4.421   2.387
 1267SOL    HW2 4252   0.956   4.374   2.277
 1268SOL     OW 4253   0.076   4.535   2.651
 1268SOL    HW1 4254   0.175   4.523   2.660
 1268SOL    HW2 4255   0.052   4.630   2.672
 1269SOL     OW 4256   0.865   4.072   2.057
 1269SOL    HW1 4257   0.924   4.135   2.008
 1269SOL    HW2 4258   0.884   3.978   2.028
 1270SOL     OW 4259   1.719   4.309   3.693
 1270SOL    HW1 4260   1.693   4.398   3.657
 1270SOL    HW2 4261   1.717   4.241   3.620
 1271SOL     OW 4262   1.362   4.868   2.407
 1271SOL    HW1 4263   1.445   4.839   2.359
 1271SOL    HW2 4264   1.313   4.935   2.351
 1272SOL     OW 4265   0.550   3.920   2.747
 1272SOL    HW1 4266   0.545   3.915   2.847
 1272SOL    HW2 4267   0.552   4.016   2.718
 1273SOL     OW 4268   0.321   4.667   2.104
 1273SOL    HW1 4269   0.403   4.706   2.062
 1273SOL    HW2 4270   0.294   4.585   2.055
 1274SOL     OW 4271   1.458   4.459   2.590
 1274SOL    HW1 4272   1.453   4.394   2.665
 1274SOL    HW2 4273   1.538   4.518   2.603
 1275SOL     OW 4274   0.202   4.009   3.360
 1275SOL    HW1 4275   0.122   4.069   3.347
 1275SOL    HW2 4276   0.192   3.960   3.446
 1276SOL     OW 4277   1.632   5.101   1.943
 1276SOL    HW1 4278   1.600   5.195   1.933
 1276SOL    HW2 4279   1.556   5.038   1.931
 1277SOL     OW 4280   1.400   3.831   2.288
 1277SOL    HW1 4281   1.376   3.794   2.198
 1277SOL    HW2 4282   1.499   3.847   2.292
 1278SOL     OW 4283   0.382   4.424   2.342
 1278SOL    HW1 4284   0.427   4.334   2.339
 1278SOL    HW2 4285   0.288   4.413   2.375
 1279SOL     OW 4286   1.547   3.946   3.591
 1279SOL    HW1 4287   1.542   3.983   3.683
 1279SOL    HW2 4288   1.475   3.877   3.579
 1280SOL     OW 4289   0.614   3.846   1.979
 1280SOL    HW1 4290   0.712   3.824   1.986
 1280SOL    HW2 4291   0.583   3.829   1.886
 1281SOL     OW 4292   0.781   3.988   3.611
 1281SOL    HW1 4293   0.848   3.927   3.654
 1281SOL    HW2 4294   0.708   4.007   3.676
 1282SOL     OW 4295   1.351   4.314   3.295
 1282SOL    HW1 4296   1.379   4.271   3.380
 1282SOL    HW2 4297   1.376   4.410   3.296
 1283SOL     OW 4298   0.803   5.126   2.786
 1283SOL    HW1 4299   0.893   5.140   2.744
 1283SOL    HW2 4300   0.732   5.128   2.715
 1284SOL     OW 4301   0.922   4.227   2.761
 1284SOL    HW1 4302   0.897   4.218   2.665
 1284SOL    HW2 4303   0.970   4.145   2.792
 1285SOL     OW 4304   0.539   3.788   2.374
 1285SOL    HW1 4305   0.458   3.789   2.432
 1285SOL    HW2 4306   0.542   3.871   2.319
 1286SOL     OW 4307   1.434   4.912   1.903
 1286SOL    HW1 4308   1.466   4.836   1.960
 1286SOL    HW2 4309   1.342   4.939   1.933
 1287SOL     OW 4310   0.297   3.759   2.033
 1287SOL    HW1 4311   0.346   3.843   2.012
 1287SOL    HW2 4312   0.359   3.694   2.078
 1288SOL     OW 4313   0.935   3.960   2.342
 1288SOL    HW1 4314   0.887   4.001   2.264
 1288SOL    HW2 4315   1.034   3.958   2.323
 1289SOL     OW 4316   1.076   4.407   3.326
 1289SOL    HW1 4317   0.996   4.346   3.329
 1289SOL    HW2 4318   1.157   4.354   3.302
 1290SOL     OW 4319   1.227   5.294   2.655
 1290SOL    HW1 4320   1.248   5.368   2.590
 1290SOL    HW2 4321   1.295   5.294   2.728
 1291SOL     OW 4322   0.459   4.876   2.603
 1291SOL    HW1 4323   0.388   4.849   2.668
 1291SOL    HW2 4324   0.433   4.848   2.510
 1292SOL     OW 4325   1.032   4.273   1.878
 1292SOL    HW1 4326   0.991   4.355   1.839
 1292SOL    HW2 4327   1.096   4.299   1.951
 1293SOL     OW 4328   0.078   4.280   3.248
 1293SOL    HW1 4329   0.170   4.279   3.207
 1293SOL    HW2 4330   0.072   4.354   3.315
 1294SOL     OW 4331   0.561   3.946   3.009
 1294SOL    HW1 4332   0.599   3.862   3.046
 1294SOL    HW2 4333   0.473   3.965   3.053
 1295SOL     OW 4334   0.866   4.178   2.504
 1295SOL    HW1 4335   0.834   4.250   2.442
 1295SOL    HW2 4336   0.890   4.097   2.451
 1296SOL     OW 4337   1.017   3.763   2.615
 1296SOL    HW1 4338   0.945   3.768   2.546
 1296SOL    HW2 4339   0.993   3.694   2.684
 1297SOL     OW 4340   1.429   4.897   2.729
 1297SOL    HW1 4341   1.374   4.813   2.722
 1297SOL    HW2 4342   1.455   4.926   2.637
 1298SOL     OW 4343   1.466   4.314   2.854
 1298SOL    HW1 4344   1.436   4.219   2.861
 1298SOL    HW2 4345   1.539   4.330   2.920
 1299SOL     OW 4346   1.857   4.557   2.239
 1299SOL    HW1 4347   1.899   4.493   2.303
 1299SOL    HW2 4348   1.819   4.506   2.161
 1300SOL     OW 4349   1.664   5.004   2.519
 1300SOL    HW1 4350   1.763   5.012   2.533
 1300SOL    HW2 4351   1.619   5.088   2.550
 1301SOL     OW 4352   1.390   4.299   1.940
 1301SOL    HW1 4353   1.336   4.278   2.021
 1301SOL    HW2 4354   1.481   4.258   1.949
 1302SOL     OW 4355   0.527   3.980   2.190
 1302SOL    HW1 4356   0.554   3.921   2.115
 1302SOL    HW2 4357   0.527   4.075   2.159
 1303SOL     OW 4358   1.754   4.947   3.450
 1303SOL    HW1 4359   1.845   4.908   3.437
 1303SOL    HW2 4360   1.762   5.043   3.474
 1304SOL     OW 4361   1.638   4.823   2.941
 1304SOL    HW1 4362   1.643   4.904   3.000
 1304SOL    HW2 4363   1.552   4.825   2.890
 1305SOL     OW 4364   0.915   3.813   3.264
 1305SOL    HW1 4365   0.940   3.793   3.169
 1305SOL    HW2 4366   0.987   3.869   3.306
 1306SOL     OW 4367   0.980   4.840   3.581
 1306SOL    HW1 4368   0.881   4.846   3.591
 1306SOL    HW2 4369   1.003   4.760   3.525
 1307SOL     OW 4370   0.705   4.774   2.230
 1307SOL    HW1 4371   0.691   4.781   2.329
 1307SOL    HW2 4372   0.789   4.723   2.212
 1308SOL     OW 4373   0.410   4.537   3.113
 1308SOL    HW1 4374   0.496   4.549   3.163
 1308SOL    HW2 4375   0.368   4.450   3.140
 1309SOL     OW 4376   1.274   4.110   3.124
 1309SOL    HW1 4377   1.295   4.184   3.188
 1309SOL    HW2 4378   1.185   4.127   3.081
 1310SOL     OW 4379   0.367   4.824   2.363
 1310SOL    HW1 4380   0.360   4.907   2.307
 1310SOL    HW2 4381   0.371   4.744   2.303
 1311SOL     OW 4382   0.566   4.261   2.727
 1311SOL    HW1 4383   0.578   4.327   2.653
 1311SOL    HW2 4384   0.612   4.295   2.810
 1312SOL     OW 4385   1.582   4.363   2.334
 1312SOL    HW1 4386   1.551   4.424   2.407
 1312SOL    HW2 4387   1.632   4.415   2.265
 1313SOL     OW 4388   0.402   4.475   3.460
 1313SOL    HW1 4389   0.470   4.530   3.413
 1313SOL    HW2 4390   0.442   4.387   3.487
 1314SOL     OW 4391   1.587   4.503   3.532
 1314SOL    HW1 4392   1.495   4.541   3.527
 1314SOL    HW2 4393   1.647   4.550   3.467
 1315SOL     OW 4394   1.013   3.829   3.632
 1315SOL    HW1 4395   1.019   3.914   3.580
 1315SOL    HW2 4396   1.045   3.753   3.575
 1316SOL     OW 4397   0.504   3.774   3.602
 1316SOL    HW1 4398   0.462   3.717   3.532
 1316SOL    HW2 4399   0.438   3.843   3.634
 1317SOL     OW 4400   0.573   4.594   2.891
 1317SOL    HW1 4401   0.617   4.683   2.882
 1317SOL    HW2 4402   0.510   4.594   2.968
 1318SOL     OW 4403   1.360   4.586   2.907
 1318SOL    HW1 4404   1.285   4.586   2.841
 1318SOL    HW2 4405   1.397   4.494   2.916
 1319SOL     OW 4406   1.209   4.249   2.137
 1319SOL    HW1 4407   1.222   4.165   2.191
 1319SOL    HW2 4408   1.180   4.323   2.197
 1320SOL     OW 4409   0.307   3.937   3.093
 1320SOL    HW1 4410   0.284   3.974   3.183
 1320SOL    HW2 4411   0.277   3.842   3.087
 1321SOL     OW 4412   0.037   5.034   3.144
 1321SOL    HW1 4413   0.090   4.985   3.212
 1321SOL    HW2 4414   0.059   5.132   3.149
 1322SOL     OW 4415   0.732   4.358   2.926
 1322SOL    HW1 4416   0.791   4.332   2.850
 1322SOL    HW2 4417   0.704   4.454   2.915
 1323SOL     OW 4418   1.728   4.659   3.716
 1323SOL    HW1 4419   1.682   4.652   3.627
 1323SOL    HW2 4420   1.666   4.703   3.782
 1324SOL     OW 4421   0.307   3.787   2.480
 1324SOL    HW1 4422   0.296   3.881   2.513
 1324SOL    HW2 4423   0.302   3.724   2.557
 1325SOL     OW 4424   1.622   4.091   2.236
 1325SOL    HW1 4425   1.624   4.015   2.300
 1325SOL    HW2 4426   1.574   4.168   2.276
 1326SOL     OW 4427   1.023   4.490   2.828
 1326SOL    HW1 4428   1.038   4.511   2.924
 1326SOL    HW2 4429   0.993   4.395   2.819
 1327SOL     OW 4430   1.859   5.242   3.467
 1327SOL    HW1 4431   1.873   5.269   3.372
 1327SOL    HW2 4432   1.942   5.264   3.520
 1328SOL     OW 4433   0.350   4.622   3.666
 1328SOL    HW1 4434   0.426   4.666   3.714
 1328SOL    HW2 4435   0.385   4.575   3.584
 1329SOL     OW 4436   1.540   3.998   1.987
 1329SOL    HW1 4437   1.479   3.923   2.010
 1329SOL    HW2 4438   1.562   4.050   2.070
 1330SOL     OW 4439   1.303   4.562   1.904
 1330SOL    HW1 4440   1.337   4.469   1.919
 1330SOL    HW2 4441   1.321   4.589   1.809
 1331SOL     OW 4442   0.319   4.534   2.811
 1331SOL    HW1 4443   0.412   4.570   2.816
 1331SOL    HW2 4444   0.313   4.449   2.863
 1332SOL     OW 4445   0.339   4.233   2.868
 1332SOL    HW1 4446   0.287   4.150   2.851
 1332SOL    HW2 4447   0.416   4.238   2.804
 1333SOL     OW 4448   1.138   4.104   3.540
 1333SOL    HW1 4449   1.093   4.167   3.604
 1333SOL    HW2 4450   1.231   4.135   3.523
 1334SOL     OW 4451   1.160   3.931   3.339
 1334SOL    HW1 4452   1.160   3.995   3.416
 1334SOL    HW2 4453   1.188   3.979   3.256
 1335SOL     OW 4454   0.008   5.050   2.062
 1335SOL    HW1 4455  -0.085   5.071   2.031
 1335SOL    HW2 4456   0.018   4.951   2.075
 1336SOL     OW 4457   1.002   4.520   3.100
 1336SOL    HW1 4458   1.043   4.488   3.186
 1336SOL    HW2 4459   0.906   4.493   3.097
 1337SOL     OW 4460   0.040   4.268   2.976
 1337SOL    HW1 4461   0.125   4.235   2.935
 1337SOL    HW2 4462   0.053   4.283   3.074
 1338SOL     OW 4463   0.189   4.244   3.584
 1338SOL    HW1 4464   0.248   4.204   3.514
 1338SOL    HW2 4465   0.131   4.315   3.543
 1339SOL     OW 4466   1.369   4.674   3.522
 1339SOL    HW1 4467   1.408   4.763   3.542
 1339SOL    HW2 4468   1.379   4.654   3.425
 1340SOL     OW 4469   0.815   4.296   2.187
 1340SOL    HW1 4470   0.822   4.207   2.141
 1340SOL    HW2 4471   0.721   4.330   2.179
 1341SOL     OW 4472   1.657   4.328   3.068
 1341SOL    HW1 4473   1.619   4.259   3.130
 1341SOL    HW2 4474   1.739   4.292   3.024
 1342SOL     OW 4475   0.671   4.188   3.131
 1342SOL    HW1 4476   0.637   4.099   3.101
 1342SOL    HW2 4477   0.697   4.242   3.051
 1343SOL     OW 4478   0.473   4.224   2.053
 1343SOL    HW1 4479   0.534   4.304   2.057
 1343SOL    HW2 4480   0.378   4.255   2.060
 1344SOL     OW 4481   0.159   4.861   3.328
 1344SOL    HW1 4482   0.181   4.800   3.404
 1344SOL    HW2 4483   0.169   4.812   3.242
 1345SOL     OW 4484   1.347   4.783   3.096
 1345SOL    HW1 4485   1.371   4.720   3.022
 1345SOL    HW2 4486   1.257   4.823   3.078
 1346SOL     OW 4487   1.302   4.579   2.171
 1346SOL    HW1 4488   1.216   4.548   2.213
 1346SOL    HW2 4489   1.298   4.565   2.072
 1347SOL     OW 4490   0.083   4.982   2.884
 1347SOL    HW1 4491   0.078   4.981   2.984
 1347SOL    HW2 4492   0.000   4.941   2.846
 1348SOL     OW 4493   1.726   3.859   2.385
 1348SOL    HW1 4494   1.799   3.842   2.318
 1348SOL    HW2 4495   1.695   3.772   2.423
 1349SOL     OW 4496   1.280   4.651   2.534
 1349SOL    HW1 4497   1.340   4.570   2.536
 1349SOL    HW2 4498   1.320   4.720   2.474
 1350SOL     OW 4499   0.830   4.997   3.284
 1350SOL    HW1 4500   0.825   5.030   3.379
 1350SOL    HW2 4501   0.744   5.016   3.238
 1351SOL     OW 4502   1.841   3.899   2.825
 1351SOL    HW1 4503   1.880   3.814   2.789
 1351SOL    HW2 4504   1.743   3.901   2.806
 1352SOL     OW 4505   0.263   4.050   2.582
 1352SOL    HW1 4506   0.184   4.101   2.548
 1352SOL    HW2 4507   0.254   4.035   2.680
 1353SOL     OW 4508   1.194   5.336   1.893
 1353SOL    HW1 4509   1.200   5.243   1.930
 1353SOL    HW2 4510   1.135   5.336   1.813
 1354SOL     OW 4511   0.822   4.726   3.234
 1354SOL    HW1 4512   0.862   4.725   3.142
 1354SOL    HW2 4513   0.832   4.818   3.274
 1355SOL     OW 4514   0.916   4.634   2.153
 1355SOL    HW1 4515   0.979   4.672   2.085
 1355SOL    HW2 4516   0.956   4.551   2.192
 1356SOL     OW 4517   0.372   5.012   3.352
 1356SOL    HW1 4518   0.359   5.105   3.318
 1356SOL    HW2 4519   0.288   4.960   3.339
 1357SOL     OW 4520   1.614   5.016   3.151
 1357SOL    HW1 4521   1.674   5.019   3.231
 1357SOL    HW2 4522   1.539   5.080   3.164
 1358SOL     OW 4523   1.039   4.822   2.558
 1358SOL    HW1 4524   0.969   4.775   2.612
 1358SOL    HW2 4525   1.098   4.754   2.515
 1359SOL     OW 4526   1.014   3.960   2.833
 1359SOL    HW1 4527   1.006   3.924   2.740
 1359SOL    HW2 4528   1.012   3.884   2.898
 1360SOL     OW 4529   1.709   4.109   3.243
 1360SOL    HW1 4530   1.782   4.178   3.247
 1360SOL    HW2 4531   1.737   4.034   3.184
 1361SOL     OW 4532   0.105   4.737   3.588
 1361SOL    HW1 4533   0.028   4.704   3.642
 1361SOL    HW2 4534   0.190   4.707   3.630
 1362SOL     OW 4535   0.672   3.927   3.351
 1362SOL    HW1 4536   0.762   3.911   3.311
 1362SOL    HW2 4537   0.680   3.932   3.450
 1363SOL     OW 4538   0.075   4.069   1.895
 1363SOL    HW1 4539  -0.017   4.041   1.866
 1363SOL    HW2 4540   0.106   4.146   1.839
 1364SOL     OW 4541   0.072   3.890   2.180
 1364SOL    HW1 4542   0.055   3.973   2.126
 1364SOL    HW2 4543   0.162   3.853   2.158
 1365SOL     OW 4544   0.613   4.566   3.293
 1365SOL    HW1 4545   0.669   4.647   3.276
 1365SOL    HW2 4546   0.672   4.486   3.296
 1366SOL     OW 4547   0.716   4.289   3.570
 1366SOL    HW1 4548   0.735   4.354   3.644
 1366SOL    HW2 4549   0.776   4.209   3.579
 1367SOL     OW 4550   1.450   4.944   3.495
 1367SOL    HW1 4551   1.441   4.934   3.594
 1367SOL    HW2 4552   1.546   4.937   3.469
 1368SOL     OW 4553   1.225   4.049   2.311
 1368SOL    HW1 4554   1.290   3.975   2.300
 1368SOL    HW2 4555   1.245   4.099   2.395
 1369SOL     OW 4556   0.594   4.469   2.514
 1369SOL    HW1 4557   0.644   4.554   2.495
 1369SOL    HW2 4558   0.506   4.471   2.466
 1370SOL     OW 4559   1.777   4.066   3.504
 1370SOL    HW1 4560   1.760   4.097   3.410
 1370SOL    HW2 4561   1.693   4.029   3.542
 1371SOL     OW 4562   0.859   4.680   2.723
 1371SOL    HW1 4563   0.913   4.611   2.771
 1371SOL    HW2 4564   0.827   4.749   2.789
 1372SOL     OW 4565   1.083   4.708   1.949
 1372SOL    HW1 4566   1.060   4.761   1.867
 1372SOL    HW2 4567   1.164   4.652   1.930
 1373SOL     OW 4568   0.079   4.964   2.515
 1373SOL    HW1 4569   0.078   4.917   2.603
 1373SOL    HW2 4570   0.161   4.936   2.464
 1374SOL     OW 4571   1.824   3.916   3.089
 1374SOL    HW1 4572   1.820   3.826   3.133
 1374SOL    HW2 4573   1.827   3.905   2.990
 1375SOL     OW 4574   0.428   4.148   2.382
 1375SOL    HW1 4575   0.458   4.076   2.320
 1375SOL    HW2 4576   0.389   4.108   2.465
 1376SOL     OW 4577   0.317   4.271   3.142
 1376SOL    HW1 4578   0.355   4.212   3.214
 1376SOL    HW2 4579   0.357   4.245   3.054
 1377SOL     OW 4580   1.424   3.938   2.974
 1377SOL    HW1 4581   1.476   3.873   3.029
 1377SOL    HW2 4582   1.375   4.001   3.035
 1378SOL     OW 4583   1.001   3.758   3.016
 1378SOL    HW1 4584   0.938   3.686   2.985
 1378SOL    HW2 4585   1.094   3.722   3.016
 1379SOL     OW 4586   0.770   5.054   2.163
 1379SOL    HW1 4587   0.724   4.967   2.180
 1379SOL    HW2 4588   0.861   5.051   2.204
 1380SOL     OW 4589   1.352   3.776   2.030
 1380SOL    HW1 4590   1.387   3.735   1.946
 1380SOL    HW2 4591   1.262   3.738   2.050
 1381SOL     OW 4592   1.300   4.177   2.553
 1381SOL    HW1 4593   1.241   4.257   2.557
 1381SOL    HW2 4594   1.315   4.142   2.646
 1382SOL     OW 4595   1.593   3.945   2.744
 1382SOL    HW1 4596   1.509   3.944   2.798
 1382SOL    HW2 4597   1.595   4.028   2.688
 1383SOL     OW 4598   0.039   4.801   2.162
 1383SOL    HW1 4599   0.138   4.790   2.153
 1383SOL    HW2 4600  -0.001   4.715   2.194
 1384SOL     OW 4601   0.230   4.352   3.837
 1384SOL    HW1 4602   0.137   4.350   3.874
 1384SOL    HW2 4603   0.231   4.313   3.745
 1385SOL     OW 4604   0.019   4.092   4.371
 1385SOL    HW1 4605  -0.063   4.135   4.410
 1385SOL    HW2 4606  -0.009   4.019   4.308
 1386SOL     OW 4607   0.569   4.999   4.889
 1386SOL    HW1 4608   0.476   4.992   4.852
 1386SOL    HW2 4609   0.580   5.088   4.933
 1387SOL     OW 4610   1.555   5.235   4.427
 1387SOL    HW1 4611   1.498   5.219   4.508
 1387SOL    HW2 4612   1.496   5.245   4.347
 1388SOL     OW 4613   1.135   4.427   4.441
 1388SOL    HW1 4614   1.192   4.505   4.416
 1388SOL    HW2 4615   1.075   4.453   4.517
 1389SOL     OW 4616   1.755   4.331   3.955
 1389SOL    HW1 4617   1.743   4.318   3.856
 1389SOL    HW2 4618   1.725   4.250   4.004
 1390SOL     OW 4619   0.768   4.868   4.747
 1390SOL    HW1 4620   0.690   4.885   4.807
 1390SOL    HW2 4621   0.802   4.955   4.711
 1391SOL     OW 4622   0.685   4.736   4.389
 1391SOL    HW1 4623   0.754   4.720   4.459
 1391SOL    HW2 4624   0.612   4.793   4.427
 1392SOL     OW 4625   0.335   5.159   4.785
 1392SOL    HW1 4626   0.257   5.128   4.732
 1392SOL    HW2 4627   0.393   5.217   4.728
 1393SOL     OW 4628   1.603   4.171   4.461
 1393SOL    HW1 4629   1.529   4.217   4.411
 1393SOL    HW2 4630   1.654   4.239   4.514
 1394SOL     OW 4631   0.240   4.815   4.610
 1394SOL    HW1 4632   0.254   4.731   4.662
 1394SOL    HW2 4633   0.185   4.879   4.665
 1395SOL     OW 4634   0.606   4.688   3.847
 1395SOL    HW1 4635   0.613   4.772   3.793
 1395SOL    HW2 4636   0.652   4.701   3.935
 1396SOL     OW 4637   0.122   4.367   4.287
 1396SOL    HW1 4638   0.077   4.279   4.304
 1396SOL    HW2 4639   0.121   4.421   4.371
 1397SOL     OW 4640   1.689   4.646   4.336
 1397SOL    HW1 4641   1.784   4.617   4.344
 1397SOL    HW2 4642   1.681   4.711   4.261
 1398SOL     OW 4643   1.641   4.832   4.156
 1398SOL    HW1 4644   1.727   4.834   4.104
 1398SOL    HW2 4645   1.655   4.879   4.244
 1399SOL     OW 4646   0.197   4.700   4.988
 1399SOL    HW1 4647   0.286   4.655   4.974
 1399SOL    HW2 4648   0.124   4.635   4.969
 1400SOL     OW 4649   1.525   4.723   3.914
 1400SOL    HW1 4650   1.462   4.647   3.927
 1400SOL    HW2 4651   1.573   4.741   4.000
 1401SOL     OW 4652   1.466   5.141   4.677
 1401SOL    HW1 4653   1.407   5.147   4.757
 1401SOL    HW2 4654   1.451   5.053   4.631
 1402SOL     OW 4655   0.598   4.453   3.994
 1402SOL    HW1 4656   0.622   4.522   3.926
 1402SOL    HW2 4657   0.520   4.486   4.048
 1403SOL     OW 4658   1.281   4.069   4.668
 1403SOL    HW1 4659   1.195   4.019   4.655
 1403SOL    HW2 4660   1.343   4.015   4.724
 1404SOL     OW 4661   0.991   4.134   4.966
 1404SOL    HW1 4662   0.914   4.168   5.020
 1404SOL    HW2 4663   0.957   4.083   4.887
 1405SOL     OW 4664   1.041   4.425   4.153
 1405SOL    HW1 4665   1.067   4.421   4.249
 1405SOL    HW2 4666   0.956   4.374   4.139
 1406SOL     OW 4667   0.076   4.535   4.513
 1406SOL    HW1 4668   0.175   4.523   4.522
 1406SOL    HW2 4669   0.052   4.630   4.534
 1407SOL     OW 4670   0.865   4.072   3.919
 1407SOL    HW1 4671   0.924   4.135   3.870
 1407SOL    HW2 4672   0.884   3.978   3.890
 1408SOL     OW 4673   1.362   4.868   4.269
 1408SOL    HW1 4674   1.445   4.839   4.221
 1408SOL    HW2 4675   1.313   4.935   4.213
 1409SOL     OW 4676   0.550   3.920   4.609
 1409SOL    HW1 4677   0.545   3.915   4.709
 1409SOL    HW2 4678   0.552   4.016   4.580
 1410SOL     OW 4679   1.795   4.790   4.597
 1410SOL    HW1 4680   1.733   4.775   4.521
 1410SOL    HW2 4681   1.743   4.801   4.682
 1411SOL     OW 4682   0.321   4.667   3.966
 1411SOL    HW1 4683   0.403   4.706   3.924
 1411SOL    HW2 4684   0.294   4.585   3.917
 1412SOL     OW 4685   1.458   4.459   4.452
 1412SOL    HW1 4686   1.453   4.394   4.527
 1412SOL    HW2 4687   1.538   4.518   4.465
 1413SOL     OW 4688   1.632   5.101   3.805
 1413SOL    HW1 4689   1.600   5.195   3.795
 1413SOL    HW2 4690   1.556   5.038   3.793
 1414SOL     OW 4691   1.400   3.831   4.150
 1414SOL    HW1 4692   1.376   3.794   4.060
 1414SOL    HW2 4693   1.499   3.847   4.154
 1415SOL     OW 4694   0.382   4.424   4.204
 1415SOL    HW1 4695   0.427   4.334   4.201
 1415SOL    HW2 4696   0.288   4.413   4.237
 1416SOL     OW 4697   0.614   3.846   3.841
 1416SOL    HW1 4698   0.712   3.824   3.848
 1416SOL    HW2 4699   0.583   3.829   3.748
 1417SOL     OW 4700   0.803   5.126   4.648
 1417SOL    HW1 4701   0.893   5.140   4.606
 1417SOL    HW2 4702   0.732   5.128   4.577
 1418SOL     OW 4703   0.539   3.788   4.236
 1418SOL    HW1 4704   0.458   3.789   4.294
 1418SOL    HW2 4705   0.542   3.871   4.181
 1419SOL     OW 4706   1.434   4.912   3.765
 1419SOL    HW1 4707   1.466   4.836   3.822
 1419SOL    HW2 4708   1.342   4.939   3.795
 1420SOL     OW 4709   0.297   3.759   3.895
 1420SOL    HW1 4710   0.346   3.843   3.874
 1420SOL    HW2 4711   0.359   3.694   3.940
 1421SOL     OW 4712   0.459   4.876   4.465
 1421SOL    HW1 4713   0.388   4.849   4.530
 1421SOL    HW2 4714   0.433   4.848   4.372
 1422SOL     OW 4715   1.032   4.273   3.740
 1422SOL    HW1 4716   0.991   4.355   3.701
 1422SOL    HW2 4717   1.096   4.299   3.813
 1423SOL     OW 4718   0.561   3.946   4.871
 1423SOL    HW1 4719   0.599   3.862   4.908
 1423SOL    HW2 4720   0.473   3.965   4.915
 1424SOL     OW 4721   0.866   4.178   4.366
 1424SOL    HW1 4722   0.834   4.250   4.304
 1424SOL    HW2 4723   0.890   4.097   4.313
 1425SOL     OW 4724   1.429   4.897   4.591
 1425SOL    HW1 4725   1.374   4.813   4.584
 1425SOL    HW2 4726   1.455   4.926   4.499
 1426SOL     OW 4727   1.466   4.314   4.716
 1426SOL    HW1 4728   1.436   4.219   4.723
 1426SOL    HW2 4729   1.539   4.330   4.782
 1427SOL     OW 4730   1.857   4.557   4.101
 1427SOL    HW1 4731   1.899   4.493   4.165
 1427SOL    HW2 4732   1.819   4.506   4.023
 1428SOL     OW 4733   1.664   5.004   4.381
 1428SOL    HW1 4734   1.763   5.012   4.395
 1428SOL    HW2 4735   1.619   5.088   4.412
 1429SOL     OW 4736   1.390   4.299   3.802
 1429SOL    HW1 4737   1.336   4.278   3.883
 1429SOL    HW2 4738   1.481   4.258   3.811
 1430SOL     OW 4739   0.527   3.980   4.052
 1430SOL    HW1 4740   0.554   3.921   3.977
 1430SOL    HW2 4741   0.527   4.075   4.021
 1431SOL     OW 4742   1.638   4.823   4.803
 1431SOL    HW1 4743   1.643   4.904   4.862
 1431SOL    HW2 4744   1.552   4.825   4.752
 1432SOL     OW 4745   0.705   4.774   4.092
 1432SOL    HW1 4746   0.691   4.781   4.191
 1432SOL    HW2 4747   0.789   4.723   4.074
 1433SOL     OW 4748   0.410   4.537   4.975
 1433SOL    HW1 4749   0.496   4.549   5.025
 1433SOL    HW2 4750   0.368   4.450   5.002
 1434SOL     OW 4751   1.274   4.110   4.986
 1434SOL    HW1 4752   1.295   4.184   5.050
 1434SOL    HW2 4753   1.185   4.127   4.943
 1435SOL     OW 4754   0.367   4.824   4.225
 1435SOL    HW1 4755   0.360   4.907   4.169
 1435SOL    HW2 4756   0.371   4.744   4.165
 1436SOL     OW 4757   0.566   4.261   4.589
 1436SOL    HW1 4758   0.578   4.327   4.515
 1436SOL    HW2 4759   0.612   4.295   4.672
 1437SOL     OW 4760   1.582   4.363   4.196
 1437SOL    HW1 4761   1.551   4.424   4.269
 1437SOL    HW2 4762   1.632   4.415   4.127
 1438SOL     OW 4763   0.573   4.594   4.753
 1438SOL    HW1 4764   0.617   4.683   4.744
 1438SOL    HW2 4765   0.510   4.594   4.830
 1439SOL     OW 4766   1.360   4.586   4.769
 1439SOL    HW1 4767   1.285   4.586   4.703
 1439SOL    HW2 4768   1.397   4.494   4.778
 1440SOL     OW 4769   1.209   4.249   3.999
 1440SOL    HW1 4770   1.222   4.165   4.053
 1440SOL    HW2 4771   1.180   4.323   4.059
 1441SOL     OW 4772   0.307   3.937   4.955
 1441SOL    HW1 4773   0.284   3.974   5.045
 1441SOL    HW2 4774   0.277   3.842   4.949
 1442SOL     OW 4775   0.037   5.034   5.006
 1442SOL    HW1 4776   0.090   4.985   5.074
 1442SOL    HW2 4777   0.059   5.132   5.011
 1443SOL     OW 4778   0.732   4.358   4.788
 1443SOL    HW1 4779   0.791   4.332   4.712
 1443SOL    HW2 4780   0.704   4.454   4.777
 1444SOL     OW 4781   0.307   3.787   4.342
 1444SOL    HW1 4782   0.296   3.881   4.375
 1444SOL    HW2 4783   0.302   3.724   4.419
 1445SOL     OW 4784   1.622   4.091   4.098
 1445SOL    HW1 4785   1.624   4.015   4.162
 1445SOL    HW2 4786   1.574   4.168   4.138
 1446SOL     OW 4787   1.023   4.490   4.690
 1446SOL    HW1 4788   1.038   4.511   4.786
 1446SOL    HW2 4789   0.993   4.395   4.681
 1447SOL     OW 4790   1.540   3.998   3.849
 1447SOL    HW1 4791   1.479   3.923   3.872
 1447SOL    HW2 4792   1.562   4.050   3.932
 1448SOL     OW 4793   1.303   4.562   3.766
 1448SOL    HW1 4794   1.337   4.469   3.781
 1448SOL    HW2 4795   1.321   4.589   3.671
 1449SOL     OW 4796   0.319   4.534   4.673
 1449SOL    HW1 4797   0.412   4.570   4.678
 1449SOL    HW2 4798   0.313   4.449   4.725
 1450SOL     OW 4799   0.339   4.233   4.730
 1450SOL    HW1 4800   0.287   4.150   4.713
 1450SOL    HW2 4801   0.416   4.238   4.666
 1451SOL     OW 4802   1.160   3.931   5.201
 1451SOL    HW1 4803   1.160   3.995   5.278
 1451SOL    HW2 4804   1.188   3.979   5.118
 1452SOL     OW 4805   0.008   5.050   3.924
 1452SOL    HW1 4806  -0.085   5.071   3.893
 1452SOL    HW2 4807   0.018   4.951   3.937
 1453SOL     OW 4808   1.002   4.520   4.962
 1453SOL    HW1 4809   1.043   4.488   5.048
 1453SOL    HW2 4810   0.906   4.493   4.959
 1454SOL     OW 4811   0.040   4.268   4.838
 1454SOL    HW1 4812   0.125   4.235   4.797
 1454SOL    HW2 4813   0.053   4.283   4.936
 1455SOL     OW 4814   0.815   4.296   4.049
 1455SOL    HW1 4815   0.822   4.207   4.003
 1455SOL    HW2 4816   0.721   4.330   4.041
 1456SOL     OW 4817   1.657   4.328   4.930
 1456SOL    HW1 4818   1.619   4.259   4.992
 1456SOL    HW2 4819   1.739   4.292   4.886
 1457SOL     OW 4820   0.671   4.188   4.993
 1457SOL    HW1 4821   0.637   4.099   4.963
 1457SOL    HW2 4822   0.697   4.242   4.913
 1458SOL     OW 4823   0.473   4.224   3.915
 1458SOL    HW1 4824   0.534   4.304   3.919
 1458SOL    HW2 4825   0.378   4.255   3.922
 1459SOL     OW 4826   1.347   4.783   4.958
 1459SOL    HW1 4827   1.371   4.720   4.884
 1459SOL    HW2 4828   1.257   4.823   4.940
 1460SOL     OW 4829   1.302   4.579   4.033
 1460SOL    HW1 4830   1.216   4.548   4.075
 1460SOL    HW2 4831   1.298   4.565   3.934
 1461SOL     OW 4832   0.083   4.982   4.746
 1461SOL    HW1 4833   0.078   4.981   4.846
 1461SOL    HW2 4834   0.000   4.941   4.708
 1462SOL     OW 4835   1.726   3.859   4.247
 1462SOL    HW1 4836   1.799   3.842   4.180
 1462SOL    HW2 4837   1.695   3.772   4.285
 1463SOL     OW 4838   1.280   4.651   4.396
 1463SOL    HW1 4839   1.340   4.570   4.398
 1463SOL    HW2 4840   1.320   4.720   4.336
 1464SOL     OW 4841   0.830   4.997   5.146
 1464SOL    HW1 4842   0.825   5.030   5.241
 1464SOL    HW2 4843   0.744   5.016   5.100
 1465SOL     OW 4844   1.841   3.899   4.687
 1465SOL    HW1 4845   1.880   3.814   4.651
 1465SOL    HW2 4846   1.743   3.901   4.668
 1466SOL     OW 4847   0.263   4.050   4.444
 1466SOL    HW1 4848   0.184   4.101   4.410
 1466SOL    HW2 4849   0.254   4.035   4.542
 1467SOL     OW 4850   1.194   5.336   3.755
 1467SOL    HW1 4851   1.200   5.243   3.792
 1467SOL    HW2 4852   1.135   5.336   3.675
 1468SOL     OW 4853   0.822   4.726   5.096
 1468SOL    HW1 4854   0.862   4.725   5.004
 1468SOL    HW2 4855   0.832   4.818   5.136
 1469SOL     OW 4856   0.916   4.634   4.015
 1469SOL    HW1 4857   0.979   4.672   3.947
 1469SOL    HW2 4858   0.956   4.551   4.054
 1470SOL     OW 4859   1.039   4.822   4.420
 1470SOL    HW1 4860   0.969   4.775   4.474
 1470SOL    HW2 4861   1.098   4.754   4.377
 1471SOL     OW 4862   1.014   3.960   4.695
 1471SOL    HW1 4863   1.006   3.924   4.602
 1471SOL    HW2 4864   1.012   3.884   4.760
 1472SOL     OW 4865   1.709   4.109   5.105
 1472SOL    HW1 4866   1.782   4.178   5.109
 1472SOL    HW2 4867   1.737   4.034   5.046
 1473SOL     OW 4868   0.075   4.069   3.757
 1473SOL    HW1 4869  -0.017   4.041   3.728
 1473SOL    HW2 4870   0.106   4.146   3.701
 1474SOL     OW 4871   0.072   3.890   4.042
 1474SOL    HW1 4872   0.055   3.973   3.988
 1474SOL    HW2 4873   0.162   3.853   4.020
 1475SOL     OW 4874   1.450   4.944   5.357
 1475SOL    HW1 4875   1.441   4.934   5.456
 1475SOL    HW2 4876   1.546   4.937   5.331
 1476SOL     OW 4877   1.674   4.607   4.978
 1476SOL    HW1 4878   1.647   4.518   4.941
 1476SOL    HW2 4879   1.675   4.675   4.905
 1477SOL     OW 4880   1.225   4.049   4.173
 1477SOL    HW1 4881   1.290   3.975   4.162
 1477SOL    HW2 4882   1.245   4.099   4.257
 1478SOL     OW 4883   0.594   4.469   4.376
 1478SOL    HW1 4884   0.644   4.554   4.357
 1478SOL    HW2 4885   0.506   4.471   4.328
 1479SOL     OW 4886   1.730   4.658   5.241
 1479SOL    HW1 4887   1.768   4.749   5.256
 1479SOL    HW2 4888   1.722   4.641   5.142
 1480SOL     OW 4889   0.859   4.680   4.585
 1480SOL    HW1 4890   0.913   4.611   4.633
 1480SOL    HW2 4891   0.827   4.749   4.651
 1481SOL     OW 4892   1.083   4.708   3.811
 1481SOL    HW1 4893   1.060   4.761   3.729
 1481SOL    HW2 4894   1.164   4.652   3.792
 1482SOL     OW 4895   0.079   4.964   4.377
 1482SOL    HW1 4896   0.078   4.917   4.465
 1482SOL    HW2 4897   0.161   4.936   4.326
 1483SOL     OW 4898   1.824   3.916   4.951
 1483SOL    HW1 4899   1.820   3.826   4.995
 1483SOL    HW2 4900   1.827   3.905   4.852
 1484SOL     OW 4901   0.428   4.148   4.244
 1484SOL    HW1 4902   0.458   4.076   4.182
 1484SOL    HW2 4903   0.389   4.108   4.327
 1485SOL     OW 4904   1.424   3.938   4.836
 1485SOL    HW1 4905   1.476   3.873   4.891
 1485SOL    HW2 4906   1.375   4.001   4.897
 1486SOL     OW 4907   1.001   3.758   4.878
 1486SOL    HW1 4908   0.938   3.686   4.847
 1486SOL    HW2 4909   1.094   3.722   4.878
 1487SOL     OW 4910   0.770   5.054   4.025
 1487SOL    HW1 4911   0.724   4.967   4.042
 1487SOL    HW2 4912   0.861   5.051   4.066
 1488SOL     OW 4913   1.352   3.776   3.892
 1488SOL    HW1 4914   1.387   3.735   3.808
 1488SOL    HW2 4915   1.262   3.738   3.912
 1489SOL     OW 4916   1.593   3.945   4.606
 1489SOL    HW1 4917   1.509   3.944   4.660
 1489SOL    HW2 4918   1.595   4.028   4.550
 1490SOL     OW 4919   0.039   4.801   4.024
 1490SOL    HW1 4920   0.138   4.790   4.015
 1490SOL    HW2 4921  -0.001   4.715   4.056
 1491SOL     OW 4922   2.092   0.628   0.113
 1491SOL    HW1 4923   1.999   0.626   0.150
 1491SOL    HW2 4924   2.093   0.589   0.021
 1492SOL     OW 4925   2.087   0.275   0.996
 1492SOL    HW1 4926   2.122   0.258   1.088
 1492SOL    HW2 4927   1.999   0.230   0.984
 1493SOL     OW 4928   1.881   0.368   0.647
 1493SOL    HW1 4929   1.799   0.411   0.686
 1493SOL    HW2 4930   1.853   0.295   0.584
 1494SOL     OW 4931   2.431   1.275   1.165
 1494SOL    HW1 4932   2.338   1.268   1.128
 1494SOL    HW2 4933   2.442   1.364   1.209
 1495SOL     OW 4934   3.417   1.511   0.703
 1495SOL    HW1 4935   3.360   1.495   0.784
 1495SOL    HW2 4936   3.358   1.521   0.623
 1496SOL     OW 4937   2.997   0.703   0.717
 1496SOL    HW1 4938   3.054   0.781   0.692
 1496SOL    HW2 4939   2.937   0.729   0.793
 1497SOL     OW 4940   3.617   0.607   0.231
 1497SOL    HW1 4941   3.605   0.594   0.132
 1497SOL    HW2 4942   3.587   0.526   0.280
 1498SOL     OW 4943   2.630   1.144   1.023
 1498SOL    HW1 4944   2.552   1.161   1.083
 1498SOL    HW2 4945   2.664   1.231   0.987
 1499SOL     OW 4946   2.712   0.798   1.823
 1499SOL    HW1 4947   2.708   0.874   1.888
 1499SOL    HW2 4948   2.734   0.834   1.732
 1500SOL     OW 4949   2.547   1.012   0.665
 1500SOL    HW1 4950   2.616   0.996   0.735
 1500SOL    HW2 4951   2.474   1.069   0.703
 1501SOL     OW 4952   2.548   1.161   1.803
 1501SOL    HW1 4953   2.608   1.240   1.817
 1501SOL    HW2 4954   2.462   1.192   1.762
 1502SOL     OW 4955   2.300   0.392   1.499
 1502SOL    HW1 4956   2.382   0.336   1.508
 1502SOL    HW2 4957   2.219   0.334   1.503
 1503SOL     OW 4958   3.465   0.447   0.737
 1503SOL    HW1 4959   3.391   0.493   0.687
 1503SOL    HW2 4960   3.516   0.515   0.790
 1504SOL     OW 4961   2.093   1.713   0.483
 1504SOL    HW1 4962   2.127   1.790   0.537
 1504SOL    HW2 4963   2.137   1.713   0.393
 1505SOL     OW 4964   2.092   1.434   0.538
 1505SOL    HW1 4965   2.066   1.530   0.538
 1505SOL    HW2 4966   2.021   1.380   0.583
 1506SOL     OW 4967   2.482   1.786   1.439
 1506SOL    HW1 4968   2.390   1.769   1.474
 1506SOL    HW2 4969   2.510   1.878   1.465
 1507SOL     OW 4970   2.468   0.964   0.123
 1507SOL    HW1 4971   2.475   1.048   0.069
 1507SOL    HW2 4972   2.514   0.977   0.211
 1508SOL     OW 4973   3.456   0.114   1.480
 1508SOL    HW1 4974   3.438   0.181   1.408
 1508SOL    HW2 4975   3.453   0.160   1.569
 1509SOL     OW 4976   3.704   1.767   0.359
 1509SOL    HW1 4977   3.758   1.738   0.439
 1509SOL    HW2 4978   3.734   1.857   0.330
 1510SOL     OW 4979   1.889   1.596   0.117
 1510SOL    HW1 4980   1.870   1.500   0.138
 1510SOL    HW2 4981   1.856   1.654   0.192
 1511SOL     OW 4982   3.551   0.922   0.612
 1511SOL    HW1 4983   3.646   0.893   0.620
 1511SOL    HW2 4984   3.543   0.987   0.537
 1512SOL     OW 4985   3.503   1.108   0.432
 1512SOL    HW1 4986   3.589   1.110   0.380
 1512SOL    HW2 4987   3.517   1.155   0.520
 1513SOL     OW 4988   1.975   0.737   1.597
 1513SOL    HW1 4989   2.063   0.724   1.642
 1513SOL    HW2 4990   1.962   0.834   1.575
 1514SOL     OW 4991   2.671   0.004   0.502
 1514SOL    HW1 4992   2.711   0.095   0.493
 1514SOL    HW2 4993   2.571   0.012   0.508
 1515SOL     OW 4994   2.059   0.976   1.264
 1515SOL    HW1 4995   2.148   0.931   1.250
 1515SOL    HW2 4996   1.986   0.911   1.245
 1516SOL     OW 4997   3.387   0.999   0.190
 1516SOL    HW1 4998   3.324   0.923   0.203
 1516SOL    HW2 4999   3.435   1.017   0.276
 1517SOL     OW 5000   2.179   0.251   1.801
 1517SOL    HW1 5001   2.250   0.322   1.807
 1517SOL    HW2 5002   2.091   0.290   1.829
 1518SOL     OW 5003   3.328   1.417   0.953
 1518SOL    HW1 5004   3.269   1.423   1.033
 1518SOL    HW2 5005   3.313   1.329   0.907
 1519SOL     OW 5006   3.529   1.714   0.572
 1519SOL    HW1 5007   3.488   1.691   0.484
 1519SOL    HW2 5008   3.511   1.640   0.637
 1520SOL     OW 5009   2.460   0.729   0.270
 1520SOL    HW1 5010   2.484   0.798   0.202
 1520SOL    HW2 5011   2.382   0.762   0.324
 1521SOL     OW 5012   3.143   0.345   0.944
 1521SOL    HW1 5013   3.057   0.295   0.931
 1521SOL    HW2 5014   3.205   0.291   1.000
 1522SOL     OW 5015   3.438   1.662   0.307
 1522SOL    HW1 5016   3.527   1.708   0.310
 1522SOL    HW2 5017   3.417   1.638   0.212
 1523SOL     OW 5018   2.669   0.605   1.465
 1523SOL    HW1 5019   2.622   0.602   1.554
 1523SOL    HW2 5020   2.618   0.550   1.399
 1524SOL     OW 5021   3.256   0.469   1.674
 1524SOL    HW1 5022   3.236   0.512   1.762
 1524SOL    HW2 5023   3.334   0.407   1.683
 1525SOL     OW 5024   2.835   0.890   1.572
 1525SOL    HW1 5025   2.881   0.806   1.543
 1525SOL    HW2 5026   2.779   0.924   1.497
 1526SOL     OW 5027   2.853   0.410   1.242
 1526SOL    HW1 5028   2.776   0.444   1.296
 1526SOL    HW2 5029   2.819   0.359   1.163
 1527SOL     OW 5030   2.903   0.701   0.429
 1527SOL    HW1 5031   2.929   0.697   0.525
 1527SOL    HW2 5032   2.818   0.650   0.415
 1528SOL     OW 5033   1.992   1.821   1.571
 1528SOL    HW1 5034   1.982   1.806   1.670
 1528SOL    HW2 5035   1.906   1.857   1.535
 1529SOL     OW 5036   2.727   0.348   0.195
 1529SOL    HW1 5037   2.786   0.411   0.146
 1529SOL    HW2 5038   2.746   0.254   0.166
 1530SOL     OW 5039   3.581   0.585   1.831
 1530SOL    HW1 5040   3.555   0.674   1.795
 1530SOL    HW2 5041   3.579   0.517   1.758
 1531SOL     OW 5042   3.224   1.144   0.545
 1531SOL    HW1 5043   3.307   1.115   0.497
 1531SOL    HW2 5044   3.175   1.211   0.489
 1532SOL     OW 5045   2.412   0.196   0.885
 1532SOL    HW1 5046   2.407   0.191   0.985
 1532SOL    HW2 5047   2.414   0.292   0.856
 1533SOL     OW 5048   2.870   1.456   0.477
 1533SOL    HW1 5049   2.824   1.528   0.425
 1533SOL    HW2 5050   2.866   1.476   0.575
 1534SOL     OW 5051   2.213   1.801   0.853
 1534SOL    HW1 5052   2.263   1.715   0.859
 1534SOL    HW2 5053   2.278   1.878   0.850
 1535SOL     OW 5054   3.657   1.066   0.873
 1535SOL    HW1 5055   3.595   1.051   0.797
 1535SOL    HW2 5056   3.605   1.077   0.958
 1536SOL     OW 5057   3.320   0.735   0.728
 1536SOL    HW1 5058   3.315   0.670   0.803
 1536SOL    HW2 5059   3.400   0.794   0.741
 1537SOL     OW 5060   2.323   1.266   1.727
 1537SOL    HW1 5061   2.273   1.267   1.641
 1537SOL    HW2 5062   2.260   1.248   1.803
 1538SOL     OW 5063   2.973   1.776   0.237
 1538SOL    HW1 5064   2.913   1.714   0.287
 1538SOL    HW2 5065   3.004   1.732   0.152
 1539SOL     OW 5066   2.064   0.285   1.498
 1539SOL    HW1 5067   1.984   0.345   1.485
 1539SOL    HW2 5068   2.054   0.236   1.584
 1540SOL     OW 5069   3.494   1.377   0.081
 1540SOL    HW1 5070   3.462   1.471   0.071
 1540SOL    HW2 5071   3.418   1.314   0.069
 1541SOL     OW 5072   2.326   1.743   0.323
 1541SOL    HW1 5073   2.359   1.782   0.409
 1541SOL    HW2 5074   2.402   1.736   0.258
 1542SOL     OW 5075   3.262   0.107   0.426
 1542SOL    HW1 5076   3.238   0.070   0.336
 1542SOL    HW2 5077   3.361   0.123   0.430
 1543SOL     OW 5078   2.111   1.785   1.241
 1543SOL    HW1 5079   2.168   1.720   1.291
 1543SOL    HW2 5080   2.095   1.752   1.148
 1544SOL     OW 5081   2.802   1.698   0.904
 1544SOL    HW1 5082   2.882   1.641   0.925
 1544SOL    HW2 5083   2.753   1.658   0.827
 1545SOL     OW 5084   2.244   0.700   0.480
 1545SOL    HW1 5085   2.289   0.610   0.477
 1545SOL    HW2 5086   2.150   0.689   0.513
 1546SOL     OW 5087   3.409   0.222   1.729
 1546SOL    HW1 5088   3.404   0.259   1.821
 1546SOL    HW2 5089   3.337   0.153   1.717
 1547SOL     OW 5090   2.476   0.122   0.117
 1547SOL    HW1 5091   2.574   0.100   0.124
 1547SOL    HW2 5092   2.445   0.105   0.024
 1548SOL     OW 5093   2.643   0.264   1.749
 1548SOL    HW1 5094   2.710   0.203   1.792
 1548SOL    HW2 5095   2.570   0.283   1.814
 1549SOL     OW 5096   2.750   1.514   1.195
 1549SOL    HW1 5097   2.727   1.489   1.101
 1549SOL    HW2 5098   2.811   1.445   1.234
 1550SOL     OW 5099   3.213   0.590   1.433
 1550SOL    HW1 5100   3.241   0.547   1.518
 1550SOL    HW2 5101   3.238   0.686   1.434
 1551SOL     OW 5102   2.665   1.402   0.924
 1551SOL    HW1 5103   2.755   1.416   0.882
 1551SOL    HW2 5104   2.594   1.404   0.853
 1552SOL     OW 5105   2.784   0.503   0.899
 1552SOL    HW1 5106   2.759   0.494   0.803
 1552SOL    HW2 5107   2.832   0.421   0.930
 1553SOL     OW 5108   2.401   0.064   0.512
 1553SOL    HW1 5109   2.320   0.065   0.570
 1553SOL    HW2 5110   2.404   0.147   0.457
 1554SOL     OW 5111   3.296   1.188   0.041
 1554SOL    HW1 5112   3.328   1.112   0.098
 1554SOL    HW2 5113   3.204   1.215   0.071
 1555SOL     OW 5114   2.159   0.035   0.171
 1555SOL    HW1 5115   2.208   0.119   0.150
 1555SOL    HW2 5116   2.221  -0.030   0.216
 1556SOL     OW 5117   2.797   0.236   0.480
 1556SOL    HW1 5118   2.749   0.277   0.402
 1556SOL    HW2 5119   2.896   0.234   0.461
 1557SOL     OW 5120   2.938   0.683   1.464
 1557SOL    HW1 5121   2.858   0.622   1.467
 1557SOL    HW2 5122   3.019   0.630   1.440
 1558SOL     OW 5123   3.089   1.570   0.793
 1558SOL    HW1 5124   3.110   1.644   0.728
 1558SOL    HW2 5125   3.157   1.570   0.866
 1559SOL     OW 5126   3.133   1.797   0.591
 1559SOL    HW1 5127   3.177   1.861   0.527
 1559SOL    HW2 5128   3.083   1.849   0.661
 1560SOL     OW 5129   2.894   0.549   0.016
 1560SOL    HW1 5130   2.853   0.631  -0.023
 1560SOL    HW2 5131   2.958   0.575   0.089
 1561SOL     OW 5132   1.940   0.556   1.386
 1561SOL    HW1 5133   2.032   0.555   1.345
 1561SOL    HW2 5134   1.934   0.630   1.453
 1562SOL     OW 5135   2.423   0.222   1.147
 1562SOL    HW1 5136   2.461   0.138   1.184
 1562SOL    HW2 5137   2.335   0.241   1.191
 1563SOL     OW 5138   2.728   0.454   0.642
 1563SOL    HW1 5139   2.696   0.526   0.580
 1563SOL    HW2 5140   2.752   0.373   0.589
 1564SOL     OW 5141   2.879   0.039   0.753
 1564SOL    HW1 5142   2.807   0.044   0.684
 1564SOL    HW2 5143   2.855  -0.030   0.822
 1565SOL     OW 5144   3.291   1.173   0.867
 1565SOL    HW1 5145   3.236   1.089   0.860
 1565SOL    HW2 5146   3.317   1.202   0.775
 1566SOL     OW 5147   3.328   0.590   0.992
 1566SOL    HW1 5148   3.298   0.495   0.999
 1566SOL    HW2 5149   3.401   0.606   1.058
 1567SOL     OW 5150   3.719   0.833   0.377
 1567SOL    HW1 5151   3.761   0.769   0.441
 1567SOL    HW2 5152   3.681   0.782   0.299
 1568SOL     OW 5153   2.350   1.385   0.174
 1568SOL    HW1 5154   2.263   1.370   0.221
 1568SOL    HW2 5155   2.333   1.411   0.079
 1569SOL     OW 5156   3.526   1.280   0.657
 1569SOL    HW1 5157   3.625   1.288   0.671
 1569SOL    HW2 5158   3.481   1.364   0.688
 1570SOL     OW 5159   3.252   0.575   0.078
 1570SOL    HW1 5160   3.198   0.554   0.159
 1570SOL    HW2 5161   3.343   0.534   0.087
 1571SOL     OW 5162   2.389   0.256   0.328
 1571SOL    HW1 5163   2.416   0.197   0.253
 1571SOL    HW2 5164   2.389   0.351   0.297
 1572SOL     OW 5165   2.926   1.347   1.340
 1572SOL    HW1 5166   2.846   1.324   1.395
 1572SOL    HW2 5167   3.009   1.321   1.389
 1573SOL     OW 5168   2.973   1.195   1.100
 1573SOL    HW1 5169   2.933   1.239   1.181
 1573SOL    HW2 5170   2.932   1.232   1.017
 1574SOL     OW 5171   2.777   0.089   1.402
 1574SOL    HW1 5172   2.802   0.069   1.307
 1574SOL    HW2 5173   2.849   0.145   1.444
 1575SOL     OW 5174   2.842   1.116   1.719
 1575SOL    HW1 5175   2.743   1.122   1.729
 1575SOL    HW2 5176   2.865   1.036   1.663
 1576SOL     OW 5177   2.567   1.050   0.368
 1576SOL    HW1 5178   2.553   1.057   0.467
 1576SOL    HW2 5179   2.651   0.999   0.350
 1577SOL     OW 5180   2.272   0.813   1.251
 1577SOL    HW1 5181   2.358   0.825   1.301
 1577SOL    HW2 5182   2.230   0.726   1.278
 1578SOL     OW 5183   3.136   0.386   1.262
 1578SOL    HW1 5184   3.157   0.460   1.326
 1578SOL    HW2 5185   3.047   0.403   1.219
 1579SOL     OW 5186   1.926   1.564   1.331
 1579SOL    HW1 5187   1.880   1.646   1.297
 1579SOL    HW2 5188   2.024   1.583   1.340
 1580SOL     OW 5189   2.428   0.537   0.865
 1580SOL    HW1 5190   2.440   0.603   0.791
 1580SOL    HW2 5191   2.474   0.571   0.948
 1581SOL     OW 5192   3.114   1.348   0.388
 1581SOL    HW1 5193   3.164   1.425   0.428
 1581SOL    HW2 5194   3.019   1.350   0.420
 1582SOL     OW 5195   3.444   0.639   0.472
 1582SOL    HW1 5196   3.413   0.700   0.545
 1582SOL    HW2 5197   3.494   0.691   0.403
 1583SOL     OW 5198   2.216   1.510   1.329
 1583SOL    HW1 5199   2.195   1.466   1.242
 1583SOL    HW2 5200   2.313   1.536   1.332
 1584SOL     OW 5201   2.264   0.751   1.598
 1584SOL    HW1 5202   2.332   0.806   1.551
 1584SOL    HW2 5203   2.304   0.663   1.625
 1585SOL     OW 5204   3.449   0.779   1.670
 1585SOL    HW1 5205   3.357   0.817   1.665
 1585SOL    HW2 5206   3.509   0.826   1.605
 1586SOL     OW 5207   2.875   0.105   1.770
 1586SOL    HW1 5208   2.881   0.190   1.718
 1586SOL    HW2 5209   2.907   0.029   1.713
 1587SOL     OW 5210   2.366   0.050   1.740
 1587SOL    HW1 5211   2.324  -0.007   1.670
 1587SOL    HW2 5212   2.300   0.119   1.772
 1588SOL     OW 5213   2.435   0.870   1.029
 1588SOL    HW1 5214   2.479   0.959   1.020
 1588SOL    HW2 5215   2.372   0.870   1.106
 1589SOL     OW 5216   3.222   0.862   1.045
 1589SOL    HW1 5217   3.147   0.862   0.979
 1589SOL    HW2 5218   3.259   0.770   1.054
 1590SOL     OW 5219   3.071   0.525   0.275
 1590SOL    HW1 5220   3.084   0.441   0.329
 1590SOL    HW2 5221   3.042   0.599   0.335
 1591SOL     OW 5222   2.169   0.213   1.231
 1591SOL    HW1 5223   2.146   0.250   1.321
 1591SOL    HW2 5224   2.139   0.118   1.225
 1592SOL     OW 5225   1.899   1.310   1.282
 1592SOL    HW1 5226   1.952   1.261   1.350
 1592SOL    HW2 5227   1.921   1.408   1.287
 1593SOL     OW 5228   2.594   0.634   1.064
 1593SOL    HW1 5229   2.653   0.608   0.988
 1593SOL    HW2 5230   2.566   0.730   1.053
 1594SOL     OW 5231   3.590   0.935   1.854
 1594SOL    HW1 5232   3.544   0.928   1.765
 1594SOL    HW2 5233   3.528   0.979   1.920
 1595SOL     OW 5234   2.169   0.063   0.618
 1595SOL    HW1 5235   2.158   0.157   0.651
 1595SOL    HW2 5236   2.164   0.000   0.695
 1596SOL     OW 5237   3.484   0.367   0.374
 1596SOL    HW1 5238   3.486   0.291   0.438
 1596SOL    HW2 5239   3.436   0.444   0.414
 1597SOL     OW 5240   2.885   0.766   0.966
 1597SOL    HW1 5241   2.900   0.787   1.062
 1597SOL    HW2 5242   2.855   0.671   0.957
 1598SOL     OW 5243   2.842   1.573   1.700
 1598SOL    HW1 5244   2.822   1.617   1.612
 1598SOL    HW2 5245   2.881   1.482   1.684
 1599SOL     OW 5246   3.721   1.518   1.605
 1599SOL    HW1 5247   3.735   1.545   1.510
 1599SOL    HW2 5248   3.804   1.540   1.658
 1600SOL     OW 5249   2.212   0.898   1.804
 1600SOL    HW1 5250   2.288   0.942   1.852
 1600SOL    HW2 5251   2.247   0.851   1.722
 1601SOL     OW 5252   3.402   0.274   0.125
 1601SOL    HW1 5253   3.341   0.199   0.148
 1601SOL    HW2 5254   3.424   0.326   0.208
 1602SOL     OW 5255   3.165   0.838   0.042
 1602SOL    HW1 5256   3.199   0.745   0.057
 1602SOL    HW2 5257   3.183   0.865  -0.053
 1603SOL     OW 5258   2.930   1.333   0.849
 1603SOL    HW1 5259   2.937   1.249   0.794
 1603SOL    HW2 5260   2.992   1.402   0.813
 1604SOL     OW 5261   2.181   0.810   0.949
 1604SOL    HW1 5262   2.274   0.846   0.954
 1604SOL    HW2 5263   2.175   0.725   1.001
 1605SOL     OW 5264   2.201   0.509   1.006
 1605SOL    HW1 5265   2.149   0.426   0.989
 1605SOL    HW2 5266   2.278   0.514   0.942
 1606SOL     OW 5267   3.000   0.380   1.678
 1606SOL    HW1 5268   2.955   0.443   1.742
 1606SOL    HW2 5269   3.093   0.411   1.661
 1607SOL     OW 5270   3.022   0.207   1.477
 1607SOL    HW1 5271   3.022   0.271   1.554
 1607SOL    HW2 5272   3.050   0.255   1.394
 1608SOL     OW 5273   1.950   1.801   0.927
 1608SOL    HW1 5274   1.908   1.715   0.900
 1608SOL    HW2 5275   2.044   1.804   0.893
 1609SOL     OW 5276   2.864   0.796   1.238
 1609SOL    HW1 5277   2.905   0.764   1.324
 1609SOL    HW2 5278   2.768   0.769   1.235
 1610SOL     OW 5279   1.902   0.544   1.114
 1610SOL    HW1 5280   1.987   0.511   1.073
 1610SOL    HW2 5281   1.915   0.559   1.212
 1611SOL     OW 5282   2.051   0.520   1.722
 1611SOL    HW1 5283   2.110   0.480   1.652
 1611SOL    HW2 5284   1.993   0.591   1.681
 1612SOL     OW 5285   3.231   0.950   1.660
 1612SOL    HW1 5286   3.270   1.039   1.680
 1612SOL    HW2 5287   3.241   0.930   1.563
 1613SOL     OW 5288   2.677   0.572   0.325
 1613SOL    HW1 5289   2.684   0.483   0.279
 1613SOL    HW2 5290   2.583   0.606   0.317
 1614SOL     OW 5291   3.519   0.604   1.206
 1614SOL    HW1 5292   3.481   0.535   1.268
 1614SOL    HW2 5293   3.601   0.568   1.162
 1615SOL     OW 5294   2.114   1.564   1.744
 1615SOL    HW1 5295   2.084   1.621   1.820
 1615SOL    HW2 5296   2.107   1.467   1.770
 1616SOL     OW 5297   2.533   0.464   1.269
 1616SOL    HW1 5298   2.499   0.375   1.239
 1616SOL    HW2 5299   2.559   0.518   1.189
 1617SOL     OW 5300   2.792   1.678   1.465
 1617SOL    HW1 5301   2.768   1.660   1.370
 1617SOL    HW2 5302   2.822   1.772   1.475
 1618SOL     OW 5303   2.335   0.500   0.191
 1618SOL    HW1 5304   2.396   0.580   0.195
 1618SOL    HW2 5305   2.240   0.531   0.198
 1619SOL     OW 5306   2.021   1.137   1.466
 1619SOL    HW1 5307   2.043   1.076   1.542
 1619SOL    HW2 5308   2.031   1.088   1.380
 1620SOL     OW 5309   3.164   0.855   0.309
 1620SOL    HW1 5310   3.078   0.824   0.351
 1620SOL    HW2 5311   3.160   0.841   0.210
 1621SOL     OW 5312   3.621   1.747   1.154
 1621SOL    HW1 5313   3.682   1.777   1.081
 1621SOL    HW2 5314   3.583   1.658   1.132
 1622SOL     OW 5315   3.114   1.731   1.128
 1622SOL    HW1 5316   3.198   1.736   1.074
 1622SOL    HW2 5317   3.091   1.635   1.146
 1623SOL     OW 5318   2.550   1.662   1.716
 1623SOL    HW1 5319   2.494   1.743   1.725
 1623SOL    HW2 5320   2.602   1.666   1.630
 1624SOL     OW 5321   2.765   0.086   0.133
 1624SOL    HW1 5322   2.816   0.087   0.047
 1624SOL    HW2 5323   2.821   0.044   0.204
 1625SOL     OW 5324   3.588   0.135   0.523
 1625SOL    HW1 5325   3.661   0.118   0.456
 1625SOL    HW2 5326   3.557   0.048   0.561
 1626SOL     OW 5327   3.250   1.573   0.477
 1626SOL    HW1 5328   3.317   1.585   0.403
 1626SOL    HW2 5329   3.210   1.662   0.500
 1627SOL     OW 5330   1.992   1.794   1.851
 1627SOL    HW1 5331   1.951   1.720   1.904
 1627SOL    HW2 5332   2.056   1.845   1.909
 1628SOL     OW 5333   3.142   0.927   0.672
 1628SOL    HW1 5334   3.202   0.846   0.674
 1628SOL    HW2 5335   3.182   0.996   0.612
 1629SOL     OW 5336   2.692   1.273   1.422
 1629SOL    HW1 5337   2.687   1.306   1.517
 1629SOL    HW2 5338   2.606   1.292   1.376
 1630SOL     OW 5339   2.534   1.616   0.154
 1630SOL    HW1 5340   2.543   1.626   0.055
 1630SOL    HW2 5341   2.494   1.527   0.175
 1631SOL     OW 5342   3.512   1.720   1.394
 1631SOL    HW1 5343   3.565   1.730   1.310
 1631SOL    HW2 5344   3.485   1.810   1.428
 1632SOL     OW 5345   3.703   0.175   0.963
 1632SOL    HW1 5346   3.742   0.090   0.927
 1632SOL    HW2 5347   3.605   0.177   0.944
 1633SOL     OW 5348   2.125   0.326   0.720
 1633SOL    HW1 5349   2.046   0.377   0.686
 1633SOL    HW2 5350   2.116   0.311   0.818
 1634SOL     OW 5351   3.056   1.612   0.031
 1634SOL    HW1 5352   3.062   1.519   0.068
 1634SOL    HW2 5353   2.997   1.612  -0.049
 1635SOL     OW 5354   2.684   1.002   1.372
 1635SOL    HW1 5355   2.724   1.001   1.280
 1635SOL    HW2 5356   2.694   1.094   1.412
 1636SOL     OW 5357   2.778   0.910   0.291
 1636SOL    HW1 5358   2.841   0.948   0.223
 1636SOL    HW2 5359   2.818   0.827   0.330
 1637SOL     OW 5360   3.366   1.607   0.044
 1637SOL    HW1 5361   3.274   1.644   0.051
 1637SOL    HW2 5362   3.404   1.627  -0.046
 1638SOL     OW 5363   2.234   1.288   1.490
 1638SOL    HW1 5364   2.221   1.381   1.456
 1638SOL    HW2 5365   2.150   1.236   1.477
 1639SOL     OW 5366   2.901   1.098   0.696
 1639SOL    HW1 5367   2.831   1.051   0.750
 1639SOL    HW2 5368   2.960   1.030   0.653
 1640SOL     OW 5369   2.876   0.236   0.971
 1640SOL    HW1 5370   2.868   0.200   0.878
 1640SOL    HW2 5371   2.874   0.160   1.036
 1641SOL     OW 5372   2.452   1.487   0.491
 1641SOL    HW1 5373   2.494   1.429   0.421
 1641SOL    HW2 5374   2.408   1.566   0.447
 1642SOL     OW 5375   3.571   0.385   1.381
 1642SOL    HW1 5376   3.644   0.454   1.385
 1642SOL    HW2 5377   3.599   0.310   1.322
 1643SOL     OW 5378   2.117   1.348   0.290
 1643SOL    HW1 5379   2.021   1.349   0.263
 1643SOL    HW2 5380   2.129   1.401   0.374
 1644SOL     OW 5381   1.967   1.013   1.726
 1644SOL    HW1 5382   1.890   0.980   1.780
 1644SOL    HW2 5383   2.052   0.983   1.768
 1645SOL     OW 5384   2.534   0.203   1.489
 1645SOL    HW1 5385   2.624   0.187   1.449
 1645SOL    HW2 5386   2.542   0.208   1.588
 1646SOL     OW 5387   3.302   0.856   1.398
 1646SOL    HW1 5388   3.245   0.908   1.335
 1646SOL    HW2 5389   3.398   0.868   1.374
 1647SOL     OW 5390   1.934   0.166   0.318
 1647SOL    HW1 5391   1.917   0.249   0.264
 1647SOL    HW2 5392   2.024   0.129   0.296
 1648SOL     OW 5393   3.045   1.335   0.119
 1648SOL    HW1 5394   2.946   1.324   0.121
 1648SOL    HW2 5395   3.079   1.350   0.212
 1649SOL     OW 5396   2.475   0.842   1.431
 1649SOL    HW1 5397   2.531   0.923   1.414
 1649SOL    HW2 5398   2.534   0.762   1.434
 1650SOL     OW 5399   3.355   1.767   0.959
 1650SOL    HW1 5400   3.388   1.831   0.890
 1650SOL    HW2 5401   3.421   1.761   1.034
 1651SOL     OW 5402   2.578   0.565   1.708
 1651SOL    HW1 5403   2.597   0.630   1.782
 1651SOL    HW2 5404   2.638   0.485   1.717
 1652SOL     OW 5405   2.252   1.741   1.560
 1652SOL    HW1 5406   2.161   1.782   1.558
 1652SOL    HW2 5407   2.245   1.647   1.592
 1653SOL     OW 5408   3.087   0.325   0.449
 1653SOL    HW1 5409   3.152   0.251   0.438
 1653SOL    HW2 5410   3.107   0.375   0.533
 1654SOL     OW 5411   2.456   0.745   0.652
 1654SOL    HW1 5412   2.506   0.830   0.633
 1654SOL    HW2 5413   2.368   0.747   0.604
 1655SOL     OW 5414   3.639   0.342   1.642
 1655SOL    HW1 5415   3.622   0.373   1.548
 1655SOL    HW2 5416   3.555   0.305   1.680
 1656SOL     OW 5417   2.721   1.374   0.016
 1656SOL    HW1 5418   2.675   1.389   0.104
 1656SOL    HW2 5419   2.765   1.459  -0.014
 1657SOL     OW 5420   2.523   1.790   0.953
 1657SOL    HW1 5421   2.477   1.878   0.940
 1657SOL    HW2 5422   2.622   1.802   0.946
 1658SOL     OW 5423   2.721   0.956   0.861
 1658SOL    HW1 5424   2.775   0.887   0.909
 1658SOL    HW2 5425   2.689   1.025   0.927
 1659SOL     OW 5426   2.945   0.984   0.087
 1659SOL    HW1 5427   2.922   1.037   0.005
 1659SOL    HW2 5428   3.026   0.928   0.068
 1660SOL     OW 5429   3.723   1.569   0.851
 1660SOL    HW1 5430   3.652   1.557   0.781
 1660SOL    HW2 5431   3.724   1.490   0.911
 1661SOL     OW 5432   2.083   1.314   1.844
 1661SOL    HW1 5433   2.018   1.241   1.823
 1661SOL    HW2 5434   2.087   1.328   1.942
 1662SOL     OW 5435   2.534   1.391   1.624
 1662SOL    HW1 5436   2.456   1.341   1.662
 1662SOL    HW2 5437   2.531   1.486   1.655
 1663SOL     OW 5438   3.686   0.192   1.227
 1663SOL    HW1 5439   3.682   0.102   1.271
 1663SOL    HW2 5440   3.689   0.181   1.128
 1664SOL     OW 5441   2.290   0.424   0.520
 1664SOL    HW1 5442   2.320   0.352   0.458
 1664SOL    HW2 5443   2.251   0.384   0.603
 1665SOL     OW 5444   3.567   1.487   1.104
 1665SOL    HW1 5445   3.474   1.462   1.077
 1665SOL    HW2 5446   3.593   1.437   1.186
 1666SOL     OW 5447   2.179   0.547   1.280
 1666SOL    HW1 5448   2.217   0.488   1.352
 1666SOL    HW2 5449   2.219   0.521   1.192
 1667SOL     OW 5450   2.674   1.586   0.687
 1667SOL    HW1 5451   2.706   1.596   0.593
 1667SOL    HW2 5452   2.595   1.524   0.689
 1668SOL     OW 5453   3.286   0.214   1.112
 1668SOL    HW1 5454   3.338   0.149   1.167
 1668SOL    HW2 5455   3.237   0.277   1.173
 1669SOL     OW 5456   2.863   0.034   1.154
 1669SOL    HW1 5457   2.800  -0.038   1.123
 1669SOL    HW2 5458   2.956  -0.002   1.154
 1670SOL     OW 5459   2.632   1.330   0.301
 1670SOL    HW1 5460   2.586   1.243   0.318
 1670SOL    HW2 5461   2.723   1.327   0.342
 1671SOL     OW 5462   2.480   1.567   1.284
 1671SOL    HW1 5463   2.475   1.649   1.341
 1671SOL    HW2 5464   2.569   1.564   1.239
 1672SOL     OW 5465   3.214   0.052   0.168
 1672SOL    HW1 5466   3.249   0.011   0.084
 1672SOL    HW2 5467   3.124   0.014   0.188
 1673SOL     OW 5468   3.162   0.453   0.691
 1673SOL    HW1 5469   3.103   0.533   0.695
 1673SOL    HW2 5470   3.177   0.418   0.784
 1674SOL     OW 5471   3.455   0.221   0.882
 1674SOL    HW1 5472   3.371   0.220   0.936
 1674SOL    HW2 5473   3.457   0.304   0.826
 1675SOL     OW 5474   1.901   1.077   0.300
 1675SOL    HW1 5475   2.000   1.066   0.291
 1675SOL    HW2 5476   1.861   0.991   0.332
 1676SOL     OW 5477   2.737   1.646   0.337
 1676SOL    HW1 5478   2.660   1.611   0.283
 1676SOL    HW2 5479   2.705   1.717   0.399
 1677SOL     OW 5480   2.092   0.628   1.975
 1677SOL    HW1 5481   1.999   0.626   2.012
 1677SOL    HW2 5482   2.093   0.589   1.883
 1678SOL     OW 5483   2.087   0.275   2.858
 1678SOL    HW1 5484   2.122   0.258   2.950
 1678SOL    HW2 5485   1.999   0.230   2.846
 1679SOL     OW 5486   1.881   0.368   2.509
 1679SOL    HW1 5487   1.799   0.411   2.548
 1679SOL    HW2 5488   1.853   0.295   2.446
 1680SOL     OW 5489   2.431   1.275   3.027
 1680SOL    HW1 5490   2.338   1.268   2.990
 1680SOL    HW2 5491   2.442   1.364   3.071
 1681SOL     OW 5492   3.417   1.511   2.565
 1681SOL    HW1 5493   3.360   1.495   2.646
 1681SOL    HW2 5494   3.358   1.521   2.485
 1682SOL     OW 5495   2.997   0.703   2.579
 1682SOL    HW1 5496   3.054   0.781   2.554
 1682SOL    HW2 5497   2.937   0.729   2.655
 1683SOL     OW 5498   3.617   0.607   2.093
 1683SOL    HW1 5499   3.605   0.594   1.994
 1683SOL    HW2 5500   3.587   0.526   2.142
 1684SOL     OW 5501   2.630   1.144   2.885
 1684SOL    HW1 5502   2.552   1.161   2.945
 1684SOL    HW2 5503   2.664   1.231   2.849
 1685SOL     OW 5504   2.712   0.798   3.685
 1685SOL    HW1 5505   2.708   0.874   3.750
 1685SOL    HW2 5506   2.734   0.834   3.594
 1686SOL     OW 5507   2.547   1.012   2.527
 1686SOL    HW1 5508   2.616   0.996   2.597
 1686SOL    HW2 5509   2.474   1.069   2.565
 1687SOL     OW 5510   2.548   1.161   3.665
 1687SOL    HW1 5511   2.608   1.240   3.679
 1687SOL    HW2 5512   2.462   1.192   3.624
 1688SOL     OW 5513   2.197   1.435   2.923
 1688SOL    HW1 5514   2.119   1.404   2.870
 1688SOL    HW2 5515   2.255   1.493   2.866
 1689SOL     OW 5516   3.322   1.505   3.201
 1689SOL    HW1 5517   3.346   1.599   3.227
 1689SOL    HW2 5518   3.306   1.451   3.283
 1690SOL     OW 5519   2.300   0.392   3.361
 1690SOL    HW1 5520   2.382   0.336   3.370
 1690SOL    HW2 5521   2.219   0.334   3.365
 1691SOL     OW 5522   3.465   0.447   2.599
 1691SOL    HW1 5523   3.391   0.493   2.549
 1691SOL    HW2 5524   3.516   0.515   2.652
 1692SOL     OW 5525   2.093   1.713   2.345
 1692SOL    HW1 5526   2.127   1.790   2.399
 1692SOL    HW2 5527   2.137   1.713   2.255
 1693SOL     OW 5528   2.989   1.341   3.552
 1693SOL    HW1 5529   3.036   1.341   3.640
 1693SOL    HW2 5530   2.941   1.254   3.541
 1694SOL     OW 5531   2.092   1.434   2.400
 1694SOL    HW1 5532   2.066   1.530   2.400
 1694SOL    HW2 5533   2.021   1.380   2.445
 1695SOL     OW 5534   2.102   1.091   2.748
 1695SOL    HW1 5535   2.116   1.007   2.800
 1695SOL    HW2 5536   2.047   1.155   2.803
 1696SOL     OW 5537   2.482   1.786   3.301
 1696SOL    HW1 5538   2.390   1.769   3.336
 1696SOL    HW2 5539   2.510   1.878   3.327
 1697SOL     OW 5540   2.468   0.964   1.985
 1697SOL    HW1 5541   2.475   1.048   1.931
 1697SOL    HW2 5542   2.514   0.977   2.073
 1698SOL     OW 5543   3.456   0.114   3.342
 1698SOL    HW1 5544   3.438   0.181   3.270
 1698SOL    HW2 5545   3.453   0.160   3.431
 1699SOL     OW 5546   1.984   0.643   2.425
 1699SOL    HW1 5547   1.939   0.555   2.442
 1699SOL    HW2 5548   1.983   0.697   2.509
 1700SOL     OW 5549   3.704   1.767   2.221
 1700SOL    HW1 5550   3.758   1.738   2.301
 1700SOL    HW2 5551   3.734   1.857   2.192
 1701SOL     OW 5552   1.889   1.596   1.979
 1701SOL    HW1 5553   1.870   1.500   2.000
 1701SOL    HW2 5554   1.856   1.654   2.054
 1702SOL     OW 5555   3.551   0.922   2.474
 1702SOL    HW1 5556   3.646   0.893   2.482
 1702SOL    HW2 5557   3.543   0.987   2.399
 1703SOL     OW 5558   3.503   1.108   2.294
 1703SOL    HW1 5559   3.589   1.110   2.242
 1703SOL    HW2 5560   3.517   1.155   2.382
 1704SOL     OW 5561   1.975   0.737   3.459
 1704SOL    HW1 5562   2.063   0.724   3.504
 1704SOL    HW2 5563   1.962   0.834   3.437
 1705SOL     OW 5564   2.475   1.365   2.588
 1705SOL    HW1 5565   2.426   1.278   2.597
 1705SOL    HW2 5566   2.452   1.408   2.501
 1706SOL     OW 5567   3.155   1.228   3.285
 1706SOL    HW1 5568   3.192   1.155   3.227
 1706SOL    HW2 5569   3.207   1.233   3.370
 1707SOL     OW 5570   2.671   0.004   2.364
 1707SOL    HW1 5571   2.711   0.095   2.355
 1707SOL    HW2 5572   2.571   0.012   2.370
 1708SOL     OW 5573   2.059   0.976   3.126
 1708SOL    HW1 5574   2.148   0.931   3.112
 1708SOL    HW2 5575   1.986   0.911   3.107
 1709SOL     OW 5576   3.387   0.999   2.052
 1709SOL    HW1 5577   3.324   0.923   2.065
 1709SOL    HW2 5578   3.435   1.017   2.138
 1710SOL     OW 5579   3.049   1.792   3.478
 1710SOL    HW1 5580   3.073   1.852   3.402
 1710SOL    HW2 5581   3.056   1.697   3.448
 1711SOL     OW 5582   2.179   0.251   3.663
 1711SOL    HW1 5583   2.250   0.322   3.669
 1711SOL    HW2 5584   2.091   0.290   3.691
 1712SOL     OW 5585   3.328   1.417   2.815
 1712SOL    HW1 5586   3.269   1.423   2.895
 1712SOL    HW2 5587   3.313   1.329   2.769
 1713SOL     OW 5588   3.529   1.714   2.434
 1713SOL    HW1 5589   3.488   1.691   2.346
 1713SOL    HW2 5590   3.511   1.640   2.499
 1714SOL     OW 5591   2.460   0.729   2.132
 1714SOL    HW1 5592   2.484   0.798   2.064
 1714SOL    HW2 5593   2.382   0.762   2.186
 1715SOL     OW 5594   3.143   0.345   2.806
 1715SOL    HW1 5595   3.057   0.295   2.793
 1715SOL    HW2 5596   3.205   0.291   2.862
 1716SOL     OW 5597   3.438   1.662   2.169
 1716SOL    HW1 5598   3.527   1.708   2.172
 1716SOL    HW2 5599   3.417   1.638   2.074
 1717SOL     OW 5600   2.669   0.605   3.327
 1717SOL    HW1 5601   2.622   0.602   3.416
 1717SOL    HW2 5602   2.618   0.550   3.261
 1718SOL     OW 5603   3.256   0.469   3.536
 1718SOL    HW1 5604   3.236   0.512   3.624
 1718SOL    HW2 5605   3.334   0.407   3.545
 1719SOL     OW 5606   2.835   0.890   3.434
 1719SOL    HW1 5607   2.881   0.806   3.405
 1719SOL    HW2 5608   2.779   0.924   3.359
 1720SOL     OW 5609   2.853   0.410   3.104
 1720SOL    HW1 5610   2.776   0.444   3.158
 1720SOL    HW2 5611   2.819   0.359   3.025
 1721SOL     OW 5612   2.903   0.701   2.291
 1721SOL    HW1 5613   2.929   0.697   2.387
 1721SOL    HW2 5614   2.818   0.650   2.277
 1722SOL     OW 5615   1.938   0.811   2.651
 1722SOL    HW1 5616   2.037   0.799   2.660
 1722SOL    HW2 5617   1.914   0.906   2.672
 1723SOL     OW 5618   1.992   1.821   3.433
 1723SOL    HW1 5619   1.982   1.806   3.532
 1723SOL    HW2 5620   1.906   1.857   3.397
 1724SOL     OW 5621   2.727   0.348   2.057
 1724SOL    HW1 5622   2.786   0.411   2.008
 1724SOL    HW2 5623   2.746   0.254   2.028
 1725SOL     OW 5624   3.581   0.585   3.693
 1725SOL    HW1 5625   3.555   0.674   3.657
 1725SOL    HW2 5626   3.579   0.517   3.620
 1726SOL     OW 5627   3.224   1.144   2.407
 1726SOL    HW1 5628   3.307   1.115   2.359
 1726SOL    HW2 5629   3.175   1.211   2.351
 1727SOL     OW 5630   2.412   0.196   2.747
 1727SOL    HW1 5631   2.407   0.191   2.847
 1727SOL    HW2 5632   2.414   0.292   2.718
 1728SOL     OW 5633   2.870   1.456   2.339
 1728SOL    HW1 5634   2.824   1.528   2.287
 1728SOL    HW2 5635   2.866   1.476   2.437
 1729SOL     OW 5636   2.213   1.801   2.715
 1729SOL    HW1 5637   2.263   1.715   2.721
 1729SOL    HW2 5638   2.278   1.878   2.712
 1730SOL     OW 5639   3.657   1.066   2.735
 1730SOL    HW1 5640   3.595   1.051   2.659
 1730SOL    HW2 5641   3.605   1.077   2.820
 1731SOL     OW 5642   3.089   1.550   3.368
 1731SOL    HW1 5643   3.095   1.473   3.432
 1731SOL    HW2 5644   3.037   1.524   3.288
 1732SOL     OW 5645   2.183   0.943   2.104
 1732SOL    HW1 5646   2.265   0.982   2.062
 1732SOL    HW2 5647   2.156   0.861   2.055
 1733SOL     OW 5648   3.320   0.735   2.590
 1733SOL    HW1 5649   3.315   0.670   2.665
 1733SOL    HW2 5650   3.400   0.794   2.603
 1734SOL     OW 5651   2.323   1.266   3.589
 1734SOL    HW1 5652   2.273   1.267   3.503
 1734SOL    HW2 5653   2.260   1.248   3.665
 1735SOL     OW 5654   2.973   1.776   2.099
 1735SOL    HW1 5655   2.913   1.714   2.149
 1735SOL    HW2 5656   3.004   1.732   2.014
 1736SOL     OW 5657   2.064   0.285   3.360
 1736SOL    HW1 5658   1.984   0.345   3.347
 1736SOL    HW2 5659   2.054   0.236   3.446
 1737SOL     OW 5660   2.326   1.743   2.185
 1737SOL    HW1 5661   2.359   1.782   2.271
 1737SOL    HW2 5662   2.402   1.736   2.120
 1738SOL     OW 5663   3.262   0.107   2.288
 1738SOL    HW1 5664   3.238   0.070   2.198
 1738SOL    HW2 5665   3.361   0.123   2.292
 1739SOL     OW 5666   2.111   1.785   3.103
 1739SOL    HW1 5667   2.168   1.720   3.153
 1739SOL    HW2 5668   2.095   1.752   3.010
 1740SOL     OW 5669   2.802   1.698   2.766
 1740SOL    HW1 5670   2.882   1.641   2.787
 1740SOL    HW2 5671   2.753   1.658   2.689
 1741SOL     OW 5672   2.244   0.700   2.342
 1741SOL    HW1 5673   2.289   0.610   2.339
 1741SOL    HW2 5674   2.150   0.689   2.375
 1742SOL     OW 5675   3.409   0.222   3.591
 1742SOL    HW1 5676   3.404   0.259   3.683
 1742SOL    HW2 5677   3.337   0.153   3.579
 1743SOL     OW 5678   2.476   0.122   1.979
 1743SOL    HW1 5679   2.574   0.100   1.986
 1743SOL    HW2 5680   2.445   0.105   1.886
 1744SOL     OW 5681   2.643   0.264   3.611
 1744SOL    HW1 5682   2.710   0.203   3.654
 1744SOL    HW2 5683   2.570   0.283   3.676
 1745SOL     OW 5684   2.750   1.514   3.057
 1745SOL    HW1 5685   2.727   1.489   2.963
 1745SOL    HW2 5686   2.811   1.445   3.096
 1746SOL     OW 5687   3.213   0.590   3.295
 1746SOL    HW1 5688   3.241   0.547   3.380
 1746SOL    HW2 5689   3.238   0.686   3.296
 1747SOL     OW 5690   2.665   1.402   2.786
 1747SOL    HW1 5691   2.755   1.416   2.744
 1747SOL    HW2 5692   2.594   1.404   2.715
 1748SOL     OW 5693   2.784   0.503   2.761
 1748SOL    HW1 5694   2.759   0.494   2.665
 1748SOL    HW2 5695   2.832   0.421   2.792
 1749SOL     OW 5696   2.401   0.064   2.374
 1749SOL    HW1 5697   2.320   0.065   2.432
 1749SOL    HW2 5698   2.404   0.147   2.319
 1750SOL     OW 5699   3.296   1.188   1.903
 1750SOL    HW1 5700   3.328   1.112   1.960
 1750SOL    HW2 5701   3.204   1.215   1.933
 1751SOL     OW 5702   2.159   0.035   2.033
 1751SOL    HW1 5703   2.208   0.119   2.012
 1751SOL    HW2 5704   2.221  -0.030   2.078
 1752SOL     OW 5705   2.797   0.236   2.342
 1752SOL    HW1 5706   2.749   0.277   2.264
 1752SOL    HW2 5707   2.896   0.234   2.323
 1753SOL     OW 5708   2.938   0.683   3.326
 1753SOL    HW1 5709   2.858   0.622   3.329
 1753SOL    HW2 5710   3.019   0.630   3.302
 1754SOL     OW 5711   3.089   1.570   2.655
 1754SOL    HW1 5712   3.110   1.644   2.590
 1754SOL    HW2 5713   3.157   1.570   2.728
 1755SOL     OW 5714   2.321   1.152   2.603
 1755SOL    HW1 5715   2.250   1.125   2.668
 1755SOL    HW2 5716   2.295   1.124   2.510
 1756SOL     OW 5717   3.133   1.797   2.453
 1756SOL    HW1 5718   3.177   1.861   2.389
 1756SOL    HW2 5719   3.083   1.849   2.523
 1757SOL     OW 5720   2.894   0.549   1.878
 1757SOL    HW1 5721   2.853   0.631   1.839
 1757SOL    HW2 5722   2.958   0.575   1.951
 1758SOL     OW 5723   1.940   0.556   3.248
 1758SOL    HW1 5724   2.032   0.555   3.207
 1758SOL    HW2 5725   1.934   0.630   3.315
 1759SOL     OW 5726   2.423   0.222   3.009
 1759SOL    HW1 5727   2.461   0.138   3.046
 1759SOL    HW2 5728   2.335   0.241   3.053
 1760SOL     OW 5729   2.728   0.454   2.504
 1760SOL    HW1 5730   2.696   0.526   2.442
 1760SOL    HW2 5731   2.752   0.373   2.451
 1761SOL     OW 5732   2.879   0.039   2.615
 1761SOL    HW1 5733   2.807   0.044   2.546
 1761SOL    HW2 5734   2.855  -0.030   2.684
 1762SOL     OW 5735   3.291   1.173   2.729
 1762SOL    HW1 5736   3.236   1.089   2.722
 1762SOL    HW2 5737   3.317   1.202   2.637
 1763SOL     OW 5738   3.328   0.590   2.854
 1763SOL    HW1 5739   3.298   0.495   2.861
 1763SOL    HW2 5740   3.401   0.606   2.920
 1764SOL     OW 5741   3.719   0.833   2.239
 1764SOL    HW1 5742   3.761   0.769   2.303
 1764SOL    HW2 5743   3.681   0.782   2.161
 1765SOL     OW 5744   2.350   1.385   2.036
 1765SOL    HW1 5745   2.263   1.370   2.083
 1765SOL    HW2 5746   2.333   1.411   1.941
 1766SOL     OW 5747   3.526   1.280   2.519
 1766SOL    HW1 5748   3.625   1.288   2.533
 1766SOL    HW2 5749   3.481   1.364   2.550
 1767SOL     OW 5750   3.252   0.575   1.940
 1767SOL    HW1 5751   3.198   0.554   2.021
 1767SOL    HW2 5752   3.343   0.534   1.949
 1768SOL     OW 5753   2.389   0.256   2.190
 1768SOL    HW1 5754   2.416   0.197   2.115
 1768SOL    HW2 5755   2.389   0.351   2.159
 1769SOL     OW 5756   3.616   1.223   3.450
 1769SOL    HW1 5757   3.707   1.184   3.437
 1769SOL    HW2 5758   3.624   1.319   3.474
 1770SOL     OW 5759   2.926   1.347   3.202
 1770SOL    HW1 5760   2.846   1.324   3.257
 1770SOL    HW2 5761   3.009   1.321   3.251
 1771SOL     OW 5762   3.454   1.629   3.487
 1771SOL    HW1 5763   3.481   1.663   3.397
 1771SOL    HW2 5764   3.533   1.591   3.533
 1772SOL     OW 5765   2.973   1.195   2.962
 1772SOL    HW1 5766   2.933   1.239   3.043
 1772SOL    HW2 5767   2.932   1.232   2.879
 1773SOL     OW 5768   3.500   1.099   2.941
 1773SOL    HW1 5769   3.505   1.180   3.000
 1773SOL    HW2 5770   3.414   1.101   2.890
 1774SOL     OW 5771   2.777   0.089   3.264
 1774SOL    HW1 5772   2.802   0.069   3.169
 1774SOL    HW2 5773   2.849   0.145   3.306
 1775SOL     OW 5774   2.842   1.116   3.581
 1775SOL    HW1 5775   2.743   1.122   3.591
 1775SOL    HW2 5776   2.865   1.036   3.525
 1776SOL     OW 5777   2.567   1.050   2.230
 1776SOL    HW1 5778   2.553   1.057   2.329
 1776SOL    HW2 5779   2.651   0.999   2.212
 1777SOL     OW 5780   2.272   0.813   3.113
 1777SOL    HW1 5781   2.358   0.825   3.163
 1777SOL    HW2 5782   2.230   0.726   3.140
 1778SOL     OW 5783   3.136   0.386   3.124
 1778SOL    HW1 5784   3.157   0.460   3.188
 1778SOL    HW2 5785   3.047   0.403   3.081
 1779SOL     OW 5786   1.926   1.564   3.193
 1779SOL    HW1 5787   1.880   1.646   3.159
 1779SOL    HW2 5788   2.024   1.583   3.202
 1780SOL     OW 5789   2.229   1.100   2.363
 1780SOL    HW1 5790   2.222   1.183   2.307
 1780SOL    HW2 5791   2.233   1.020   2.303
 1781SOL     OW 5792   2.428   0.537   2.727
 1781SOL    HW1 5793   2.440   0.603   2.653
 1781SOL    HW2 5794   2.474   0.571   2.810
 1782SOL     OW 5795   3.114   1.348   2.250
 1782SOL    HW1 5796   3.164   1.425   2.290
 1782SOL    HW2 5797   3.019   1.350   2.282
 1783SOL     OW 5798   3.134   1.445   3.004
 1783SOL    HW1 5799   3.181   1.458   3.091
 1783SOL    HW2 5800   3.068   1.371   3.013
 1784SOL     OW 5801   3.444   0.639   2.334
 1784SOL    HW1 5802   3.413   0.700   2.407
 1784SOL    HW2 5803   3.494   0.691   2.265
 1785SOL     OW 5804   2.216   1.510   3.191
 1785SOL    HW1 5805   2.195   1.466   3.104
 1785SOL    HW2 5806   2.313   1.536   3.194
 1786SOL     OW 5807   2.264   0.751   3.460
 1786SOL    HW1 5808   2.332   0.806   3.413
 1786SOL    HW2 5809   2.304   0.663   3.487
 1787SOL     OW 5810   3.449   0.779   3.532
 1787SOL    HW1 5811   3.357   0.817   3.527
 1787SOL    HW2 5812   3.509   0.826   3.467
 1788SOL     OW 5813   2.875   0.105   3.632
 1788SOL    HW1 5814   2.881   0.190   3.580
 1788SOL    HW2 5815   2.907   0.029   3.575
 1789SOL     OW 5816   2.366   0.050   3.602
 1789SOL    HW1 5817   2.324  -0.007   3.532
 1789SOL    HW2 5818   2.300   0.119   3.634
 1790SOL     OW 5819   2.435   0.870   2.891
 1790SOL    HW1 5820   2.479   0.959   2.882
 1790SOL    HW2 5821   2.372   0.870   2.968
 1791SOL     OW 5822   3.222   0.862   2.907
 1791SOL    HW1 5823   3.147   0.862   2.841
 1791SOL    HW2 5824   3.259   0.770   2.916
 1792SOL     OW 5825   3.071   0.525   2.137
 1792SOL    HW1 5826   3.084   0.441   2.191
 1792SOL    HW2 5827   3.042   0.599   2.197
 1793SOL     OW 5828   2.169   0.213   3.093
 1793SOL    HW1 5829   2.146   0.250   3.183
 1793SOL    HW2 5830   2.139   0.118   3.087
 1794SOL     OW 5831   1.899   1.310   3.144
 1794SOL    HW1 5832   1.952   1.261   3.212
 1794SOL    HW2 5833   1.921   1.408   3.149
 1795SOL     OW 5834   2.594   0.634   2.926
 1795SOL    HW1 5835   2.653   0.608   2.850
 1795SOL    HW2 5836   2.566   0.730   2.915
 1796SOL     OW 5837   3.590   0.935   3.716
 1796SOL    HW1 5838   3.544   0.928   3.627
 1796SOL    HW2 5839   3.528   0.979   3.782
 1797SOL     OW 5840   2.169   0.063   2.480
 1797SOL    HW1 5841   2.158   0.157   2.513
 1797SOL    HW2 5842   2.164   0.000   2.557
 1798SOL     OW 5843   3.484   0.367   2.236
 1798SOL    HW1 5844   3.486   0.291   2.300
 1798SOL    HW2 5845   3.436   0.444   2.276
 1799SOL     OW 5846   2.885   0.766   2.828
 1799SOL    HW1 5847   2.900   0.787   2.924
 1799SOL    HW2 5848   2.855   0.671   2.819
 1800SOL     OW 5849   2.842   1.573   3.562
 1800SOL    HW1 5850   2.822   1.617   3.474
 1800SOL    HW2 5851   2.881   1.482   3.546
 1801SOL     OW 5852   3.721   1.518   3.467
 1801SOL    HW1 5853   3.735   1.545   3.372
 1801SOL    HW2 5854   3.804   1.540   3.520
 1802SOL     OW 5855   2.212   0.898   3.666
 1802SOL    HW1 5856   2.288   0.942   3.714
 1802SOL    HW2 5857   2.247   0.851   3.584
 1803SOL     OW 5858   3.402   0.274   1.987
 1803SOL    HW1 5859   3.341   0.199   2.010
 1803SOL    HW2 5860   3.424   0.326   2.070
 1804SOL     OW 5861   3.165   0.838   1.904
 1804SOL    HW1 5862   3.199   0.745   1.919
 1804SOL    HW2 5863   3.183   0.865   1.809
 1805SOL     OW 5864   2.930   1.333   2.711
 1805SOL    HW1 5865   2.937   1.249   2.656
 1805SOL    HW2 5866   2.992   1.402   2.675
 1806SOL     OW 5867   2.181   0.810   2.811
 1806SOL    HW1 5868   2.274   0.846   2.816
 1806SOL    HW2 5869   2.175   0.725   2.863
 1807SOL     OW 5870   2.201   0.509   2.868
 1807SOL    HW1 5871   2.149   0.426   2.851
 1807SOL    HW2 5872   2.278   0.514   2.804
 1808SOL     OW 5873   3.000   0.380   3.540
 1808SOL    HW1 5874   2.955   0.443   3.604
 1808SOL    HW2 5875   3.093   0.411   3.523
 1809SOL     OW 5876   3.022   0.207   3.339
 1809SOL    HW1 5877   3.022   0.271   3.416
 1809SOL    HW2 5878   3.050   0.255   3.256
 1810SOL     OW 5879   1.870   1.326   2.062
 1810SOL    HW1 5880   1.777   1.347   2.031
 1810SOL    HW2 5881   1.880   1.227   2.075
 1811SOL     OW 5882   1.950   1.801   2.789
 1811SOL    HW1 5883   1.908   1.715   2.762
 1811SOL    HW2 5884   2.044   1.804   2.755
 1812SOL     OW 5885   2.366   1.568   2.772
 1812SOL    HW1 5886   2.432   1.642   2.781
 1812SOL    HW2 5887   2.410   1.489   2.730
 1813SOL     OW 5888   2.864   0.796   3.100
 1813SOL    HW1 5889   2.905   0.764   3.186
 1813SOL    HW2 5890   2.768   0.769   3.097
 1814SOL     OW 5891   1.902   0.544   2.976
 1814SOL    HW1 5892   1.987   0.511   2.935
 1814SOL    HW2 5893   1.915   0.559   3.074
 1815SOL     OW 5894   2.051   0.520   3.584
 1815SOL    HW1 5895   2.110   0.480   3.514
 1815SOL    HW2 5896   1.993   0.591   3.543
 1816SOL     OW 5897   3.231   0.950   3.522
 1816SOL    HW1 5898   3.270   1.039   3.542
 1816SOL    HW2 5899   3.241   0.930   3.425
 1817SOL     OW 5900   2.677   0.572   2.187
 1817SOL    HW1 5901   2.684   0.483   2.141
 1817SOL    HW2 5902   2.583   0.606   2.179
 1818SOL     OW 5903   3.519   0.604   3.068
 1818SOL    HW1 5904   3.481   0.535   3.130
 1818SOL    HW2 5905   3.601   0.568   3.024
 1819SOL     OW 5906   2.114   1.564   3.606
 1819SOL    HW1 5907   2.084   1.621   3.682
 1819SOL    HW2 5908   2.107   1.467   3.632
 1820SOL     OW 5909   2.533   0.464   3.131
 1820SOL    HW1 5910   2.499   0.375   3.101
 1820SOL    HW2 5911   2.559   0.518   3.051
 1821SOL     OW 5912   2.792   1.678   3.327
 1821SOL    HW1 5913   2.768   1.660   3.232
 1821SOL    HW2 5914   2.822   1.772   3.337
 1822SOL     OW 5915   2.335   0.500   2.053
 1822SOL    HW1 5916   2.396   0.580   2.057
 1822SOL    HW2 5917   2.240   0.531   2.060
 1823SOL     OW 5918   2.021   1.137   3.328
 1823SOL    HW1 5919   2.043   1.076   3.404
 1823SOL    HW2 5920   2.031   1.088   3.242
 1824SOL     OW 5921   3.209   1.059   3.096
 1824SOL    HW1 5922   3.233   0.996   3.022
 1824SOL    HW2 5923   3.119   1.099   3.078
 1825SOL     OW 5924   3.164   0.855   2.171
 1825SOL    HW1 5925   3.078   0.824   2.213
 1825SOL    HW2 5926   3.160   0.841   2.072
 1826SOL     OW 5927   3.621   1.747   3.016
 1826SOL    HW1 5928   3.682   1.777   2.943
 1826SOL    HW2 5929   3.583   1.658   2.994
 1827SOL     OW 5930   3.114   1.731   2.990
 1827SOL    HW1 5931   3.198   1.736   2.936
 1827SOL    HW2 5932   3.091   1.635   3.008
 1828SOL     OW 5933   1.945   1.258   2.884
 1828SOL    HW1 5934   1.940   1.257   2.984
 1828SOL    HW2 5935   1.862   1.217   2.846
 1829SOL     OW 5936   2.550   1.662   3.578
 1829SOL    HW1 5937   2.494   1.743   3.587
 1829SOL    HW2 5938   2.602   1.666   3.492
 1830SOL     OW 5939   3.588   0.135   2.385
 1830SOL    HW1 5940   3.661   0.118   2.318
 1830SOL    HW2 5941   3.557   0.048   2.423
 1831SOL     OW 5942   3.250   1.573   2.339
 1831SOL    HW1 5943   3.317   1.585   2.265
 1831SOL    HW2 5944   3.210   1.662   2.362
 1832SOL     OW 5945   1.992   1.794   3.713
 1832SOL    HW1 5946   1.951   1.720   3.766
 1832SOL    HW2 5947   2.056   1.845   3.771
 1833SOL     OW 5948   3.142   0.927   2.534
 1833SOL    HW1 5949   3.202   0.846   2.536
 1833SOL    HW2 5950   3.182   0.996   2.474
 1834SOL     OW 5951   2.692   1.273   3.284
 1834SOL    HW1 5952   2.687   1.306   3.379
 1834SOL    HW2 5953   2.606   1.292   3.238
 1835SOL     OW 5954   2.534   1.616   2.016
 1835SOL    HW1 5955   2.543   1.626   1.917
 1835SOL    HW2 5956   2.494   1.527   2.037
 1836SOL     OW 5957   3.512   1.720   3.256
 1836SOL    HW1 5958   3.565   1.730   3.172
 1836SOL    HW2 5959   3.485   1.810   3.290
 1837SOL     OW 5960   3.703   0.175   2.825
 1837SOL    HW1 5961   3.742   0.090   2.789
 1837SOL    HW2 5962   3.605   0.177   2.806
 1838SOL     OW 5963   2.125   0.326   2.582
 1838SOL    HW1 5964   2.046   0.377   2.548
 1838SOL    HW2 5965   2.116   0.311   2.680
 1839SOL     OW 5966   3.056   1.612   1.893
 1839SOL    HW1 5967   3.062   1.519   1.930
 1839SOL    HW2 5968   2.997   1.612   1.813
 1840SOL     OW 5969   2.684   1.002   3.234
 1840SOL    HW1 5970   2.724   1.001   3.142
 1840SOL    HW2 5971   2.694   1.094   3.274
 1841SOL     OW 5972   2.778   0.910   2.153
 1841SOL    HW1 5973   2.841   0.948   2.085
 1841SOL    HW2 5974   2.818   0.827   2.192
 1842SOL     OW 5975   2.234   1.288   3.352
 1842SOL    HW1 5976   2.221   1.381   3.318
 1842SOL    HW2 5977   2.150   1.236   3.339
 1843SOL     OW 5978   3.476   1.292   3.151
 1843SOL    HW1 5979   3.536   1.295   3.231
 1843SOL    HW2 5980   3.401   1.356   3.164
 1844SOL     OW 5981   2.901   1.098   2.558
 1844SOL    HW1 5982   2.831   1.051   2.612
 1844SOL    HW2 5983   2.960   1.030   2.515
 1845SOL     OW 5984   2.876   0.236   2.833
 1845SOL    HW1 5985   2.868   0.200   2.740
 1845SOL    HW2 5986   2.874   0.160   2.898
 1846SOL     OW 5987   2.452   1.487   2.353
 1846SOL    HW1 5988   2.494   1.429   2.283
 1846SOL    HW2 5989   2.408   1.566   2.309
 1847SOL     OW 5990   3.571   0.385   3.243
 1847SOL    HW1 5991   3.644   0.454   3.247
 1847SOL    HW2 5992   3.599   0.310   3.184
 1848SOL     OW 5993   2.117   1.348   2.152
 1848SOL    HW1 5994   2.021   1.349   2.125
 1848SOL    HW2 5995   2.129   1.401   2.236
 1849SOL     OW 5996   1.967   1.013   3.588
 1849SOL    HW1 5997   1.890   0.980   3.642
 1849SOL    HW2 5998   2.052   0.983   3.630
 1850SOL     OW 5999   2.534   0.203   3.351
 1850SOL    HW1 6000   2.624   0.187   3.311
 1850SOL    HW2 6001   2.542   0.208   3.450
 1851SOL     OW 6002   1.937   0.345   1.895
 1851SOL    HW1 6003   1.845   0.317   1.866
 1851SOL    HW2 6004   1.968   0.422   1.839
 1852SOL     OW 6005   3.302   0.856   3.260
 1852SOL    HW1 6006   3.245   0.908   3.197
 1852SOL    HW2 6007   3.398   0.868   3.236
 1853SOL     OW 6008   1.934   0.166   2.180
 1853SOL    HW1 6009   1.917   0.249   2.126
 1853SOL    HW2 6010   2.024   0.129   2.158
 1854SOL     OW 6011   3.045   1.335   1.981
 1854SOL    HW1 6012   2.946   1.324   1.983
 1854SOL    HW2 6013   3.079   1.350   2.074
 1855SOL     OW 6014   2.475   0.842   3.293
 1855SOL    HW1 6015   2.531   0.923   3.276
 1855SOL    HW2 6016   2.534   0.762   3.296
 1856SOL     OW 6017   3.355   1.767   2.821
 1856SOL    HW1 6018   3.388   1.831   2.752
 1856SOL    HW2 6019   3.421   1.761   2.896
 1857SOL     OW 6020   2.578   0.565   3.570
 1857SOL    HW1 6021   2.597   0.630   3.644
 1857SOL    HW2 6022   2.638   0.485   3.579
 1858SOL     OW 6023   3.312   1.220   3.495
 1858SOL    HW1 6024   3.303   1.210   3.594
 1858SOL    HW2 6025   3.408   1.213   3.469
 1859SOL     OW 6026   2.252   1.741   3.422
 1859SOL    HW1 6027   2.161   1.782   3.420
 1859SOL    HW2 6028   2.245   1.647   3.454
 1860SOL     OW 6029   3.536   0.883   3.116
 1860SOL    HW1 6030   3.509   0.794   3.079
 1860SOL    HW2 6031   3.537   0.951   3.043
 1861SOL     OW 6032   3.087   0.325   2.311
 1861SOL    HW1 6033   3.152   0.251   2.300
 1861SOL    HW2 6034   3.107   0.375   2.395
 1862SOL     OW 6035   2.456   0.745   2.514
 1862SOL    HW1 6036   2.506   0.830   2.495
 1862SOL    HW2 6037   2.368   0.747   2.466
 1863SOL     OW 6038   3.639   0.342   3.504
 1863SOL    HW1 6039   3.622   0.373   3.410
 1863SOL    HW2 6040   3.555   0.305   3.542
 1864SOL     OW 6041   3.592   0.934   3.379
 1864SOL    HW1 6042   3.630   1.025   3.394
 1864SOL    HW2 6043   3.584   0.917   3.280
 1865SOL     OW 6044   2.721   1.374   1.878
 1865SOL    HW1 6045   2.675   1.389   1.966
 1865SOL    HW2 6046   2.765   1.459   1.848
 1866SOL     OW 6047   2.523   1.790   2.815
 1866SOL    HW1 6048   2.477   1.878   2.802
 1866SOL    HW2 6049   2.622   1.802   2.808
 1867SOL     OW 6050   2.721   0.956   2.723
 1867SOL    HW1 6051   2.775   0.887   2.771
 1867SOL    HW2 6052   2.689   1.025   2.789
 1868SOL     OW 6053   2.945   0.984   1.949
 1868SOL    HW1 6054   2.922   1.037   1.867
 1868SOL    HW2 6055   3.026   0.928   1.930
 1869SOL     OW 6056   3.723   1.569   2.713
 1869SOL    HW1 6057   3.652   1.557   2.643
 1869SOL    HW2 6058   3.724   1.490   2.773
 1870SOL     OW 6059   2.083   1.314   3.706
 1870SOL    HW1 6060   2.018   1.241   3.685
 1870SOL    HW2 6061   2.087   1.328   3.804
 1871SOL     OW 6062   1.941   1.240   2.515
 1871SOL    HW1 6063   1.940   1.193   2.603
 1871SOL    HW2 6064   2.023   1.212   2.464
 1872SOL     OW 6065   2.534   1.391   3.486
 1872SOL    HW1 6066   2.456   1.341   3.524
 1872SOL    HW2 6067   2.531   1.486   3.517
 1873SOL     OW 6068   3.686   0.192   3.089
 1873SOL    HW1 6069   3.682   0.102   3.133
 1873SOL    HW2 6070   3.689   0.181   2.990
 1874SOL     OW 6071   2.290   0.424   2.382
 1874SOL    HW1 6072   2.320   0.352   2.320
 1874SOL    HW2 6073   2.251   0.384   2.465
 1875SOL     OW 6074   3.567   1.487   2.966
 1875SOL    HW1 6075   3.474   1.462   2.939
 1875SOL    HW2 6076   3.593   1.437   3.048
 1876SOL     OW 6077   2.179   0.547   3.142
 1876SOL    HW1 6078   2.217   0.488   3.214
 1876SOL    HW2 6079   2.219   0.521   3.054
 1877SOL     OW 6080   2.674   1.586   2.549
 1877SOL    HW1 6081   2.706   1.596   2.455
 1877SOL    HW2 6082   2.595   1.524   2.551
 1878SOL     OW 6083   3.286   0.214   2.974
 1878SOL    HW1 6084   3.338   0.149   3.029
 1878SOL    HW2 6085   3.237   0.277   3.035
 1879SOL     OW 6086   2.863   0.034   3.016
 1879SOL    HW1 6087   2.800  -0.038   2.985
 1879SOL    HW2 6088   2.956  -0.002   3.016
 1880SOL     OW 6089   2.632   1.330   2.163
 1880SOL    HW1 6090   2.586   1.243   2.180
 1880SOL    HW2 6091   2.723   1.327   2.204
 1881SOL     OW 6092   2.480   1.567   3.146
 1881SOL    HW1 6093   2.475   1.649   3.203
 1881SOL    HW2 6094   2.569   1.564   3.101
 1882SOL     OW 6095   3.214   0.052   2.030
 1882SOL    HW1 6096   3.249   0.011   1.946
 1882SOL    HW2 6097   3.124   0.014   2.050
 1883SOL     OW 6098   3.162   0.453   2.553
 1883SOL    HW1 6099   3.103   0.533   2.557
 1883SOL    HW2 6100   3.177   0.418   2.646
 1884SOL     OW 6101   3.455   0.221   2.744
 1884SOL    HW1 6102   3.371   0.220   2.798
 1884SOL    HW2 6103   3.457   0.304   2.688
 1885SOL     OW 6104   1.901   1.077   2.162
 1885SOL    HW1 6105   2.000   1.066   2.153
 1885SOL    HW2 6106   1.861   0.991   2.194
 1886SOL     OW 6107   2.737   1.646   2.199
 1886SOL    HW1 6108   2.660   1.611   2.145
 1886SOL    HW2 6109   2.705   1.717   2.261
 1887SOL     OW 6110   2.092   0.628   3.837
 1887SOL    HW1 6111   1.999   0.626   3.874
 1887SOL    HW2 6112   2.093   0.589   3.745
 1888SOL     OW 6113   2.087   0.275   4.720
 1888SOL    HW1 6114   2.122   0.258   4.812
 1888SOL    HW2 6115   1.999   0.230   4.708
 1889SOL     OW 6116   1.881   0.368   4.371
 1889SOL    HW1 6117   1.799   0.411   4.410
 1889SOL    HW2 6118   1.853   0.295   4.308
 1890SOL     OW 6119   2.431   1.275   4.889
 1890SOL    HW1 6120   2.338   1.268   4.852
 1890SOL    HW2 6121   2.442   1.364   4.933
 1891SOL     OW 6122   3.417   1.511   4.427
 1891SOL    HW1 6123   3.360   1.495   4.508
 1891SOL    HW2 6124   3.358   1.521   4.347
 1892SOL     OW 6125   2.997   0.703   4.441
 1892SOL    HW1 6126   3.054   0.781   4.416
 1892SOL    HW2 6127   2.937   0.729   4.517
 1893SOL     OW 6128   3.617   0.607   3.955
 1893SOL    HW1 6129   3.605   0.594   3.856
 1893SOL    HW2 6130   3.587   0.526   4.004
 1894SOL     OW 6131   2.630   1.144   4.747
 1894SOL    HW1 6132   2.552   1.161   4.807
 1894SOL    HW2 6133   2.664   1.231   4.711
 1895SOL     OW 6134   2.547   1.012   4.389
 1895SOL    HW1 6135   2.616   0.996   4.459
 1895SOL    HW2 6136   2.474   1.069   4.427
 1896SOL     OW 6137   2.197   1.435   4.785
 1896SOL    HW1 6138   2.119   1.404   4.732
 1896SOL    HW2 6139   2.255   1.493   4.728
 1897SOL     OW 6140   3.465   0.447   4.461
 1897SOL    HW1 6141   3.391   0.493   4.411
 1897SOL    HW2 6142   3.516   0.515   4.514
 1898SOL     OW 6143   2.093   1.713   4.207
 1898SOL    HW1 6144   2.127   1.790   4.261
 1898SOL    HW2 6145   2.137   1.713   4.117
 1899SOL     OW 6146   2.092   1.434   4.262
 1899SOL    HW1 6147   2.066   1.530   4.262
 1899SOL    HW2 6148   2.021   1.380   4.307
 1900SOL     OW 6149   2.102   1.091   4.610
 1900SOL    HW1 6150   2.116   1.007   4.662
 1900SOL    HW2 6151   2.047   1.155   4.665
 1901SOL     OW 6152   2.482   1.786   5.163
 1901SOL    HW1 6153   2.390   1.769   5.198
 1901SOL    HW2 6154   2.510   1.878   5.189
 1902SOL     OW 6155   2.468   0.964   3.847
 1902SOL    HW1 6156   2.475   1.048   3.793
 1902SOL    HW2 6157   2.514   0.977   3.935
 1903SOL     OW 6158   1.984   0.643   4.287
 1903SOL    HW1 6159   1.939   0.555   4.304
 1903SOL    HW2 6160   1.983   0.697   4.371
 1904SOL     OW 6161   3.704   1.767   4.083
 1904SOL    HW1 6162   3.758   1.738   4.163
 1904SOL    HW2 6163   3.734   1.857   4.054
 1905SOL     OW 6164   1.889   1.596   3.841
 1905SOL    HW1 6165   1.870   1.500   3.862
 1905SOL    HW2 6166   1.856   1.654   3.916
 1906SOL     OW 6167   3.551   0.922   4.336
 1906SOL    HW1 6168   3.646   0.893   4.344
 1906SOL    HW2 6169   3.543   0.987   4.261
 1907SOL     OW 6170   3.503   1.108   4.156
 1907SOL    HW1 6171   3.589   1.110   4.104
 1907SOL    HW2 6172   3.517   1.155   4.244
 1908SOL     OW 6173   2.475   1.365   4.450
 1908SOL    HW1 6174   2.426   1.278   4.459
 1908SOL    HW2 6175   2.452   1.408   4.363
 1909SOL     OW 6176   2.671   0.004   4.226
 1909SOL    HW1 6177   2.711   0.095   4.217
 1909SOL    HW2 6178   2.571   0.012   4.232
 1910SOL     OW 6179   2.059   0.976   4.988
 1910SOL    HW1 6180   2.148   0.931   4.974
 1910SOL    HW2 6181   1.986   0.911   4.969
 1911SOL     OW 6182   3.387   0.999   3.914
 1911SOL    HW1 6183   3.324   0.923   3.927
 1911SOL    HW2 6184   3.435   1.017   4.000
 1912SOL     OW 6185   3.328   1.417   4.677
 1912SOL    HW1 6186   3.269   1.423   4.757
 1912SOL    HW2 6187   3.313   1.329   4.631
 1913SOL     OW 6188   3.529   1.714   4.296
 1913SOL    HW1 6189   3.488   1.691   4.208
 1913SOL    HW2 6190   3.511   1.640   4.361
 1914SOL     OW 6191   2.460   0.729   3.994
 1914SOL    HW1 6192   2.484   0.798   3.926
 1914SOL    HW2 6193   2.382   0.762   4.048
 1915SOL     OW 6194   3.143   0.345   4.668
 1915SOL    HW1 6195   3.057   0.295   4.655
 1915SOL    HW2 6196   3.205   0.291   4.724
 1916SOL     OW 6197   3.438   1.662   4.031
 1916SOL    HW1 6198   3.527   1.708   4.034
 1916SOL    HW2 6199   3.417   1.638   3.936
 1917SOL     OW 6200   2.853   0.410   4.966
 1917SOL    HW1 6201   2.776   0.444   5.020
 1917SOL    HW2 6202   2.819   0.359   4.887
 1918SOL     OW 6203   2.903   0.701   4.153
 1918SOL    HW1 6204   2.929   0.697   4.249
 1918SOL    HW2 6205   2.818   0.650   4.139
 1919SOL     OW 6206   1.938   0.811   4.513
 1919SOL    HW1 6207   2.037   0.799   4.522
 1919SOL    HW2 6208   1.914   0.906   4.534
 1920SOL     OW 6209   2.727   0.348   3.919
 1920SOL    HW1 6210   2.786   0.411   3.870
 1920SOL    HW2 6211   2.746   0.254   3.890
 1921SOL     OW 6212   3.224   1.144   4.269
 1921SOL    HW1 6213   3.307   1.115   4.221
 1921SOL    HW2 6214   3.175   1.211   4.213
 1922SOL     OW 6215   2.412   0.196   4.609
 1922SOL    HW1 6216   2.407   0.191   4.709
 1922SOL    HW2 6217   2.414   0.292   4.580
 1923SOL     OW 6218   2.870   1.456   4.201
 1923SOL    HW1 6219   2.824   1.528   4.149
 1923SOL    HW2 6220   2.866   1.476   4.299
 1924SOL     OW 6221   2.213   1.801   4.577
 1924SOL    HW1 6222   2.263   1.715   4.583
 1924SOL    HW2 6223   2.278   1.878   4.574
 1925SOL     OW 6224   3.657   1.066   4.597
 1925SOL    HW1 6225   3.595   1.051   4.521
 1925SOL    HW2 6226   3.605   1.077   4.682
 1926SOL     OW 6227   2.183   0.943   3.966
 1926SOL    HW1 6228   2.265   0.982   3.924
 1926SOL    HW2 6229   2.156   0.861   3.917
 1927SOL     OW 6230   3.320   0.735   4.452
 1927SOL    HW1 6231   3.315   0.670   4.527
 1927SOL    HW2 6232   3.400   0.794   4.465
 1928SOL     OW 6233   2.973   1.776   3.961
 1928SOL    HW1 6234   2.913   1.714   4.011
 1928SOL    HW2 6235   3.004   1.732   3.876
 1929SOL     OW 6236   3.494   1.377   3.805
 1929SOL    HW1 6237   3.462   1.471   3.795
 1929SOL    HW2 6238   3.418   1.314   3.793
 1930SOL     OW 6239   2.326   1.743   4.047
 1930SOL    HW1 6240   2.359   1.782   4.133
 1930SOL    HW2 6241   2.402   1.736   3.982
 1931SOL     OW 6242   3.262   0.107   4.150
 1931SOL    HW1 6243   3.238   0.070   4.060
 1931SOL    HW2 6244   3.361   0.123   4.154
 1932SOL     OW 6245   2.111   1.785   4.965
 1932SOL    HW1 6246   2.168   1.720   5.015
 1932SOL    HW2 6247   2.095   1.752   4.872
 1933SOL     OW 6248   2.802   1.698   4.628
 1933SOL    HW1 6249   2.882   1.641   4.649
 1933SOL    HW2 6250   2.753   1.658   4.551
 1934SOL     OW 6251   2.244   0.700   4.204
 1934SOL    HW1 6252   2.289   0.610   4.201
 1934SOL    HW2 6253   2.150   0.689   4.237
 1935SOL     OW 6254   2.476   0.122   3.841
 1935SOL    HW1 6255   2.574   0.100   3.848
 1935SOL    HW2 6256   2.445   0.105   3.748
 1936SOL     OW 6257   2.665   1.402   4.648
 1936SOL    HW1 6258   2.755   1.416   4.606
 1936SOL    HW2 6259   2.594   1.404   4.577
 1937SOL     OW 6260   2.784   0.503   4.623
 1937SOL    HW1 6261   2.759   0.494   4.527
 1937SOL    HW2 6262   2.832   0.421   4.654
 1938SOL     OW 6263   2.401   0.064   4.236
 1938SOL    HW1 6264   2.320   0.065   4.294
 1938SOL    HW2 6265   2.404   0.147   4.181
 1939SOL     OW 6266   3.296   1.188   3.765
 1939SOL    HW1 6267   3.328   1.112   3.822
 1939SOL    HW2 6268   3.204   1.215   3.795
 1940SOL     OW 6269   2.159   0.035   3.895
 1940SOL    HW1 6270   2.208   0.119   3.874
 1940SOL    HW2 6271   2.221  -0.030   3.940
 1941SOL     OW 6272   2.797   0.236   4.204
 1941SOL    HW1 6273   2.749   0.277   4.126
 1941SOL    HW2 6274   2.896   0.234   4.185
 1942SOL     OW 6275   3.089   1.570   4.517
 1942SOL    HW1 6276   3.110   1.644   4.452
 1942SOL    HW2 6277   3.157   1.570   4.590
 1943SOL     OW 6278   2.321   1.152   4.465
 1943SOL    HW1 6279   2.250   1.125   4.530
 1943SOL    HW2 6280   2.295   1.124   4.372
 1944SOL     OW 6281   3.133   1.797   4.315
 1944SOL    HW1 6282   3.177   1.861   4.251
 1944SOL    HW2 6283   3.083   1.849   4.385
 1945SOL     OW 6284   2.894   0.549   3.740
 1945SOL    HW1 6285   2.853   0.631   3.701
 1945SOL    HW2 6286   2.958   0.575   3.813
 1946SOL     OW 6287   2.423   0.222   4.871
 1946SOL    HW1 6288   2.461   0.138   4.908
 1946SOL    HW2 6289   2.335   0.241   4.915
 1947SOL     OW 6290   2.728   0.454   4.366
 1947SOL    HW1 6291   2.696   0.526   4.304
 1947SOL    HW2 6292   2.752   0.373   4.313
 1948SOL     OW 6293   2.879   0.039   4.477
 1948SOL    HW1 6294   2.807   0.044   4.408
 1948SOL    HW2 6295   2.855  -0.030   4.546
 1949SOL     OW 6296   3.291   1.173   4.591
 1949SOL    HW1 6297   3.236   1.089   4.584
 1949SOL    HW2 6298   3.317   1.202   4.499
 1950SOL     OW 6299   3.328   0.590   4.716
 1950SOL    HW1 6300   3.298   0.495   4.723
 1950SOL    HW2 6301   3.401   0.606   4.782
 1951SOL     OW 6302   3.719   0.833   4.101
 1951SOL    HW1 6303   3.761   0.769   4.165
 1951SOL    HW2 6304   3.681   0.782   4.023
 1952SOL     OW 6305   2.350   1.385   3.898
 1952SOL    HW1 6306   2.263   1.370   3.945
 1952SOL    HW2 6307   2.333   1.411   3.803
 1953SOL     OW 6308   3.526   1.280   4.381
 1953SOL    HW1 6309   3.625   1.288   4.395
 1953SOL    HW2 6310   3.481   1.364   4.412
 1954SOL     OW 6311   3.252   0.575   3.802
 1954SOL    HW1 6312   3.198   0.554   3.883
 1954SOL    HW2 6313   3.343   0.534   3.811
 1955SOL     OW 6314   2.389   0.256   4.052
 1955SOL    HW1 6315   2.416   0.197   3.977
 1955SOL    HW2 6316   2.389   0.351   4.021
 1956SOL     OW 6317   2.973   1.195   4.824
 1956SOL    HW1 6318   2.933   1.239   4.905
 1956SOL    HW2 6319   2.932   1.232   4.741
 1957SOL     OW 6320   3.500   1.099   4.803
 1957SOL    HW1 6321   3.505   1.180   4.862
 1957SOL    HW2 6322   3.414   1.101   4.752
 1958SOL     OW 6323   2.567   1.050   4.092
 1958SOL    HW1 6324   2.553   1.057   4.191
 1958SOL    HW2 6325   2.651   0.999   4.074
 1959SOL     OW 6326   2.272   0.813   4.975
 1959SOL    HW1 6327   2.358   0.825   5.025
 1959SOL    HW2 6328   2.230   0.726   5.002
 1960SOL     OW 6329   3.136   0.386   4.986
 1960SOL    HW1 6330   3.157   0.460   5.050
 1960SOL    HW2 6331   3.047   0.403   4.943
 1961SOL     OW 6332   2.229   1.100   4.225
 1961SOL    HW1 6333   2.222   1.183   4.169
 1961SOL    HW2 6334   2.233   1.020   4.165
 1962SOL     OW 6335   2.428   0.537   4.589
 1962SOL    HW1 6336   2.440   0.603   4.515
 1962SOL    HW2 6337   2.474   0.571   4.672
 1963SOL     OW 6338   3.114   1.348   4.112
 1963SOL    HW1 6339   3.164   1.425   4.152
 1963SOL    HW2 6340   3.019   1.350   4.144
 1964SOL     OW 6341   3.134   1.445   4.866
 1964SOL    HW1 6342   3.181   1.458   4.953
 1964SOL    HW2 6343   3.068   1.371   4.875
 1965SOL     OW 6344   3.444   0.639   4.196
 1965SOL    HW1 6345   3.413   0.700   4.269
 1965SOL    HW2 6346   3.494   0.691   4.127
 1966SOL     OW 6347   2.216   1.510   5.053
 1966SOL    HW1 6348   2.195   1.466   4.966
 1966SOL    HW2 6349   2.313   1.536   5.056
 1967SOL     OW 6350   2.435   0.870   4.753
 1967SOL    HW1 6351   2.479   0.959   4.744
 1967SOL    HW2 6352   2.372   0.870   4.830
 1968SOL     OW 6353   3.222   0.862   4.769
 1968SOL    HW1 6354   3.147   0.862   4.703
 1968SOL    HW2 6355   3.259   0.770   4.778
 1969SOL     OW 6356   3.071   0.525   3.999
 1969SOL    HW1 6357   3.084   0.441   4.053
 1969SOL    HW2 6358   3.042   0.599   4.059
 1970SOL     OW 6359   2.169   0.213   4.955
 1970SOL    HW1 6360   2.146   0.250   5.045
 1970SOL    HW2 6361   2.139   0.118   4.949
 1971SOL     OW 6362   1.899   1.310   5.006
 1971SOL    HW1 6363   1.952   1.261   5.074
 1971SOL    HW2 6364   1.921   1.408   5.011
 1972SOL     OW 6365   2.594   0.634   4.788
 1972SOL    HW1 6366   2.653   0.608   4.712
 1972SOL    HW2 6367   2.566   0.730   4.777
 1973SOL     OW 6368   2.169   0.063   4.342
 1973SOL    HW1 6369   2.158   0.157   4.375
 1973SOL    HW2 6370   2.164   0.000   4.419
 1974SOL     OW 6371   3.484   0.367   4.098
 1974SOL    HW1 6372   3.486   0.291   4.162
 1974SOL    HW2 6373   3.436   0.444   4.138
 1975SOL     OW 6374   2.885   0.766   4.690
 1975SOL    HW1 6375   2.900   0.787   4.786
 1975SOL    HW2 6376   2.855   0.671   4.681
 1976SOL     OW 6377   3.402   0.274   3.849
 1976SOL    HW1 6378   3.341   0.199   3.872
 1976SOL    HW2 6379   3.424   0.326   3.932
 1977SOL     OW 6380   3.165   0.838   3.766
 1977SOL    HW1 6381   3.199   0.745   3.781
 1977SOL    HW2 6382   3.183   0.865   3.671
 1978SOL     OW 6383   2.930   1.333   4.573
 1978SOL    HW1 6384   2.937   1.249   4.518
 1978SOL    HW2 6385   2.992   1.402   4.537
 1979SOL     OW 6386   2.181   0.810   4.673
 1979SOL    HW1 6387   2.274   0.846   4.678
 1979SOL    HW2 6388   2.175   0.725   4.725
 1980SOL     OW 6389   2.201   0.509   4.730
 1980SOL    HW1 6390   2.149   0.426   4.713
 1980SOL    HW2 6391   2.278   0.514   4.666
 1981SOL     OW 6392   3.022   0.207   5.201
 1981SOL    HW1 6393   3.022   0.271   5.278
 1981SOL    HW2 6394   3.050   0.255   5.118
 1982SOL     OW 6395   1.870   1.326   3.924
 1982SOL    HW1 6396   1.777   1.347   3.893
 1982SOL    HW2 6397   1.880   1.227   3.937
 1983SOL     OW 6398   1.950   1.801   4.651
 1983SOL    HW1 6399   1.908   1.715   4.624
 1983SOL    HW2 6400   2.044   1.804   4.617
 1984SOL     OW 6401   2.366   1.568   4.634
 1984SOL    HW1 6402   2.432   1.642   4.643
 1984SOL    HW2 6403   2.410   1.489   4.592
 1985SOL     OW 6404   2.864   0.796   4.962
 1985SOL    HW1 6405   2.905   0.764   5.048
 1985SOL    HW2 6406   2.768   0.769   4.959
 1986SOL     OW 6407   1.902   0.544   4.838
 1986SOL    HW1 6408   1.987   0.511   4.797
 1986SOL    HW2 6409   1.915   0.559   4.936
 1987SOL     OW 6410   2.677   0.572   4.049
 1987SOL    HW1 6411   2.684   0.483   4.003
 1987SOL    HW2 6412   2.583   0.606   4.041
 1988SOL     OW 6413   3.519   0.604   4.930
 1988SOL    HW1 6414   3.481   0.535   4.992
 1988SOL    HW2 6415   3.601   0.568   4.886
 1989SOL     OW 6416   2.533   0.464   4.993
 1989SOL    HW1 6417   2.499   0.375   4.963
 1989SOL    HW2 6418   2.559   0.518   4.913
 1990SOL     OW 6419   2.792   1.678   5.189
 1990SOL    HW1 6420   2.768   1.660   5.094
 1990SOL    HW2 6421   2.822   1.772   5.199
 1991SOL     OW 6422   2.335   0.500   3.915
 1991SOL    HW1 6423   2.396   0.580   3.919
 1991SOL    HW2 6424   2.240   0.531   3.922
 1992SOL     OW 6425   3.209   1.059   4.958
 1992SOL    HW1 6426   3.233   0.996   4.884
 1992SOL    HW2 6427   3.119   1.099   4.940
 1993SOL     OW 6428   3.164   0.855   4.033
 1993SOL    HW1 6429   3.078   0.824   4.075
 1993SOL    HW2 6430   3.160   0.841   3.934
 1994SOL     OW 6431   3.621   1.747   4.878
 1994SOL    HW1 6432   3.682   1.777   4.805
 1994SOL    HW2 6433   3.583   1.658   4.856
 1995SOL     OW 6434   3.114   1.731   4.852
 1995SOL    HW1 6435   3.198   1.736   4.798
 1995SOL    HW2 6436   3.091   1.635   4.870
 1996SOL     OW 6437   1.945   1.258   4.746
 1996SOL    HW1 6438   1.940   1.257   4.846
 1996SOL    HW2 6439   1.862   1.217   4.708
 1997SOL     OW 6440   3.588   0.135   4.247
 1997SOL    HW1 6441   3.661   0.118   4.180
 1997SOL    HW2 6442   3.557   0.048   4.285
 1998SOL     OW 6443   3.250   1.573   4.201
 1998SOL    HW1 6444   3.317   1.585   4.127
 1998SOL    HW2 6445   3.210   1.662   4.224
 1999SOL     OW 6446   3.142   0.927   4.396
 1999SOL    HW1 6447   3.202   0.846   4.398
 1999SOL    HW2 6448   3.182   0.996   4.336
 2000SOL     OW 6449   2.534   1.616   3.878
 2000SOL    HW1 6450   2.543   1.626   3.779
 2000SOL    HW2 6451   2.494   1.527   3.899
 2001SOL     OW 6452   3.512   1.720   5.118
 2001SOL    HW1 6453   3.565   1.730   5.034
 2001SOL    HW2 6454   3.485   1.810   5.152
 2002SOL     OW 6455   3.703   0.175   4.687
 2002SOL    HW1 6456   3.742   0.090   4.651
 2002SOL    HW2 6457   3.605   0.177   4.668
 2003SOL     OW 6458   2.125   0.326   4.444
 2003SOL    HW1 6459   2.046   0.377   4.410
 2003SOL    HW2 6460   2.116   0.311   4.542
 2004SOL     OW 6461   3.056   1.612   3.755
 2004SOL    HW1 6462   3.062   1.519   3.792
 2004SOL    HW2 6463   2.997   1.612   3.675
 2005SOL     OW 6464   2.684   1.002   5.096
 2005SOL    HW1 6465   2.724   1.001   5.004
 2005SOL    HW2 6466   2.694   1.094   5.136
 2006SOL     OW 6467   2.778   0.910   4.015
 2006SOL    HW1 6468   2.841   0.948   3.947
 2006SOL    HW2 6469   2.818   0.827   4.054
 2007SOL     OW 6470   3.366   1.607   3.768
 2007SOL    HW1 6471   3.274   1.644   3.775
 2007SOL    HW2 6472   3.404   1.627   3.678
 2008SOL     OW 6473   2.901   1.098   4.420
 2008SOL    HW1 6474   2.831   1.051   4.474
 2008SOL    HW2 6475   2.960   1.030   4.377
 2009SOL     OW 6476   2.876   0.236   4.695
 2009SOL    HW1 6477   2.868   0.200   4.602
 2009SOL    HW2 6478   2.874   0.160   4.760
 2010SOL     OW 6479   2.452   1.487   4.215
 2010SOL    HW1 6480   2.494   1.429   4.145
 2010SOL    HW2 6481   2.408   1.566   4.171
 2011SOL     OW 6482   3.571   0.385   5.105
 2011SOL    HW1 6483   3.644   0.454   5.109
 2011SOL    HW2 6484   3.599   0.310   5.046
 2012SOL     OW 6485   2.117   1.348   4.014
 2012SOL    HW1 6486   2.021   1.349   3.987
 2012SOL    HW2 6487   2.129   1.401   4.098
 2013SOL     OW 6488   1.937   0.345   3.757
 2013SOL    HW1 6489   1.845   0.317   3.728
 2013SOL    HW2 6490   1.968   0.422   3.701
 2014SOL     OW 6491   1.934   0.166   4.042
 2014SOL    HW1 6492   1.917   0.249   3.988
 2014SOL    HW2 6493   2.024   0.129   4.020
 2015SOL     OW 6494   3.045   1.335   3.843
 2015SOL    HW1 6495   2.946   1.324   3.845
 2015SOL    HW2 6496   3.079   1.350   3.936
 2016SOL     OW 6497   3.355   1.767   4.683
 2016SOL    HW1 6498   3.388   1.831   4.614
 2016SOL    HW2 6499   3.421   1.761   4.758
 2017SOL     OW 6500   3.312   1.220   5.357
 2017SOL    HW1 6501   3.303   1.210   5.456
 2017SOL    HW2 6502   3.408   1.213   5.331
 2018SOL     OW 6503   3.536   0.883   4.978
 2018SOL    HW1 6504   3.509   0.794   4.941
 2018SOL    HW2 6505   3.537   0.951   4.905
 2019SOL     OW 6506   3.087   0.325   4.173
 2019SOL    HW1 6507   3.152   0.251   4.162
 2019SOL    HW2 6508   3.107   0.375   4.257
 2020SOL     OW 6509   2.456   0.745   4.376
 2020SOL    HW1 6510   2.506   0.830   4.357
 2020SOL    HW2 6511   2.368   0.747   4.328
 2021SOL     OW 6512   3.592   0.934   5.241
 2021SOL    HW1 6513   3.630   1.025   5.256
 2021SOL    HW2 6514   3.584   0.917   5.142
 2022SOL     OW 6515   2.721   1.374   3.740
 2022SOL    HW1 6516   2.675   1.389   3.828
 2022SOL    HW2 6517   2.765   1.459   3.710
 2023SOL     OW 6518   2.523   1.790   4.677
 2023SOL    HW1 6519   2.477   1.878   4.664
 2023SOL    HW2 6520   2.622   1.802   4.670
 2024SOL     OW 6521   2.721   0.956   4.585
 2024SOL    HW1 6522   2.775   0.887   4.633
 2024SOL    HW2 6523   2.689   1.025   4.651
 2025SOL     OW 6524   2.945   0.984   3.811
 2025SOL    HW1 6525   2.922   1.037   3.729
 2025SOL    HW2 6526   3.026   0.928   3.792
 2026SOL     OW 6527   3.723   1.569   4.575
 2026SOL    HW1 6528   3.652   1.557   4.505
 2026SOL    HW2 6529   3.724   1.490   4.635
 2027SOL     OW 6530   1.941   1.240   4.377
 2027SOL    HW1 6531   1.940   1.193   4.465
 2027SOL    HW2 6532   2.023   1.212   4.326
 2028SOL     OW 6533   3.686   0.192   4.951
 2028SOL    HW1 6534   3.682   0.102   4.995
 2028SOL    HW2 6535   3.689   0.181   4.852
 2029SOL     OW 6536   2.290   0.424   4.244
 2029SOL    HW1 6537   2.320   0.352   4.182
 2029SOL    HW2 6538   2.251   0.384   4.327
 2030SOL     OW 6539   3.567   1.487   4.828
 2030SOL    HW1 6540   3.474   1.462   4.801
 2030SOL    HW2 6541   3.593   1.437   4.910
 2031SOL     OW 6542   2.674   1.586   4.411
 2031SOL    HW1 6543   2.706   1.596   4.317
 2031SOL    HW2 6544   2.595   1.524   4.413
 2032SOL     OW 6545   3.286   0.214   4.836
 2032SOL    HW1 6546   3.338   0.149   4.891
 2032SOL    HW2 6547   3.237   0.277   4.897
 2033SOL     OW 6548   2.863   0.034   4.878
 2033SOL    HW1 6549   2.800  -0.038   4.847
 2033SOL    HW2 6550   2.956  -0.002   4.878
 2034SOL     OW 6551   2.632   1.330   4.025
 2034SOL    HW1 6552   2.586   1.243   4.042
 2034SOL    HW2 6553   2.723   1.327   4.066
 2035SOL     OW 6554   3.214   0.052   3.892
 2035SOL    HW1 6555   3.249   0.011   3.808
 2035SOL    HW2 6556   3.124   0.014   3.912
 2036SOL     OW 6557   3.162   0.453   4.415
 2036SOL    HW1 6558   3.103   0.533   4.419
 2036SOL    HW2 6559   3.177   0.418   4.508
 2037SOL     OW 6560   3.455   0.221   4.606
 2037SOL    HW1 6561   3.371   0.220   4.660
 2037SOL    HW2 6562   3.457   0.304   4.550
 2038SOL     OW 6563   1.901   1.077   4.024
 2038SOL    HW1 6564   2.000   1.066   4.015
 2038SOL    HW2 6565   1.861   0.991   4.056
 2039SOL     OW 6566   2.737   1.646   4.061
 2039SOL    HW1 6567   2.660   1.611   4.007
 2039SOL    HW2 6568   2.705   1.717   4.123
 2040SOL     OW 6569   2.092   2.490   0.113
 2040SOL    HW1 6570   1.999   2.488   0.150
 2040SOL    HW2 6571   2.093   2.451   0.021
 2041SOL     OW 6572   2.087   2.137   0.996
 2041SOL    HW1 6573   2.122   2.120   1.088
 2041SOL    HW2 6574   1.999   2.092   0.984
 2042SOL     OW 6575   1.881   2.230   0.647
 2042SOL    HW1 6576   1.799   2.273   0.686
 2042SOL    HW2 6577   1.853   2.157   0.584
 2043SOL     OW 6578   2.431   3.137   1.165
 2043SOL    HW1 6579   2.338   3.130   1.128
 2043SOL    HW2 6580   2.442   3.226   1.209
 2044SOL     OW 6581   3.417   3.373   0.703
 2044SOL    HW1 6582   3.360   3.357   0.784
 2044SOL    HW2 6583   3.358   3.383   0.623
 2045SOL     OW 6584   2.997   2.565   0.717
 2045SOL    HW1 6585   3.054   2.643   0.692
 2045SOL    HW2 6586   2.937   2.591   0.793
 2046SOL     OW 6587   3.617   2.469   0.231
 2046SOL    HW1 6588   3.605   2.456   0.132
 2046SOL    HW2 6589   3.587   2.388   0.280
 2047SOL     OW 6590   2.630   3.006   1.023
 2047SOL    HW1 6591   2.552   3.023   1.083
 2047SOL    HW2 6592   2.664   3.093   0.987
 2048SOL     OW 6593   2.712   2.660   1.823
 2048SOL    HW1 6594   2.708   2.736   1.888
 2048SOL    HW2 6595   2.734   2.696   1.732
 2049SOL     OW 6596   2.547   2.874   0.665
 2049SOL    HW1 6597   2.616   2.858   0.735
 2049SOL    HW2 6598   2.474   2.931   0.703
 2050SOL     OW 6599   2.548   3.023   1.803
 2050SOL    HW1 6600   2.608   3.102   1.817
 2050SOL    HW2 6601   2.462   3.054   1.762
 2051SOL     OW 6602   2.197   3.297   1.061
 2051SOL    HW1 6603   2.119   3.266   1.008
 2051SOL    HW2 6604   2.255   3.355   1.004
 2052SOL     OW 6605   3.322   3.367   1.339
 2052SOL    HW1 6606   3.346   3.461   1.365
 2052SOL    HW2 6607   3.306   3.313   1.421
 2053SOL     OW 6608   2.300   2.254   1.499
 2053SOL    HW1 6609   2.382   2.198   1.508
 2053SOL    HW2 6610   2.219   2.196   1.503
 2054SOL     OW 6611   3.465   2.309   0.737
 2054SOL    HW1 6612   3.391   2.355   0.687
 2054SOL    HW2 6613   3.516   2.377   0.790
 2055SOL     OW 6614   2.093   3.575   0.483
 2055SOL    HW1 6615   2.127   3.652   0.537
 2055SOL    HW2 6616   2.137   3.575   0.393
 2056SOL     OW 6617   2.989   3.203   1.690
 2056SOL    HW1 6618   3.036   3.203   1.778
 2056SOL    HW2 6619   2.941   3.116   1.679
 2057SOL     OW 6620   2.092   3.296   0.538
 2057SOL    HW1 6621   2.066   3.392   0.538
 2057SOL    HW2 6622   2.021   3.242   0.583
 2058SOL     OW 6623   2.102   2.953   0.886
 2058SOL    HW1 6624   2.116   2.869   0.938
 2058SOL    HW2 6625   2.047   3.017   0.941
 2059SOL     OW 6626   2.482   3.648   1.439
 2059SOL    HW1 6627   2.390   3.631   1.474
 2059SOL    HW2 6628   2.510   3.740   1.465
 2060SOL     OW 6629   2.468   2.826   0.123
 2060SOL    HW1 6630   2.475   2.910   0.069
 2060SOL    HW2 6631   2.514   2.839   0.211
 2061SOL     OW 6632   3.456   1.976   1.480
 2061SOL    HW1 6633   3.438   2.043   1.408
 2061SOL    HW2 6634   3.453   2.022   1.569
 2062SOL     OW 6635   1.984   2.505   0.563
 2062SOL    HW1 6636   1.939   2.417   0.580
 2062SOL    HW2 6637   1.983   2.559   0.647
 2063SOL     OW 6638   3.704   3.629   0.359
 2063SOL    HW1 6639   3.758   3.600   0.439
 2063SOL    HW2 6640   3.734   3.719   0.330
 2064SOL     OW 6641   1.889   3.458   0.117
 2064SOL    HW1 6642   1.870   3.362   0.138
 2064SOL    HW2 6643   1.856   3.516   0.192
 2065SOL     OW 6644   3.551   2.784   0.612
 2065SOL    HW1 6645   3.646   2.755   0.620
 2065SOL    HW2 6646   3.543   2.849   0.537
 2066SOL     OW 6647   3.503   2.970   0.432
 2066SOL    HW1 6648   3.589   2.972   0.380
 2066SOL    HW2 6649   3.517   3.017   0.520
 2067SOL     OW 6650   1.975   2.599   1.597
 2067SOL    HW1 6651   2.063   2.586   1.642
 2067SOL    HW2 6652   1.962   2.696   1.575
 2068SOL     OW 6653   2.475   3.227   0.726
 2068SOL    HW1 6654   2.426   3.140   0.735
 2068SOL    HW2 6655   2.452   3.270   0.639
 2069SOL     OW 6656   3.155   3.090   1.423
 2069SOL    HW1 6657   3.192   3.017   1.365
 2069SOL    HW2 6658   3.207   3.095   1.508
 2070SOL     OW 6659   2.671   1.866   0.502
 2070SOL    HW1 6660   2.711   1.957   0.493
 2070SOL    HW2 6661   2.571   1.874   0.508
 2071SOL     OW 6662   2.059   2.838   1.264
 2071SOL    HW1 6663   2.148   2.793   1.250
 2071SOL    HW2 6664   1.986   2.773   1.245
 2072SOL     OW 6665   3.387   2.861   0.190
 2072SOL    HW1 6666   3.324   2.785   0.203
 2072SOL    HW2 6667   3.435   2.879   0.276
 2073SOL     OW 6668   3.049   3.654   1.616
 2073SOL    HW1 6669   3.073   3.714   1.540
 2073SOL    HW2 6670   3.056   3.559   1.586
 2074SOL     OW 6671   2.179   2.113   1.801
 2074SOL    HW1 6672   2.250   2.184   1.807
 2074SOL    HW2 6673   2.091   2.152   1.829
 2075SOL     OW 6674   3.328   3.279   0.953
 2075SOL    HW1 6675   3.269   3.285   1.033
 2075SOL    HW2 6676   3.313   3.191   0.907
 2076SOL     OW 6677   3.529   3.576   0.572
 2076SOL    HW1 6678   3.488   3.553   0.484
 2076SOL    HW2 6679   3.511   3.502   0.637
 2077SOL     OW 6680   2.460   2.591   0.270
 2077SOL    HW1 6681   2.484   2.660   0.202
 2077SOL    HW2 6682   2.382   2.624   0.324
 2078SOL     OW 6683   3.143   2.207   0.944
 2078SOL    HW1 6684   3.057   2.157   0.931
 2078SOL    HW2 6685   3.205   2.153   1.000
 2079SOL     OW 6686   3.438   3.524   0.307
 2079SOL    HW1 6687   3.527   3.570   0.310
 2079SOL    HW2 6688   3.417   3.500   0.212
 2080SOL     OW 6689   2.669   2.467   1.465
 2080SOL    HW1 6690   2.622   2.464   1.554
 2080SOL    HW2 6691   2.618   2.412   1.399
 2081SOL     OW 6692   3.256   2.331   1.674
 2081SOL    HW1 6693   3.236   2.374   1.762
 2081SOL    HW2 6694   3.334   2.269   1.683
 2082SOL     OW 6695   2.835   2.752   1.572
 2082SOL    HW1 6696   2.881   2.668   1.543
 2082SOL    HW2 6697   2.779   2.786   1.497
 2083SOL     OW 6698   2.853   2.272   1.242
 2083SOL    HW1 6699   2.776   2.306   1.296
 2083SOL    HW2 6700   2.819   2.221   1.163
 2084SOL     OW 6701   2.903   2.563   0.429
 2084SOL    HW1 6702   2.929   2.559   0.525
 2084SOL    HW2 6703   2.818   2.512   0.415
 2085SOL     OW 6704   1.938   2.673   0.789
 2085SOL    HW1 6705   2.037   2.661   0.798
 2085SOL    HW2 6706   1.914   2.768   0.810
 2086SOL     OW 6707   2.727   2.210   0.195
 2086SOL    HW1 6708   2.786   2.273   0.146
 2086SOL    HW2 6709   2.746   2.116   0.166
 2087SOL     OW 6710   3.581   2.447   1.831
 2087SOL    HW1 6711   3.555   2.536   1.795
 2087SOL    HW2 6712   3.579   2.379   1.758
 2088SOL     OW 6713   3.224   3.006   0.545
 2088SOL    HW1 6714   3.307   2.977   0.497
 2088SOL    HW2 6715   3.175   3.073   0.489
 2089SOL     OW 6716   2.412   2.058   0.885
 2089SOL    HW1 6717   2.407   2.053   0.985
 2089SOL    HW2 6718   2.414   2.154   0.856
 2090SOL     OW 6719   2.870   3.318   0.477
 2090SOL    HW1 6720   2.824   3.390   0.425
 2090SOL    HW2 6721   2.866   3.338   0.575
 2091SOL     OW 6722   2.213   3.663   0.853
 2091SOL    HW1 6723   2.263   3.577   0.859
 2091SOL    HW2 6724   2.278   3.740   0.850
 2092SOL     OW 6725   3.657   2.928   0.873
 2092SOL    HW1 6726   3.595   2.913   0.797
 2092SOL    HW2 6727   3.605   2.939   0.958
 2093SOL     OW 6728   3.089   3.412   1.506
 2093SOL    HW1 6729   3.095   3.335   1.570
 2093SOL    HW2 6730   3.037   3.386   1.426
 2094SOL     OW 6731   2.183   2.805   0.242
 2094SOL    HW1 6732   2.265   2.844   0.200
 2094SOL    HW2 6733   2.156   2.723   0.193
 2095SOL     OW 6734   3.320   2.597   0.728
 2095SOL    HW1 6735   3.315   2.532   0.803
 2095SOL    HW2 6736   3.400   2.656   0.741
 2096SOL     OW 6737   2.323   3.128   1.727
 2096SOL    HW1 6738   2.273   3.129   1.641
 2096SOL    HW2 6739   2.260   3.110   1.803
 2097SOL     OW 6740   2.973   3.638   0.237
 2097SOL    HW1 6741   2.913   3.576   0.287
 2097SOL    HW2 6742   3.004   3.594   0.152
 2098SOL     OW 6743   2.064   2.147   1.498
 2098SOL    HW1 6744   1.984   2.207   1.485
 2098SOL    HW2 6745   2.054   2.098   1.584
 2099SOL     OW 6746   3.494   3.239   0.081
 2099SOL    HW1 6747   3.462   3.333   0.071
 2099SOL    HW2 6748   3.418   3.176   0.069
 2100SOL     OW 6749   2.326   3.605   0.323
 2100SOL    HW1 6750   2.359   3.644   0.409
 2100SOL    HW2 6751   2.402   3.598   0.258
 2101SOL     OW 6752   3.262   1.969   0.426
 2101SOL    HW1 6753   3.238   1.932   0.336
 2101SOL    HW2 6754   3.361   1.985   0.430
 2102SOL     OW 6755   2.111   3.647   1.241
 2102SOL    HW1 6756   2.168   3.582   1.291
 2102SOL    HW2 6757   2.095   3.614   1.148
 2103SOL     OW 6758   2.802   3.560   0.904
 2103SOL    HW1 6759   2.882   3.503   0.925
 2103SOL    HW2 6760   2.753   3.520   0.827
 2104SOL     OW 6761   2.244   2.562   0.480
 2104SOL    HW1 6762   2.289   2.472   0.477
 2104SOL    HW2 6763   2.150   2.551   0.513
 2105SOL     OW 6764   3.409   2.084   1.729
 2105SOL    HW1 6765   3.404   2.121   1.821
 2105SOL    HW2 6766   3.337   2.015   1.717
 2106SOL     OW 6767   2.643   2.126   1.749
 2106SOL    HW1 6768   2.710   2.065   1.792
 2106SOL    HW2 6769   2.570   2.145   1.814
 2107SOL     OW 6770   2.750   3.376   1.195
 2107SOL    HW1 6771   2.727   3.351   1.101
 2107SOL    HW2 6772   2.811   3.307   1.234
 2108SOL     OW 6773   3.213   2.452   1.433
 2108SOL    HW1 6774   3.241   2.409   1.518
 2108SOL    HW2 6775   3.238   2.548   1.434
 2109SOL     OW 6776   2.665   3.264   0.924
 2109SOL    HW1 6777   2.755   3.278   0.882
 2109SOL    HW2 6778   2.594   3.266   0.853
 2110SOL     OW 6779   2.784   2.365   0.899
 2110SOL    HW1 6780   2.759   2.356   0.803
 2110SOL    HW2 6781   2.832   2.283   0.930
 2111SOL     OW 6782   2.401   1.926   0.512
 2111SOL    HW1 6783   2.320   1.927   0.570
 2111SOL    HW2 6784   2.404   2.009   0.457
 2112SOL     OW 6785   3.296   3.050   0.041
 2112SOL    HW1 6786   3.328   2.974   0.098
 2112SOL    HW2 6787   3.204   3.077   0.071
 2113SOL     OW 6788   2.159   1.897   0.171
 2113SOL    HW1 6789   2.208   1.981   0.150
 2113SOL    HW2 6790   2.221   1.832   0.216
 2114SOL     OW 6791   2.797   2.098   0.480
 2114SOL    HW1 6792   2.749   2.139   0.402
 2114SOL    HW2 6793   2.896   2.096   0.461
 2115SOL     OW 6794   2.938   2.545   1.464
 2115SOL    HW1 6795   2.858   2.484   1.467
 2115SOL    HW2 6796   3.019   2.492   1.440
 2116SOL     OW 6797   3.089   3.432   0.793
 2116SOL    HW1 6798   3.110   3.506   0.728
 2116SOL    HW2 6799   3.157   3.432   0.866
 2117SOL     OW 6800   2.321   3.014   0.741
 2117SOL    HW1 6801   2.250   2.987   0.806
 2117SOL    HW2 6802   2.295   2.986   0.648
 2118SOL     OW 6803   3.133   3.659   0.591
 2118SOL    HW1 6804   3.177   3.723   0.527
 2118SOL    HW2 6805   3.083   3.711   0.661
 2119SOL     OW 6806   2.894   2.411   0.016
 2119SOL    HW1 6807   2.853   2.493  -0.023
 2119SOL    HW2 6808   2.958   2.437   0.089
 2120SOL     OW 6809   1.940   2.418   1.386
 2120SOL    HW1 6810   2.032   2.417   1.345
 2120SOL    HW2 6811   1.934   2.492   1.453
 2121SOL     OW 6812   2.423   2.084   1.147
 2121SOL    HW1 6813   2.461   2.000   1.184
 2121SOL    HW2 6814   2.335   2.103   1.191
 2122SOL     OW 6815   2.728   2.316   0.642
 2122SOL    HW1 6816   2.696   2.388   0.580
 2122SOL    HW2 6817   2.752   2.235   0.589
 2123SOL     OW 6818   2.879   1.901   0.753
 2123SOL    HW1 6819   2.807   1.906   0.684
 2123SOL    HW2 6820   2.855   1.832   0.822
 2124SOL     OW 6821   3.291   3.035   0.867
 2124SOL    HW1 6822   3.236   2.951   0.860
 2124SOL    HW2 6823   3.317   3.064   0.775
 2125SOL     OW 6824   3.328   2.452   0.992
 2125SOL    HW1 6825   3.298   2.357   0.999
 2125SOL    HW2 6826   3.401   2.468   1.058
 2126SOL     OW 6827   3.719   2.695   0.377
 2126SOL    HW1 6828   3.761   2.631   0.441
 2126SOL    HW2 6829   3.681   2.644   0.299
 2127SOL     OW 6830   2.350   3.247   0.174
 2127SOL    HW1 6831   2.263   3.232   0.221
 2127SOL    HW2 6832   2.333   3.273   0.079
 2128SOL     OW 6833   3.526   3.142   0.657
 2128SOL    HW1 6834   3.625   3.150   0.671
 2128SOL    HW2 6835   3.481   3.226   0.688
 2129SOL     OW 6836   3.252   2.437   0.078
 2129SOL    HW1 6837   3.198   2.416   0.159
 2129SOL    HW2 6838   3.343   2.396   0.087
 2130SOL     OW 6839   2.389   2.118   0.328
 2130SOL    HW1 6840   2.416   2.059   0.253
 2130SOL    HW2 6841   2.389   2.213   0.297
 2131SOL     OW 6842   3.616   3.085   1.588
 2131SOL    HW1 6843   3.707   3.046   1.575
 2131SOL    HW2 6844   3.624   3.181   1.612
 2132SOL     OW 6845   2.926   3.209   1.340
 2132SOL    HW1 6846   2.846   3.186   1.395
 2132SOL    HW2 6847   3.009   3.183   1.389
 2133SOL     OW 6848   3.454   3.491   1.625
 2133SOL    HW1 6849   3.481   3.525   1.535
 2133SOL    HW2 6850   3.533   3.453   1.671
 2134SOL     OW 6851   2.973   3.057   1.100
 2134SOL    HW1 6852   2.933   3.101   1.181
 2134SOL    HW2 6853   2.932   3.094   1.017
 2135SOL     OW 6854   3.500   2.961   1.079
 2135SOL    HW1 6855   3.505   3.042   1.138
 2135SOL    HW2 6856   3.414   2.963   1.028
 2136SOL     OW 6857   2.777   1.951   1.402
 2136SOL    HW1 6858   2.802   1.931   1.307
 2136SOL    HW2 6859   2.849   2.007   1.444
 2137SOL     OW 6860   2.842   2.978   1.719
 2137SOL    HW1 6861   2.743   2.984   1.729
 2137SOL    HW2 6862   2.865   2.898   1.663
 2138SOL     OW 6863   2.567   2.912   0.368
 2138SOL    HW1 6864   2.553   2.919   0.467
 2138SOL    HW2 6865   2.651   2.861   0.350
 2139SOL     OW 6866   2.272   2.675   1.251
 2139SOL    HW1 6867   2.358   2.687   1.301
 2139SOL    HW2 6868   2.230   2.588   1.278
 2140SOL     OW 6869   3.136   2.248   1.262
 2140SOL    HW1 6870   3.157   2.322   1.326
 2140SOL    HW2 6871   3.047   2.265   1.219
 2141SOL     OW 6872   1.926   3.426   1.331
 2141SOL    HW1 6873   1.880   3.508   1.297
 2141SOL    HW2 6874   2.024   3.445   1.340
 2142SOL     OW 6875   2.229   2.962   0.501
 2142SOL    HW1 6876   2.222   3.045   0.445
 2142SOL    HW2 6877   2.233   2.882   0.441
 2143SOL     OW 6878   2.428   2.399   0.865
 2143SOL    HW1 6879   2.440   2.465   0.791
 2143SOL    HW2 6880   2.474   2.433   0.948
 2144SOL     OW 6881   3.114   3.210   0.388
 2144SOL    HW1 6882   3.164   3.287   0.428
 2144SOL    HW2 6883   3.019   3.212   0.420
 2145SOL     OW 6884   3.134   3.307   1.142
 2145SOL    HW1 6885   3.181   3.320   1.229
 2145SOL    HW2 6886   3.068   3.233   1.151
 2146SOL     OW 6887   3.444   2.501   0.472
 2146SOL    HW1 6888   3.413   2.562   0.545
 2146SOL    HW2 6889   3.494   2.553   0.403
 2147SOL     OW 6890   2.216   3.372   1.329
 2147SOL    HW1 6891   2.195   3.328   1.242
 2147SOL    HW2 6892   2.313   3.398   1.332
 2148SOL     OW 6893   2.264   2.613   1.598
 2148SOL    HW1 6894   2.332   2.668   1.551
 2148SOL    HW2 6895   2.304   2.525   1.625
 2149SOL     OW 6896   3.449   2.641   1.670
 2149SOL    HW1 6897   3.357   2.679   1.665
 2149SOL    HW2 6898   3.509   2.688   1.605
 2150SOL     OW 6899   2.875   1.967   1.770
 2150SOL    HW1 6900   2.881   2.052   1.718
 2150SOL    HW2 6901   2.907   1.891   1.713
 2151SOL     OW 6902   2.366   1.912   1.740
 2151SOL    HW1 6903   2.324   1.855   1.670
 2151SOL    HW2 6904   2.300   1.981   1.772
 2152SOL     OW 6905   2.435   2.732   1.029
 2152SOL    HW1 6906   2.479   2.821   1.020
 2152SOL    HW2 6907   2.372   2.732   1.106
 2153SOL     OW 6908   3.222   2.724   1.045
 2153SOL    HW1 6909   3.147   2.724   0.979
 2153SOL    HW2 6910   3.259   2.632   1.054
 2154SOL     OW 6911   3.071   2.387   0.275
 2154SOL    HW1 6912   3.084   2.303   0.329
 2154SOL    HW2 6913   3.042   2.461   0.335
 2155SOL     OW 6914   2.169   2.075   1.231
 2155SOL    HW1 6915   2.146   2.112   1.321
 2155SOL    HW2 6916   2.139   1.980   1.225
 2156SOL     OW 6917   1.899   3.172   1.282
 2156SOL    HW1 6918   1.952   3.123   1.350
 2156SOL    HW2 6919   1.921   3.270   1.287
 2157SOL     OW 6920   2.594   2.496   1.064
 2157SOL    HW1 6921   2.653   2.470   0.988
 2157SOL    HW2 6922   2.566   2.592   1.053
 2158SOL     OW 6923   3.590   2.797   1.854
 2158SOL    HW1 6924   3.544   2.790   1.765
 2158SOL    HW2 6925   3.528   2.841   1.920
 2159SOL     OW 6926   2.169   1.925   0.618
 2159SOL    HW1 6927   2.158   2.019   0.651
 2159SOL    HW2 6928   2.164   1.862   0.695
 2160SOL     OW 6929   3.484   2.229   0.374
 2160SOL    HW1 6930   3.486   2.153   0.438
 2160SOL    HW2 6931   3.436   2.306   0.414
 2161SOL     OW 6932   2.885   2.628   0.966
 2161SOL    HW1 6933   2.900   2.649   1.062
 2161SOL    HW2 6934   2.855   2.533   0.957
 2162SOL     OW 6935   2.842   3.435   1.700
 2162SOL    HW1 6936   2.822   3.479   1.612
 2162SOL    HW2 6937   2.881   3.344   1.684
 2163SOL     OW 6938   3.721   3.380   1.605
 2163SOL    HW1 6939   3.735   3.407   1.510
 2163SOL    HW2 6940   3.804   3.402   1.658
 2164SOL     OW 6941   2.212   2.760   1.804
 2164SOL    HW1 6942   2.288   2.804   1.852
 2164SOL    HW2 6943   2.247   2.713   1.722
 2165SOL     OW 6944   3.402   2.136   0.125
 2165SOL    HW1 6945   3.341   2.061   0.148
 2165SOL    HW2 6946   3.424   2.188   0.208
 2166SOL     OW 6947   3.165   2.700   0.042
 2166SOL    HW1 6948   3.199   2.607   0.057
 2166SOL    HW2 6949   3.183   2.727  -0.053
 2167SOL     OW 6950   2.930   3.195   0.849
 2167SOL    HW1 6951   2.937   3.111   0.794
 2167SOL    HW2 6952   2.992   3.264   0.813
 2168SOL     OW 6953   2.181   2.672   0.949
 2168SOL    HW1 6954   2.274   2.708   0.954
 2168SOL    HW2 6955   2.175   2.587   1.001
 2169SOL     OW 6956   2.201   2.371   1.006
 2169SOL    HW1 6957   2.149   2.288   0.989
 2169SOL    HW2 6958   2.278   2.376   0.942
 2170SOL     OW 6959   3.000   2.242   1.678
 2170SOL    HW1 6960   2.955   2.305   1.742
 2170SOL    HW2 6961   3.093   2.273   1.661
 2171SOL     OW 6962   3.022   2.069   1.477
 2171SOL    HW1 6963   3.022   2.133   1.554
 2171SOL    HW2 6964   3.050   2.117   1.394
 2172SOL     OW 6965   1.950   3.663   0.927
 2172SOL    HW1 6966   1.908   3.577   0.900
 2172SOL    HW2 6967   2.044   3.666   0.893
 2173SOL     OW 6968   2.366   3.430   0.910
 2173SOL    HW1 6969   2.432   3.504   0.919
 2173SOL    HW2 6970   2.410   3.351   0.868
 2174SOL     OW 6971   2.864   2.658   1.238
 2174SOL    HW1 6972   2.905   2.626   1.324
 2174SOL    HW2 6973   2.768   2.631   1.235
 2175SOL     OW 6974   1.902   2.406   1.114
 2175SOL    HW1 6975   1.987   2.373   1.073
 2175SOL    HW2 6976   1.915   2.421   1.212
 2176SOL     OW 6977   2.051   2.382   1.722
 2176SOL    HW1 6978   2.110   2.342   1.652
 2176SOL    HW2 6979   1.993   2.453   1.681
 2177SOL     OW 6980   3.231   2.812   1.660
 2177SOL    HW1 6981   3.270   2.901   1.680
 2177SOL    HW2 6982   3.241   2.792   1.563
 2178SOL     OW 6983   2.677   2.434   0.325
 2178SOL    HW1 6984   2.684   2.345   0.279
 2178SOL    HW2 6985   2.583   2.468   0.317
 2179SOL     OW 6986   3.519   2.466   1.206
 2179SOL    HW1 6987   3.481   2.397   1.268
 2179SOL    HW2 6988   3.601   2.430   1.162
 2180SOL     OW 6989   2.114   3.426   1.744
 2180SOL    HW1 6990   2.084   3.483   1.820
 2180SOL    HW2 6991   2.107   3.329   1.770
 2181SOL     OW 6992   2.533   2.326   1.269
 2181SOL    HW1 6993   2.499   2.237   1.239
 2181SOL    HW2 6994   2.559   2.380   1.189
 2182SOL     OW 6995   2.792   3.540   1.465
 2182SOL    HW1 6996   2.768   3.522   1.370
 2182SOL    HW2 6997   2.822   3.634   1.475
 2183SOL     OW 6998   2.335   2.362   0.191
 2183SOL    HW1 6999   2.396   2.442   0.195
 2183SOL    HW2 7000   2.240   2.393   0.198
 2184SOL     OW 7001   2.021   2.999   1.466
 2184SOL    HW1 7002   2.043   2.938   1.542
 2184SOL    HW2 7003   2.031   2.950   1.380
 2185SOL     OW 7004   3.209   2.921   1.234
 2185SOL    HW1 7005   3.233   2.858   1.160
 2185SOL    HW2 7006   3.119   2.961   1.216
 2186SOL     OW 7007   3.164   2.717   0.309
 2186SOL    HW1 7008   3.078   2.686   0.351
 2186SOL    HW2 7009   3.160   2.703   0.210
 2187SOL     OW 7010   3.621   3.609   1.154
 2187SOL    HW1 7011   3.682   3.639   1.081
 2187SOL    HW2 7012   3.583   3.520   1.132
 2188SOL     OW 7013   3.114   3.593   1.128
 2188SOL    HW1 7014   3.198   3.598   1.074
 2188SOL    HW2 7015   3.091   3.497   1.146
 2189SOL     OW 7016   1.945   3.120   1.022
 2189SOL    HW1 7017   1.940   3.119   1.122
 2189SOL    HW2 7018   1.862   3.079   0.984
 2190SOL     OW 7019   2.550   3.524   1.716
 2190SOL    HW1 7020   2.494   3.605   1.725
 2190SOL    HW2 7021   2.602   3.528   1.630
 2191SOL     OW 7022   2.765   1.948   0.133
 2191SOL    HW1 7023   2.816   1.949   0.047
 2191SOL    HW2 7024   2.821   1.906   0.204
 2192SOL     OW 7025   3.588   1.997   0.523
 2192SOL    HW1 7026   3.661   1.980   0.456
 2192SOL    HW2 7027   3.557   1.910   0.561
 2193SOL     OW 7028   3.250   3.435   0.477
 2193SOL    HW1 7029   3.317   3.447   0.403
 2193SOL    HW2 7030   3.210   3.524   0.500
 2194SOL     OW 7031   3.142   2.789   0.672
 2194SOL    HW1 7032   3.202   2.708   0.674
 2194SOL    HW2 7033   3.182   2.858   0.612
 2195SOL     OW 7034   2.692   3.135   1.422
 2195SOL    HW1 7035   2.687   3.168   1.517
 2195SOL    HW2 7036   2.606   3.154   1.376
 2196SOL     OW 7037   2.534   3.478   0.154
 2196SOL    HW1 7038   2.543   3.488   0.055
 2196SOL    HW2 7039   2.494   3.389   0.175
 2197SOL     OW 7040   3.512   3.582   1.394
 2197SOL    HW1 7041   3.565   3.592   1.310
 2197SOL    HW2 7042   3.485   3.672   1.428
 2198SOL     OW 7043   3.703   2.037   0.963
 2198SOL    HW1 7044   3.742   1.952   0.927
 2198SOL    HW2 7045   3.605   2.039   0.944
 2199SOL     OW 7046   2.125   2.188   0.720
 2199SOL    HW1 7047   2.046   2.239   0.686
 2199SOL    HW2 7048   2.116   2.173   0.818
 2200SOL     OW 7049   3.056   3.474   0.031
 2200SOL    HW1 7050   3.062   3.381   0.068
 2200SOL    HW2 7051   2.997   3.474  -0.049
 2201SOL     OW 7052   2.684   2.864   1.372
 2201SOL    HW1 7053   2.724   2.863   1.280
 2201SOL    HW2 7054   2.694   2.956   1.412
 2202SOL     OW 7055   2.778   2.772   0.291
 2202SOL    HW1 7056   2.841   2.810   0.223
 2202SOL    HW2 7057   2.818   2.689   0.330
 2203SOL     OW 7058   3.366   3.469   0.044
 2203SOL    HW1 7059   3.274   3.506   0.051
 2203SOL    HW2 7060   3.404   3.489  -0.046
 2204SOL     OW 7061   2.234   3.150   1.490
 2204SOL    HW1 7062   2.221   3.243   1.456
 2204SOL    HW2 7063   2.150   3.098   1.477
 2205SOL     OW 7064   3.476   3.154   1.289
 2205SOL    HW1 7065   3.536   3.157   1.369
 2205SOL    HW2 7066   3.401   3.218   1.302
 2206SOL     OW 7067   2.901   2.960   0.696
 2206SOL    HW1 7068   2.831   2.913   0.750
 2206SOL    HW2 7069   2.960   2.892   0.653
 2207SOL     OW 7070   2.876   2.098   0.971
 2207SOL    HW1 7071   2.868   2.062   0.878
 2207SOL    HW2 7072   2.874   2.022   1.036
 2208SOL     OW 7073   2.452   3.349   0.491
 2208SOL    HW1 7074   2.494   3.291   0.421
 2208SOL    HW2 7075   2.408   3.428   0.447
 2209SOL     OW 7076   3.571   2.247   1.381
 2209SOL    HW1 7077   3.644   2.316   1.385
 2209SOL    HW2 7078   3.599   2.172   1.322
 2210SOL     OW 7079   2.117   3.210   0.290
 2210SOL    HW1 7080   2.021   3.211   0.263
 2210SOL    HW2 7081   2.129   3.263   0.374
 2211SOL     OW 7082   1.967   2.875   1.726
 2211SOL    HW1 7083   1.890   2.842   1.780
 2211SOL    HW2 7084   2.052   2.845   1.768
 2212SOL     OW 7085   2.534   2.065   1.489
 2212SOL    HW1 7086   2.624   2.049   1.449
 2212SOL    HW2 7087   2.542   2.070   1.588
 2213SOL     OW 7088   3.302   2.718   1.398
 2213SOL    HW1 7089   3.245   2.770   1.335
 2213SOL    HW2 7090   3.398   2.730   1.374
 2214SOL     OW 7091   1.934   2.028   0.318
 2214SOL    HW1 7092   1.917   2.111   0.264
 2214SOL    HW2 7093   2.024   1.991   0.296
 2215SOL     OW 7094   3.045   3.197   0.119
 2215SOL    HW1 7095   2.946   3.186   0.121
 2215SOL    HW2 7096   3.079   3.212   0.212
 2216SOL     OW 7097   2.475   2.704   1.431
 2216SOL    HW1 7098   2.531   2.785   1.414
 2216SOL    HW2 7099   2.534   2.624   1.434
 2217SOL     OW 7100   3.355   3.629   0.959
 2217SOL    HW1 7101   3.388   3.693   0.890
 2217SOL    HW2 7102   3.421   3.623   1.034
 2218SOL     OW 7103   2.578   2.427   1.708
 2218SOL    HW1 7104   2.597   2.492   1.782
 2218SOL    HW2 7105   2.638   2.347   1.717
 2219SOL     OW 7106   3.312   3.082   1.633
 2219SOL    HW1 7107   3.303   3.072   1.732
 2219SOL    HW2 7108   3.408   3.075   1.607
 2220SOL     OW 7109   2.252   3.603   1.560
 2220SOL    HW1 7110   2.161   3.644   1.558
 2220SOL    HW2 7111   2.245   3.509   1.592
 2221SOL     OW 7112   3.536   2.745   1.254
 2221SOL    HW1 7113   3.509   2.656   1.217
 2221SOL    HW2 7114   3.537   2.813   1.181
 2222SOL     OW 7115   3.087   2.187   0.449
 2222SOL    HW1 7116   3.152   2.113   0.438
 2222SOL    HW2 7117   3.107   2.237   0.533
 2223SOL     OW 7118   2.456   2.607   0.652
 2223SOL    HW1 7119   2.506   2.692   0.633
 2223SOL    HW2 7120   2.368   2.609   0.604
 2224SOL     OW 7121   3.639   2.204   1.642
 2224SOL    HW1 7122   3.622   2.235   1.548
 2224SOL    HW2 7123   3.555   2.167   1.680
 2225SOL     OW 7124   3.592   2.796   1.517
 2225SOL    HW1 7125   3.630   2.887   1.532
 2225SOL    HW2 7126   3.584   2.779   1.418
 2226SOL     OW 7127   2.721   3.236   0.016
 2226SOL    HW1 7128   2.675   3.251   0.104
 2226SOL    HW2 7129   2.765   3.321  -0.014
 2227SOL     OW 7130   2.523   3.652   0.953
 2227SOL    HW1 7131   2.477   3.740   0.940
 2227SOL    HW2 7132   2.622   3.664   0.946
 2228SOL     OW 7133   2.721   2.818   0.861
 2228SOL    HW1 7134   2.775   2.749   0.909
 2228SOL    HW2 7135   2.689   2.887   0.927
 2229SOL     OW 7136   2.945   2.846   0.087
 2229SOL    HW1 7137   2.922   2.899   0.005
 2229SOL    HW2 7138   3.026   2.790   0.068
 2230SOL     OW 7139   3.723   3.431   0.851
 2230SOL    HW1 7140   3.652   3.419   0.781
 2230SOL    HW2 7141   3.724   3.352   0.911
 2231SOL     OW 7142   2.083   3.176   1.844
 2231SOL    HW1 7143   2.018   3.103   1.823
 2231SOL    HW2 7144   2.087   3.190   1.942
 2232SOL     OW 7145   1.941   3.102   0.653
 2232SOL    HW1 7146   1.940   3.055   0.741
 2232SOL    HW2 7147   2.023   3.074   0.602
 2233SOL     OW 7148   2.534   3.253   1.624
 2233SOL    HW1 7149   2.456   3.203   1.662
 2233SOL    HW2 7150   2.531   3.348   1.655
 2234SOL     OW 7151   3.686   2.054   1.227
 2234SOL    HW1 7152   3.682   1.964   1.271
 2234SOL    HW2 7153   3.689   2.043   1.128
 2235SOL     OW 7154   2.290   2.286   0.520
 2235SOL    HW1 7155   2.320   2.214   0.458
 2235SOL    HW2 7156   2.251   2.246   0.603
 2236SOL     OW 7157   3.567   3.349   1.104
 2236SOL    HW1 7158   3.474   3.324   1.077
 2236SOL    HW2 7159   3.593   3.299   1.186
 2237SOL     OW 7160   2.179   2.409   1.280
 2237SOL    HW1 7161   2.217   2.350   1.352
 2237SOL    HW2 7162   2.219   2.383   1.192
 2238SOL     OW 7163   2.674   3.448   0.687
 2238SOL    HW1 7164   2.706   3.458   0.593
 2238SOL    HW2 7165   2.595   3.386   0.689
 2239SOL     OW 7166   3.286   2.076   1.112
 2239SOL    HW1 7167   3.338   2.011   1.167
 2239SOL    HW2 7168   3.237   2.139   1.173
 2240SOL     OW 7169   2.863   1.896   1.154
 2240SOL    HW1 7170   2.800   1.824   1.123
 2240SOL    HW2 7171   2.956   1.860   1.154
 2241SOL     OW 7172   2.632   3.192   0.301
 2241SOL    HW1 7173   2.586   3.105   0.318
 2241SOL    HW2 7174   2.723   3.189   0.342
 2242SOL     OW 7175   2.480   3.429   1.284
 2242SOL    HW1 7176   2.475   3.511   1.341
 2242SOL    HW2 7177   2.569   3.426   1.239
 2243SOL     OW 7178   3.214   1.914   0.168
 2243SOL    HW1 7179   3.249   1.873   0.084
 2243SOL    HW2 7180   3.124   1.876   0.188
 2244SOL     OW 7181   3.162   2.315   0.691
 2244SOL    HW1 7182   3.103   2.395   0.695
 2244SOL    HW2 7183   3.177   2.280   0.784
 2245SOL     OW 7184   3.455   2.083   0.882
 2245SOL    HW1 7185   3.371   2.082   0.936
 2245SOL    HW2 7186   3.457   2.166   0.826
 2246SOL     OW 7187   1.901   2.939   0.300
 2246SOL    HW1 7188   2.000   2.928   0.291
 2246SOL    HW2 7189   1.861   2.853   0.332
 2247SOL     OW 7190   2.737   3.508   0.337
 2247SOL    HW1 7191   2.660   3.473   0.283
 2247SOL    HW2 7192   2.705   3.579   0.399
 2248SOL     OW 7193   2.092   2.490   1.975
 2248SOL    HW1 7194   1.999   2.488   2.012
 2248SOL    HW2 7195   2.093   2.451   1.883
 2249SOL     OW 7196   2.087   2.137   2.858
 2249SOL    HW1 7197   2.122   2.120   2.950
 2249SOL    HW2 7198   1.999   2.092   2.846
 2250SOL     OW 7199   1.881   2.230   2.509
 2250SOL    HW1 7200   1.799   2.273   2.548
 2250SOL    HW2 7201   1.853   2.157   2.446
 2251SOL     OW 7202   2.431   3.137   3.027
 2251SOL    HW1 7203   2.338   3.130   2.990
 2251SOL    HW2 7204   2.442   3.226   3.071
 2252SOL     OW 7205   3.417   3.373   2.565
 2252SOL    HW1 7206   3.360   3.357   2.646
 2252SOL    HW2 7207   3.358   3.383   2.485
 2253SOL     OW 7208   3.617   2.469   2.093
 2253SOL    HW1 7209   3.605   2.456   1.994
 2253SOL    HW2 7210   3.587   2.388   2.142
 2254SOL     OW 7211   2.630   3.006   2.885
 2254SOL    HW1 7212   2.552   3.023   2.945
 2254SOL    HW2 7213   2.664   3.093   2.849
 2255SOL     OW 7214   2.712   2.660   3.685
 2255SOL    HW1 7215   2.708   2.736   3.750
 2255SOL    HW2 7216   2.734   2.696   3.594
 2256SOL     OW 7217   2.548   3.023   3.665
 2256SOL    HW1 7218   2.608   3.102   3.679
 2256SOL    HW2 7219   2.462   3.054   3.624
 2257SOL     OW 7220   2.197   3.297   2.923
 2257SOL    HW1 7221   2.119   3.266   2.870
 2257SOL    HW2 7222   2.255   3.355   2.866
 2258SOL     OW 7223   3.322   3.367   3.201
 2258SOL    HW1 7224   3.346   3.461   3.227
 2258SOL    HW2 7225   3.306   3.313   3.283
 2259SOL     OW 7226   2.300   2.254   3.361
 2259SOL    HW1 7227   2.382   2.198   3.370
 2259SOL    HW2 7228   2.219   2.196   3.365
 2260SOL     OW 7229   3.465   2.309   2.599
 2260SOL    HW1 7230   3.391   2.355   2.549
 2260SOL    HW2 7231   3.516   2.377   2.652
 2261SOL     OW 7232   2.093   3.575   2.345
 2261SOL    HW1 7233   2.127   3.652   2.399
 2261SOL    HW2 7234   2.137   3.575   2.255
 2262SOL     OW 7235   2.989   3.203   3.552
 2262SOL    HW1 7236   3.036   3.203   3.640
 2262SOL    HW2 7237   2.941   3.116   3.541
 2263SOL     OW 7238   2.092   3.296   2.400
 2263SOL    HW1 7239   2.066   3.392   2.400
 2263SOL    HW2 7240   2.021   3.242   2.445
 2264SOL     OW 7241   2.102   2.953   2.748
 2264SOL    HW1 7242   2.116   2.869   2.800
 2264SOL    HW2 7243   2.047   3.017   2.803
 2265SOL     OW 7244   2.482   3.648   3.301
 2265SOL    HW1 7245   2.390   3.631   3.336
 2265SOL    HW2 7246   2.510   3.740   3.327
 2266SOL     OW 7247   2.468   2.826   1.985
 2266SOL    HW1 7248   2.475   2.910   1.931
 2266SOL    HW2 7249   2.514   2.839   2.073
 2267SOL     OW 7250   3.456   1.976   3.342
 2267SOL    HW1 7251   3.438   2.043   3.270
 2267SOL    HW2 7252   3.453   2.022   3.431
 2268SOL     OW 7253   3.704   3.629   2.221
 2268SOL    HW1 7254   3.758   3.600   2.301
 2268SOL    HW2 7255   3.734   3.719   2.192
 2269SOL     OW 7256   1.889   3.458   1.979
 2269SOL    HW1 7257   1.870   3.362   2.000
 2269SOL    HW2 7258   1.856   3.516   2.054
 2270SOL     OW 7259   3.551   2.784   2.474
 2270SOL    HW1 7260   3.646   2.755   2.482
 2270SOL    HW2 7261   3.543   2.849   2.399
 2271SOL     OW 7262   3.503   2.970   2.294
 2271SOL    HW1 7263   3.589   2.972   2.242
 2271SOL    HW2 7264   3.517   3.017   2.382
 2272SOL     OW 7265   1.975   2.599   3.459
 2272SOL    HW1 7266   2.063   2.586   3.504
 2272SOL    HW2 7267   1.962   2.696   3.437
 2273SOL     OW 7268   2.475   3.227   2.588
 2273SOL    HW1 7269   2.426   3.140   2.597
 2273SOL    HW2 7270   2.452   3.270   2.501
 2274SOL     OW 7271   3.155   3.090   3.285
 2274SOL    HW1 7272   3.192   3.017   3.227
 2274SOL    HW2 7273   3.207   3.095   3.370
 2275SOL     OW 7274   2.671   1.866   2.364
 2275SOL    HW1 7275   2.711   1.957   2.355
 2275SOL    HW2 7276   2.571   1.874   2.370
 2276SOL     OW 7277   2.059   2.838   3.126
 2276SOL    HW1 7278   2.148   2.793   3.112
 2276SOL    HW2 7279   1.986   2.773   3.107
 2277SOL     OW 7280   3.387   2.861   2.052
 2277SOL    HW1 7281   3.324   2.785   2.065
 2277SOL    HW2 7282   3.435   2.879   2.138
 2278SOL     OW 7283   3.049   3.654   3.478
 2278SOL    HW1 7284   3.073   3.714   3.402
 2278SOL    HW2 7285   3.056   3.559   3.448
 2279SOL     OW 7286   2.179   2.113   3.663
 2279SOL    HW1 7287   2.250   2.184   3.669
 2279SOL    HW2 7288   2.091   2.152   3.691
 2280SOL     OW 7289   3.328   3.279   2.815
 2280SOL    HW1 7290   3.269   3.285   2.895
 2280SOL    HW2 7291   3.313   3.191   2.769
 2281SOL     OW 7292   3.529   3.576   2.434
 2281SOL    HW1 7293   3.488   3.553   2.346
 2281SOL    HW2 7294   3.511   3.502   2.499
 2282SOL     OW 7295   2.460   2.591   2.132
 2282SOL    HW1 7296   2.484   2.660   2.064
 2282SOL    HW2 7297   2.382   2.624   2.186
 2283SOL     OW 7298   3.143   2.207   2.806
 2283SOL    HW1 7299   3.057   2.157   2.793
 2283SOL    HW2 7300   3.205   2.153   2.862
 2284SOL     OW 7301   3.438   3.524   2.169
 2284SOL    HW1 7302   3.527   3.570   2.172
 2284SOL    HW2 7303   3.417   3.500   2.074
 2285SOL     OW 7304   2.669   2.467   3.327
 2285SOL    HW1 7305   2.622   2.464   3.416
 2285SOL    HW2 7306   2.618   2.412   3.261
 2286SOL     OW 7307   3.256   2.331   3.536
 2286SOL    HW1 7308   3.236   2.374   3.624
 2286SOL    HW2 7309   3.334   2.269   3.545
 2287SOL     OW 7310   2.835   2.752   3.434
 2287SOL    HW1 7311   2.881   2.668   3.405
 2287SOL    HW2 7312   2.779   2.786   3.359
 2288SOL     OW 7313   2.853   2.272   3.104
 2288SOL    HW1 7314   2.776   2.306   3.158
 2288SOL    HW2 7315   2.819   2.221   3.025
 2289SOL     OW 7316   2.903   2.563   2.291
 2289SOL    HW1 7317   2.929   2.559   2.387
 2289SOL    HW2 7318   2.818   2.512   2.277
 2290SOL     OW 7319   1.938   2.673   2.651
 2290SOL    HW1 7320   2.037   2.661   2.660
 2290SOL    HW2 7321   1.914   2.768   2.672
 2291SOL     OW 7322   1.992   3.683   3.433
 2291SOL    HW1 7323   1.982   3.668   3.532
 2291SOL    HW2 7324   1.906   3.719   3.397
 2292SOL     OW 7325   2.727   2.210   2.057
 2292SOL    HW1 7326   2.786   2.273   2.008
 2292SOL    HW2 7327   2.746   2.116   2.028
 2293SOL     OW 7328   3.581   2.447   3.693
 2293SOL    HW1 7329   3.555   2.536   3.657
 2293SOL    HW2 7330   3.579   2.379   3.620
 2294SOL     OW 7331   3.224   3.006   2.407
 2294SOL    HW1 7332   3.307   2.977   2.359
 2294SOL    HW2 7333   3.175   3.073   2.351
 2295SOL     OW 7334   2.412   2.058   2.747
 2295SOL    HW1 7335   2.407   2.053   2.847
 2295SOL    HW2 7336   2.414   2.154   2.718
 2296SOL     OW 7337   2.870   3.318   2.339
 2296SOL    HW1 7338   2.824   3.390   2.287
 2296SOL    HW2 7339   2.866   3.338   2.437
 2297SOL     OW 7340   2.213   3.663   2.715
 2297SOL    HW1 7341   2.263   3.577   2.721
 2297SOL    HW2 7342   2.278   3.740   2.712
 2298SOL     OW 7343   3.657   2.928   2.735
 2298SOL    HW1 7344   3.595   2.913   2.659
 2298SOL    HW2 7345   3.605   2.939   2.820
 2299SOL     OW 7346   3.089   3.412   3.368
 2299SOL    HW1 7347   3.095   3.335   3.432
 2299SOL    HW2 7348   3.037   3.386   3.288
 2300SOL     OW 7349   2.183   2.805   2.104
 2300SOL    HW1 7350   2.265   2.844   2.062
 2300SOL    HW2 7351   2.156   2.723   2.055
 2301SOL     OW 7352   3.320   2.597   2.590
 2301SOL    HW1 7353   3.315   2.532   2.665
 2301SOL    HW2 7354   3.400   2.656   2.603
 2302SOL     OW 7355   2.323   3.128   3.589
 2302SOL    HW1 7356   2.273   3.129   3.503
 2302SOL    HW2 7357   2.260   3.110   3.665
 2303SOL     OW 7358   2.973   3.638   2.099
 2303SOL    HW1 7359   2.913   3.576   2.149
 2303SOL    HW2 7360   3.004   3.594   2.014
 2304SOL     OW 7361   2.064   2.147   3.360
 2304SOL    HW1 7362   1.984   2.207   3.347
 2304SOL    HW2 7363   2.054   2.098   3.446
 2305SOL     OW 7364   3.494   3.239   1.943
 2305SOL    HW1 7365   3.462   3.333   1.933
 2305SOL    HW2 7366   3.418   3.176   1.931
 2306SOL     OW 7367   2.326   3.605   2.185
 2306SOL    HW1 7368   2.359   3.644   2.271
 2306SOL    HW2 7369   2.402   3.598   2.120
 2307SOL     OW 7370   3.262   1.969   2.288
 2307SOL    HW1 7371   3.238   1.932   2.198
 2307SOL    HW2 7372   3.361   1.985   2.292
 2308SOL     OW 7373   2.111   3.647   3.103
 2308SOL    HW1 7374   2.168   3.582   3.153
 2308SOL    HW2 7375   2.095   3.614   3.010
 2309SOL     OW 7376   2.802   3.560   2.766
 2309SOL    HW1 7377   2.882   3.503   2.787
 2309SOL    HW2 7378   2.753   3.520   2.689
 2310SOL     OW 7379   2.244   2.562   2.342
 2310SOL    HW1 7380   2.289   2.472   2.339
 2310SOL    HW2 7381   2.150   2.551   2.375
 2311SOL     OW 7382   3.409   2.084   3.591
 2311SOL    HW1 7383   3.404   2.121   3.683
 2311SOL    HW2 7384   3.337   2.015   3.579
 2312SOL     OW 7385   2.476   1.984   1.979
 2312SOL    HW1 7386   2.574   1.962   1.986
 2312SOL    HW2 7387   2.445   1.967   1.886
 2313SOL     OW 7388   2.643   2.126   3.611
 2313SOL    HW1 7389   2.710   2.065   3.654
 2313SOL    HW2 7390   2.570   2.145   3.676
 2314SOL     OW 7391   2.750   3.376   3.057
 2314SOL    HW1 7392   2.727   3.351   2.963
 2314SOL    HW2 7393   2.811   3.307   3.096
 2315SOL     OW 7394   3.213   2.452   3.295
 2315SOL    HW1 7395   3.241   2.409   3.380
 2315SOL    HW2 7396   3.238   2.548   3.296
 2316SOL     OW 7397   2.665   3.264   2.786
 2316SOL    HW1 7398   2.755   3.278   2.744
 2316SOL    HW2 7399   2.594   3.266   2.715
 2317SOL     OW 7400   2.401   1.926   2.374
 2317SOL    HW1 7401   2.320   1.927   2.432
 2317SOL    HW2 7402   2.404   2.009   2.319
 2318SOL     OW 7403   3.296   3.050   1.903
 2318SOL    HW1 7404   3.328   2.974   1.960
 2318SOL    HW2 7405   3.204   3.077   1.933
 2319SOL     OW 7406   2.159   1.897   2.033
 2319SOL    HW1 7407   2.208   1.981   2.012
 2319SOL    HW2 7408   2.221   1.832   2.078
 2320SOL     OW 7409   2.797   2.098   2.342
 2320SOL    HW1 7410   2.749   2.139   2.264
 2320SOL    HW2 7411   2.896   2.096   2.323
 2321SOL     OW 7412   2.938   2.545   3.326
 2321SOL    HW1 7413   2.858   2.484   3.329
 2321SOL    HW2 7414   3.019   2.492   3.302
 2322SOL     OW 7415   3.089   3.432   2.655
 2322SOL    HW1 7416   3.110   3.506   2.590
 2322SOL    HW2 7417   3.157   3.432   2.728
 2323SOL     OW 7418   2.321   3.014   2.603
 2323SOL    HW1 7419   2.250   2.987   2.668
 2323SOL    HW2 7420   2.295   2.986   2.510
 2324SOL     OW 7421   3.133   3.659   2.453
 2324SOL    HW1 7422   3.177   3.723   2.389
 2324SOL    HW2 7423   3.083   3.711   2.523
 2325SOL     OW 7424   2.894   2.411   1.878
 2325SOL    HW1 7425   2.853   2.493   1.839
 2325SOL    HW2 7426   2.958   2.437   1.951
 2326SOL     OW 7427   1.940   2.418   3.248
 2326SOL    HW1 7428   2.032   2.417   3.207
 2326SOL    HW2 7429   1.934   2.492   3.315
 2327SOL     OW 7430   2.423   2.084   3.009
 2327SOL    HW1 7431   2.461   2.000   3.046
 2327SOL    HW2 7432   2.335   2.103   3.053
 2328SOL     OW 7433   2.879   1.901   2.615
 2328SOL    HW1 7434   2.807   1.906   2.546
 2328SOL    HW2 7435   2.855   1.832   2.684
 2329SOL     OW 7436   3.291   3.035   2.729
 2329SOL    HW1 7437   3.236   2.951   2.722
 2329SOL    HW2 7438   3.317   3.064   2.637
 2330SOL     OW 7439   3.328   2.452   2.854
 2330SOL    HW1 7440   3.298   2.357   2.861
 2330SOL    HW2 7441   3.401   2.468   2.920
 2331SOL     OW 7442   3.719   2.695   2.239
 2331SOL    HW1 7443   3.761   2.631   2.303
 2331SOL    HW2 7444   3.681   2.644   2.161
 2332SOL     OW 7445   2.350   3.247   2.036
 2332SOL    HW1 7446   2.263   3.232   2.083
 2332SOL    HW2 7447   2.333   3.273   1.941
 2333SOL     OW 7448   3.526   3.142   2.519
 2333SOL    HW1 7449   3.625   3.150   2.533
 2333SOL    HW2 7450   3.481   3.226   2.550
 2334SOL     OW 7451   3.252   2.437   1.940
 2334SOL    HW1 7452   3.198   2.416   2.021
 2334SOL    HW2 7453   3.343   2.396   1.949
 2335SOL     OW 7454   2.389   2.118   2.190
 2335SOL    HW1 7455   2.416   2.059   2.115
 2335SOL    HW2 7456   2.389   2.213   2.159
 2336SOL     OW 7457   3.616   3.085   3.450
 2336SOL    HW1 7458   3.707   3.046   3.437
 2336SOL    HW2 7459   3.624   3.181   3.474
 2337SOL     OW 7460   2.926   3.209   3.202
 2337SOL    HW1 7461   2.846   3.186   3.257
 2337SOL    HW2 7462   3.009   3.183   3.251
 2338SOL     OW 7463   3.454   3.491   3.487
 2338SOL    HW1 7464   3.481   3.525   3.397
 2338SOL    HW2 7465   3.533   3.453   3.533
 2339SOL     OW 7466   2.973   3.057   2.962
 2339SOL    HW1 7467   2.933   3.101   3.043
 2339SOL    HW2 7468   2.932   3.094   2.879
 2340SOL     OW 7469   3.500   2.961   2.941
 2340SOL    HW1 7470   3.505   3.042   3.000
 2340SOL    HW2 7471   3.414   2.963   2.890
 2341SOL     OW 7472   2.777   1.951   3.264
 2341SOL    HW1 7473   2.802   1.931   3.169
 2341SOL    HW2 7474   2.849   2.007   3.306
 2342SOL     OW 7475   2.842   2.978   3.581
 2342SOL    HW1 7476   2.743   2.984   3.591
 2342SOL    HW2 7477   2.865   2.898   3.525
 2343SOL     OW 7478   2.272   2.675   3.113
 2343SOL    HW1 7479   2.358   2.687   3.163
 2343SOL    HW2 7480   2.230   2.588   3.140
 2344SOL     OW 7481   3.136   2.248   3.124
 2344SOL    HW1 7482   3.157   2.322   3.188
 2344SOL    HW2 7483   3.047   2.265   3.081
 2345SOL     OW 7484   1.926   3.426   3.193
 2345SOL    HW1 7485   1.880   3.508   3.159
 2345SOL    HW2 7486   2.024   3.445   3.202
 2346SOL     OW 7487   2.229   2.962   2.363
 2346SOL    HW1 7488   2.222   3.045   2.307
 2346SOL    HW2 7489   2.233   2.882   2.303
 2347SOL     OW 7490   3.114   3.210   2.250
 2347SOL    HW1 7491   3.164   3.287   2.290
 2347SOL    HW2 7492   3.019   3.212   2.282
 2348SOL     OW 7493   3.134   3.307   3.004
 2348SOL    HW1 7494   3.181   3.320   3.091
 2348SOL    HW2 7495   3.068   3.233   3.013
 2349SOL     OW 7496   3.444   2.501   2.334
 2349SOL    HW1 7497   3.413   2.562   2.407
 2349SOL    HW2 7498   3.494   2.553   2.265
 2350SOL     OW 7499   2.216   3.372   3.191
 2350SOL    HW1 7500   2.195   3.328   3.104
 2350SOL    HW2 7501   2.313   3.398   3.194
 2351SOL     OW 7502   2.264   2.613   3.460
 2351SOL    HW1 7503   2.332   2.668   3.413
 2351SOL    HW2 7504   2.304   2.525   3.487
 2352SOL     OW 7505   3.449   2.641   3.532
 2352SOL    HW1 7506   3.357   2.679   3.527
 2352SOL    HW2 7507   3.509   2.688   3.467
 2353SOL     OW 7508   2.875   1.967   3.632
 2353SOL    HW1 7509   2.881   2.052   3.580
 2353SOL    HW2 7510   2.907   1.891   3.575
 2354SOL     OW 7511   2.366   1.912   3.602
 2354SOL    HW1 7512   2.324   1.855   3.532
 2354SOL    HW2 7513   2.300   1.981   3.634
 2355SOL     OW 7514   2.435   2.732   2.891
 2355SOL    HW1 7515   2.479   2.821   2.882
 2355SOL    HW2 7516   2.372   2.732   2.968
 2356SOL     OW 7517   3.222   2.724   2.907
 2356SOL    HW1 7518   3.147   2.724   2.841
 2356SOL    HW2 7519   3.259   2.632   2.916
 2357SOL     OW 7520   3.071   2.387   2.137
 2357SOL    HW1 7521   3.084   2.303   2.191
 2357SOL    HW2 7522   3.042   2.461   2.197
 2358SOL     OW 7523   2.169   2.075   3.093
 2358SOL    HW1 7524   2.146   2.112   3.183
 2358SOL    HW2 7525   2.139   1.980   3.087
 2359SOL     OW 7526   1.899   3.172   3.144
 2359SOL    HW1 7527   1.952   3.123   3.212
 2359SOL    HW2 7528   1.921   3.270   3.149
 2360SOL     OW 7529   3.590   2.797   3.716
 2360SOL    HW1 7530   3.544   2.790   3.627
 2360SOL    HW2 7531   3.528   2.841   3.782
 2361SOL     OW 7532   2.169   1.925   2.480
 2361SOL    HW1 7533   2.158   2.019   2.513
 2361SOL    HW2 7534   2.164   1.862   2.557
 2362SOL     OW 7535   3.484   2.229   2.236
 2362SOL    HW1 7536   3.486   2.153   2.300
 2362SOL    HW2 7537   3.436   2.306   2.276
 2363SOL     OW 7538   2.885   2.628   2.828
 2363SOL    HW1 7539   2.900   2.649   2.924
 2363SOL    HW2 7540   2.855   2.533   2.819
 2364SOL     OW 7541   2.842   3.435   3.562
 2364SOL    HW1 7542   2.822   3.479   3.474
 2364SOL    HW2 7543   2.881   3.344   3.546
 2365SOL     OW 7544   3.721   3.380   3.467
 2365SOL    HW1 7545   3.735   3.407   3.372
 2365SOL    HW2 7546   3.804   3.402   3.520
 2366SOL     OW 7547   2.212   2.760   3.666
 2366SOL    HW1 7548   2.288   2.804   3.714
 2366SOL    HW2 7549   2.247   2.713   3.584
 2367SOL     OW 7550   3.402   2.136   1.987
 2367SOL    HW1 7551   3.341   2.061   2.010
 2367SOL    HW2 7552   3.424   2.188   2.070
 2368SOL     OW 7553   3.165   2.700   1.904
 2368SOL    HW1 7554   3.199   2.607   1.919
 2368SOL    HW2 7555   3.183   2.727   1.809
 2369SOL     OW 7556   2.930   3.195   2.711
 2369SOL    HW1 7557   2.937   3.111   2.656
 2369SOL    HW2 7558   2.992   3.264   2.675
 2370SOL     OW 7559   2.181   2.672   2.811
 2370SOL    HW1 7560   2.274   2.708   2.816
 2370SOL    HW2 7561   2.175   2.587   2.863
 2371SOL     OW 7562   2.201   2.371   2.868
 2371SOL    HW1 7563   2.149   2.288   2.851
 2371SOL    HW2 7564   2.278   2.376   2.804
 2372SOL     OW 7565   3.000   2.242   3.540
 2372SOL    HW1 7566   2.955   2.305   3.604
 2372SOL    HW2 7567   3.093   2.273   3.523
 2373SOL     OW 7568   3.022   2.069   3.339
 2373SOL    HW1 7569   3.022   2.133   3.416
 2373SOL    HW2 7570   3.050   2.117   3.256
 2374SOL     OW 7571   1.870   3.188   2.062
 2374SOL    HW1 7572   1.777   3.209   2.031
 2374SOL    HW2 7573   1.880   3.089   2.075
 2375SOL     OW 7574   1.950   3.663   2.789
 2375SOL    HW1 7575   1.908   3.577   2.762
 2375SOL    HW2 7576   2.044   3.666   2.755
 2376SOL     OW 7577   2.366   3.430   2.772
 2376SOL    HW1 7578   2.432   3.504   2.781
 2376SOL    HW2 7579   2.410   3.351   2.730
 2377SOL     OW 7580   2.864   2.658   3.100
 2377SOL    HW1 7581   2.905   2.626   3.186
 2377SOL    HW2 7582   2.768   2.631   3.097
 2378SOL     OW 7583   1.902   2.406   2.976
 2378SOL    HW1 7584   1.987   2.373   2.935
 2378SOL    HW2 7585   1.915   2.421   3.074
 2379SOL     OW 7586   2.051   2.382   3.584
 2379SOL    HW1 7587   2.110   2.342   3.514
 2379SOL    HW2 7588   1.993   2.453   3.543
 2380SOL     OW 7589   3.231   2.812   3.522
 2380SOL    HW1 7590   3.270   2.901   3.542
 2380SOL    HW2 7591   3.241   2.792   3.425
 2381SOL     OW 7592   2.677   2.434   2.187
 2381SOL    HW1 7593   2.684   2.345   2.141
 2381SOL    HW2 7594   2.583   2.468   2.179
 2382SOL     OW 7595   3.519   2.466   3.068
 2382SOL    HW1 7596   3.481   2.397   3.130
 2382SOL    HW2 7597   3.601   2.430   3.024
 2383SOL     OW 7598   2.114   3.426   3.606
 2383SOL    HW1 7599   2.084   3.483   3.682
 2383SOL    HW2 7600   2.107   3.329   3.632
 2384SOL     OW 7601   2.533   2.326   3.131
 2384SOL    HW1 7602   2.499   2.237   3.101
 2384SOL    HW2 7603   2.559   2.380   3.051
 2385SOL     OW 7604   2.792   3.540   3.327
 2385SOL    HW1 7605   2.768   3.522   3.232
 2385SOL    HW2 7606   2.822   3.634   3.337
 2386SOL     OW 7607   2.335   2.362   2.053
 2386SOL    HW1 7608   2.396   2.442   2.057
 2386SOL    HW2 7609   2.240   2.393   2.060
 2387SOL     OW 7610   2.021   2.999   3.328
 2387SOL    HW1 7611   2.043   2.938   3.404
 2387SOL    HW2 7612   2.031   2.950   3.242
 2388SOL     OW 7613   3.209   2.921   3.096
 2388SOL    HW1 7614   3.233   2.858   3.022
 2388SOL    HW2 7615   3.119   2.961   3.078
 2389SOL     OW 7616   3.164   2.717   2.171
 2389SOL    HW1 7617   3.078   2.686   2.213
 2389SOL    HW2 7618   3.160   2.703   2.072
 2390SOL     OW 7619   3.621   3.609   3.016
 2390SOL    HW1 7620   3.682   3.639   2.943
 2390SOL    HW2 7621   3.583   3.520   2.994
 2391SOL     OW 7622   3.114   3.593   2.990
 2391SOL    HW1 7623   3.198   3.598   2.936
 2391SOL    HW2 7624   3.091   3.497   3.008
 2392SOL     OW 7625   1.945   3.120   2.884
 2392SOL    HW1 7626   1.940   3.119   2.984
 2392SOL    HW2 7627   1.862   3.079   2.846
 2393SOL     OW 7628   2.550   3.524   3.578
 2393SOL    HW1 7629   2.494   3.605   3.587
 2393SOL    HW2 7630   2.602   3.528   3.492
 2394SOL     OW 7631   3.588   1.997   2.385
 2394SOL    HW1 7632   3.661   1.980   2.318
 2394SOL    HW2 7633   3.557   1.910   2.423
 2395SOL     OW 7634   3.250   3.435   2.339
 2395SOL    HW1 7635   3.317   3.447   2.265
 2395SOL    HW2 7636   3.210   3.524   2.362
 2396SOL     OW 7637   1.992   3.656   3.713
 2396SOL    HW1 7638   1.951   3.582   3.766
 2396SOL    HW2 7639   2.056   3.707   3.771
 2397SOL     OW 7640   3.142   2.789   2.534
 2397SOL    HW1 7641   3.202   2.708   2.536
 2397SOL    HW2 7642   3.182   2.858   2.474
 2398SOL     OW 7643   2.692   3.135   3.284
 2398SOL    HW1 7644   2.687   3.168   3.379
 2398SOL    HW2 7645   2.606   3.154   3.238
 2399SOL     OW 7646   2.534   3.478   2.016
 2399SOL    HW1 7647   2.543   3.488   1.917
 2399SOL    HW2 7648   2.494   3.389   2.037
 2400SOL     OW 7649   3.512   3.582   3.256
 2400SOL    HW1 7650   3.565   3.592   3.172
 2400SOL    HW2 7651   3.485   3.672   3.290
 2401SOL     OW 7652   3.703   2.037   2.825
 2401SOL    HW1 7653   3.742   1.952   2.789
 2401SOL    HW2 7654   3.605   2.039   2.806
 2402SOL     OW 7655   3.056   3.474   1.893
 2402SOL    HW1 7656   3.062   3.381   1.930
 2402SOL    HW2 7657   2.997   3.474   1.813
 2403SOL     OW 7658   2.684   2.864   3.234
 2403SOL    HW1 7659   2.724   2.863   3.142
 2403SOL    HW2 7660   2.694   2.956   3.274
 2404SOL     OW 7661   2.778   2.772   2.153
 2404SOL    HW1 7662   2.841   2.810   2.085
 2404SOL    HW2 7663   2.818   2.689   2.192
 2405SOL     OW 7664   3.366   3.469   1.906
 2405SOL    HW1 7665   3.274   3.506   1.913
 2405SOL    HW2 7666   3.404   3.489   1.816
 2406SOL     OW 7667   2.234   3.150   3.352
 2406SOL    HW1 7668   2.221   3.243   3.318
 2406SOL    HW2 7669   2.150   3.098   3.339
 2407SOL     OW 7670   3.476   3.154   3.151
 2407SOL    HW1 7671   3.536   3.157   3.231
 2407SOL    HW2 7672   3.401   3.218   3.164
 2408SOL     OW 7673   2.901   2.960   2.558
 2408SOL    HW1 7674   2.831   2.913   2.612
 2408SOL    HW2 7675   2.960   2.892   2.515
 2409SOL     OW 7676   2.876   2.098   2.833
 2409SOL    HW1 7677   2.868   2.062   2.740
 2409SOL    HW2 7678   2.874   2.022   2.898
 2410SOL     OW 7679   2.452   3.349   2.353
 2410SOL    HW1 7680   2.494   3.291   2.283
 2410SOL    HW2 7681   2.408   3.428   2.309
 2411SOL     OW 7682   2.117   3.210   2.152
 2411SOL    HW1 7683   2.021   3.211   2.125
 2411SOL    HW2 7684   2.129   3.263   2.236
 2412SOL     OW 7685   1.967   2.875   3.588
 2412SOL    HW1 7686   1.890   2.842   3.642
 2412SOL    HW2 7687   2.052   2.845   3.630
 2413SOL     OW 7688   2.534   2.065   3.351
 2413SOL    HW1 7689   2.624   2.049   3.311
 2413SOL    HW2 7690   2.542   2.070   3.450
 2414SOL     OW 7691   1.937   2.207   1.895
 2414SOL    HW1 7692   1.845   2.179   1.866
 2414SOL    HW2 7693   1.968   2.284   1.839
 2415SOL     OW 7694   3.302   2.718   3.260
 2415SOL    HW1 7695   3.245   2.770   3.197
 2415SOL    HW2 7696   3.398   2.730   3.236
 2416SOL     OW 7697   1.934   2.028   2.180
 2416SOL    HW1 7698   1.917   2.111   2.126
 2416SOL    HW2 7699   2.024   1.991   2.158
 2417SOL     OW 7700   3.045   3.197   1.981
 2417SOL    HW1 7701   2.946   3.186   1.983
 2417SOL    HW2 7702   3.079   3.212   2.074
 2418SOL     OW 7703   2.475   2.704   3.293
 2418SOL    HW1 7704   2.531   2.785   3.276
 2418SOL    HW2 7705   2.534   2.624   3.296
 2419SOL     OW 7706   3.355   3.629   2.821
 2419SOL    HW1 7707   3.388   3.693   2.752
 2419SOL    HW2 7708   3.421   3.623   2.896
 2420SOL     OW 7709   2.578   2.427   3.570
 2420SOL    HW1 7710   2.597   2.492   3.644
 2420SOL    HW2 7711   2.638   2.347   3.579
 2421SOL     OW 7712   3.312   3.082   3.495
 2421SOL    HW1 7713   3.303   3.072   3.594
 2421SOL    HW2 7714   3.408   3.075   3.469
 2422SOL     OW 7715   2.252   3.603   3.422
 2422SOL    HW1 7716   2.161   3.644   3.420
 2422SOL    HW2 7717   2.245   3.509   3.454
 2423SOL     OW 7718   3.536   2.745   3.116
 2423SOL    HW1 7719   3.509   2.656   3.079
 2423SOL    HW2 7720   3.537   2.813   3.043
 2424SOL     OW 7721   3.087   2.187   2.311
 2424SOL    HW1 7722   3.152   2.113   2.300
 2424SOL    HW2 7723   3.107   2.237   2.395
 2425SOL     OW 7724   3.639   2.204   3.504
 2425SOL    HW1 7725   3.622   2.235   3.410
 2425SOL    HW2 7726   3.555   2.167   3.542
 2426SOL     OW 7727   3.592   2.796   3.379
 2426SOL    HW1 7728   3.630   2.887   3.394
 2426SOL    HW2 7729   3.584   2.779   3.280
 2427SOL     OW 7730   2.721   3.236   1.878
 2427SOL    HW1 7731   2.675   3.251   1.966
 2427SOL    HW2 7732   2.765   3.321   1.848
 2428SOL     OW 7733   2.523   3.652   2.815
 2428SOL    HW1 7734   2.477   3.740   2.802
 2428SOL    HW2 7735   2.622   3.664   2.808
 2429SOL     OW 7736   2.945   2.846   1.949
 2429SOL    HW1 7737   2.922   2.899   1.867
 2429SOL    HW2 7738   3.026   2.790   1.930
 2430SOL     OW 7739   3.723   3.431   2.713
 2430SOL    HW1 7740   3.652   3.419   2.643
 2430SOL    HW2 7741   3.724   3.352   2.773
 2431SOL     OW 7742   2.083   3.176   3.706
 2431SOL    HW1 7743   2.018   3.103   3.685
 2431SOL    HW2 7744   2.087   3.190   3.804
 2432SOL     OW 7745   1.941   3.102   2.515
 2432SOL    HW1 7746   1.940   3.055   2.603
 2432SOL    HW2 7747   2.023   3.074   2.464
 2433SOL     OW 7748   2.534   3.253   3.486
 2433SOL    HW1 7749   2.456   3.203   3.524
 2433SOL    HW2 7750   2.531   3.348   3.517
 2434SOL     OW 7751   3.567   3.349   2.966
 2434SOL    HW1 7752   3.474   3.324   2.939
 2434SOL    HW2 7753   3.593   3.299   3.048
 2435SOL     OW 7754   2.179   2.409   3.142
 2435SOL    HW1 7755   2.217   2.350   3.214
 2435SOL    HW2 7756   2.219   2.383   3.054
 2436SOL     OW 7757   2.674   3.448   2.549
 2436SOL    HW1 7758   2.706   3.458   2.455
 2436SOL    HW2 7759   2.595   3.386   2.551
 2437SOL     OW 7760   3.286   2.076   2.974
 2437SOL    HW1 7761   3.338   2.011   3.029
 2437SOL    HW2 7762   3.237   2.139   3.035
 2438SOL     OW 7763   2.863   1.896   3.016
 2438SOL    HW1 7764   2.800   1.824   2.985
 2438SOL    HW2 7765   2.956   1.860   3.016
 2439SOL     OW 7766   2.632   3.192   2.163
 2439SOL    HW1 7767   2.586   3.105   2.180
 2439SOL    HW2 7768   2.723   3.189   2.204
 2440SOL     OW 7769   2.480   3.429   3.146
 2440SOL    HW1 7770   2.475   3.511   3.203
 2440SOL    HW2 7771   2.569   3.426   3.101
 2441SOL     OW 7772   3.214   1.914   2.030
 2441SOL    HW1 7773   3.249   1.873   1.946
 2441SOL    HW2 7774   3.124   1.876   2.050
 2442SOL     OW 7775   3.455   2.083   2.744
 2442SOL    HW1 7776   3.371   2.082   2.798
 2442SOL    HW2 7777   3.457   2.166   2.688
 2443SOL     OW 7778   1.901   2.939   2.162
 2443SOL    HW1 7779   2.000   2.928   2.153
 2443SOL    HW2 7780   1.861   2.853   2.194
 2444SOL     OW 7781   2.737   3.508   2.199
 2444SOL    HW1 7782   2.660   3.473   2.145
 2444SOL    HW2 7783   2.705   3.579   2.261
 2445SOL     OW 7784   2.092   2.490   3.837
 2445SOL    HW1 7785   1.999   2.488   3.874
 2445SOL    HW2 7786   2.093   2.451   3.745
 2446SOL     OW 7787   2.087   2.137   4.720
 2446SOL    HW1 7788   2.122   2.120   4.812
 2446SOL    HW2 7789   1.999   2.092   4.708
 2447SOL     OW 7790   1.881   2.230   4.371
 2447SOL    HW1 7791   1.799   2.273   4.410
 2447SOL    HW2 7792   1.853   2.157   4.308
 2448SOL     OW 7793   2.431   3.137   4.889
 2448SOL    HW1 7794   2.338   3.130   4.852
 2448SOL    HW2 7795   2.442   3.226   4.933
 2449SOL     OW 7796   3.417   3.373   4.427
 2449SOL    HW1 7797   3.360   3.357   4.508
 2449SOL    HW2 7798   3.358   3.383   4.347
 2450SOL     OW 7799   2.997   2.565   4.441
 2450SOL    HW1 7800   3.054   2.643   4.416
 2450SOL    HW2 7801   2.937   2.591   4.517
 2451SOL     OW 7802   3.617   2.469   3.955
 2451SOL    HW1 7803   3.605   2.456   3.856
 2451SOL    HW2 7804   3.587   2.388   4.004
 2452SOL     OW 7805   2.630   3.006   4.747
 2452SOL    HW1 7806   2.552   3.023   4.807
 2452SOL    HW2 7807   2.664   3.093   4.711
 2453SOL     OW 7808   2.547   2.874   4.389
 2453SOL    HW1 7809   2.616   2.858   4.459
 2453SOL    HW2 7810   2.474   2.931   4.427
 2454SOL     OW 7811   2.197   3.297   4.785
 2454SOL    HW1 7812   2.119   3.266   4.732
 2454SOL    HW2 7813   2.255   3.355   4.728
 2455SOL     OW 7814   3.465   2.309   4.461
 2455SOL    HW1 7815   3.391   2.355   4.411
 2455SOL    HW2 7816   3.516   2.377   4.514
 2456SOL     OW 7817   2.093   3.575   4.207
 2456SOL    HW1 7818   2.127   3.652   4.261
 2456SOL    HW2 7819   2.137   3.575   4.117
 2457SOL     OW 7820   2.092   3.296   4.262
 2457SOL    HW1 7821   2.066   3.392   4.262
 2457SOL    HW2 7822   2.021   3.242   4.307
 2458SOL     OW 7823   2.102   2.953   4.610
 2458SOL    HW1 7824   2.116   2.869   4.662
 2458SOL    HW2 7825   2.047   3.017   4.665
 2459SOL     OW 7826   2.482   3.648   5.163
 2459SOL    HW1 7827   2.390   3.631   5.198
 2459SOL    HW2 7828   2.510   3.740   5.189
 2460SOL     OW 7829   2.468   2.826   3.847
 2460SOL    HW1 7830   2.475   2.910   3.793
 2460SOL    HW2 7831   2.514   2.839   3.935
 2461SOL     OW 7832   1.984   2.505   4.287
 2461SOL    HW1 7833   1.939   2.417   4.304
 2461SOL    HW2 7834   1.983   2.559   4.371
 2462SOL     OW 7835   3.704   3.629   4.083
 2462SOL    HW1 7836   3.758   3.600   4.163
 2462SOL    HW2 7837   3.734   3.719   4.054
 2463SOL     OW 7838   1.889   3.458   3.841
 2463SOL    HW1 7839   1.870   3.362   3.862
 2463SOL    HW2 7840   1.856   3.516   3.916
 2464SOL     OW 7841   3.551   2.784   4.336
 2464SOL    HW1 7842   3.646   2.755   4.344
 2464SOL    HW2 7843   3.543   2.849   4.261
 2465SOL     OW 7844   3.503   2.970   4.156
 2465SOL    HW1 7845   3.589   2.972   4.104
 2465SOL    HW2 7846   3.517   3.017   4.244
 2466SOL     OW 7847   2.475   3.227   4.450
 2466SOL    HW1 7848   2.426   3.140   4.459
 2466SOL    HW2 7849   2.452   3.270   4.363
 2467SOL     OW 7850   2.671   1.866   4.226
 2467SOL    HW1 7851   2.711   1.957   4.217
 2467SOL    HW2 7852   2.571   1.874   4.232
 2468SOL     OW 7853   2.059   2.838   4.988
 2468SOL    HW1 7854   2.148   2.793   4.974
 2468SOL    HW2 7855   1.986   2.773   4.969
 2469SOL     OW 7856   3.387   2.861   3.914
 2469SOL    HW1 7857   3.324   2.785   3.927
 2469SOL    HW2 7858   3.435   2.879   4.000
 2470SOL     OW 7859   3.328   3.279   4.677
 2470SOL    HW1 7860   3.269   3.285   4.757
 2470SOL    HW2 7861   3.313   3.191   4.631
 2471SOL     OW 7862   3.529   3.576   4.296
 2471SOL    HW1 7863   3.488   3.553   4.208
 2471SOL    HW2 7864   3.511   3.502   4.361
 2472SOL     OW 7865   2.460   2.591   3.994
 2472SOL    HW1 7866   2.484   2.660   3.926
 2472SOL    HW2 7867   2.382   2.624   4.048
 2473SOL     OW 7868   3.143   2.207   4.668
 2473SOL    HW1 7869   3.057   2.157   4.655
 2473SOL    HW2 7870   3.205   2.153   4.724
 2474SOL     OW 7871   3.438   3.524   4.031
 2474SOL    HW1 7872   3.527   3.570   4.034
 2474SOL    HW2 7873   3.417   3.500   3.936
 2475SOL     OW 7874   2.853   2.272   4.966
 2475SOL    HW1 7875   2.776   2.306   5.020
 2475SOL    HW2 7876   2.819   2.221   4.887
 2476SOL     OW 7877   2.903   2.563   4.153
 2476SOL    HW1 7878   2.929   2.559   4.249
 2476SOL    HW2 7879   2.818   2.512   4.139
 2477SOL     OW 7880   1.938   2.673   4.513
 2477SOL    HW1 7881   2.037   2.661   4.522
 2477SOL    HW2 7882   1.914   2.768   4.534
 2478SOL     OW 7883   2.727   2.210   3.919
 2478SOL    HW1 7884   2.786   2.273   3.870
 2478SOL    HW2 7885   2.746   2.116   3.890
 2479SOL     OW 7886   3.224   3.006   4.269
 2479SOL    HW1 7887   3.307   2.977   4.221
 2479SOL    HW2 7888   3.175   3.073   4.213
 2480SOL     OW 7889   2.412   2.058   4.609
 2480SOL    HW1 7890   2.407   2.053   4.709
 2480SOL    HW2 7891   2.414   2.154   4.580
 2481SOL     OW 7892   2.870   3.318   4.201
 2481SOL    HW1 7893   2.824   3.390   4.149
 2481SOL    HW2 7894   2.866   3.338   4.299
 2482SOL     OW 7895   2.213   3.663   4.577
 2482SOL    HW1 7896   2.263   3.577   4.583
 2482SOL    HW2 7897   2.278   3.740   4.574
 2483SOL     OW 7898   3.657   2.928   4.597
 2483SOL    HW1 7899   3.595   2.913   4.521
 2483SOL    HW2 7900   3.605   2.939   4.682
 2484SOL     OW 7901   2.183   2.805   3.966
 2484SOL    HW1 7902   2.265   2.844   3.924
 2484SOL    HW2 7903   2.156   2.723   3.917
 2485SOL     OW 7904   3.320   2.597   4.452
 2485SOL    HW1 7905   3.315   2.532   4.527
 2485SOL    HW2 7906   3.400   2.656   4.465
 2486SOL     OW 7907   2.973   3.638   3.961
 2486SOL    HW1 7908   2.913   3.576   4.011
 2486SOL    HW2 7909   3.004   3.594   3.876
 2487SOL     OW 7910   3.494   3.239   3.805
 2487SOL    HW1 7911   3.462   3.333   3.795
 2487SOL    HW2 7912   3.418   3.176   3.793
 2488SOL     OW 7913   2.326   3.605   4.047
 2488SOL    HW1 7914   2.359   3.644   4.133
 2488SOL    HW2 7915   2.402   3.598   3.982
 2489SOL     OW 7916   3.262   1.969   4.150
 2489SOL    HW1 7917   3.238   1.932   4.060
 2489SOL    HW2 7918   3.361   1.985   4.154
 2490SOL     OW 7919   2.111   3.647   4.965
 2490SOL    HW1 7920   2.168   3.582   5.015
 2490SOL    HW2 7921   2.095   3.614   4.872
 2491SOL     OW 7922   2.802   3.560   4.628
 2491SOL    HW1 7923   2.882   3.503   4.649
 2491SOL    HW2 7924   2.753   3.520   4.551
 2492SOL     OW 7925   2.244   2.562   4.204
 2492SOL    HW1 7926   2.289   2.472   4.201
 2492SOL    HW2 7927   2.150   2.551   4.237
 2493SOL     OW 7928   2.476   1.984   3.841
 2493SOL    HW1 7929   2.574   1.962   3.848
 2493SOL    HW2 7930   2.445   1.967   3.748
 2494SOL     OW 7931   2.665   3.264   4.648
 2494SOL    HW1 7932   2.755   3.278   4.606
 2494SOL    HW2 7933   2.594   3.266   4.577
 2495SOL     OW 7934   2.784   2.365   4.623
 2495SOL    HW1 7935   2.759   2.356   4.527
 2495SOL    HW2 7936   2.832   2.283   4.654
 2496SOL     OW 7937   2.401   1.926   4.236
 2496SOL    HW1 7938   2.320   1.927   4.294
 2496SOL    HW2 7939   2.404   2.009   4.181
 2497SOL     OW 7940   3.296   3.050   3.765
 2497SOL    HW1 7941   3.328   2.974   3.822
 2497SOL    HW2 7942   3.204   3.077   3.795
 2498SOL     OW 7943   2.159   1.897   3.895
 2498SOL    HW1 7944   2.208   1.981   3.874
 2498SOL    HW2 7945   2.221   1.832   3.940
 2499SOL     OW 7946   2.797   2.098   4.204
 2499SOL    HW1 7947   2.749   2.139   4.126
 2499SOL    HW2 7948   2.896   2.096   4.185
 2500SOL     OW 7949   3.089   3.432   4.517
 2500SOL    HW1 7950   3.110   3.506   4.452
 2500SOL    HW2 7951   3.157   3.432   4.590
 2501SOL     OW 7952   2.321   3.014   4.465
 2501SOL    HW1 7953   2.250   2.987   4.530
 2501SOL    HW2 7954   2.295   2.986   4.372
 2502SOL     OW 7955   3.133   3.659   4.315
 2502SOL    HW1 7956   3.177   3.723   4.251
 2502SOL    HW2 7957   3.083   3.711   4.385
 2503SOL     OW 7958   2.894   2.411   3.740
 2503SOL    HW1 7959   2.853   2.493   3.701
 2503SOL    HW2 7960   2.958   2.437   3.813
 2504SOL     OW 7961   2.423   2.084   4.871
 2504SOL    HW1 7962   2.461   2.000   4.908
 2504SOL    HW2 7963   2.335   2.103   4.915
 2505SOL     OW 7964   2.728   2.316   4.366
 2505SOL    HW1 7965   2.696   2.388   4.304
 2505SOL    HW2 7966   2.752   2.235   4.313
 2506SOL     OW 7967   2.879   1.901   4.477
 2506SOL    HW1 7968   2.807   1.906   4.408
 2506SOL    HW2 7969   2.855   1.832   4.546
 2507SOL     OW 7970   3.291   3.035   4.591
 2507SOL    HW1 7971   3.236   2.951   4.584
 2507SOL    HW2 7972   3.317   3.064   4.499
 2508SOL     OW 7973   3.328   2.452   4.716
 2508SOL    HW1 7974   3.298   2.357   4.723
 2508SOL    HW2 7975   3.401   2.468   4.782
 2509SOL     OW 7976   3.719   2.695   4.101
 2509SOL    HW1 7977   3.761   2.631   4.165
 2509SOL    HW2 7978   3.681   2.644   4.023
 2510SOL     OW 7979   2.350   3.247   3.898
 2510SOL    HW1 7980   2.263   3.232   3.945
 2510SOL    HW2 7981   2.333   3.273   3.803
 2511SOL     OW 7982   3.526   3.142   4.381
 2511SOL    HW1 7983   3.625   3.150   4.395
 2511SOL    HW2 7984   3.481   3.226   4.412
 2512SOL     OW 7985   3.252   2.437   3.802
 2512SOL    HW1 7986   3.198   2.416   3.883
 2512SOL    HW2 7987   3.343   2.396   3.811
 2513SOL     OW 7988   2.389   2.118   4.052
 2513SOL    HW1 7989   2.416   2.059   3.977
 2513SOL    HW2 7990   2.389   2.213   4.021
 2514SOL     OW 7991   2.973   3.057   4.824
 2514SOL    HW1 7992   2.933   3.101   4.905
 2514SOL    HW2 7993   2.932   3.094   4.741
 2515SOL     OW 7994   3.500   2.961   4.803
 2515SOL    HW1 7995   3.505   3.042   4.862
 2515SOL    HW2 7996   3.414   2.963   4.752
 2516SOL     OW 7997   2.567   2.912   4.092
 2516SOL    HW1 7998   2.553   2.919   4.191
 2516SOL    HW2 7999   2.651   2.861   4.074
 2517SOL     OW 8000   2.272   2.675   4.975
 2517SOL    HW1 8001   2.358   2.687   5.025
 2517SOL    HW2 8002   2.230   2.588   5.002
 2518SOL     OW 8003   3.136   2.248   4.986
 2518SOL    HW1 8004   3.157   2.322   5.050
 2518SOL    HW2 8005   3.047   2.265   4.943
 2519SOL     OW 8006   2.229   2.962   4.225
 2519SOL    HW1 8007   2.222   3.045   4.169
 2519SOL    HW2 8008   2.233   2.882   4.165
 2520SOL     OW 8009   2.428   2.399   4.589
 2520SOL    HW1 8010   2.440   2.465   4.515
 2520SOL    HW2 8011   2.474   2.433   4.672
 2521SOL     OW 8012   3.114   3.210   4.112
 2521SOL    HW1 8013   3.164   3.287   4.152
 2521SOL    HW2 8014   3.019   3.212   4.144
 2522SOL     OW 8015   3.134   3.307   4.866
 2522SOL    HW1 8016   3.181   3.320   4.953
 2522SOL    HW2 8017   3.068   3.233   4.875
 2523SOL     OW 8018   3.444   2.501   4.196
 2523SOL    HW1 8019   3.413   2.562   4.269
 2523SOL    HW2 8020   3.494   2.553   4.127
 2524SOL     OW 8021   2.216   3.372   5.053
 2524SOL    HW1 8022   2.195   3.328   4.966
 2524SOL    HW2 8023   2.313   3.398   5.056
 2525SOL     OW 8024   2.435   2.732   4.753
 2525SOL    HW1 8025   2.479   2.821   4.744
 2525SOL    HW2 8026   2.372   2.732   4.830
 2526SOL     OW 8027   3.222   2.724   4.769
 2526SOL    HW1 8028   3.147   2.724   4.703
 2526SOL    HW2 8029   3.259   2.632   4.778
 2527SOL     OW 8030   3.071   2.387   3.999
 2527SOL    HW1 8031   3.084   2.303   4.053
 2527SOL    HW2 8032   3.042   2.461   4.059
 2528SOL     OW 8033   2.169   2.075   4.955
 2528SOL    HW1 8034   2.146   2.112   5.045
 2528SOL    HW2 8035   2.139   1.980   4.949
 2529SOL     OW 8036   1.899   3.172   5.006
 2529SOL    HW1 8037   1.952   3.123   5.074
 2529SOL    HW2 8038   1.921   3.270   5.011
 2530SOL     OW 8039   2.594   2.496   4.788
 2530SOL    HW1 8040   2.653   2.470   4.712
 2530SOL    HW2 8041   2.566   2.592   4.777
 2531SOL     OW 8042   2.169   1.925   4.342
 2531SOL    HW1 8043   2.158   2.019   4.375
 2531SOL    HW2 8044   2.164   1.862   4.419
 2532SOL     OW 8045   3.484   2.229   4.098
 2532SOL    HW1 8046   3.486   2.153   4.162
 2532SOL    HW2 8047   3.436   2.306   4.138
 2533SOL     OW 8048   2.885   2.628   4.690
 2533SOL    HW1 8049   2.900   2.649   4.786
 2533SOL    HW2 8050   2.855   2.533   4.681
 2534SOL     OW 8051   3.402   2.136   3.849
 2534SOL    HW1 8052   3.341   2.061   3.872
 2534SOL    HW2 8053   3.424   2.188   3.932
 2535SOL     OW 8054   3.165   2.700   3.766
 2535SOL    HW1 8055   3.199   2.607   3.781
 2535SOL    HW2 8056   3.183   2.727   3.671
 2536SOL     OW 8057   2.930   3.195   4.573
 2536SOL    HW1 8058   2.937   3.111   4.518
 2536SOL    HW2 8059   2.992   3.264   4.537
 2537SOL     OW 8060   2.181   2.672   4.673
 2537SOL    HW1 8061   2.274   2.708   4.678
 2537SOL    HW2 8062   2.175   2.587   4.725
 2538SOL     OW 8063   2.201   2.371   4.730
 2538SOL    HW1 8064   2.149   2.288   4.713
 2538SOL    HW2 8065   2.278   2.376   4.666
 2539SOL     OW 8066   3.022   2.069   5.201
 2539SOL    HW1 8067   3.022   2.133   5.278
 2539SOL    HW2 8068   3.050   2.117   5.118
 2540SOL     OW 8069   1.870   3.188   3.924
 2540SOL    HW1 8070   1.777   3.209   3.893
 2540SOL    HW2 8071   1.880   3.089   3.937
 2541SOL     OW 8072   1.950   3.663   4.651
 2541SOL    HW1 8073   1.908   3.577   4.624
 2541SOL    HW2 8074   2.044   3.666   4.617
 2542SOL     OW 8075   2.366   3.430   4.634
 2542SOL    HW1 8076   2.432   3.504   4.643
 2542SOL    HW2 8077   2.410   3.351   4.592
 2543SOL     OW 8078   2.864   2.658   4.962
 2543SOL    HW1 8079   2.905   2.626   5.048
 2543SOL    HW2 8080   2.768   2.631   4.959
 2544SOL     OW 8081   1.902   2.406   4.838
 2544SOL    HW1 8082   1.987   2.373   4.797
 2544SOL    HW2 8083   1.915   2.421   4.936
 2545SOL     OW 8084   2.677   2.434   4.049
 2545SOL    HW1 8085   2.684   2.345   4.003
 2545SOL    HW2 8086   2.583   2.468   4.041
 2546SOL     OW 8087   3.519   2.466   4.930
 2546SOL    HW1 8088   3.481   2.397   4.992
 2546SOL    HW2 8089   3.601   2.430   4.886
 2547SOL     OW 8090   2.533   2.326   4.993
 2547SOL    HW1 8091   2.499   2.237   4.963
 2547SOL    HW2 8092   2.559   2.380   4.913
 2548SOL     OW 8093   2.792   3.540   5.189
 2548SOL    HW1 8094   2.768   3.522   5.094
 2548SOL    HW2 8095   2.822   3.634   5.199
 2549SOL     OW 8096   2.335   2.362   3.915
 2549SOL    HW1 8097   2.396   2.442   3.919
 2549SOL    HW2 8098   2.240   2.393   3.922
 2550SOL     OW 8099   3.209   2.921   4.958
 2550SOL    HW1 8100   3.233   2.858   4.884
 2550SOL    HW2 8101   3.119   2.961   4.940
 2551SOL     OW 8102   3.164   2.717   4.033
 2551SOL    HW1 8103   3.078   2.686   4.075
 2551SOL    HW2 8104   3.160   2.703   3.934
 2552SOL     OW 8105   3.621   3.609   4.878
 2552SOL    HW1 8106   3.682   3.639   4.805
 2552SOL    HW2 8107   3.583   3.520   4.856
 2553SOL     OW 8108   3.114   3.593   4.852
 2553SOL    HW1 8109   3.198   3.598   4.798
 2553SOL    HW2 8110   3.091   3.497   4.870
 2554SOL     OW 8111   1.945   3.120   4.746
 2554SOL    HW1 8112   1.940   3.119   4.846
 2554SOL    HW2 8113   1.862   3.079   4.708
 2555SOL     OW 8114   3.588   1.997   4.247
 2555SOL    HW1 8115   3.661   1.980   4.180
 2555SOL    HW2 8116   3.557   1.910   4.285
 2556SOL     OW 8117   3.250   3.435   4.201
 2556SOL    HW1 8118   3.317   3.447   4.127
 2556SOL    HW2 8119   3.210   3.524   4.224
 2557SOL     OW 8120   3.142   2.789   4.396
 2557SOL    HW1 8121   3.202   2.708   4.398
 2557SOL    HW2 8122   3.182   2.858   4.336
 2558SOL     OW 8123   2.534   3.478   3.878
 2558SOL    HW1 8124   2.543   3.488   3.779
 2558SOL    HW2 8125   2.494   3.389   3.899
 2559SOL     OW 8126   3.512   3.582   5.118
 2559SOL    HW1 8127   3.565   3.592   5.034
 2559SOL    HW2 8128   3.485   3.672   5.152
 2560SOL     OW 8129   3.703   2.037   4.687
 2560SOL    HW1 8130   3.742   1.952   4.651
 2560SOL    HW2 8131   3.605   2.039   4.668
 2561SOL     OW 8132   2.125   2.188   4.444
 2561SOL    HW1 8133   2.046   2.239   4.410
 2561SOL    HW2 8134   2.116   2.173   4.542
 2562SOL     OW 8135   3.056   3.474   3.755
 2562SOL    HW1 8136   3.062   3.381   3.792
 2562SOL    HW2 8137   2.997   3.474   3.675
 2563SOL     OW 8138   2.684   2.864   5.096
 2563SOL    HW1 8139   2.724   2.863   5.004
 2563SOL    HW2 8140   2.694   2.956   5.136
 2564SOL     OW 8141   2.778   2.772   4.015
 2564SOL    HW1 8142   2.841   2.810   3.947
 2564SOL    HW2 8143   2.818   2.689   4.054
 2565SOL     OW 8144   3.366   3.469   3.768
 2565SOL    HW1 8145   3.274   3.506   3.775
 2565SOL    HW2 8146   3.404   3.489   3.678
 2566SOL     OW 8147   2.901   2.960   4.420
 2566SOL    HW1 8148   2.831   2.913   4.474
 2566SOL    HW2 8149   2.960   2.892   4.377
 2567SOL     OW 8150   2.876   2.098   4.695
 2567SOL    HW1 8151   2.868   2.062   4.602
 2567SOL    HW2 8152   2.874   2.022   4.760
 2568SOL     OW 8153   2.452   3.349   4.215
 2568SOL    HW1 8154   2.494   3.291   4.145
 2568SOL    HW2 8155   2.408   3.428   4.171
 2569SOL     OW 8156   3.571   2.247   5.105
 2569SOL    HW1 8157   3.644   2.316   5.109
 2569SOL    HW2 8158   3.599   2.172   5.046
 2570SOL     OW 8159   2.117   3.210   4.014
 2570SOL    HW1 8160   2.021   3.211   3.987
 2570SOL    HW2 8161   2.129   3.263   4.098
 2571SOL     OW 8162   1.937   2.207   3.757
 2571SOL    HW1 8163   1.845   2.179   3.728
 2571SOL    HW2 8164   1.968   2.284   3.701
 2572SOL     OW 8165   1.934   2.028   4.042
 2572SOL    HW1 8166   1.917   2.111   3.988
 2572SOL    HW2 8167   2.024   1.991   4.020
 2573SOL     OW 8168   3.045   3.197   3.843
 2573SOL    HW1 8169   2.946   3.186   3.845
 2573SOL    HW2 8170   3.079   3.212   3.936
 2574SOL     OW 8171   3.355   3.629   4.683
 2574SOL    HW1 8172   3.388   3.693   4.614
 2574SOL    HW2 8173   3.421   3.623   4.758
 2575SOL     OW 8174   3.312   3.082   5.357
 2575SOL    HW1 8175   3.303   3.072   5.456
 2575SOL    HW2 8176   3.408   3.075   5.331
 2576SOL     OW 8177   3.536   2.745   4.978
 2576SOL    HW1 8178   3.509   2.656   4.941
 2576SOL    HW2 8179   3.537   2.813   4.905
 2577SOL     OW 8180   3.087   2.187   4.173
 2577SOL    HW1 8181   3.152   2.113   4.162
 2577SOL    HW2 8182   3.107   2.237   4.257
 2578SOL     OW 8183   2.456   2.607   4.376
 2578SOL    HW1 8184   2.506   2.692   4.357
 2578SOL    HW2 8185   2.368   2.609   4.328
 2579SOL     OW 8186   3.592   2.796   5.241
 2579SOL    HW1 8187   3.630   2.887   5.256
 2579SOL    HW2 8188   3.584   2.779   5.142
 2580SOL     OW 8189   2.721   3.236   3.740
 2580SOL    HW1 8190   2.675   3.251   3.828
 2580SOL    HW2 8191   2.765   3.321   3.710
 2581SOL     OW 8192   2.523   3.652   4.677
 2581SOL    HW1 8193   2.477   3.740   4.664
 2581SOL    HW2 8194   2.622   3.664   4.670
 2582SOL     OW 8195   2.721   2.818   4.585
 2582SOL    HW1 8196   2.775   2.749   4.633
 2582SOL    HW2 8197   2.689   2.887   4.651
 2583SOL     OW 8198   2.945   2.846   3.811
 2583SOL    HW1 8199   2.922   2.899   3.729
 2583SOL    HW2 8200   3.026   2.790   3.792
 2584SOL     OW 8201   3.723   3.431   4.575
 2584SOL    HW1 8202   3.652   3.419   4.505
 2584SOL    HW2 8203   3.724   3.352   4.635
 2585SOL     OW 8204   1.941   3.102   4.377
 2585SOL    HW1 8205   1.940   3.055   4.465
 2585SOL    HW2 8206   2.023   3.074   4.326
 2586SOL     OW 8207   3.686   2.054   4.951
 2586SOL    HW1 8208   3.682   1.964   4.995
 2586SOL    HW2 8209   3.689   2.043   4.852
 2587SOL     OW 8210   2.290   2.286   4.244
 2587SOL    HW1 8211   2.320   2.214   4.182
 2587SOL    HW2 8212   2.251   2.246   4.327
 2588SOL     OW 8213   3.567   3.349   4.828
 2588SOL    HW1 8214   3.474   3.324   4.801
 2588SOL    HW2 8215   3.593   3.299   4.910
 2589SOL     OW 8216   2.674   3.448   4.411
 2589SOL    HW1 8217   2.706   3.458   4.317
 2589SOL    HW2 8218   2.595   3.386   4.413
 2590SOL     OW 8219   3.286   2.076   4.836
 2590SOL    HW1 8220   3.338   2.011   4.891
 2590SOL    HW2 8221   3.237   2.139   4.897
 2591SOL     OW 8222   2.863   1.896   4.878
 2591SOL    HW1 8223   2.800   1.824   4.847
 2591SOL    HW2 8224   2.956   1.860   4.878
 2592SOL     OW 8225   2.632   3.192   4.025
 2592SOL    HW1 8226   2.586   3.105   4.042
 2592SOL    HW2 8227   2.723   3.189   4.066
 2593SOL     OW 8228   3.214   1.914   3.892
 2593SOL    HW1 8229   3.249   1.873   3.808
 2593SOL    HW2 8230   3.124   1.876   3.912
 2594SOL     OW 8231   3.162   2.315   4.415
 2594SOL    HW1 8232   3.103   2.395   4.419
 2594SOL    HW2 8233   3.177   2.280   4.508
 2595SOL     OW 8234   3.455   2.083   4.606
 2595SOL    HW1 8235   3.371   2.082   4.660
 2595SOL    HW2 8236   3.457   2.166   4.550
 2596SOL     OW 8237   1.901   2.939   4.024
 2596SOL    HW1 8238   2.000   2.928   4.015
 2596SOL    HW2 8239   1.861   2.853   4.056
 2597SOL     OW 8240   2.737   3.508   4.061
 2597SOL    HW1 8241   2.660   3.473   4.007
 2597SOL    HW2 8242   2.705   3.579   4.123
 2598SOL     OW 8243   2.092   4.352   0.113
 2598SOL    HW1 8244   1.999   4.350   0.150
 2598SOL    HW2 8245   2.093   4.313   0.021
 2599SOL     OW 8246   2.087   3.999   0.996
 2599SOL    HW1 8247   2.122   3.982   1.088
 2599SOL    HW2 8248   1.999   3.954   0.984
 2600SOL     OW 8249   1.881   4.092   0.647
 2600SOL    HW1 8250   1.799   4.135   0.686
 2600SOL    HW2 8251   1.853   4.019   0.584
 2601SOL     OW 8252   2.431   4.999   1.165
 2601SOL    HW1 8253   2.338   4.992   1.128
 2601SOL    HW2 8254   2.442   5.088   1.209
 2602SOL     OW 8255   3.417   5.235   0.703
 2602SOL    HW1 8256   3.360   5.219   0.784
 2602SOL    HW2 8257   3.358   5.245   0.623
 2603SOL     OW 8258   2.997   4.427   0.717
 2603SOL    HW1 8259   3.054   4.505   0.692
 2603SOL    HW2 8260   2.937   4.453   0.793
 2604SOL     OW 8261   3.617   4.331   0.231
 2604SOL    HW1 8262   3.605   4.318   0.132
 2604SOL    HW2 8263   3.587   4.250   0.280
 2605SOL     OW 8264   2.630   4.868   1.023
 2605SOL    HW1 8265   2.552   4.885   1.083
 2605SOL    HW2 8266   2.664   4.955   0.987
 2606SOL     OW 8267   2.712   4.522   1.823
 2606SOL    HW1 8268   2.708   4.598   1.888
 2606SOL    HW2 8269   2.734   4.558   1.732
 2607SOL     OW 8270   2.547   4.736   0.665
 2607SOL    HW1 8271   2.616   4.720   0.735
 2607SOL    HW2 8272   2.474   4.793   0.703
 2608SOL     OW 8273   2.548   4.885   1.803
 2608SOL    HW1 8274   2.608   4.964   1.817
 2608SOL    HW2 8275   2.462   4.916   1.762
 2609SOL     OW 8276   2.197   5.159   1.061
 2609SOL    HW1 8277   2.119   5.128   1.008
 2609SOL    HW2 8278   2.255   5.217   1.004
 2610SOL     OW 8279   2.300   4.116   1.499
 2610SOL    HW1 8280   2.382   4.060   1.508
 2610SOL    HW2 8281   2.219   4.058   1.503
 2611SOL     OW 8282   3.465   4.171   0.737
 2611SOL    HW1 8283   3.391   4.217   0.687
 2611SOL    HW2 8284   3.516   4.239   0.790
 2612SOL     OW 8285   2.102   4.815   0.886
 2612SOL    HW1 8286   2.116   4.731   0.938
 2612SOL    HW2 8287   2.047   4.879   0.941
 2613SOL     OW 8288   2.468   4.688   0.123
 2613SOL    HW1 8289   2.475   4.772   0.069
 2613SOL    HW2 8290   2.514   4.701   0.211
 2614SOL     OW 8291   3.456   3.838   1.480
 2614SOL    HW1 8292   3.438   3.905   1.408
 2614SOL    HW2 8293   3.453   3.884   1.569
 2615SOL     OW 8294   1.984   4.367   0.563
 2615SOL    HW1 8295   1.939   4.279   0.580
 2615SOL    HW2 8296   1.983   4.421   0.647
 2616SOL     OW 8297   3.551   4.646   0.612
 2616SOL    HW1 8298   3.646   4.617   0.620
 2616SOL    HW2 8299   3.543   4.711   0.537
 2617SOL     OW 8300   3.503   4.832   0.432
 2617SOL    HW1 8301   3.589   4.834   0.380
 2617SOL    HW2 8302   3.517   4.879   0.520
 2618SOL     OW 8303   1.975   4.461   1.597
 2618SOL    HW1 8304   2.063   4.448   1.642
 2618SOL    HW2 8305   1.962   4.558   1.575
 2619SOL     OW 8306   3.155   4.952   1.423
 2619SOL    HW1 8307   3.192   4.879   1.365
 2619SOL    HW2 8308   3.207   4.957   1.508
 2620SOL     OW 8309   2.671   3.728   0.502
 2620SOL    HW1 8310   2.711   3.819   0.493
 2620SOL    HW2 8311   2.571   3.736   0.508
 2621SOL     OW 8312   2.059   4.700   1.264
 2621SOL    HW1 8313   2.148   4.655   1.250
 2621SOL    HW2 8314   1.986   4.635   1.245
 2622SOL     OW 8315   3.387   4.723   0.190
 2622SOL    HW1 8316   3.324   4.647   0.203
 2622SOL    HW2 8317   3.435   4.741   0.276
 2623SOL     OW 8318   3.328   5.141   0.953
 2623SOL    HW1 8319   3.269   5.147   1.033
 2623SOL    HW2 8320   3.313   5.053   0.907
 2624SOL     OW 8321   2.460   4.453   0.270
 2624SOL    HW1 8322   2.484   4.522   0.202
 2624SOL    HW2 8323   2.382   4.486   0.324
 2625SOL     OW 8324   3.143   4.069   0.944
 2625SOL    HW1 8325   3.057   4.019   0.931
 2625SOL    HW2 8326   3.205   4.015   1.000
 2626SOL     OW 8327   2.669   4.329   1.465
 2626SOL    HW1 8328   2.622   4.326   1.554
 2626SOL    HW2 8329   2.618   4.274   1.399
 2627SOL     OW 8330   3.256   4.193   1.674
 2627SOL    HW1 8331   3.236   4.236   1.762
 2627SOL    HW2 8332   3.334   4.131   1.683
 2628SOL     OW 8333   2.835   4.614   1.572
 2628SOL    HW1 8334   2.881   4.530   1.543
 2628SOL    HW2 8335   2.779   4.648   1.497
 2629SOL     OW 8336   2.853   4.134   1.242
 2629SOL    HW1 8337   2.776   4.168   1.296
 2629SOL    HW2 8338   2.819   4.083   1.163
 2630SOL     OW 8339   2.903   4.425   0.429
 2630SOL    HW1 8340   2.929   4.421   0.525
 2630SOL    HW2 8341   2.818   4.374   0.415
 2631SOL     OW 8342   1.938   4.535   0.789
 2631SOL    HW1 8343   2.037   4.523   0.798
 2631SOL    HW2 8344   1.914   4.630   0.810
 2632SOL     OW 8345   2.727   4.072   0.195
 2632SOL    HW1 8346   2.786   4.135   0.146
 2632SOL    HW2 8347   2.746   3.978   0.166
 2633SOL     OW 8348   3.581   4.309   1.831
 2633SOL    HW1 8349   3.555   4.398   1.795
 2633SOL    HW2 8350   3.579   4.241   1.758
 2634SOL     OW 8351   3.224   4.868   0.545
 2634SOL    HW1 8352   3.307   4.839   0.497
 2634SOL    HW2 8353   3.175   4.935   0.489
 2635SOL     OW 8354   2.412   3.920   0.885
 2635SOL    HW1 8355   2.407   3.915   0.985
 2635SOL    HW2 8356   2.414   4.016   0.856
 2636SOL     OW 8357   3.657   4.790   0.873
 2636SOL    HW1 8358   3.595   4.775   0.797
 2636SOL    HW2 8359   3.605   4.801   0.958
 2637SOL     OW 8360   2.183   4.667   0.242
 2637SOL    HW1 8361   2.265   4.706   0.200
 2637SOL    HW2 8362   2.156   4.585   0.193
 2638SOL     OW 8363   3.320   4.459   0.728
 2638SOL    HW1 8364   3.315   4.394   0.803
 2638SOL    HW2 8365   3.400   4.518   0.741
 2639SOL     OW 8366   3.494   5.101   0.081
 2639SOL    HW1 8367   3.462   5.195   0.071
 2639SOL    HW2 8368   3.418   5.038   0.069
 2640SOL     OW 8369   3.262   3.831   0.426
 2640SOL    HW1 8370   3.238   3.794   0.336
 2640SOL    HW2 8371   3.361   3.847   0.430
 2641SOL     OW 8372   2.244   4.424   0.480
 2641SOL    HW1 8373   2.289   4.334   0.477
 2641SOL    HW2 8374   2.150   4.413   0.513
 2642SOL     OW 8375   3.409   3.946   1.729
 2642SOL    HW1 8376   3.404   3.983   1.821
 2642SOL    HW2 8377   3.337   3.877   1.717
 2643SOL     OW 8378   2.643   3.988   1.749
 2643SOL    HW1 8379   2.710   3.927   1.792
 2643SOL    HW2 8380   2.570   4.007   1.814
 2644SOL     OW 8381   3.213   4.314   1.433
 2644SOL    HW1 8382   3.241   4.271   1.518
 2644SOL    HW2 8383   3.238   4.410   1.434
 2645SOL     OW 8384   2.665   5.126   0.924
 2645SOL    HW1 8385   2.755   5.140   0.882
 2645SOL    HW2 8386   2.594   5.128   0.853
 2646SOL     OW 8387   2.784   4.227   0.899
 2646SOL    HW1 8388   2.759   4.218   0.803
 2646SOL    HW2 8389   2.832   4.145   0.930
 2647SOL     OW 8390   2.401   3.788   0.512
 2647SOL    HW1 8391   2.320   3.789   0.570
 2647SOL    HW2 8392   2.404   3.871   0.457
 2648SOL     OW 8393   3.296   4.912   0.041
 2648SOL    HW1 8394   3.328   4.836   0.098
 2648SOL    HW2 8395   3.204   4.939   0.071
 2649SOL     OW 8396   2.159   3.759   0.171
 2649SOL    HW1 8397   2.208   3.843   0.150
 2649SOL    HW2 8398   2.221   3.694   0.216
 2650SOL     OW 8399   2.797   3.960   0.480
 2650SOL    HW1 8400   2.749   4.001   0.402
 2650SOL    HW2 8401   2.896   3.958   0.461
 2651SOL     OW 8402   2.938   4.407   1.464
 2651SOL    HW1 8403   2.858   4.346   1.467
 2651SOL    HW2 8404   3.019   4.354   1.440
 2652SOL     OW 8405   3.089   5.294   0.793
 2652SOL    HW1 8406   3.110   5.368   0.728
 2652SOL    HW2 8407   3.157   5.294   0.866
 2653SOL     OW 8408   2.321   4.876   0.741
 2653SOL    HW1 8409   2.250   4.849   0.806
 2653SOL    HW2 8410   2.295   4.848   0.648
 2654SOL     OW 8411   2.894   4.273   0.016
 2654SOL    HW1 8412   2.853   4.355  -0.023
 2654SOL    HW2 8413   2.958   4.299   0.089
 2655SOL     OW 8414   1.940   4.280   1.386
 2655SOL    HW1 8415   2.032   4.279   1.345
 2655SOL    HW2 8416   1.934   4.354   1.453
 2656SOL     OW 8417   2.423   3.946   1.147
 2656SOL    HW1 8418   2.461   3.862   1.184
 2656SOL    HW2 8419   2.335   3.965   1.191
 2657SOL     OW 8420   2.728   4.178   0.642
 2657SOL    HW1 8421   2.696   4.250   0.580
 2657SOL    HW2 8422   2.752   4.097   0.589
 2658SOL     OW 8423   2.879   3.763   0.753
 2658SOL    HW1 8424   2.807   3.768   0.684
 2658SOL    HW2 8425   2.855   3.694   0.822
 2659SOL     OW 8426   3.291   4.897   0.867
 2659SOL    HW1 8427   3.236   4.813   0.860
 2659SOL    HW2 8428   3.317   4.926   0.775
 2660SOL     OW 8429   3.328   4.314   0.992
 2660SOL    HW1 8430   3.298   4.219   0.999
 2660SOL    HW2 8431   3.401   4.330   1.058
 2661SOL     OW 8432   3.719   4.557   0.377
 2661SOL    HW1 8433   3.761   4.493   0.441
 2661SOL    HW2 8434   3.681   4.506   0.299
 2662SOL     OW 8435   3.526   5.004   0.657
 2662SOL    HW1 8436   3.625   5.012   0.671
 2662SOL    HW2 8437   3.481   5.088   0.688
 2663SOL     OW 8438   3.252   4.299   0.078
 2663SOL    HW1 8439   3.198   4.278   0.159
 2663SOL    HW2 8440   3.343   4.258   0.087
 2664SOL     OW 8441   2.389   3.980   0.328
 2664SOL    HW1 8442   2.416   3.921   0.253
 2664SOL    HW2 8443   2.389   4.075   0.297
 2665SOL     OW 8444   3.616   4.947   1.588
 2665SOL    HW1 8445   3.707   4.908   1.575
 2665SOL    HW2 8446   3.624   5.043   1.612
 2666SOL     OW 8447   3.500   4.823   1.079
 2666SOL    HW1 8448   3.505   4.904   1.138
 2666SOL    HW2 8449   3.414   4.825   1.028
 2667SOL     OW 8450   2.777   3.813   1.402
 2667SOL    HW1 8451   2.802   3.793   1.307
 2667SOL    HW2 8452   2.849   3.869   1.444
 2668SOL     OW 8453   2.842   4.840   1.719
 2668SOL    HW1 8454   2.743   4.846   1.729
 2668SOL    HW2 8455   2.865   4.760   1.663
 2669SOL     OW 8456   2.567   4.774   0.368
 2669SOL    HW1 8457   2.553   4.781   0.467
 2669SOL    HW2 8458   2.651   4.723   0.350
 2670SOL     OW 8459   2.272   4.537   1.251
 2670SOL    HW1 8460   2.358   4.549   1.301
 2670SOL    HW2 8461   2.230   4.450   1.278
 2671SOL     OW 8462   3.136   4.110   1.262
 2671SOL    HW1 8463   3.157   4.184   1.326
 2671SOL    HW2 8464   3.047   4.127   1.219
 2672SOL     OW 8465   2.229   4.824   0.501
 2672SOL    HW1 8466   2.222   4.907   0.445
 2672SOL    HW2 8467   2.233   4.744   0.441
 2673SOL     OW 8468   2.428   4.261   0.865
 2673SOL    HW1 8469   2.440   4.327   0.791
 2673SOL    HW2 8470   2.474   4.295   0.948
 2674SOL     OW 8471   3.444   4.363   0.472
 2674SOL    HW1 8472   3.413   4.424   0.545
 2674SOL    HW2 8473   3.494   4.415   0.403
 2675SOL     OW 8474   2.264   4.475   1.598
 2675SOL    HW1 8475   2.332   4.530   1.551
 2675SOL    HW2 8476   2.304   4.387   1.625
 2676SOL     OW 8477   3.449   4.503   1.670
 2676SOL    HW1 8478   3.357   4.541   1.665
 2676SOL    HW2 8479   3.509   4.550   1.605
 2677SOL     OW 8480   2.875   3.829   1.770
 2677SOL    HW1 8481   2.881   3.914   1.718
 2677SOL    HW2 8482   2.907   3.753   1.713
 2678SOL     OW 8483   2.435   4.594   1.029
 2678SOL    HW1 8484   2.479   4.683   1.020
 2678SOL    HW2 8485   2.372   4.594   1.106
 2679SOL     OW 8486   3.222   4.586   1.045
 2679SOL    HW1 8487   3.147   4.586   0.979
 2679SOL    HW2 8488   3.259   4.494   1.054
 2680SOL     OW 8489   3.071   4.249   0.275
 2680SOL    HW1 8490   3.084   4.165   0.329
 2680SOL    HW2 8491   3.042   4.323   0.335
 2681SOL     OW 8492   2.594   4.358   1.064
 2681SOL    HW1 8493   2.653   4.332   0.988
 2681SOL    HW2 8494   2.566   4.454   1.053
 2682SOL     OW 8495   3.590   4.659   1.854
 2682SOL    HW1 8496   3.544   4.652   1.765
 2682SOL    HW2 8497   3.528   4.703   1.920
 2683SOL     OW 8498   2.169   3.787   0.618
 2683SOL    HW1 8499   2.158   3.881   0.651
 2683SOL    HW2 8500   2.164   3.724   0.695
 2684SOL     OW 8501   3.484   4.091   0.374
 2684SOL    HW1 8502   3.486   4.015   0.438
 2684SOL    HW2 8503   3.436   4.168   0.414
 2685SOL     OW 8504   2.885   4.490   0.966
 2685SOL    HW1 8505   2.900   4.511   1.062
 2685SOL    HW2 8506   2.855   4.395   0.957
 2686SOL     OW 8507   3.721   5.242   1.605
 2686SOL    HW1 8508   3.735   5.269   1.510
 2686SOL    HW2 8509   3.804   5.264   1.658
 2687SOL     OW 8510   2.212   4.622   1.804
 2687SOL    HW1 8511   2.288   4.666   1.852
 2687SOL    HW2 8512   2.247   4.575   1.722
 2688SOL     OW 8513   3.402   3.998   0.125
 2688SOL    HW1 8514   3.341   3.923   0.148
 2688SOL    HW2 8515   3.424   4.050   0.208
 2689SOL     OW 8516   3.165   4.562   0.042
 2689SOL    HW1 8517   3.199   4.469   0.057
 2689SOL    HW2 8518   3.183   4.589  -0.053
 2690SOL     OW 8519   2.181   4.534   0.949
 2690SOL    HW1 8520   2.274   4.570   0.954
 2690SOL    HW2 8521   2.175   4.449   1.001
 2691SOL     OW 8522   2.201   4.233   1.006
 2691SOL    HW1 8523   2.149   4.150   0.989
 2691SOL    HW2 8524   2.278   4.238   0.942
 2692SOL     OW 8525   3.000   4.104   1.678
 2692SOL    HW1 8526   2.955   4.167   1.742
 2692SOL    HW2 8527   3.093   4.135   1.661
 2693SOL     OW 8528   3.022   3.931   1.477
 2693SOL    HW1 8529   3.022   3.995   1.554
 2693SOL    HW2 8530   3.050   3.979   1.394
 2694SOL     OW 8531   2.864   4.520   1.238
 2694SOL    HW1 8532   2.905   4.488   1.324
 2694SOL    HW2 8533   2.768   4.493   1.235
 2695SOL     OW 8534   2.051   4.244   1.722
 2695SOL    HW1 8535   2.110   4.204   1.652
 2695SOL    HW2 8536   1.993   4.315   1.681
 2696SOL     OW 8537   3.231   4.674   1.660
 2696SOL    HW1 8538   3.270   4.763   1.680
 2696SOL    HW2 8539   3.241   4.654   1.563
 2697SOL     OW 8540   2.677   4.296   0.325
 2697SOL    HW1 8541   2.684   4.207   0.279
 2697SOL    HW2 8542   2.583   4.330   0.317
 2698SOL     OW 8543   3.519   4.328   1.206
 2698SOL    HW1 8544   3.481   4.259   1.268
 2698SOL    HW2 8545   3.601   4.292   1.162
 2699SOL     OW 8546   2.533   4.188   1.269
 2699SOL    HW1 8547   2.499   4.099   1.239
 2699SOL    HW2 8548   2.559   4.242   1.189
 2700SOL     OW 8549   2.335   4.224   0.191
 2700SOL    HW1 8550   2.396   4.304   0.195
 2700SOL    HW2 8551   2.240   4.255   0.198
 2701SOL     OW 8552   2.021   4.861   1.466
 2701SOL    HW1 8553   2.043   4.800   1.542
 2701SOL    HW2 8554   2.031   4.812   1.380
 2702SOL     OW 8555   3.209   4.783   1.234
 2702SOL    HW1 8556   3.233   4.720   1.160
 2702SOL    HW2 8557   3.119   4.823   1.216
 2703SOL     OW 8558   3.164   4.579   0.309
 2703SOL    HW1 8559   3.078   4.548   0.351
 2703SOL    HW2 8560   3.160   4.565   0.210
 2704SOL     OW 8561   1.945   4.982   1.022
 2704SOL    HW1 8562   1.940   4.981   1.122
 2704SOL    HW2 8563   1.862   4.941   0.984
 2705SOL     OW 8564   2.765   3.810   0.133
 2705SOL    HW1 8565   2.816   3.811   0.047
 2705SOL    HW2 8566   2.821   3.768   0.204
 2706SOL     OW 8567   3.588   3.859   0.523
 2706SOL    HW1 8568   3.661   3.842   0.456
 2706SOL    HW2 8569   3.557   3.772   0.561
 2707SOL     OW 8570   3.142   4.651   0.672
 2707SOL    HW1 8571   3.202   4.570   0.674
 2707SOL    HW2 8572   3.182   4.720   0.612
 2708SOL     OW 8573   2.692   4.997   1.422
 2708SOL    HW1 8574   2.687   5.030   1.517
 2708SOL    HW2 8575   2.606   5.016   1.376
 2709SOL     OW 8576   3.703   3.899   0.963
 2709SOL    HW1 8577   3.742   3.814   0.927
 2709SOL    HW2 8578   3.605   3.901   0.944
 2710SOL     OW 8579   2.125   4.050   0.720
 2710SOL    HW1 8580   2.046   4.101   0.686
 2710SOL    HW2 8581   2.116   4.035   0.818
 2711SOL     OW 8582   2.684   4.726   1.372
 2711SOL    HW1 8583   2.724   4.725   1.280
 2711SOL    HW2 8584   2.694   4.818   1.412
 2712SOL     OW 8585   2.778   4.634   0.291
 2712SOL    HW1 8586   2.841   4.672   0.223
 2712SOL    HW2 8587   2.818   4.551   0.330
 2713SOL     OW 8588   2.234   5.012   1.490
 2713SOL    HW1 8589   2.221   5.105   1.456
 2713SOL    HW2 8590   2.150   4.960   1.477
 2714SOL     OW 8591   3.476   5.016   1.289
 2714SOL    HW1 8592   3.536   5.019   1.369
 2714SOL    HW2 8593   3.401   5.080   1.302
 2715SOL     OW 8594   2.901   4.822   0.696
 2715SOL    HW1 8595   2.831   4.775   0.750
 2715SOL    HW2 8596   2.960   4.754   0.653
 2716SOL     OW 8597   2.876   3.960   0.971
 2716SOL    HW1 8598   2.868   3.924   0.878
 2716SOL    HW2 8599   2.874   3.884   1.036
 2717SOL     OW 8600   3.571   4.109   1.381
 2717SOL    HW1 8601   3.644   4.178   1.385
 2717SOL    HW2 8602   3.599   4.034   1.322
 2718SOL     OW 8603   1.967   4.737   1.726
 2718SOL    HW1 8604   1.890   4.704   1.780
 2718SOL    HW2 8605   2.052   4.707   1.768
 2719SOL     OW 8606   2.534   3.927   1.489
 2719SOL    HW1 8607   2.624   3.911   1.449
 2719SOL    HW2 8608   2.542   3.932   1.588
 2720SOL     OW 8609   3.302   4.580   1.398
 2720SOL    HW1 8610   3.245   4.632   1.335
 2720SOL    HW2 8611   3.398   4.592   1.374
 2721SOL     OW 8612   1.934   3.890   0.318
 2721SOL    HW1 8613   1.917   3.973   0.264
 2721SOL    HW2 8614   2.024   3.853   0.296
 2722SOL     OW 8615   2.475   4.566   1.431
 2722SOL    HW1 8616   2.531   4.647   1.414
 2722SOL    HW2 8617   2.534   4.486   1.434
 2723SOL     OW 8618   2.578   4.289   1.708
 2723SOL    HW1 8619   2.597   4.354   1.782
 2723SOL    HW2 8620   2.638   4.209   1.717
 2724SOL     OW 8621   3.312   4.944   1.633
 2724SOL    HW1 8622   3.303   4.934   1.732
 2724SOL    HW2 8623   3.408   4.937   1.607
 2725SOL     OW 8624   3.536   4.607   1.254
 2725SOL    HW1 8625   3.509   4.518   1.217
 2725SOL    HW2 8626   3.537   4.675   1.181
 2726SOL     OW 8627   3.087   4.049   0.449
 2726SOL    HW1 8628   3.152   3.975   0.438
 2726SOL    HW2 8629   3.107   4.099   0.533
 2727SOL     OW 8630   2.456   4.469   0.652
 2727SOL    HW1 8631   2.506   4.554   0.633
 2727SOL    HW2 8632   2.368   4.471   0.604
 2728SOL     OW 8633   3.639   4.066   1.642
 2728SOL    HW1 8634   3.622   4.097   1.548
 2728SOL    HW2 8635   3.555   4.029   1.680
 2729SOL     OW 8636   3.592   4.658   1.517
 2729SOL    HW1 8637   3.630   4.749   1.532
 2729SOL    HW2 8638   3.584   4.641   1.418
 2730SOL     OW 8639   2.721   4.680   0.861
 2730SOL    HW1 8640   2.775   4.611   0.909
 2730SOL    HW2 8641   2.689   4.749   0.927
 2731SOL     OW 8642   2.945   4.708   0.087
 2731SOL    HW1 8643   2.922   4.761   0.005
 2731SOL    HW2 8644   3.026   4.652   0.068
 2732SOL     OW 8645   1.941   4.964   0.653
 2732SOL    HW1 8646   1.940   4.917   0.741
 2732SOL    HW2 8647   2.023   4.936   0.602
 2733SOL     OW 8648   3.686   3.916   1.227
 2733SOL    HW1 8649   3.682   3.826   1.271
 2733SOL    HW2 8650   3.689   3.905   1.128
 2734SOL     OW 8651   2.290   4.148   0.520
 2734SOL    HW1 8652   2.320   4.076   0.458
 2734SOL    HW2 8653   2.251   4.108   0.603
 2735SOL     OW 8654   2.179   4.271   1.280
 2735SOL    HW1 8655   2.217   4.212   1.352
 2735SOL    HW2 8656   2.219   4.245   1.192
 2736SOL     OW 8657   3.286   3.938   1.112
 2736SOL    HW1 8658   3.338   3.873   1.167
 2736SOL    HW2 8659   3.237   4.001   1.173
 2737SOL     OW 8660   2.863   3.758   1.154
 2737SOL    HW1 8661   2.800   3.686   1.123
 2737SOL    HW2 8662   2.956   3.722   1.154
 2738SOL     OW 8663   2.632   5.054   0.301
 2738SOL    HW1 8664   2.586   4.967   0.318
 2738SOL    HW2 8665   2.723   5.051   0.342
 2739SOL     OW 8666   3.214   3.776   0.168
 2739SOL    HW1 8667   3.249   3.735   0.084
 2739SOL    HW2 8668   3.124   3.738   0.188
 2740SOL     OW 8669   3.162   4.177   0.691
 2740SOL    HW1 8670   3.103   4.257   0.695
 2740SOL    HW2 8671   3.177   4.142   0.784
 2741SOL     OW 8672   3.455   3.945   0.882
 2741SOL    HW1 8673   3.371   3.944   0.936
 2741SOL    HW2 8674   3.457   4.028   0.826
 2742SOL     OW 8675   1.901   4.801   0.300
 2742SOL    HW1 8676   2.000   4.790   0.291
 2742SOL    HW2 8677   1.861   4.715   0.332
 2743SOL     OW 8678   2.092   4.352   1.975
 2743SOL    HW1 8679   1.999   4.350   2.012
 2743SOL    HW2 8680   2.093   4.313   1.883
 2744SOL     OW 8681   2.087   3.999   2.858
 2744SOL    HW1 8682   2.122   3.982   2.950
 2744SOL    HW2 8683   1.999   3.954   2.846
 2745SOL     OW 8684   1.881   4.092   2.509
 2745SOL    HW1 8685   1.799   4.135   2.548
 2745SOL    HW2 8686   1.853   4.019   2.446
 2746SOL     OW 8687   2.431   4.999   3.027
 2746SOL    HW1 8688   2.338   4.992   2.990
 2746SOL    HW2 8689   2.442   5.088   3.071
 2747SOL     OW 8690   3.417   5.235   2.565
 2747SOL    HW1 8691   3.360   5.219   2.646
 2747SOL    HW2 8692   3.358   5.245   2.485
 2748SOL     OW 8693   2.997   4.427   2.579
 2748SOL    HW1 8694   3.054   4.505   2.554
 2748SOL    HW2 8695   2.937   4.453   2.655
 2749SOL     OW 8696   3.617   4.331   2.093
 2749SOL    HW1 8697   3.605   4.318   1.994
 2749SOL    HW2 8698   3.587   4.250   2.142
 2750SOL     OW 8699   2.630   4.868   2.885
 2750SOL    HW1 8700   2.552   4.885   2.945
 2750SOL    HW2 8701   2.664   4.955   2.849
 2751SOL     OW 8702   2.712   4.522   3.685
 2751SOL    HW1 8703   2.708   4.598   3.750
 2751SOL    HW2 8704   2.734   4.558   3.594
 2752SOL     OW 8705   2.547   4.736   2.527
 2752SOL    HW1 8706   2.616   4.720   2.597
 2752SOL    HW2 8707   2.474   4.793   2.565
 2753SOL     OW 8708   2.548   4.885   3.665
 2753SOL    HW1 8709   2.608   4.964   3.679
 2753SOL    HW2 8710   2.462   4.916   3.624
 2754SOL     OW 8711   2.197   5.159   2.923
 2754SOL    HW1 8712   2.119   5.128   2.870
 2754SOL    HW2 8713   2.255   5.217   2.866
 2755SOL     OW 8714   2.300   4.116   3.361
 2755SOL    HW1 8715   2.382   4.060   3.370
 2755SOL    HW2 8716   2.219   4.058   3.365
 2756SOL     OW 8717   3.465   4.171   2.599
 2756SOL    HW1 8718   3.391   4.217   2.549
 2756SOL    HW2 8719   3.516   4.239   2.652
 2757SOL     OW 8720   2.468   4.688   1.985
 2757SOL    HW1 8721   2.475   4.772   1.931
 2757SOL    HW2 8722   2.514   4.701   2.073
 2758SOL     OW 8723   3.456   3.838   3.342
 2758SOL    HW1 8724   3.438   3.905   3.270
 2758SOL    HW2 8725   3.453   3.884   3.431
 2759SOL     OW 8726   1.984   4.367   2.425
 2759SOL    HW1 8727   1.939   4.279   2.442
 2759SOL    HW2 8728   1.983   4.421   2.509
 2760SOL     OW 8729   3.551   4.646   2.474
 2760SOL    HW1 8730   3.646   4.617   2.482
 2760SOL    HW2 8731   3.543   4.711   2.399
 2761SOL     OW 8732   3.503   4.832   2.294
 2761SOL    HW1 8733   3.589   4.834   2.242
 2761SOL    HW2 8734   3.517   4.879   2.382
 2762SOL     OW 8735   3.155   4.952   3.285
 2762SOL    HW1 8736   3.192   4.879   3.227
 2762SOL    HW2 8737   3.207   4.957   3.370
 2763SOL     OW 8738   2.671   3.728   2.364
 2763SOL    HW1 8739   2.711   3.819   2.355
 2763SOL    HW2 8740   2.571   3.736   2.370
 2764SOL     OW 8741   3.387   4.723   2.052
 2764SOL    HW1 8742   3.324   4.647   2.065
 2764SOL    HW2 8743   3.435   4.741   2.138
 2765SOL     OW 8744   2.179   3.975   3.663
 2765SOL    HW1 8745   2.250   4.046   3.669
 2765SOL    HW2 8746   2.091   4.014   3.691
 2766SOL     OW 8747   3.328   5.141   2.815
 2766SOL    HW1 8748   3.269   5.147   2.895
 2766SOL    HW2 8749   3.313   5.053   2.769
 2767SOL     OW 8750   2.460   4.453   2.132
 2767SOL    HW1 8751   2.484   4.522   2.064
 2767SOL    HW2 8752   2.382   4.486   2.186
 2768SOL     OW 8753   3.143   4.069   2.806
 2768SOL    HW1 8754   3.057   4.019   2.793
 2768SOL    HW2 8755   3.205   4.015   2.862
 2769SOL     OW 8756   2.669   4.329   3.327
 2769SOL    HW1 8757   2.622   4.326   3.416
 2769SOL    HW2 8758   2.618   4.274   3.261
 2770SOL     OW 8759   3.256   4.193   3.536
 2770SOL    HW1 8760   3.236   4.236   3.624
 2770SOL    HW2 8761   3.334   4.131   3.545
 2771SOL     OW 8762   2.835   4.614   3.434
 2771SOL    HW1 8763   2.881   4.530   3.405
 2771SOL    HW2 8764   2.779   4.648   3.359
 2772SOL     OW 8765   2.853   4.134   3.104
 2772SOL    HW1 8766   2.776   4.168   3.158
 2772SOL    HW2 8767   2.819   4.083   3.025
 2773SOL     OW 8768   2.903   4.425   2.291
 2773SOL    HW1 8769   2.929   4.421   2.387
 2773SOL    HW2 8770   2.818   4.374   2.277
 2774SOL     OW 8771   1.938   4.535   2.651
 2774SOL    HW1 8772   2.037   4.523   2.660
 2774SOL    HW2 8773   1.914   4.630   2.672
 2775SOL     OW 8774   2.727   4.072   2.057
 2775SOL    HW1 8775   2.786   4.135   2.008
 2775SOL    HW2 8776   2.746   3.978   2.028
 2776SOL     OW 8777   3.581   4.309   3.693
 2776SOL    HW1 8778   3.555   4.398   3.657
 2776SOL    HW2 8779   3.579   4.241   3.620
 2777SOL     OW 8780   3.224   4.868   2.407
 2777SOL    HW1 8781   3.307   4.839   2.359
 2777SOL    HW2 8782   3.175   4.935   2.351
 2778SOL     OW 8783   2.412   3.920   2.747
 2778SOL    HW1 8784   2.407   3.915   2.847
 2778SOL    HW2 8785   2.414   4.016   2.718
 2779SOL     OW 8786   3.657   4.790   2.735
 2779SOL    HW1 8787   3.595   4.775   2.659
 2779SOL    HW2 8788   3.605   4.801   2.820
 2780SOL     OW 8789   2.183   4.667   2.104
 2780SOL    HW1 8790   2.265   4.706   2.062
 2780SOL    HW2 8791   2.156   4.585   2.055
 2781SOL     OW 8792   3.320   4.459   2.590
 2781SOL    HW1 8793   3.315   4.394   2.665
 2781SOL    HW2 8794   3.400   4.518   2.603
 2782SOL     OW 8795   2.064   4.009   3.360
 2782SOL    HW1 8796   1.984   4.069   3.347
 2782SOL    HW2 8797   2.054   3.960   3.446
 2783SOL     OW 8798   3.494   5.101   1.943
 2783SOL    HW1 8799   3.462   5.195   1.933
 2783SOL    HW2 8800   3.418   5.038   1.931
 2784SOL     OW 8801   3.262   3.831   2.288
 2784SOL    HW1 8802   3.238   3.794   2.198
 2784SOL    HW2 8803   3.361   3.847   2.292
 2785SOL     OW 8804   2.244   4.424   2.342
 2785SOL    HW1 8805   2.289   4.334   2.339
 2785SOL    HW2 8806   2.150   4.413   2.375
 2786SOL     OW 8807   3.409   3.946   3.591
 2786SOL    HW1 8808   3.404   3.983   3.683
 2786SOL    HW2 8809   3.337   3.877   3.579
 2787SOL     OW 8810   2.643   3.988   3.611
 2787SOL    HW1 8811   2.710   3.927   3.654
 2787SOL    HW2 8812   2.570   4.007   3.676
 2788SOL     OW 8813   3.213   4.314   3.295
 2788SOL    HW1 8814   3.241   4.271   3.380
 2788SOL    HW2 8815   3.238   4.410   3.296
 2789SOL     OW 8816   2.665   5.126   2.786
 2789SOL    HW1 8817   2.755   5.140   2.744
 2789SOL    HW2 8818   2.594   5.128   2.715
 2790SOL     OW 8819   2.784   4.227   2.761
 2790SOL    HW1 8820   2.759   4.218   2.665
 2790SOL    HW2 8821   2.832   4.145   2.792
 2791SOL     OW 8822   2.401   3.788   2.374
 2791SOL    HW1 8823   2.320   3.789   2.432
 2791SOL    HW2 8824   2.404   3.871   2.319
 2792SOL     OW 8825   3.296   4.912   1.903
 2792SOL    HW1 8826   3.328   4.836   1.960
 2792SOL    HW2 8827   3.204   4.939   1.933
 2793SOL     OW 8828   2.797   3.960   2.342
 2793SOL    HW1 8829   2.749   4.001   2.264
 2793SOL    HW2 8830   2.896   3.958   2.323
 2794SOL     OW 8831   2.938   4.407   3.326
 2794SOL    HW1 8832   2.858   4.346   3.329
 2794SOL    HW2 8833   3.019   4.354   3.302
 2795SOL     OW 8834   3.089   5.294   2.655
 2795SOL    HW1 8835   3.110   5.368   2.590
 2795SOL    HW2 8836   3.157   5.294   2.728
 2796SOL     OW 8837   2.321   4.876   2.603
 2796SOL    HW1 8838   2.250   4.849   2.668
 2796SOL    HW2 8839   2.295   4.848   2.510
 2797SOL     OW 8840   2.894   4.273   1.878
 2797SOL    HW1 8841   2.853   4.355   1.839
 2797SOL    HW2 8842   2.958   4.299   1.951
 2798SOL     OW 8843   1.940   4.280   3.248
 2798SOL    HW1 8844   2.032   4.279   3.207
 2798SOL    HW2 8845   1.934   4.354   3.315
 2799SOL     OW 8846   2.423   3.946   3.009
 2799SOL    HW1 8847   2.461   3.862   3.046
 2799SOL    HW2 8848   2.335   3.965   3.053
 2800SOL     OW 8849   2.728   4.178   2.504
 2800SOL    HW1 8850   2.696   4.250   2.442
 2800SOL    HW2 8851   2.752   4.097   2.451
 2801SOL     OW 8852   2.879   3.763   2.615
 2801SOL    HW1 8853   2.807   3.768   2.546
 2801SOL    HW2 8854   2.855   3.694   2.684
 2802SOL     OW 8855   3.291   4.897   2.729
 2802SOL    HW1 8856   3.236   4.813   2.722
 2802SOL    HW2 8857   3.317   4.926   2.637
 2803SOL     OW 8858   3.328   4.314   2.854
 2803SOL    HW1 8859   3.298   4.219   2.861
 2803SOL    HW2 8860   3.401   4.330   2.920
 2804SOL     OW 8861   3.719   4.557   2.239
 2804SOL    HW1 8862   3.761   4.493   2.303
 2804SOL    HW2 8863   3.681   4.506   2.161
 2805SOL     OW 8864   3.526   5.004   2.519
 2805SOL    HW1 8865   3.625   5.012   2.533
 2805SOL    HW2 8866   3.481   5.088   2.550
 2806SOL     OW 8867   3.252   4.299   1.940
 2806SOL    HW1 8868   3.198   4.278   2.021
 2806SOL    HW2 8869   3.343   4.258   1.949
 2807SOL     OW 8870   2.389   3.980   2.190
 2807SOL    HW1 8871   2.416   3.921   2.115
 2807SOL    HW2 8872   2.389   4.075   2.159
 2808SOL     OW 8873   3.616   4.947   3.450
 2808SOL    HW1 8874   3.707   4.908   3.437
 2808SOL    HW2 8875   3.624   5.043   3.474
 2809SOL     OW 8876   3.500   4.823   2.941
 2809SOL    HW1 8877   3.505   4.904   3.000
 2809SOL    HW2 8878   3.414   4.825   2.890
 2810SOL     OW 8879   2.777   3.813   3.264
 2810SOL    HW1 8880   2.802   3.793   3.169
 2810SOL    HW2 8881   2.849   3.869   3.306
 2811SOL     OW 8882   2.842   4.840   3.581
 2811SOL    HW1 8883   2.743   4.846   3.591
 2811SOL    HW2 8884   2.865   4.760   3.525
 2812SOL     OW 8885   2.567   4.774   2.230
 2812SOL    HW1 8886   2.553   4.781   2.329
 2812SOL    HW2 8887   2.651   4.723   2.212
 2813SOL     OW 8888   3.136   4.110   3.124
 2813SOL    HW1 8889   3.157   4.184   3.188
 2813SOL    HW2 8890   3.047   4.127   3.081
 2814SOL     OW 8891   2.229   4.824   2.363
 2814SOL    HW1 8892   2.222   4.907   2.307
 2814SOL    HW2 8893   2.233   4.744   2.303
 2815SOL     OW 8894   2.428   4.261   2.727
 2815SOL    HW1 8895   2.440   4.327   2.653
 2815SOL    HW2 8896   2.474   4.295   2.810
 2816SOL     OW 8897   3.444   4.363   2.334
 2816SOL    HW1 8898   3.413   4.424   2.407
 2816SOL    HW2 8899   3.494   4.415   2.265
 2817SOL     OW 8900   2.264   4.475   3.460
 2817SOL    HW1 8901   2.332   4.530   3.413
 2817SOL    HW2 8902   2.304   4.387   3.487
 2818SOL     OW 8903   3.449   4.503   3.532
 2818SOL    HW1 8904   3.357   4.541   3.527
 2818SOL    HW2 8905   3.509   4.550   3.467
 2819SOL     OW 8906   2.875   3.829   3.632
 2819SOL    HW1 8907   2.881   3.914   3.580
 2819SOL    HW2 8908   2.907   3.753   3.575
 2820SOL     OW 8909   2.366   3.774   3.602
 2820SOL    HW1 8910   2.324   3.717   3.532
 2820SOL    HW2 8911   2.300   3.843   3.634
 2821SOL     OW 8912   2.435   4.594   2.891
 2821SOL    HW1 8913   2.479   4.683   2.882
 2821SOL    HW2 8914   2.372   4.594   2.968
 2822SOL     OW 8915   3.222   4.586   2.907
 2822SOL    HW1 8916   3.147   4.586   2.841
 2822SOL    HW2 8917   3.259   4.494   2.916
 2823SOL     OW 8918   3.071   4.249   2.137
 2823SOL    HW1 8919   3.084   4.165   2.191
 2823SOL    HW2 8920   3.042   4.323   2.197
 2824SOL     OW 8921   2.169   3.937   3.093
 2824SOL    HW1 8922   2.146   3.974   3.183
 2824SOL    HW2 8923   2.139   3.842   3.087
 2825SOL     OW 8924   2.594   4.358   2.926
 2825SOL    HW1 8925   2.653   4.332   2.850
 2825SOL    HW2 8926   2.566   4.454   2.915
 2826SOL     OW 8927   3.590   4.659   3.716
 2826SOL    HW1 8928   3.544   4.652   3.627
 2826SOL    HW2 8929   3.528   4.703   3.782
 2827SOL     OW 8930   2.169   3.787   2.480
 2827SOL    HW1 8931   2.158   3.881   2.513
 2827SOL    HW2 8932   2.164   3.724   2.557
 2828SOL     OW 8933   3.484   4.091   2.236
 2828SOL    HW1 8934   3.486   4.015   2.300
 2828SOL    HW2 8935   3.436   4.168   2.276
 2829SOL     OW 8936   2.885   4.490   2.828
 2829SOL    HW1 8937   2.900   4.511   2.924
 2829SOL    HW2 8938   2.855   4.395   2.819
 2830SOL     OW 8939   3.721   5.242   3.467
 2830SOL    HW1 8940   3.735   5.269   3.372
 2830SOL    HW2 8941   3.804   5.264   3.520
 2831SOL     OW 8942   2.212   4.622   3.666
 2831SOL    HW1 8943   2.288   4.666   3.714
 2831SOL    HW2 8944   2.247   4.575   3.584
 2832SOL     OW 8945   3.402   3.998   1.987
 2832SOL    HW1 8946   3.341   3.923   2.010
 2832SOL    HW2 8947   3.424   4.050   2.070
 2833SOL     OW 8948   3.165   4.562   1.904
 2833SOL    HW1 8949   3.199   4.469   1.919
 2833SOL    HW2 8950   3.183   4.589   1.809
 2834SOL     OW 8951   2.201   4.233   2.868
 2834SOL    HW1 8952   2.149   4.150   2.851
 2834SOL    HW2 8953   2.278   4.238   2.804
 2835SOL     OW 8954   3.000   4.104   3.540
 2835SOL    HW1 8955   2.955   4.167   3.604
 2835SOL    HW2 8956   3.093   4.135   3.523
 2836SOL     OW 8957   3.022   3.931   3.339
 2836SOL    HW1 8958   3.022   3.995   3.416
 2836SOL    HW2 8959   3.050   3.979   3.256
 2837SOL     OW 8960   1.870   5.050   2.062
 2837SOL    HW1 8961   1.777   5.071   2.031
 2837SOL    HW2 8962   1.880   4.951   2.075
 2838SOL     OW 8963   2.864   4.520   3.100
 2838SOL    HW1 8964   2.905   4.488   3.186
 2838SOL    HW2 8965   2.768   4.493   3.097
 2839SOL     OW 8966   1.902   4.268   2.976
 2839SOL    HW1 8967   1.987   4.235   2.935
 2839SOL    HW2 8968   1.915   4.283   3.074
 2840SOL     OW 8969   2.051   4.244   3.584
 2840SOL    HW1 8970   2.110   4.204   3.514
 2840SOL    HW2 8971   1.993   4.315   3.543
 2841SOL     OW 8972   3.231   4.674   3.522
 2841SOL    HW1 8973   3.270   4.763   3.542
 2841SOL    HW2 8974   3.241   4.654   3.425
 2842SOL     OW 8975   2.677   4.296   2.187
 2842SOL    HW1 8976   2.684   4.207   2.141
 2842SOL    HW2 8977   2.583   4.330   2.179
 2843SOL     OW 8978   3.519   4.328   3.068
 2843SOL    HW1 8979   3.481   4.259   3.130
 2843SOL    HW2 8980   3.601   4.292   3.024
 2844SOL     OW 8981   2.533   4.188   3.131
 2844SOL    HW1 8982   2.499   4.099   3.101
 2844SOL    HW2 8983   2.559   4.242   3.051
 2845SOL     OW 8984   2.335   4.224   2.053
 2845SOL    HW1 8985   2.396   4.304   2.057
 2845SOL    HW2 8986   2.240   4.255   2.060
 2846SOL     OW 8987   3.209   4.783   3.096
 2846SOL    HW1 8988   3.233   4.720   3.022
 2846SOL    HW2 8989   3.119   4.823   3.078
 2847SOL     OW 8990   3.164   4.579   2.171
 2847SOL    HW1 8991   3.078   4.548   2.213
 2847SOL    HW2 8992   3.160   4.565   2.072
 2848SOL     OW 8993   3.588   3.859   2.385
 2848SOL    HW1 8994   3.661   3.842   2.318
 2848SOL    HW2 8995   3.557   3.772   2.423
 2849SOL     OW 8996   3.142   4.651   2.534
 2849SOL    HW1 8997   3.202   4.570   2.536
 2849SOL    HW2 8998   3.182   4.720   2.474
 2850SOL     OW 8999   2.692   4.997   3.284
 2850SOL    HW1 9000   2.687   5.030   3.379
 2850SOL    HW2 9001   2.606   5.016   3.238
 2851SOL     OW 9002   3.703   3.899   2.825
 2851SOL    HW1 9003   3.742   3.814   2.789
 2851SOL    HW2 9004   3.605   3.901   2.806
 2852SOL     OW 9005   2.125   4.050   2.582
 2852SOL    HW1 9006   2.046   4.101   2.548
 2852SOL    HW2 9007   2.116   4.035   2.680
 2853SOL     OW 9008   3.056   5.336   1.893
 2853SOL    HW1 9009   3.062   5.243   1.930
 2853SOL    HW2 9010   2.997   5.336   1.813
 2854SOL     OW 9011   2.684   4.726   3.234
 2854SOL    HW1 9012   2.724   4.725   3.142
 2854SOL    HW2 9013   2.694   4.818   3.274
 2855SOL     OW 9014   2.778   4.634   2.153
 2855SOL    HW1 9015   2.841   4.672   2.085
 2855SOL    HW2 9016   2.818   4.551   2.192
 2856SOL     OW 9017   3.476   5.016   3.151
 2856SOL    HW1 9018   3.536   5.019   3.231
 2856SOL    HW2 9019   3.401   5.080   3.164
 2857SOL     OW 9020   2.901   4.822   2.558
 2857SOL    HW1 9021   2.831   4.775   2.612
 2857SOL    HW2 9022   2.960   4.754   2.515
 2858SOL     OW 9023   2.876   3.960   2.833
 2858SOL    HW1 9024   2.868   3.924   2.740
 2858SOL    HW2 9025   2.874   3.884   2.898
 2859SOL     OW 9026   3.571   4.109   3.243
 2859SOL    HW1 9027   3.644   4.178   3.247
 2859SOL    HW2 9028   3.599   4.034   3.184
 2860SOL     OW 9029   1.967   4.737   3.588
 2860SOL    HW1 9030   1.890   4.704   3.642
 2860SOL    HW2 9031   2.052   4.707   3.630
 2861SOL     OW 9032   2.534   3.927   3.351
 2861SOL    HW1 9033   2.624   3.911   3.311
 2861SOL    HW2 9034   2.542   3.932   3.450
 2862SOL     OW 9035   1.937   4.069   1.895
 2862SOL    HW1 9036   1.845   4.041   1.866
 2862SOL    HW2 9037   1.968   4.146   1.839
 2863SOL     OW 9038   3.302   4.580   3.260
 2863SOL    HW1 9039   3.245   4.632   3.197
 2863SOL    HW2 9040   3.398   4.592   3.236
 2864SOL     OW 9041   1.934   3.890   2.180
 2864SOL    HW1 9042   1.917   3.973   2.126
 2864SOL    HW2 9043   2.024   3.853   2.158
 2865SOL     OW 9044   2.475   4.566   3.293
 2865SOL    HW1 9045   2.531   4.647   3.276
 2865SOL    HW2 9046   2.534   4.486   3.296
 2866SOL     OW 9047   2.578   4.289   3.570
 2866SOL    HW1 9048   2.597   4.354   3.644
 2866SOL    HW2 9049   2.638   4.209   3.579
 2867SOL     OW 9050   3.312   4.944   3.495
 2867SOL    HW1 9051   3.303   4.934   3.594
 2867SOL    HW2 9052   3.408   4.937   3.469
 2868SOL     OW 9053   3.536   4.607   3.116
 2868SOL    HW1 9054   3.509   4.518   3.079
 2868SOL    HW2 9055   3.537   4.675   3.043
 2869SOL     OW 9056   3.087   4.049   2.311
 2869SOL    HW1 9057   3.152   3.975   2.300
 2869SOL    HW2 9058   3.107   4.099   2.395
 2870SOL     OW 9059   2.456   4.469   2.514
 2870SOL    HW1 9060   2.506   4.554   2.495
 2870SOL    HW2 9061   2.368   4.471   2.466
 2871SOL     OW 9062   3.639   4.066   3.504
 2871SOL    HW1 9063   3.622   4.097   3.410
 2871SOL    HW2 9064   3.555   4.029   3.542
 2872SOL     OW 9065   3.592   4.658   3.379
 2872SOL    HW1 9066   3.630   4.749   3.394
 2872SOL    HW2 9067   3.584   4.641   3.280
 2873SOL     OW 9068   2.721   4.680   2.723
 2873SOL    HW1 9069   2.775   4.611   2.771
 2873SOL    HW2 9070   2.689   4.749   2.789
 2874SOL     OW 9071   2.945   4.708   1.949
 2874SOL    HW1 9072   2.922   4.761   1.867
 2874SOL    HW2 9073   3.026   4.652   1.930
 2875SOL     OW 9074   1.941   4.964   2.515
 2875SOL    HW1 9075   1.940   4.917   2.603
 2875SOL    HW2 9076   2.023   4.936   2.464
 2876SOL     OW 9077   3.686   3.916   3.089
 2876SOL    HW1 9078   3.682   3.826   3.133
 2876SOL    HW2 9079   3.689   3.905   2.990
 2877SOL     OW 9080   2.290   4.148   2.382
 2877SOL    HW1 9081   2.320   4.076   2.320
 2877SOL    HW2 9082   2.251   4.108   2.465
 2878SOL     OW 9083   3.286   3.938   2.974
 2878SOL    HW1 9084   3.338   3.873   3.029
 2878SOL    HW2 9085   3.237   4.001   3.035
 2879SOL     OW 9086   2.863   3.758   3.016
 2879SOL    HW1 9087   2.800   3.686   2.985
 2879SOL    HW2 9088   2.956   3.722   3.016
 2880SOL     OW 9089   2.632   5.054   2.163
 2880SOL    HW1 9090   2.586   4.967   2.180
 2880SOL    HW2 9091   2.723   5.051   2.204
 2881SOL     OW 9092   3.214   3.776   2.030
 2881SOL    HW1 9093   3.249   3.735   1.946
 2881SOL    HW2 9094   3.124   3.738   2.050
 2882SOL     OW 9095   3.162   4.177   2.553
 2882SOL    HW1 9096   3.103   4.257   2.557
 2882SOL    HW2 9097   3.177   4.142   2.646
 2883SOL     OW 9098   3.455   3.945   2.744
 2883SOL    HW1 9099   3.371   3.944   2.798
 2883SOL    HW2 9100   3.457   4.028   2.688
 2884SOL     OW 9101   1.901   4.801   2.162
 2884SOL    HW1 9102   2.000   4.790   2.153
 2884SOL    HW2 9103   1.861   4.715   2.194
 2885SOL     OW 9104   2.092   4.352   3.837
 2885SOL    HW1 9105   1.999   4.350   3.874
 2885SOL    HW2 9106   2.093   4.313   3.745
 2886SOL     OW 9107   2.087   3.999   4.720
 2886SOL    HW1 9108   2.122   3.982   4.812
 2886SOL    HW2 9109   1.999   3.954   4.708
 2887SOL     OW 9110   1.881   4.092   4.371
 2887SOL    HW1 9111   1.799   4.135   4.410
 2887SOL    HW2 9112   1.853   4.019   4.308
 2888SOL     OW 9113   2.431   4.999   4.889
 2888SOL    HW1 9114   2.338   4.992   4.852
 2888SOL    HW2 9115   2.442   5.088   4.933
 2889SOL     OW 9116   3.417   5.235   4.427
 2889SOL    HW1 9117   3.360   5.219   4.508
 2889SOL    HW2 9118   3.358   5.245   4.347
 2890SOL     OW 9119   2.997   4.427   4.441
 2890SOL    HW1 9120   3.054   4.505   4.416
 2890SOL    HW2 9121   2.937   4.453   4.517
 2891SOL     OW 9122   3.617   4.331   3.955
 2891SOL    HW1 9123   3.605   4.318   3.856
 2891SOL    HW2 9124   3.587   4.250   4.004
 2892SOL     OW 9125   2.630   4.868   4.747
 2892SOL    HW1 9126   2.552   4.885   4.807
 2892SOL    HW2 9127   2.664   4.955   4.711
 2893SOL     OW 9128   2.547   4.736   4.389
 2893SOL    HW1 9129   2.616   4.720   4.459
 2893SOL    HW2 9130   2.474   4.793   4.427
 2894SOL     OW 9131   2.197   5.159   4.785
 2894SOL    HW1 9132   2.119   5.128   4.732
 2894SOL    HW2 9133   2.255   5.217   4.728
 2895SOL     OW 9134   3.465   4.171   4.461
 2895SOL    HW1 9135   3.391   4.217   4.411
 2895SOL    HW2 9136   3.516   4.239   4.514
 2896SOL     OW 9137   2.102   4.815   4.610
 2896SOL    HW1 9138   2.116   4.731   4.662
 2896SOL    HW2 9139   2.047   4.879   4.665
 2897SOL     OW 9140   2.468   4.688   3.847
 2897SOL    HW1 9141   2.475   4.772   3.793
 2897SOL    HW2 9142   2.514   4.701   3.935
 2898SOL     OW 9143   1.984   4.367   4.287
 2898SOL    HW1 9144   1.939   4.279   4.304
 2898SOL    HW2 9145   1.983   4.421   4.371
 2899SOL     OW 9146   3.551   4.646   4.336
 2899SOL    HW1 9147   3.646   4.617   4.344
 2899SOL    HW2 9148   3.543   4.711   4.261
 2900SOL     OW 9149   3.503   4.832   4.156
 2900SOL    HW1 9150   3.589   4.834   4.104
 2900SOL    HW2 9151   3.517   4.879   4.244
 2901SOL     OW 9152   2.671   3.728   4.226
 2901SOL    HW1 9153   2.711   3.819   4.217
 2901SOL    HW2 9154   2.571   3.736   4.232
 2902SOL     OW 9155   2.059   4.700   4.988
 2902SOL    HW1 9156   2.148   4.655   4.974
 2902SOL    HW2 9157   1.986   4.635   4.969
 2903SOL     OW 9158   3.387   4.723   3.914
 2903SOL    HW1 9159   3.324   4.647   3.927
 2903SOL    HW2 9160   3.435   4.741   4.000
 2904SOL     OW 9161   3.328   5.141   4.677
 2904SOL    HW1 9162   3.269   5.147   4.757
 2904SOL    HW2 9163   3.313   5.053   4.631
 2905SOL     OW 9164   2.460   4.453   3.994
 2905SOL    HW1 9165   2.484   4.522   3.926
 2905SOL    HW2 9166   2.382   4.486   4.048
 2906SOL     OW 9167   3.143   4.069   4.668
 2906SOL    HW1 9168   3.057   4.019   4.655
 2906SOL    HW2 9169   3.205   4.015   4.724
 2907SOL     OW 9170   2.853   4.134   4.966
 2907SOL    HW1 9171   2.776   4.168   5.020
 2907SOL    HW2 9172   2.819   4.083   4.887
 2908SOL     OW 9173   2.903   4.425   4.153
 2908SOL    HW1 9174   2.929   4.421   4.249
 2908SOL    HW2 9175   2.818   4.374   4.139
 2909SOL     OW 9176   1.938   4.535   4.513
 2909SOL    HW1 9177   2.037   4.523   4.522
 2909SOL    HW2 9178   1.914   4.630   4.534
 2910SOL     OW 9179   2.727   4.072   3.919
 2910SOL    HW1 9180   2.786   4.135   3.870
 2910SOL    HW2 9181   2.746   3.978   3.890
 2911SOL     OW 9182   3.224   4.868   4.269
 2911SOL    HW1 9183   3.307   4.839   4.221
 2911SOL    HW2 9184   3.175   4.935   4.213
 2912SOL     OW 9185   2.412   3.920   4.609
 2912SOL    HW1 9186   2.407   3.915   4.709
 2912SOL    HW2 9187   2.414   4.016   4.580
 2913SOL     OW 9188   3.657   4.790   4.597
 2913SOL    HW1 9189   3.595   4.775   4.521
 2913SOL    HW2 9190   3.605   4.801   4.682
 2914SOL     OW 9191   2.183   4.667   3.966
 2914SOL    HW1 9192   2.265   4.706   3.924
 2914SOL    HW2 9193   2.156   4.585   3.917
 2915SOL     OW 9194   3.320   4.459   4.452
 2915SOL    HW1 9195   3.315   4.394   4.527
 2915SOL    HW2 9196   3.400   4.518   4.465
 2916SOL     OW 9197   3.494   5.101   3.805
 2916SOL    HW1 9198   3.462   5.195   3.795
 2916SOL    HW2 9199   3.418   5.038   3.793
 2917SOL     OW 9200   3.262   3.831   4.150
 2917SOL    HW1 9201   3.238   3.794   4.060
 2917SOL    HW2 9202   3.361   3.847   4.154
 2918SOL     OW 9203   2.244   4.424   4.204
 2918SOL    HW1 9204   2.289   4.334   4.201
 2918SOL    HW2 9205   2.150   4.413   4.237
 2919SOL     OW 9206   2.476   3.846   3.841
 2919SOL    HW1 9207   2.574   3.824   3.848
 2919SOL    HW2 9208   2.445   3.829   3.748
 2920SOL     OW 9209   2.665   5.126   4.648
 2920SOL    HW1 9210   2.755   5.140   4.606
 2920SOL    HW2 9211   2.594   5.128   4.577
 2921SOL     OW 9212   2.784   4.227   4.623
 2921SOL    HW1 9213   2.759   4.218   4.527
 2921SOL    HW2 9214   2.832   4.145   4.654
 2922SOL     OW 9215   2.401   3.788   4.236
 2922SOL    HW1 9216   2.320   3.789   4.294
 2922SOL    HW2 9217   2.404   3.871   4.181
 2923SOL     OW 9218   3.296   4.912   3.765
 2923SOL    HW1 9219   3.328   4.836   3.822
 2923SOL    HW2 9220   3.204   4.939   3.795
 2924SOL     OW 9221   2.159   3.759   3.895
 2924SOL    HW1 9222   2.208   3.843   3.874
 2924SOL    HW2 9223   2.221   3.694   3.940
 2925SOL     OW 9224   2.797   3.960   4.204
 2925SOL    HW1 9225   2.749   4.001   4.126
 2925SOL    HW2 9226   2.896   3.958   4.185
 2926SOL     OW 9227   3.089   5.294   4.517
 2926SOL    HW1 9228   3.110   5.368   4.452
 2926SOL    HW2 9229   3.157   5.294   4.590
 2927SOL     OW 9230   2.321   4.876   4.465
 2927SOL    HW1 9231   2.250   4.849   4.530
 2927SOL    HW2 9232   2.295   4.848   4.372
 2928SOL     OW 9233   2.894   4.273   3.740
 2928SOL    HW1 9234   2.853   4.355   3.701
 2928SOL    HW2 9235   2.958   4.299   3.813
 2929SOL     OW 9236   2.423   3.946   4.871
 2929SOL    HW1 9237   2.461   3.862   4.908
 2929SOL    HW2 9238   2.335   3.965   4.915
 2930SOL     OW 9239   2.728   4.178   4.366
 2930SOL    HW1 9240   2.696   4.250   4.304
 2930SOL    HW2 9241   2.752   4.097   4.313
 2931SOL     OW 9242   2.879   3.763   4.477
 2931SOL    HW1 9243   2.807   3.768   4.408
 2931SOL    HW2 9244   2.855   3.694   4.546
 2932SOL     OW 9245   3.291   4.897   4.591
 2932SOL    HW1 9246   3.236   4.813   4.584
 2932SOL    HW2 9247   3.317   4.926   4.499
 2933SOL     OW 9248   3.328   4.314   4.716
 2933SOL    HW1 9249   3.298   4.219   4.723
 2933SOL    HW2 9250   3.401   4.330   4.782
 2934SOL     OW 9251   3.719   4.557   4.101
 2934SOL    HW1 9252   3.761   4.493   4.165
 2934SOL    HW2 9253   3.681   4.506   4.023
 2935SOL     OW 9254   3.526   5.004   4.381
 2935SOL    HW1 9255   3.625   5.012   4.395
 2935SOL    HW2 9256   3.481   5.088   4.412
 2936SOL     OW 9257   3.252   4.299   3.802
 2936SOL    HW1 9258   3.198   4.278   3.883
 2936SOL    HW2 9259   3.343   4.258   3.811
 2937SOL     OW 9260   2.389   3.980   4.052
 2937SOL    HW1 9261   2.416   3.921   3.977
 2937SOL    HW2 9262   2.389   4.075   4.021
 2938SOL     OW 9263   3.500   4.823   4.803
 2938SOL    HW1 9264   3.505   4.904   4.862
 2938SOL    HW2 9265   3.414   4.825   4.752
 2939SOL     OW 9266   2.567   4.774   4.092
 2939SOL    HW1 9267   2.553   4.781   4.191
 2939SOL    HW2 9268   2.651   4.723   4.074
 2940SOL     OW 9269   2.272   4.537   4.975
 2940SOL    HW1 9270   2.358   4.549   5.025
 2940SOL    HW2 9271   2.230   4.450   5.002
 2941SOL     OW 9272   3.136   4.110   4.986
 2941SOL    HW1 9273   3.157   4.184   5.050
 2941SOL    HW2 9274   3.047   4.127   4.943
 2942SOL     OW 9275   2.229   4.824   4.225
 2942SOL    HW1 9276   2.222   4.907   4.169
 2942SOL    HW2 9277   2.233   4.744   4.165
 2943SOL     OW 9278   2.428   4.261   4.589
 2943SOL    HW1 9279   2.440   4.327   4.515
 2943SOL    HW2 9280   2.474   4.295   4.672
 2944SOL     OW 9281   3.444   4.363   4.196
 2944SOL    HW1 9282   3.413   4.424   4.269
 2944SOL    HW2 9283   3.494   4.415   4.127
 2945SOL     OW 9284   2.435   4.594   4.753
 2945SOL    HW1 9285   2.479   4.683   4.744
 2945SOL    HW2 9286   2.372   4.594   4.830
 2946SOL     OW 9287   3.222   4.586   4.769
 2946SOL    HW1 9288   3.147   4.586   4.703
 2946SOL    HW2 9289   3.259   4.494   4.778
 2947SOL     OW 9290   3.071   4.249   3.999
 2947SOL    HW1 9291   3.084   4.165   4.053
 2947SOL    HW2 9292   3.042   4.323   4.059
 2948SOL     OW 9293   2.169   3.937   4.955
 2948SOL    HW1 9294   2.146   3.974   5.045
 2948SOL    HW2 9295   2.139   3.842   4.949
 2949SOL     OW 9296   2.594   4.358   4.788
 2949SOL    HW1 9297   2.653   4.332   4.712
 2949SOL    HW2 9298   2.566   4.454   4.777
 2950SOL     OW 9299   2.169   3.787   4.342
 2950SOL    HW1 9300   2.158   3.881   4.375
 2950SOL    HW2 9301   2.164   3.724   4.419
 2951SOL     OW 9302   3.484   4.091   4.098
 2951SOL    HW1 9303   3.486   4.015   4.162
 2951SOL    HW2 9304   3.436   4.168   4.138
 2952SOL     OW 9305   2.885   4.490   4.690
 2952SOL    HW1 9306   2.900   4.511   4.786
 2952SOL    HW2 9307   2.855   4.395   4.681
 2953SOL     OW 9308   3.402   3.998   3.849
 2953SOL    HW1 9309   3.341   3.923   3.872
 2953SOL    HW2 9310   3.424   4.050   3.932
 2954SOL     OW 9311   3.165   4.562   3.766
 2954SOL    HW1 9312   3.199   4.469   3.781
 2954SOL    HW2 9313   3.183   4.589   3.671
 2955SOL     OW 9314   2.181   4.534   4.673
 2955SOL    HW1 9315   2.274   4.570   4.678
 2955SOL    HW2 9316   2.175   4.449   4.725
 2956SOL     OW 9317   2.201   4.233   4.730
 2956SOL    HW1 9318   2.149   4.150   4.713
 2956SOL    HW2 9319   2.278   4.238   4.666
 2957SOL     OW 9320   3.022   3.931   5.201
 2957SOL    HW1 9321   3.022   3.995   5.278
 2957SOL    HW2 9322   3.050   3.979   5.118
 2958SOL     OW 9323   1.870   5.050   3.924
 2958SOL    HW1 9324   1.777   5.071   3.893
 2958SOL    HW2 9325   1.880   4.951   3.937
 2959SOL     OW 9326   2.864   4.520   4.962
 2959SOL    HW1 9327   2.905   4.488   5.048
 2959SOL    HW2 9328   2.768   4.493   4.959
 2960SOL     OW 9329   1.902   4.268   4.838
 2960SOL    HW1 9330   1.987   4.235   4.797
 2960SOL    HW2 9331   1.915   4.283   4.936
 2961SOL     OW 9332   2.677   4.296   4.049
 2961SOL    HW1 9333   2.684   4.207   4.003
 2961SOL    HW2 9334   2.583   4.330   4.041
 2962SOL     OW 9335   3.519   4.328   4.930
 2962SOL    HW1 9336   3.481   4.259   4.992
 2962SOL    HW2 9337   3.601   4.292   4.886
 2963SOL     OW 9338   2.533   4.188   4.993
 2963SOL    HW1 9339   2.499   4.099   4.963
 2963SOL    HW2 9340   2.559   4.242   4.913
 2964SOL     OW 9341   2.335   4.224   3.915
 2964SOL    HW1 9342   2.396   4.304   3.919
 2964SOL    HW2 9343   2.240   4.255   3.922
 2965SOL     OW 9344   3.209   4.783   4.958
 2965SOL    HW1 9345   3.233   4.720   4.884
 2965SOL    HW2 9346   3.119   4.823   4.940
 2966SOL     OW 9347   3.164   4.579   4.033
 2966SOL    HW1 9348   3.078   4.548   4.075
 2966SOL    HW2 9349   3.160   4.565   3.934
 2967SOL     OW 9350   1.945   4.982   4.746
 2967SOL    HW1 9351   1.940   4.981   4.846
 2967SOL    HW2 9352   1.862   4.941   4.708
 2968SOL     OW 9353   3.588   3.859   4.247
 2968SOL    HW1 9354   3.661   3.842   4.180
 2968SOL    HW2 9355   3.557   3.772   4.285
 2969SOL     OW 9356   3.142   4.651   4.396
 2969SOL    HW1 9357   3.202   4.570   4.398
 2969SOL    HW2 9358   3.182   4.720   4.336
 2970SOL     OW 9359   2.692   4.997   5.146
 2970SOL    HW1 9360   2.687   5.030   5.241
 2970SOL    HW2 9361   2.606   5.016   5.100
 2971SOL     OW 9362   3.703   3.899   4.687
 2971SOL    HW1 9363   3.742   3.814   4.651
 2971SOL    HW2 9364   3.605   3.901   4.668
 2972SOL     OW 9365   2.125   4.050   4.444
 2972SOL    HW1 9366   2.046   4.101   4.410
 2972SOL    HW2 9367   2.116   4.035   4.542
 2973SOL     OW 9368   3.056   5.336   3.755
 2973SOL    HW1 9369   3.062   5.243   3.792
 2973SOL    HW2 9370   2.997   5.336   3.675
 2974SOL     OW 9371   2.684   4.726   5.096
 2974SOL    HW1 9372   2.724   4.725   5.004
 2974SOL    HW2 9373   2.694   4.818   5.136
 2975SOL     OW 9374   2.778   4.634   4.015
 2975SOL    HW1 9375   2.841   4.672   3.947
 2975SOL    HW2 9376   2.818   4.551   4.054
 2976SOL     OW 9377   2.901   4.822   4.420
 2976SOL    HW1 9378   2.831   4.775   4.474
 2976SOL    HW2 9379   2.960   4.754   4.377
 2977SOL     OW 9380   2.876   3.960   4.695
 2977SOL    HW1 9381   2.868   3.924   4.602
 2977SOL    HW2 9382   2.874   3.884   4.760
 2978SOL     OW 9383   3.571   4.109   5.105
 2978SOL    HW1 9384   3.644   4.178   5.109
 2978SOL    HW2 9385   3.599   4.034   5.046
 2979SOL     OW 9386   1.937   4.069   3.757
 2979SOL    HW1 9387   1.845   4.041   3.728
 2979SOL    HW2 9388   1.968   4.146   3.701
 2980SOL     OW 9389   1.934   3.890   4.042
 2980SOL    HW1 9390   1.917   3.973   3.988
 2980SOL    HW2 9391   2.024   3.853   4.020
 2981SOL     OW 9392   3.312   4.944   5.357
 2981SOL    HW1 9393   3.303   4.934   5.456
 2981SOL    HW2 9394   3.408   4.937   5.331
 2982SOL     OW 9395   3.536   4.607   4.978
 2982SOL    HW1 9396   3.509   4.518   4.941
 2982SOL    HW2 9397   3.537   4.675   4.905
 2983SOL     OW 9398   3.087   4.049   4.173
 2983SOL    HW1 9399   3.152   3.975   4.162
 2983SOL    HW2 9400   3.107   4.099   4.257
 2984SOL     OW 9401   2.456   4.469   4.376
 2984SOL    HW1 9402   2.506   4.554   4.357
 2984SOL    HW2 9403   2.368   4.471   4.328
 2985SOL     OW 9404   3.592   4.658   5.241
 2985SOL    HW1 9405   3.630   4.749   5.256
 2985SOL    HW2 9406   3.584   4.641   5.142
 2986SOL     OW 9407   2.721   4.680   4.585
 2986SOL    HW1 9408   2.775   4.611   4.633
 2986SOL    HW2 9409   2.689   4.749   4.651
 2987SOL     OW 9410   2.945   4.708   3.811
 2987SOL    HW1 9411   2.922   4.761   3.729
 2987SOL    HW2 9412   3.026   4.652   3.792
 2988SOL     OW 9413   1.941   4.964   4.377
 2988SOL    HW1 9414   1.940   4.917   4.465
 2988SOL    HW2 9415   2.023   4.936   4.326
 2989SOL     OW 9416   3.686   3.916   4.951
 2989SOL    HW1 9417   3.682   3.826   4.995
 2989SOL    HW2 9418   3.689   3.905   4.852
 2990SOL     OW 9419   2.290   4.148   4.244
 2990SOL    HW1 9420   2.320   4.076   4.182
 2990SOL    HW2 9421   2.251   4.108   4.327
 2991SOL     OW 9422   3.286   3.938   4.836
 2991SOL    HW1 9423   3.338   3.873   4.891
 2991SOL    HW2 9424   3.237   4.001   4.897
 2992SOL     OW 9425   2.863   3.758   4.878
 2992SOL    HW1 9426   2.800   3.686   4.847
 2992SOL    HW2 9427   2.956   3.722   4.878
 2993SOL     OW 9428   2.632   5.054   4.025
 2993SOL    HW1 9429   2.586   4.967   4.042
 2993SOL    HW2 9430   2.723   5.051   4.066
 2994SOL     OW 9431   3.214   3.776   3.892
 2994SOL    HW1 9432   3.249   3.735   3.808
 2994SOL    HW2 9433   3.124   3.738   3.912
 2995SOL     OW 9434   3.162   4.177   4.415
 2995SOL    HW1 9435   3.103   4.257   4.419
 2995SOL    HW2 9436   3.177   4.142   4.508
 2996SOL     OW 9437   3.455   3.945   4.606
 2996SOL    HW1 9438   3.371   3.944   4.660
 2996SOL    HW2 9439   3.457   4.028   4.550
 2997SOL     OW 9440   1.901   4.801   4.024
 2997SOL    HW1 9441   2.000   4.790   4.015
 2997SOL    HW2 9442   1.861   4.715   4.056
 2998SOL     OW 9443   3.954   0.628   0.113
 2998SOL    HW1 9444   3.861   0.626   0.150
 2998SOL    HW2 9445   3.955   0.589   0.021
 2999SOL     OW 9446   3.949   0.275   0.996
 2999SOL    HW1 9447   3.984   0.258   1.088
 2999SOL    HW2 9448   3.861   0.230   0.984
 3000SOL     OW 9449   3.743   0.368   0.647
 3000SOL    HW1 9450   3.661   0.411   0.686
 3000SOL    HW2 9451   3.715   0.295   0.584
 3001SOL     OW 9452   4.293   1.275   1.165
 3001SOL    HW1 9453   4.200   1.268   1.128
 3001SOL    HW2 9454   4.304   1.364   1.209
 3002SOL     OW 9455   4.859   0.703   0.717
 3002SOL    HW1 9456   4.916   0.781   0.692
 3002SOL    HW2 9457   4.799   0.729   0.793
 3003SOL     OW 9458   4.492   1.144   1.023
 3003SOL    HW1 9459   4.414   1.161   1.083
 3003SOL    HW2 9460   4.526   1.231   0.987
 3004SOL     OW 9461   4.574   0.798   1.823
 3004SOL    HW1 9462   4.570   0.874   1.888
 3004SOL    HW2 9463   4.596   0.834   1.732
 3005SOL     OW 9464   4.409   1.012   0.665
 3005SOL    HW1 9465   4.478   0.996   0.735
 3005SOL    HW2 9466   4.336   1.069   0.703
 3006SOL     OW 9467   4.410   1.161   1.803
 3006SOL    HW1 9468   4.470   1.240   1.817
 3006SOL    HW2 9469   4.324   1.192   1.762
 3007SOL     OW 9470   4.059   1.435   1.061
 3007SOL    HW1 9471   3.981   1.404   1.008
 3007SOL    HW2 9472   4.117   1.493   1.004
 3008SOL     OW 9473   4.162   0.392   1.499
 3008SOL    HW1 9474   4.244   0.336   1.508
 3008SOL    HW2 9475   4.081   0.334   1.503
 3009SOL     OW 9476   3.955   1.713   0.483
 3009SOL    HW1 9477   3.989   1.790   0.537
 3009SOL    HW2 9478   3.999   1.713   0.393
 3010SOL     OW 9479   4.851   1.341   1.690
 3010SOL    HW1 9480   4.898   1.341   1.778
 3010SOL    HW2 9481   4.803   1.254   1.679
 3011SOL     OW 9482   3.954   1.434   0.538
 3011SOL    HW1 9483   3.928   1.530   0.538
 3011SOL    HW2 9484   3.883   1.380   0.583
 3012SOL     OW 9485   3.964   1.091   0.886
 3012SOL    HW1 9486   3.978   1.007   0.938
 3012SOL    HW2 9487   3.909   1.155   0.941
 3013SOL     OW 9488   4.344   1.786   1.439
 3013SOL    HW1 9489   4.252   1.769   1.474
 3013SOL    HW2 9490   4.372   1.878   1.465
 3014SOL     OW 9491   4.330   0.964   0.123
 3014SOL    HW1 9492   4.337   1.048   0.069
 3014SOL    HW2 9493   4.376   0.977   0.211
 3015SOL     OW 9494   3.846   0.643   0.563
 3015SOL    HW1 9495   3.801   0.555   0.580
 3015SOL    HW2 9496   3.845   0.697   0.647
 3016SOL     OW 9497   3.751   1.596   0.117
 3016SOL    HW1 9498   3.732   1.500   0.138
 3016SOL    HW2 9499   3.718   1.654   0.192
 3017SOL     OW 9500   3.837   0.737   1.597
 3017SOL    HW1 9501   3.925   0.724   1.642
 3017SOL    HW2 9502   3.824   0.834   1.575
 3018SOL     OW 9503   4.337   1.365   0.726
 3018SOL    HW1 9504   4.288   1.278   0.735
 3018SOL    HW2 9505   4.314   1.408   0.639
 3019SOL     OW 9506   5.017   1.228   1.423
 3019SOL    HW1 9507   5.054   1.155   1.365
 3019SOL    HW2 9508   5.069   1.233   1.508
 3020SOL     OW 9509   4.533   0.004   0.502
 3020SOL    HW1 9510   4.573   0.095   0.493
 3020SOL    HW2 9511   4.433   0.012   0.508
 3021SOL     OW 9512   3.921   0.976   1.264
 3021SOL    HW1 9513   4.010   0.931   1.250
 3021SOL    HW2 9514   3.848   0.911   1.245
 3022SOL     OW 9515   4.911   1.792   1.616
 3022SOL    HW1 9516   4.935   1.852   1.540
 3022SOL    HW2 9517   4.918   1.697   1.586
 3023SOL     OW 9518   4.041   0.251   1.801
 3023SOL    HW1 9519   4.112   0.322   1.807
 3023SOL    HW2 9520   3.953   0.290   1.829
 3024SOL     OW 9521   4.322   0.729   0.270
 3024SOL    HW1 9522   4.346   0.798   0.202
 3024SOL    HW2 9523   4.244   0.762   0.324
 3025SOL     OW 9524   5.005   0.345   0.944
 3025SOL    HW1 9525   4.919   0.295   0.931
 3025SOL    HW2 9526   5.067   0.291   1.000
 3026SOL     OW 9527   4.531   0.605   1.465
 3026SOL    HW1 9528   4.484   0.602   1.554
 3026SOL    HW2 9529   4.480   0.550   1.399
 3027SOL     OW 9530   4.697   0.890   1.572
 3027SOL    HW1 9531   4.743   0.806   1.543
 3027SOL    HW2 9532   4.641   0.924   1.497
 3028SOL     OW 9533   4.715   0.410   1.242
 3028SOL    HW1 9534   4.638   0.444   1.296
 3028SOL    HW2 9535   4.681   0.359   1.163
 3029SOL     OW 9536   4.765   0.701   0.429
 3029SOL    HW1 9537   4.791   0.697   0.525
 3029SOL    HW2 9538   4.680   0.650   0.415
 3030SOL     OW 9539   3.800   0.811   0.789
 3030SOL    HW1 9540   3.899   0.799   0.798
 3030SOL    HW2 9541   3.776   0.906   0.810
 3031SOL     OW 9542   3.854   1.821   1.571
 3031SOL    HW1 9543   3.844   1.806   1.670
 3031SOL    HW2 9544   3.768   1.857   1.535
 3032SOL     OW 9545   4.589   0.348   0.195
 3032SOL    HW1 9546   4.648   0.411   0.146
 3032SOL    HW2 9547   4.608   0.254   0.166
 3033SOL     OW 9548   4.274   0.196   0.885
 3033SOL    HW1 9549   4.269   0.191   0.985
 3033SOL    HW2 9550   4.276   0.292   0.856
 3034SOL     OW 9551   4.732   1.456   0.477
 3034SOL    HW1 9552   4.686   1.528   0.425
 3034SOL    HW2 9553   4.728   1.476   0.575
 3035SOL     OW 9554   4.075   1.801   0.853
 3035SOL    HW1 9555   4.125   1.715   0.859
 3035SOL    HW2 9556   4.140   1.878   0.850
 3036SOL     OW 9557   4.951   1.550   1.506
 3036SOL    HW1 9558   4.957   1.473   1.570
 3036SOL    HW2 9559   4.899   1.524   1.426
 3037SOL     OW 9560   4.045   0.943   0.242
 3037SOL    HW1 9561   4.127   0.982   0.200
 3037SOL    HW2 9562   4.018   0.861   0.193
 3038SOL     OW 9563   4.185   1.266   1.727
 3038SOL    HW1 9564   4.135   1.267   1.641
 3038SOL    HW2 9565   4.122   1.248   1.803
 3039SOL     OW 9566   4.835   1.776   0.237
 3039SOL    HW1 9567   4.775   1.714   0.287
 3039SOL    HW2 9568   4.866   1.732   0.152
 3040SOL     OW 9569   3.926   0.285   1.498
 3040SOL    HW1 9570   3.846   0.345   1.485
 3040SOL    HW2 9571   3.916   0.236   1.584
 3041SOL     OW 9572   5.356   1.377   0.081
 3041SOL    HW1 9573   5.324   1.471   0.071
 3041SOL    HW2 9574   5.280   1.314   0.069
 3042SOL     OW 9575   4.188   1.743   0.323
 3042SOL    HW1 9576   4.221   1.782   0.409
 3042SOL    HW2 9577   4.264   1.736   0.258
 3043SOL     OW 9578   3.973   1.785   1.241
 3043SOL    HW1 9579   4.030   1.720   1.291
 3043SOL    HW2 9580   3.957   1.752   1.148
 3044SOL     OW 9581   4.664   1.698   0.904
 3044SOL    HW1 9582   4.744   1.641   0.925
 3044SOL    HW2 9583   4.615   1.658   0.827
 3045SOL     OW 9584   4.106   0.700   0.480
 3045SOL    HW1 9585   4.151   0.610   0.477
 3045SOL    HW2 9586   4.012   0.689   0.513
 3046SOL     OW 9587   4.338   0.122   0.117
 3046SOL    HW1 9588   4.436   0.100   0.124
 3046SOL    HW2 9589   4.307   0.105   0.024
 3047SOL     OW 9590   4.505   0.264   1.749
 3047SOL    HW1 9591   4.572   0.203   1.792
 3047SOL    HW2 9592   4.432   0.283   1.814
 3048SOL     OW 9593   4.612   1.514   1.195
 3048SOL    HW1 9594   4.589   1.489   1.101
 3048SOL    HW2 9595   4.673   1.445   1.234
 3049SOL     OW 9596   4.527   1.402   0.924
 3049SOL    HW1 9597   4.617   1.416   0.882
 3049SOL    HW2 9598   4.456   1.404   0.853
 3050SOL     OW 9599   4.646   0.503   0.899
 3050SOL    HW1 9600   4.621   0.494   0.803
 3050SOL    HW2 9601   4.694   0.421   0.930
 3051SOL     OW 9602   4.263   0.064   0.512
 3051SOL    HW1 9603   4.182   0.065   0.570
 3051SOL    HW2 9604   4.266   0.147   0.457
 3052SOL     OW 9605   4.021   0.035   0.171
 3052SOL    HW1 9606   4.070   0.119   0.150
 3052SOL    HW2 9607   4.083  -0.030   0.216
 3053SOL     OW 9608   4.659   0.236   0.480
 3053SOL    HW1 9609   4.611   0.277   0.402
 3053SOL    HW2 9610   4.758   0.234   0.461
 3054SOL     OW 9611   4.800   0.683   1.464
 3054SOL    HW1 9612   4.720   0.622   1.467
 3054SOL    HW2 9613   4.881   0.630   1.440
 3055SOL     OW 9614   4.951   1.570   0.793
 3055SOL    HW1 9615   4.972   1.644   0.728
 3055SOL    HW2 9616   5.019   1.570   0.866
 3056SOL     OW 9617   4.183   1.152   0.741
 3056SOL    HW1 9618   4.112   1.125   0.806
 3056SOL    HW2 9619   4.157   1.124   0.648
 3057SOL     OW 9620   4.995   1.797   0.591
 3057SOL    HW1 9621   5.039   1.861   0.527
 3057SOL    HW2 9622   4.945   1.849   0.661
 3058SOL     OW 9623   4.756   0.549   0.016
 3058SOL    HW1 9624   4.715   0.631  -0.023
 3058SOL    HW2 9625   4.820   0.575   0.089
 3059SOL     OW 9626   3.802   0.556   1.386
 3059SOL    HW1 9627   3.894   0.555   1.345
 3059SOL    HW2 9628   3.796   0.630   1.453
 3060SOL     OW 9629   4.285   0.222   1.147
 3060SOL    HW1 9630   4.323   0.138   1.184
 3060SOL    HW2 9631   4.197   0.241   1.191
 3061SOL     OW 9632   4.590   0.454   0.642
 3061SOL    HW1 9633   4.558   0.526   0.580
 3061SOL    HW2 9634   4.614   0.373   0.589
 3062SOL     OW 9635   4.741   0.039   0.753
 3062SOL    HW1 9636   4.669   0.044   0.684
 3062SOL    HW2 9637   4.717  -0.030   0.822
 3063SOL     OW 9638   4.212   1.385   0.174
 3063SOL    HW1 9639   4.125   1.370   0.221
 3063SOL    HW2 9640   4.195   1.411   0.079
 3064SOL     OW 9641   5.388   1.280   0.657
 3064SOL    HW1 9642   5.487   1.288   0.671
 3064SOL    HW2 9643   5.343   1.364   0.688
 3065SOL     OW 9644   4.251   0.256   0.328
 3065SOL    HW1 9645   4.278   0.197   0.253
 3065SOL    HW2 9646   4.251   0.351   0.297
 3066SOL     OW 9647   4.788   1.347   1.340
 3066SOL    HW1 9648   4.708   1.324   1.395
 3066SOL    HW2 9649   4.871   1.321   1.389
 3067SOL     OW 9650   4.835   1.195   1.100
 3067SOL    HW1 9651   4.795   1.239   1.181
 3067SOL    HW2 9652   4.794   1.232   1.017
 3068SOL     OW 9653   4.639   0.089   1.402
 3068SOL    HW1 9654   4.664   0.069   1.307
 3068SOL    HW2 9655   4.711   0.145   1.444
 3069SOL     OW 9656   4.704   1.116   1.719
 3069SOL    HW1 9657   4.605   1.122   1.729
 3069SOL    HW2 9658   4.727   1.036   1.663
 3070SOL     OW 9659   4.429   1.050   0.368
 3070SOL    HW1 9660   4.415   1.057   0.467
 3070SOL    HW2 9661   4.513   0.999   0.350
 3071SOL     OW 9662   4.134   0.813   1.251
 3071SOL    HW1 9663   4.220   0.825   1.301
 3071SOL    HW2 9664   4.092   0.726   1.278
 3072SOL     OW 9665   4.998   0.386   1.262
 3072SOL    HW1 9666   5.019   0.460   1.326
 3072SOL    HW2 9667   4.909   0.403   1.219
 3073SOL     OW 9668   3.788   1.564   1.331
 3073SOL    HW1 9669   3.742   1.646   1.297
 3073SOL    HW2 9670   3.886   1.583   1.340
 3074SOL     OW 9671   4.091   1.100   0.501
 3074SOL    HW1 9672   4.084   1.183   0.445
 3074SOL    HW2 9673   4.095   1.020   0.441
 3075SOL     OW 9674   4.290   0.537   0.865
 3075SOL    HW1 9675   4.302   0.603   0.791
 3075SOL    HW2 9676   4.336   0.571   0.948
 3076SOL     OW 9677   4.976   1.348   0.388
 3076SOL    HW1 9678   5.026   1.425   0.428
 3076SOL    HW2 9679   4.881   1.350   0.420
 3077SOL     OW 9680   4.078   1.510   1.329
 3077SOL    HW1 9681   4.057   1.466   1.242
 3077SOL    HW2 9682   4.175   1.536   1.332
 3078SOL     OW 9683   4.126   0.751   1.598
 3078SOL    HW1 9684   4.194   0.806   1.551
 3078SOL    HW2 9685   4.166   0.663   1.625
 3079SOL     OW 9686   4.737   0.105   1.770
 3079SOL    HW1 9687   4.743   0.190   1.718
 3079SOL    HW2 9688   4.769   0.029   1.713
 3080SOL     OW 9689   4.228   0.050   1.740
 3080SOL    HW1 9690   4.186  -0.007   1.670
 3080SOL    HW2 9691   4.162   0.119   1.772
 3081SOL     OW 9692   4.297   0.870   1.029
 3081SOL    HW1 9693   4.341   0.959   1.020
 3081SOL    HW2 9694   4.234   0.870   1.106
 3082SOL     OW 9695   5.084   0.862   1.045
 3082SOL    HW1 9696   5.009   0.862   0.979
 3082SOL    HW2 9697   5.121   0.770   1.054
 3083SOL     OW 9698   4.933   0.525   0.275
 3083SOL    HW1 9699   4.946   0.441   0.329
 3083SOL    HW2 9700   4.904   0.599   0.335
 3084SOL     OW 9701   4.031   0.213   1.231
 3084SOL    HW1 9702   4.008   0.250   1.321
 3084SOL    HW2 9703   4.001   0.118   1.225
 3085SOL     OW 9704   3.761   1.310   1.282
 3085SOL    HW1 9705   3.814   1.261   1.350
 3085SOL    HW2 9706   3.783   1.408   1.287
 3086SOL     OW 9707   4.456   0.634   1.064
 3086SOL    HW1 9708   4.515   0.608   0.988
 3086SOL    HW2 9709   4.428   0.730   1.053
 3087SOL     OW 9710   4.031   0.063   0.618
 3087SOL    HW1 9711   4.020   0.157   0.651
 3087SOL    HW2 9712   4.026   0.000   0.695
 3088SOL     OW 9713   5.346   0.367   0.374
 3088SOL    HW1 9714   5.348   0.291   0.438
 3088SOL    HW2 9715   5.298   0.444   0.414
 3089SOL     OW 9716   4.747   0.766   0.966
 3089SOL    HW1 9717   4.762   0.787   1.062
 3089SOL    HW2 9718   4.717   0.671   0.957
 3090SOL     OW 9719   4.704   1.573   1.700
 3090SOL    HW1 9720   4.684   1.617   1.612
 3090SOL    HW2 9721   4.743   1.482   1.684
 3091SOL     OW 9722   4.074   0.898   1.804
 3091SOL    HW1 9723   4.150   0.942   1.852
 3091SOL    HW2 9724   4.109   0.851   1.722
 3092SOL     OW 9725   5.027   0.838   0.042
 3092SOL    HW1 9726   5.061   0.745   0.057
 3092SOL    HW2 9727   5.045   0.865  -0.053
 3093SOL     OW 9728   4.792   1.333   0.849
 3093SOL    HW1 9729   4.799   1.249   0.794
 3093SOL    HW2 9730   4.854   1.402   0.813
 3094SOL     OW 9731   4.043   0.810   0.949
 3094SOL    HW1 9732   4.136   0.846   0.954
 3094SOL    HW2 9733   4.037   0.725   1.001
 3095SOL     OW 9734   4.063   0.509   1.006
 3095SOL    HW1 9735   4.011   0.426   0.989
 3095SOL    HW2 9736   4.140   0.514   0.942
 3096SOL     OW 9737   4.862   0.380   1.678
 3096SOL    HW1 9738   4.817   0.443   1.742
 3096SOL    HW2 9739   4.955   0.411   1.661
 3097SOL     OW 9740   4.884   0.207   1.477
 3097SOL    HW1 9741   4.884   0.271   1.554
 3097SOL    HW2 9742   4.912   0.255   1.394
 3098SOL     OW 9743   3.812   1.801   0.927
 3098SOL    HW1 9744   3.770   1.715   0.900
 3098SOL    HW2 9745   3.906   1.804   0.893
 3099SOL     OW 9746   4.228   1.568   0.910
 3099SOL    HW1 9747   4.294   1.642   0.919
 3099SOL    HW2 9748   4.272   1.489   0.868
 3100SOL     OW 9749   4.726   0.796   1.238
 3100SOL    HW1 9750   4.767   0.764   1.324
 3100SOL    HW2 9751   4.630   0.769   1.235
 3101SOL     OW 9752   3.764   0.544   1.114
 3101SOL    HW1 9753   3.849   0.511   1.073
 3101SOL    HW2 9754   3.777   0.559   1.212
 3102SOL     OW 9755   3.913   0.520   1.722
 3102SOL    HW1 9756   3.972   0.480   1.652
 3102SOL    HW2 9757   3.855   0.591   1.681
 3103SOL     OW 9758   4.539   0.572   0.325
 3103SOL    HW1 9759   4.546   0.483   0.279
 3103SOL    HW2 9760   4.445   0.606   0.317
 3104SOL     OW 9761   3.976   1.564   1.744
 3104SOL    HW1 9762   3.946   1.621   1.820
 3104SOL    HW2 9763   3.969   1.467   1.770
 3105SOL     OW 9764   4.395   0.464   1.269
 3105SOL    HW1 9765   4.361   0.375   1.239
 3105SOL    HW2 9766   4.421   0.518   1.189
 3106SOL     OW 9767   4.654   1.678   1.465
 3106SOL    HW1 9768   4.630   1.660   1.370
 3106SOL    HW2 9769   4.684   1.772   1.475
 3107SOL     OW 9770   4.197   0.500   0.191
 3107SOL    HW1 9771   4.258   0.580   0.195
 3107SOL    HW2 9772   4.102   0.531   0.198
 3108SOL     OW 9773   3.883   1.137   1.466
 3108SOL    HW1 9774   3.905   1.076   1.542
 3108SOL    HW2 9775   3.893   1.088   1.380
 3109SOL     OW 9776   5.071   1.059   1.234
 3109SOL    HW1 9777   5.095   0.996   1.160
 3109SOL    HW2 9778   4.981   1.099   1.216
 3110SOL     OW 9779   4.976   1.731   1.128
 3110SOL    HW1 9780   5.060   1.736   1.074
 3110SOL    HW2 9781   4.953   1.635   1.146
 3111SOL     OW 9782   3.807   1.258   1.022
 3111SOL    HW1 9783   3.802   1.257   1.122
 3111SOL    HW2 9784   3.724   1.217   0.984
 3112SOL     OW 9785   4.412   1.662   1.716
 3112SOL    HW1 9786   4.356   1.743   1.725
 3112SOL    HW2 9787   4.464   1.666   1.630
 3113SOL     OW 9788   4.627   0.086   0.133
 3113SOL    HW1 9789   4.678   0.087   0.047
 3113SOL    HW2 9790   4.683   0.044   0.204
 3114SOL     OW 9791   5.112   1.573   0.477
 3114SOL    HW1 9792   5.179   1.585   0.403
 3114SOL    HW2 9793   5.072   1.662   0.500
 3115SOL     OW 9794   3.854   1.794   1.851
 3115SOL    HW1 9795   3.813   1.720   1.904
 3115SOL    HW2 9796   3.918   1.845   1.909
 3116SOL     OW 9797   5.004   0.927   0.672
 3116SOL    HW1 9798   5.064   0.846   0.674
 3116SOL    HW2 9799   5.044   0.996   0.612
 3117SOL     OW 9800   4.554   1.273   1.422
 3117SOL    HW1 9801   4.549   1.306   1.517
 3117SOL    HW2 9802   4.468   1.292   1.376
 3118SOL     OW 9803   4.396   1.616   0.154
 3118SOL    HW1 9804   4.405   1.626   0.055
 3118SOL    HW2 9805   4.356   1.527   0.175
 3119SOL     OW 9806   3.987   0.326   0.720
 3119SOL    HW1 9807   3.908   0.377   0.686
 3119SOL    HW2 9808   3.978   0.311   0.818
 3120SOL     OW 9809   4.918   1.612   0.031
 3120SOL    HW1 9810   4.924   1.519   0.068
 3120SOL    HW2 9811   4.859   1.612  -0.049
 3121SOL     OW 9812   4.546   1.002   1.372
 3121SOL    HW1 9813   4.586   1.001   1.280
 3121SOL    HW2 9814   4.556   1.094   1.412
 3122SOL     OW 9815   4.640   0.910   0.291
 3122SOL    HW1 9816   4.703   0.948   0.223
 3122SOL    HW2 9817   4.680   0.827   0.330
 3123SOL     OW 9818   4.096   1.288   1.490
 3123SOL    HW1 9819   4.083   1.381   1.456
 3123SOL    HW2 9820   4.012   1.236   1.477
 3124SOL     OW 9821   4.763   1.098   0.696
 3124SOL    HW1 9822   4.693   1.051   0.750
 3124SOL    HW2 9823   4.822   1.030   0.653
 3125SOL     OW 9824   4.738   0.236   0.971
 3125SOL    HW1 9825   4.730   0.200   0.878
 3125SOL    HW2 9826   4.736   0.160   1.036
 3126SOL     OW 9827   4.314   1.487   0.491
 3126SOL    HW1 9828   4.356   1.429   0.421
 3126SOL    HW2 9829   4.270   1.566   0.447
 3127SOL     OW 9830   3.979   1.348   0.290
 3127SOL    HW1 9831   3.883   1.349   0.263
 3127SOL    HW2 9832   3.991   1.401   0.374
 3128SOL     OW 9833   3.829   1.013   1.726
 3128SOL    HW1 9834   3.752   0.980   1.780
 3128SOL    HW2 9835   3.914   0.983   1.768
 3129SOL     OW 9836   4.396   0.203   1.489
 3129SOL    HW1 9837   4.486   0.187   1.449
 3129SOL    HW2 9838   4.404   0.208   1.588
 3130SOL     OW 9839   5.164   0.856   1.398
 3130SOL    HW1 9840   5.107   0.908   1.335
 3130SOL    HW2 9841   5.260   0.868   1.374
 3131SOL     OW 9842   3.796   0.166   0.318
 3131SOL    HW1 9843   3.779   0.249   0.264
 3131SOL    HW2 9844   3.886   0.129   0.296
 3132SOL     OW 9845   4.337   0.842   1.431
 3132SOL    HW1 9846   4.393   0.923   1.414
 3132SOL    HW2 9847   4.396   0.762   1.434
 3133SOL     OW 9848   4.440   0.565   1.708
 3133SOL    HW1 9849   4.459   0.630   1.782
 3133SOL    HW2 9850   4.500   0.485   1.717
 3134SOL     OW 9851   4.114   1.741   1.560
 3134SOL    HW1 9852   4.023   1.782   1.558
 3134SOL    HW2 9853   4.107   1.647   1.592
 3135SOL     OW 9854   4.949   0.325   0.449
 3135SOL    HW1 9855   5.014   0.251   0.438
 3135SOL    HW2 9856   4.969   0.375   0.533
 3136SOL     OW 9857   4.318   0.745   0.652
 3136SOL    HW1 9858   4.368   0.830   0.633
 3136SOL    HW2 9859   4.230   0.747   0.604
 3137SOL     OW 9860   4.583   1.374   0.016
 3137SOL    HW1 9861   4.537   1.389   0.104
 3137SOL    HW2 9862   4.627   1.459  -0.014
 3138SOL     OW 9863   4.385   1.790   0.953
 3138SOL    HW1 9864   4.339   1.878   0.940
 3138SOL    HW2 9865   4.484   1.802   0.946
 3139SOL     OW 9866   4.583   0.956   0.861
 3139SOL    HW1 9867   4.637   0.887   0.909
 3139SOL    HW2 9868   4.551   1.025   0.927
 3140SOL     OW 9869   4.807   0.984   0.087
 3140SOL    HW1 9870   4.784   1.037   0.005
 3140SOL    HW2 9871   4.888   0.928   0.068
 3141SOL     OW 9872   3.945   1.314   1.844
 3141SOL    HW1 9873   3.880   1.241   1.823
 3141SOL    HW2 9874   3.949   1.328   1.942
 3142SOL     OW 9875   3.803   1.240   0.653
 3142SOL    HW1 9876   3.802   1.193   0.741
 3142SOL    HW2 9877   3.885   1.212   0.602
 3143SOL     OW 9878   4.396   1.391   1.624
 3143SOL    HW1 9879   4.318   1.341   1.662
 3143SOL    HW2 9880   4.393   1.486   1.655
 3144SOL     OW 9881   4.152   0.424   0.520
 3144SOL    HW1 9882   4.182   0.352   0.458
 3144SOL    HW2 9883   4.113   0.384   0.603
 3145SOL     OW 9884   4.041   0.547   1.280
 3145SOL    HW1 9885   4.079   0.488   1.352
 3145SOL    HW2 9886   4.081   0.521   1.192
 3146SOL     OW 9887   4.536   1.586   0.687
 3146SOL    HW1 9888   4.568   1.596   0.593
 3146SOL    HW2 9889   4.457   1.524   0.689
 3147SOL     OW 9890   4.725   0.034   1.154
 3147SOL    HW1 9891   4.662  -0.038   1.123
 3147SOL    HW2 9892   4.818  -0.002   1.154
 3148SOL     OW 9893   4.494   1.330   0.301
 3148SOL    HW1 9894   4.448   1.243   0.318
 3148SOL    HW2 9895   4.585   1.327   0.342
 3149SOL     OW 9896   4.342   1.567   1.284
 3149SOL    HW1 9897   4.337   1.649   1.341
 3149SOL    HW2 9898   4.431   1.564   1.239
 3150SOL     OW 9899   3.763   1.077   0.300
 3150SOL    HW1 9900   3.862   1.066   0.291
 3150SOL    HW2 9901   3.723   0.991   0.332
 3151SOL     OW 9902   4.599   1.646   0.337
 3151SOL    HW1 9903   4.522   1.611   0.283
 3151SOL    HW2 9904   4.567   1.717   0.399
 3152SOL     OW 9905   3.954   0.628   1.975
 3152SOL    HW1 9906   3.861   0.626   2.012
 3152SOL    HW2 9907   3.955   0.589   1.883
 3153SOL     OW 9908   3.949   0.275   2.858
 3153SOL    HW1 9909   3.984   0.258   2.950
 3153SOL    HW2 9910   3.861   0.230   2.846
 3154SOL     OW 9911   3.743   0.368   2.509
 3154SOL    HW1 9912   3.661   0.411   2.548
 3154SOL    HW2 9913   3.715   0.295   2.446
 3155SOL     OW 9914   4.293   1.275   3.027
 3155SOL    HW1 9915   4.200   1.268   2.990
 3155SOL    HW2 9916   4.304   1.364   3.071
 3156SOL     OW 9917   4.859   0.703   2.579
 3156SOL    HW1 9918   4.916   0.781   2.554
 3156SOL    HW2 9919   4.799   0.729   2.655
 3157SOL     OW 9920   4.492   1.144   2.885
 3157SOL    HW1 9921   4.414   1.161   2.945
 3157SOL    HW2 9922   4.526   1.231   2.849
 3158SOL     OW 9923   4.574   0.798   3.685
 3158SOL    HW1 9924   4.570   0.874   3.750
 3158SOL    HW2 9925   4.596   0.834   3.594
 3159SOL     OW 9926   4.409   1.012   2.527
 3159SOL    HW1 9927   4.478   0.996   2.597
 3159SOL    HW2 9928   4.336   1.069   2.565
 3160SOL     OW 9929   4.410   1.161   3.665
 3160SOL    HW1 9930   4.470   1.240   3.679
 3160SOL    HW2 9931   4.324   1.192   3.624
 3161SOL     OW 9932   4.059   1.435   2.923
 3161SOL    HW1 9933   3.981   1.404   2.870
 3161SOL    HW2 9934   4.117   1.493   2.866
 3162SOL     OW 9935   4.162   0.392   3.361
 3162SOL    HW1 9936   4.244   0.336   3.370
 3162SOL    HW2 9937   4.081   0.334   3.365
 3163SOL     OW 9938   3.955   1.713   2.345
 3163SOL    HW1 9939   3.989   1.790   2.399
 3163SOL    HW2 9940   3.999   1.713   2.255
 3164SOL     OW 9941   4.851   1.341   3.552
 3164SOL    HW1 9942   4.898   1.341   3.640
 3164SOL    HW2 9943   4.803   1.254   3.541
 3165SOL     OW 9944   3.954   1.434   2.400
 3165SOL    HW1 9945   3.928   1.530   2.400
 3165SOL    HW2 9946   3.883   1.380   2.445
 3166SOL     OW 9947   3.964   1.091   2.748
 3166SOL    HW1 9948   3.978   1.007   2.800
 3166SOL    HW2 9949   3.909   1.155   2.803
 3167SOL     OW 9950   4.344   1.786   3.301
 3167SOL    HW1 9951   4.252   1.769   3.336
 3167SOL    HW2 9952   4.372   1.878   3.327
 3168SOL     OW 9953   4.330   0.964   1.985
 3168SOL    HW1 9954   4.337   1.048   1.931
 3168SOL    HW2 9955   4.376   0.977   2.073
 3169SOL     OW 9956   3.846   0.643   2.425
 3169SOL    HW1 9957   3.801   0.555   2.442
 3169SOL    HW2 9958   3.845   0.697   2.509
 3170SOL     OW 9959   3.751   1.596   1.979
 3170SOL    HW1 9960   3.732   1.500   2.000
 3170SOL    HW2 9961   3.718   1.654   2.054
 3171SOL     OW 9962   3.837   0.737   3.459
 3171SOL    HW1 9963   3.925   0.724   3.504
 3171SOL    HW2 9964   3.824   0.834   3.437
 3172SOL     OW 9965   4.337   1.365   2.588
 3172SOL    HW1 9966   4.288   1.278   2.597
 3172SOL    HW2 9967   4.314   1.408   2.501
 3173SOL     OW 9968   5.017   1.228   3.285
 3173SOL    HW1 9969   5.054   1.155   3.227
 3173SOL    HW2 9970   5.069   1.233   3.370
 3174SOL     OW 9971   4.533   0.004   2.364
 3174SOL    HW1 9972   4.573   0.095   2.355
 3174SOL    HW2 9973   4.433   0.012   2.370
 3175SOL     OW 9974   3.921   0.976   3.126
 3175SOL    HW1 9975   4.010   0.931   3.112
 3175SOL    HW2 9976   3.848   0.911   3.107
 3176SOL     OW 9977   4.911   1.792   3.478
 3176SOL    HW1 9978   4.935   1.852   3.402
 3176SOL    HW2 9979   4.918   1.697   3.448
 3177SOL     OW 9980   4.041   0.251   3.663
 3177SOL    HW1 9981   4.112   0.322   3.669
 3177SOL    HW2 9982   3.953   0.290   3.691
 3178SOL     OW 9983   4.322   0.729   2.132
 3178SOL    HW1 9984   4.346   0.798   2.064
 3178SOL    HW2 9985   4.244   0.762   2.186
 3179SOL     OW 9986   5.005   0.345   2.806
 3179SOL    HW1 9987   4.919   0.295   2.793
 3179SOL    HW2 9988   5.067   0.291   2.862
 3180SOL     OW 9989   4.531   0.605   3.327
 3180SOL    HW1 9990   4.484   0.602   3.416
 3180SOL    HW2 9991   4.480   0.550   3.261
 3181SOL     OW 9992   4.697   0.890   3.434
 3181SOL    HW1 9993   4.743   0.806   3.405
 3181SOL    HW2 9994   4.641   0.924   3.359
 3182SOL     OW 9995   4.715   0.410   3.104
 3182SOL    HW1 9996   4.638   0.444   3.158
 3182SOL    HW2 9997   4.681   0.359   3.025
 3183SOL     OW 9998   4.765   0.701   2.291
 3183SOL    HW1 9999   4.791   0.697   2.387
 3183SOL    HW210000   4.680   0.650   2.277
 3184SOL     OW10001   3.800   0.811   2.651
 3184SOL    HW110002   3.899   0.799   2.660
 3184SOL    HW210003   3.776   0.906   2.672
 3185SOL     OW10004   3.854   1.821   3.433
 3185SOL    HW110005   3.844   1.806   3.532
 3185SOL    HW210006   3.768   1.857   3.397
 3186SOL     OW10007   4.589   0.348   2.057
 3186SOL    HW110008   4.648   0.411   2.008
 3186SOL    HW210009   4.608   0.254   2.028
 3187SOL     OW10010   4.274   0.196   2.747
 3187SOL    HW110011   4.269   0.191   2.847
 3187SOL    HW210012   4.276   0.292   2.718
 3188SOL     OW10013   4.732   1.456   2.339
 3188SOL    HW110014   4.686   1.528   2.287
 3188SOL    HW210015   4.728   1.476   2.437
 3189SOL     OW10016   4.951   1.550   3.368
 3189SOL    HW110017   4.957   1.473   3.432
 3189SOL    HW210018   4.899   1.524   3.288
 3190SOL     OW10019   4.045   0.943   2.104
 3190SOL    HW110020   4.127   0.982   2.062
 3190SOL    HW210021   4.018   0.861   2.055
 3191SOL     OW10022   4.185   1.266   3.589
 3191SOL    HW110023   4.135   1.267   3.503
 3191SOL    HW210024   4.122   1.248   3.665
 3192SOL     OW10025   4.835   1.776   2.099
 3192SOL    HW110026   4.775   1.714   2.149
 3192SOL    HW210027   4.866   1.732   2.014
 3193SOL     OW10028   3.926   0.285   3.360
 3193SOL    HW110029   3.846   0.345   3.347
 3193SOL    HW210030   3.916   0.236   3.446
 3194SOL     OW10031   4.188   1.743   2.185
 3194SOL    HW110032   4.221   1.782   2.271
 3194SOL    HW210033   4.264   1.736   2.120
 3195SOL     OW10034   3.973   1.785   3.103
 3195SOL    HW110035   4.030   1.720   3.153
 3195SOL    HW210036   3.957   1.752   3.010
 3196SOL     OW10037   4.664   1.698   2.766
 3196SOL    HW110038   4.744   1.641   2.787
 3196SOL    HW210039   4.615   1.658   2.689
 3197SOL     OW10040   4.106   0.700   2.342
 3197SOL    HW110041   4.151   0.610   2.339
 3197SOL    HW210042   4.012   0.689   2.375
 3198SOL     OW10043   4.338   0.122   1.979
 3198SOL    HW110044   4.436   0.100   1.986
 3198SOL    HW210045   4.307   0.105   1.886
 3199SOL     OW10046   4.505   0.264   3.611
 3199SOL    HW110047   4.572   0.203   3.654
 3199SOL    HW210048   4.432   0.283   3.676
 3200SOL     OW10049   4.612   1.514   3.057
 3200SOL    HW110050   4.589   1.489   2.963
 3200SOL    HW210051   4.673   1.445   3.096
 3201SOL     OW10052   4.527   1.402   2.786
 3201SOL    HW110053   4.617   1.416   2.744
 3201SOL    HW210054   4.456   1.404   2.715
 3202SOL     OW10055   4.646   0.503   2.761
 3202SOL    HW110056   4.621   0.494   2.665
 3202SOL    HW210057   4.694   0.421   2.792
 3203SOL     OW10058   4.263   0.064   2.374
 3203SOL    HW110059   4.182   0.065   2.432
 3203SOL    HW210060   4.266   0.147   2.319
 3204SOL     OW10061   4.021   0.035   2.033
 3204SOL    HW110062   4.070   0.119   2.012
 3204SOL    HW210063   4.083  -0.030   2.078
 3205SOL     OW10064   4.659   0.236   2.342
 3205SOL    HW110065   4.611   0.277   2.264
 3205SOL    HW210066   4.758   0.234   2.323
 3206SOL     OW10067   4.800   0.683   3.326
 3206SOL    HW110068   4.720   0.622   3.329
 3206SOL    HW210069   4.881   0.630   3.302
 3207SOL     OW10070   4.951   1.570   2.655
 3207SOL    HW110071   4.972   1.644   2.590
 3207SOL    HW210072   5.019   1.570   2.728
 3208SOL     OW10073   4.183   1.152   2.603
 3208SOL    HW110074   4.112   1.125   2.668
 3208SOL    HW210075   4.157   1.124   2.510
 3209SOL     OW10076   4.995   1.797   2.453
 3209SOL    HW110077   5.039   1.861   2.389
 3209SOL    HW210078   4.945   1.849   2.523
 3210SOL     OW10079   4.756   0.549   1.878
 3210SOL    HW110080   4.715   0.631   1.839
 3210SOL    HW210081   4.820   0.575   1.951
 3211SOL     OW10082   3.802   0.556   3.248
 3211SOL    HW110083   3.894   0.555   3.207
 3211SOL    HW210084   3.796   0.630   3.315
 3212SOL     OW10085   4.285   0.222   3.009
 3212SOL    HW110086   4.323   0.138   3.046
 3212SOL    HW210087   4.197   0.241   3.053
 3213SOL     OW10088   4.590   0.454   2.504
 3213SOL    HW110089   4.558   0.526   2.442
 3213SOL    HW210090   4.614   0.373   2.451
 3214SOL     OW10091   4.741   0.039   2.615
 3214SOL    HW110092   4.669   0.044   2.546
 3214SOL    HW210093   4.717  -0.030   2.684
 3215SOL     OW10094   4.212   1.385   2.036
 3215SOL    HW110095   4.125   1.370   2.083
 3215SOL    HW210096   4.195   1.411   1.941
 3216SOL     OW10097   5.388   1.280   2.519
 3216SOL    HW110098   5.487   1.288   2.533
 3216SOL    HW210099   5.343   1.364   2.550
 3217SOL     OW10100   4.251   0.256   2.190
 3217SOL    HW110101   4.278   0.197   2.115
 3217SOL    HW210102   4.251   0.351   2.159
 3218SOL     OW10103   4.788   1.347   3.202
 3218SOL    HW110104   4.708   1.324   3.257
 3218SOL    HW210105   4.871   1.321   3.251
 3219SOL     OW10106   4.835   1.195   2.962
 3219SOL    HW110107   4.795   1.239   3.043
 3219SOL    HW210108   4.794   1.232   2.879
 3220SOL     OW10109   4.639   0.089   3.264
 3220SOL    HW110110   4.664   0.069   3.169
 3220SOL    HW210111   4.711   0.145   3.306
 3221SOL     OW10112   4.704   1.116   3.581
 3221SOL    HW110113   4.605   1.122   3.591
 3221SOL    HW210114   4.727   1.036   3.525
 3222SOL     OW10115   4.429   1.050   2.230
 3222SOL    HW110116   4.415   1.057   2.329
 3222SOL    HW210117   4.513   0.999   2.212
 3223SOL     OW10118   4.134   0.813   3.113
 3223SOL    HW110119   4.220   0.825   3.163
 3223SOL    HW210120   4.092   0.726   3.140
 3224SOL     OW10121   4.998   0.386   3.124
 3224SOL    HW110122   5.019   0.460   3.188
 3224SOL    HW210123   4.909   0.403   3.081
 3225SOL     OW10124   3.788   1.564   3.193
 3225SOL    HW110125   3.742   1.646   3.159
 3225SOL    HW210126   3.886   1.583   3.202
 3226SOL     OW10127   4.091   1.100   2.363
 3226SOL    HW110128   4.084   1.183   2.307
 3226SOL    HW210129   4.095   1.020   2.303
 3227SOL     OW10130   4.290   0.537   2.727
 3227SOL    HW110131   4.302   0.603   2.653
 3227SOL    HW210132   4.336   0.571   2.810
 3228SOL     OW10133   4.976   1.348   2.250
 3228SOL    HW110134   5.026   1.425   2.290
 3228SOL    HW210135   4.881   1.350   2.282
 3229SOL     OW10136   4.078   1.510   3.191
 3229SOL    HW110137   4.057   1.466   3.104
 3229SOL    HW210138   4.175   1.536   3.194
 3230SOL     OW10139   4.126   0.751   3.460
 3230SOL    HW110140   4.194   0.806   3.413
 3230SOL    HW210141   4.166   0.663   3.487
 3231SOL     OW10142   4.737   0.105   3.632
 3231SOL    HW110143   4.743   0.190   3.580
 3231SOL    HW210144   4.769   0.029   3.575
 3232SOL     OW10145   4.228   0.050   3.602
 3232SOL    HW110146   4.186  -0.007   3.532
 3232SOL    HW210147   4.162   0.119   3.634
 3233SOL     OW10148   4.297   0.870   2.891
 3233SOL    HW110149   4.341   0.959   2.882
 3233SOL    HW210150   4.234   0.870   2.968
 3234SOL     OW10151   5.084   0.862   2.907
 3234SOL    HW110152   5.009   0.862   2.841
 3234SOL    HW210153   5.121   0.770   2.916
 3235SOL     OW10154   4.933   0.525   2.137
 3235SOL    HW110155   4.946   0.441   2.191
 3235SOL    HW210156   4.904   0.599   2.197
 3236SOL     OW10157   4.031   0.213   3.093
 3236SOL    HW110158   4.008   0.250   3.183
 3236SOL    HW210159   4.001   0.118   3.087
 3237SOL     OW10160   3.761   1.310   3.144
 3237SOL    HW110161   3.814   1.261   3.212
 3237SOL    HW210162   3.783   1.408   3.149
 3238SOL     OW10163   4.456   0.634   2.926
 3238SOL    HW110164   4.515   0.608   2.850
 3238SOL    HW210165   4.428   0.730   2.915
 3239SOL     OW10166   4.031   0.063   2.480
 3239SOL    HW110167   4.020   0.157   2.513
 3239SOL    HW210168   4.026   0.000   2.557
 3240SOL     OW10169   5.346   0.367   2.236
 3240SOL    HW110170   5.348   0.291   2.300
 3240SOL    HW210171   5.298   0.444   2.276
 3241SOL     OW10172   4.747   0.766   2.828
 3241SOL    HW110173   4.762   0.787   2.924
 3241SOL    HW210174   4.717   0.671   2.819
 3242SOL     OW10175   4.704   1.573   3.562
 3242SOL    HW110176   4.684   1.617   3.474
 3242SOL    HW210177   4.743   1.482   3.546
 3243SOL     OW10178   4.074   0.898   3.666
 3243SOL    HW110179   4.150   0.942   3.714
 3243SOL    HW210180   4.109   0.851   3.584
 3244SOL     OW10181   5.027   0.838   1.904
 3244SOL    HW110182   5.061   0.745   1.919
 3244SOL    HW210183   5.045   0.865   1.809
 3245SOL     OW10184   4.792   1.333   2.711
 3245SOL    HW110185   4.799   1.249   2.656
 3245SOL    HW210186   4.854   1.402   2.675
 3246SOL     OW10187   4.043   0.810   2.811
 3246SOL    HW110188   4.136   0.846   2.816
 3246SOL    HW210189   4.037   0.725   2.863
 3247SOL     OW10190   4.063   0.509   2.868
 3247SOL    HW110191   4.011   0.426   2.851
 3247SOL    HW210192   4.140   0.514   2.804
 3248SOL     OW10193   4.862   0.380   3.540
 3248SOL    HW110194   4.817   0.443   3.604
 3248SOL    HW210195   4.955   0.411   3.523
 3249SOL     OW10196   4.884   0.207   3.339
 3249SOL    HW110197   4.884   0.271   3.416
 3249SOL    HW210198   4.912   0.255   3.256
 3250SOL     OW10199   3.812   1.801   2.789
 3250SOL    HW110200   3.770   1.715   2.762
 3250SOL    HW210201   3.906   1.804   2.755
 3251SOL     OW10202   4.228   1.568   2.772
 3251SOL    HW110203   4.294   1.642   2.781
 3251SOL    HW210204   4.272   1.489   2.730
 3252SOL     OW10205   4.726   0.796   3.100
 3252SOL    HW110206   4.767   0.764   3.186
 3252SOL    HW210207   4.630   0.769   3.097
 3253SOL     OW10208   3.764   0.544   2.976
 3253SOL    HW110209   3.849   0.511   2.935
 3253SOL    HW210210   3.777   0.559   3.074
 3254SOL     OW10211   3.913   0.520   3.584
 3254SOL    HW110212   3.972   0.480   3.514
 3254SOL    HW210213   3.855   0.591   3.543
 3255SOL     OW10214   4.539   0.572   2.187
 3255SOL    HW110215   4.546   0.483   2.141
 3255SOL    HW210216   4.445   0.606   2.179
 3256SOL     OW10217   3.976   1.564   3.606
 3256SOL    HW110218   3.946   1.621   3.682
 3256SOL    HW210219   3.969   1.467   3.632
 3257SOL     OW10220   4.395   0.464   3.131
 3257SOL    HW110221   4.361   0.375   3.101
 3257SOL    HW210222   4.421   0.518   3.051
 3258SOL     OW10223   4.654   1.678   3.327
 3258SOL    HW110224   4.630   1.660   3.232
 3258SOL    HW210225   4.684   1.772   3.337
 3259SOL     OW10226   4.197   0.500   2.053
 3259SOL    HW110227   4.258   0.580   2.057
 3259SOL    HW210228   4.102   0.531   2.060
 3260SOL     OW10229   3.883   1.137   3.328
 3260SOL    HW110230   3.905   1.076   3.404
 3260SOL    HW210231   3.893   1.088   3.242
 3261SOL     OW10232   5.071   1.059   3.096
 3261SOL    HW110233   5.095   0.996   3.022
 3261SOL    HW210234   4.981   1.099   3.078
 3262SOL     OW10235   4.976   1.731   2.990
 3262SOL    HW110236   5.060   1.736   2.936
 3262SOL    HW210237   4.953   1.635   3.008
 3263SOL     OW10238   3.807   1.258   2.884
 3263SOL    HW110239   3.802   1.257   2.984
 3263SOL    HW210240   3.724   1.217   2.846
 3264SOL     OW10241   4.412   1.662   3.578
 3264SOL    HW110242   4.356   1.743   3.587
 3264SOL    HW210243   4.464   1.666   3.492
 3265SOL     OW10244   5.112   1.573   2.339
 3265SOL    HW110245   5.179   1.585   2.265
 3265SOL    HW210246   5.072   1.662   2.362
 3266SOL     OW10247   3.854   1.794   3.713
 3266SOL    HW110248   3.813   1.720   3.766
 3266SOL    HW210249   3.918   1.845   3.771
 3267SOL     OW10250   5.004   0.927   2.534
 3267SOL    HW110251   5.064   0.846   2.536
 3267SOL    HW210252   5.044   0.996   2.474
 3268SOL     OW10253   4.554   1.273   3.284
 3268SOL    HW110254   4.549   1.306   3.379
 3268SOL    HW210255   4.468   1.292   3.238
 3269SOL     OW10256   4.396   1.616   2.016
 3269SOL    HW110257   4.405   1.626   1.917
 3269SOL    HW210258   4.356   1.527   2.037
 3270SOL     OW10259   3.987   0.326   2.582
 3270SOL    HW110260   3.908   0.377   2.548
 3270SOL    HW210261   3.978   0.311   2.680
 3271SOL     OW10262   4.918   1.612   1.893
 3271SOL    HW110263   4.924   1.519   1.930
 3271SOL    HW210264   4.859   1.612   1.813
 3272SOL     OW10265   4.546   1.002   3.234
 3272SOL    HW110266   4.586   1.001   3.142
 3272SOL    HW210267   4.556   1.094   3.274
 3273SOL     OW10268   4.640   0.910   2.153
 3273SOL    HW110269   4.703   0.948   2.085
 3273SOL    HW210270   4.680   0.827   2.192
 3274SOL     OW10271   4.096   1.288   3.352
 3274SOL    HW110272   4.083   1.381   3.318
 3274SOL    HW210273   4.012   1.236   3.339
 3275SOL     OW10274   4.763   1.098   2.558
 3275SOL    HW110275   4.693   1.051   2.612
 3275SOL    HW210276   4.822   1.030   2.515
 3276SOL     OW10277   4.738   0.236   2.833
 3276SOL    HW110278   4.730   0.200   2.740
 3276SOL    HW210279   4.736   0.160   2.898
 3277SOL     OW10280   4.314   1.487   2.353
 3277SOL    HW110281   4.356   1.429   2.283
 3277SOL    HW210282   4.270   1.566   2.309
 3278SOL     OW10283   3.979   1.348   2.152
 3278SOL    HW110284   3.883   1.349   2.125
 3278SOL    HW210285   3.991   1.401   2.236
 3279SOL     OW10286   3.829   1.013   3.588
 3279SOL    HW110287   3.752   0.980   3.642
 3279SOL    HW210288   3.914   0.983   3.630
 3280SOL     OW10289   4.396   0.203   3.351
 3280SOL    HW110290   4.486   0.187   3.311
 3280SOL    HW210291   4.404   0.208   3.450
 3281SOL     OW10292   3.799   0.345   1.895
 3281SOL    HW110293   3.707   0.317   1.866
 3281SOL    HW210294   3.830   0.422   1.839
 3282SOL     OW10295   5.164   0.856   3.260
 3282SOL    HW110296   5.107   0.908   3.197
 3282SOL    HW210297   5.260   0.868   3.236
 3283SOL     OW10298   3.796   0.166   2.180
 3283SOL    HW110299   3.779   0.249   2.126
 3283SOL    HW210300   3.886   0.129   2.158
 3284SOL     OW10301   4.337   0.842   3.293
 3284SOL    HW110302   4.393   0.923   3.276
 3284SOL    HW210303   4.396   0.762   3.296
 3285SOL     OW10304   4.440   0.565   3.570
 3285SOL    HW110305   4.459   0.630   3.644
 3285SOL    HW210306   4.500   0.485   3.579
 3286SOL     OW10307   4.114   1.741   3.422
 3286SOL    HW110308   4.023   1.782   3.420
 3286SOL    HW210309   4.107   1.647   3.454
 3287SOL     OW10310   4.949   0.325   2.311
 3287SOL    HW110311   5.014   0.251   2.300
 3287SOL    HW210312   4.969   0.375   2.395
 3288SOL     OW10313   4.318   0.745   2.514
 3288SOL    HW110314   4.368   0.830   2.495
 3288SOL    HW210315   4.230   0.747   2.466
 3289SOL     OW10316   4.583   1.374   1.878
 3289SOL    HW110317   4.537   1.389   1.966
 3289SOL    HW210318   4.627   1.459   1.848
 3290SOL     OW10319   4.583   0.956   2.723
 3290SOL    HW110320   4.637   0.887   2.771
 3290SOL    HW210321   4.551   1.025   2.789
 3291SOL     OW10322   4.807   0.984   1.949
 3291SOL    HW110323   4.784   1.037   1.867
 3291SOL    HW210324   4.888   0.928   1.930
 3292SOL     OW10325   3.945   1.314   3.706
 3292SOL    HW110326   3.880   1.241   3.685
 3292SOL    HW210327   3.949   1.328   3.804
 3293SOL     OW10328   3.803   1.240   2.515
 3293SOL    HW110329   3.802   1.193   2.603
 3293SOL    HW210330   3.885   1.212   2.464
 3294SOL     OW10331   4.396   1.391   3.486
 3294SOL    HW110332   4.318   1.341   3.524
 3294SOL    HW210333   4.393   1.486   3.517
 3295SOL     OW10334   4.152   0.424   2.382
 3295SOL    HW110335   4.182   0.352   2.320
 3295SOL    HW210336   4.113   0.384   2.465
 3296SOL     OW10337   4.041   0.547   3.142
 3296SOL    HW110338   4.079   0.488   3.214
 3296SOL    HW210339   4.081   0.521   3.054
 3297SOL     OW10340   4.536   1.586   2.549
 3297SOL    HW110341   4.568   1.596   2.455
 3297SOL    HW210342   4.457   1.524   2.551
 3298SOL     OW10343   4.725   0.034   3.016
 3298SOL    HW110344   4.662  -0.038   2.985
 3298SOL    HW210345   4.818  -0.002   3.016
 3299SOL     OW10346   4.494   1.330   2.163
 3299SOL    HW110347   4.448   1.243   2.180
 3299SOL    HW210348   4.585   1.327   2.204
 3300SOL     OW10349   4.342   1.567   3.146
 3300SOL    HW110350   4.337   1.649   3.203
 3300SOL    HW210351   4.431   1.564   3.101
 3301SOL     OW10352   3.763   1.077   2.162
 3301SOL    HW110353   3.862   1.066   2.153
 3301SOL    HW210354   3.723   0.991   2.194
 3302SOL     OW10355   4.599   1.646   2.199
 3302SOL    HW110356   4.522   1.611   2.145
 3302SOL    HW210357   4.567   1.717   2.261
 3303SOL     OW10358   3.954   0.628   3.837
 3303SOL    HW110359   3.861   0.626   3.874
 3303SOL    HW210360   3.955   0.589   3.745
 3304SOL     OW10361   3.949   0.275   4.720
 3304SOL    HW110362   3.984   0.258   4.812
 3304SOL    HW210363   3.861   0.230   4.708
 3305SOL     OW10364   3.743   0.368   4.371
 3305SOL    HW110365   3.661   0.411   4.410
 3305SOL    HW210366   3.715   0.295   4.308
 3306SOL     OW10367   4.293   1.275   4.889
 3306SOL    HW110368   4.200   1.268   4.852
 3306SOL    HW210369   4.304   1.364   4.933
 3307SOL     OW10370   4.859   0.703   4.441
 3307SOL    HW110371   4.916   0.781   4.416
 3307SOL    HW210372   4.799   0.729   4.517
 3308SOL     OW10373   4.492   1.144   4.747
 3308SOL    HW110374   4.414   1.161   4.807
 3308SOL    HW210375   4.526   1.231   4.711
 3309SOL     OW10376   4.409   1.012   4.389
 3309SOL    HW110377   4.478   0.996   4.459
 3309SOL    HW210378   4.336   1.069   4.427
 3310SOL     OW10379   4.059   1.435   4.785
 3310SOL    HW110380   3.981   1.404   4.732
 3310SOL    HW210381   4.117   1.493   4.728
 3311SOL     OW10382   3.955   1.713   4.207
 3311SOL    HW110383   3.989   1.790   4.261
 3311SOL    HW210384   3.999   1.713   4.117
 3312SOL     OW10385   3.954   1.434   4.262
 3312SOL    HW110386   3.928   1.530   4.262
 3312SOL    HW210387   3.883   1.380   4.307
 3313SOL     OW10388   3.964   1.091   4.610
 3313SOL    HW110389   3.978   1.007   4.662
 3313SOL    HW210390   3.909   1.155   4.665
 3314SOL     OW10391   4.344   1.786   5.163
 3314SOL    HW110392   4.252   1.769   5.198
 3314SOL    HW210393   4.372   1.878   5.189
 3315SOL     OW10394   4.330   0.964   3.847
 3315SOL    HW110395   4.337   1.048   3.793
 3315SOL    HW210396   4.376   0.977   3.935
 3316SOL     OW10397   3.846   0.643   4.287
 3316SOL    HW110398   3.801   0.555   4.304
 3316SOL    HW210399   3.845   0.697   4.371
 3317SOL     OW10400   3.751   1.596   3.841
 3317SOL    HW110401   3.732   1.500   3.862
 3317SOL    HW210402   3.718   1.654   3.916
 3318SOL     OW10403   4.337   1.365   4.450
 3318SOL    HW110404   4.288   1.278   4.459
 3318SOL    HW210405   4.314   1.408   4.363
 3319SOL     OW10406   4.533   0.004   4.226
 3319SOL    HW110407   4.573   0.095   4.217
 3319SOL    HW210408   4.433   0.012   4.232
 3320SOL     OW10409   3.921   0.976   4.988
 3320SOL    HW110410   4.010   0.931   4.974
 3320SOL    HW210411   3.848   0.911   4.969
 3321SOL     OW10412   4.322   0.729   3.994
 3321SOL    HW110413   4.346   0.798   3.926
 3321SOL    HW210414   4.244   0.762   4.048
 3322SOL     OW10415   5.005   0.345   4.668
 3322SOL    HW110416   4.919   0.295   4.655
 3322SOL    HW210417   5.067   0.291   4.724
 3323SOL     OW10418   4.715   0.410   4.966
 3323SOL    HW110419   4.638   0.444   5.020
 3323SOL    HW210420   4.681   0.359   4.887
 3324SOL     OW10421   4.765   0.701   4.153
 3324SOL    HW110422   4.791   0.697   4.249
 3324SOL    HW210423   4.680   0.650   4.139
 3325SOL     OW10424   3.800   0.811   4.513
 3325SOL    HW110425   3.899   0.799   4.522
 3325SOL    HW210426   3.776   0.906   4.534
 3326SOL     OW10427   4.589   0.348   3.919
 3326SOL    HW110428   4.648   0.411   3.870
 3326SOL    HW210429   4.608   0.254   3.890
 3327SOL     OW10430   4.274   0.196   4.609
 3327SOL    HW110431   4.269   0.191   4.709
 3327SOL    HW210432   4.276   0.292   4.580
 3328SOL     OW10433   4.732   1.456   4.201
 3328SOL    HW110434   4.686   1.528   4.149
 3328SOL    HW210435   4.728   1.476   4.299
 3329SOL     OW10436   4.075   1.801   4.577
 3329SOL    HW110437   4.125   1.715   4.583
 3329SOL    HW210438   4.140   1.878   4.574
 3330SOL     OW10439   4.045   0.943   3.966
 3330SOL    HW110440   4.127   0.982   3.924
 3330SOL    HW210441   4.018   0.861   3.917
 3331SOL     OW10442   4.835   1.776   3.961
 3331SOL    HW110443   4.775   1.714   4.011
 3331SOL    HW210444   4.866   1.732   3.876
 3332SOL     OW10445   4.188   1.743   4.047
 3332SOL    HW110446   4.221   1.782   4.133
 3332SOL    HW210447   4.264   1.736   3.982
 3333SOL     OW10448   3.973   1.785   4.965
 3333SOL    HW110449   4.030   1.720   5.015
 3333SOL    HW210450   3.957   1.752   4.872
 3334SOL     OW10451   4.664   1.698   4.628
 3334SOL    HW110452   4.744   1.641   4.649
 3334SOL    HW210453   4.615   1.658   4.551
 3335SOL     OW10454   4.106   0.700   4.204
 3335SOL    HW110455   4.151   0.610   4.201
 3335SOL    HW210456   4.012   0.689   4.237
 3336SOL     OW10457   4.338   0.122   3.841
 3336SOL    HW110458   4.436   0.100   3.848
 3336SOL    HW210459   4.307   0.105   3.748
 3337SOL     OW10460   4.527   1.402   4.648
 3337SOL    HW110461   4.617   1.416   4.606
 3337SOL    HW210462   4.456   1.404   4.577
 3338SOL     OW10463   4.646   0.503   4.623
 3338SOL    HW110464   4.621   0.494   4.527
 3338SOL    HW210465   4.694   0.421   4.654
 3339SOL     OW10466   4.263   0.064   4.236
 3339SOL    HW110467   4.182   0.065   4.294
 3339SOL    HW210468   4.266   0.147   4.181
 3340SOL     OW10469   4.021   0.035   3.895
 3340SOL    HW110470   4.070   0.119   3.874
 3340SOL    HW210471   4.083  -0.030   3.940
 3341SOL     OW10472   4.659   0.236   4.204
 3341SOL    HW110473   4.611   0.277   4.126
 3341SOL    HW210474   4.758   0.234   4.185
 3342SOL     OW10475   4.951   1.570   4.517
 3342SOL    HW110476   4.972   1.644   4.452
 3342SOL    HW210477   5.019   1.570   4.590
 3343SOL     OW10478   4.183   1.152   4.465
 3343SOL    HW110479   4.112   1.125   4.530
 3343SOL    HW210480   4.157   1.124   4.372
 3344SOL     OW10481   4.756   0.549   3.740
 3344SOL    HW110482   4.715   0.631   3.701
 3344SOL    HW210483   4.820   0.575   3.813
 3345SOL     OW10484   4.285   0.222   4.871
 3345SOL    HW110485   4.323   0.138   4.908
 3345SOL    HW210486   4.197   0.241   4.915
 3346SOL     OW10487   4.590   0.454   4.366
 3346SOL    HW110488   4.558   0.526   4.304
 3346SOL    HW210489   4.614   0.373   4.313
 3347SOL     OW10490   4.741   0.039   4.477
 3347SOL    HW110491   4.669   0.044   4.408
 3347SOL    HW210492   4.717  -0.030   4.546
 3348SOL     OW10493   4.212   1.385   3.898
 3348SOL    HW110494   4.125   1.370   3.945
 3348SOL    HW210495   4.195   1.411   3.803
 3349SOL     OW10496   5.388   1.280   4.381
 3349SOL    HW110497   5.487   1.288   4.395
 3349SOL    HW210498   5.343   1.364   4.412
 3350SOL     OW10499   4.251   0.256   4.052
 3350SOL    HW110500   4.278   0.197   3.977
 3350SOL    HW210501   4.251   0.351   4.021
 3351SOL     OW10502   5.316   1.629   5.349
 3351SOL    HW110503   5.343   1.663   5.259
 3351SOL    HW210504   5.395   1.591   5.395
 3352SOL     OW10505   4.835   1.195   4.824
 3352SOL    HW110506   4.795   1.239   4.905
 3352SOL    HW210507   4.794   1.232   4.741
 3353SOL     OW10508   4.429   1.050   4.092
 3353SOL    HW110509   4.415   1.057   4.191
 3353SOL    HW210510   4.513   0.999   4.074
 3354SOL     OW10511   4.134   0.813   4.975
 3354SOL    HW110512   4.220   0.825   5.025
 3354SOL    HW210513   4.092   0.726   5.002
 3355SOL     OW10514   4.091   1.100   4.225
 3355SOL    HW110515   4.084   1.183   4.169
 3355SOL    HW210516   4.095   1.020   4.165
 3356SOL     OW10517   4.290   0.537   4.589
 3356SOL    HW110518   4.302   0.603   4.515
 3356SOL    HW210519   4.336   0.571   4.672
 3357SOL     OW10520   4.976   1.348   4.112
 3357SOL    HW110521   5.026   1.425   4.152
 3357SOL    HW210522   4.881   1.350   4.144
 3358SOL     OW10523   4.078   1.510   5.053
 3358SOL    HW110524   4.057   1.466   4.966
 3358SOL    HW210525   4.175   1.536   5.056
 3359SOL     OW10526   4.297   0.870   4.753
 3359SOL    HW110527   4.341   0.959   4.744
 3359SOL    HW210528   4.234   0.870   4.830
 3360SOL     OW10529   5.084   0.862   4.769
 3360SOL    HW110530   5.009   0.862   4.703
 3360SOL    HW210531   5.121   0.770   4.778
 3361SOL     OW10532   4.933   0.525   3.999
 3361SOL    HW110533   4.946   0.441   4.053
 3361SOL    HW210534   4.904   0.599   4.059
 3362SOL     OW10535   4.031   0.213   4.955
 3362SOL    HW110536   4.008   0.250   5.045
 3362SOL    HW210537   4.001   0.118   4.949
 3363SOL     OW10538   3.761   1.310   5.006
 3363SOL    HW110539   3.814   1.261   5.074
 3363SOL    HW210540   3.783   1.408   5.011
 3364SOL     OW10541   4.456   0.634   4.788
 3364SOL    HW110542   4.515   0.608   4.712
 3364SOL    HW210543   4.428   0.730   4.777
 3365SOL     OW10544   4.031   0.063   4.342
 3365SOL    HW110545   4.020   0.157   4.375
 3365SOL    HW210546   4.026   0.000   4.419
 3366SOL     OW10547   5.346   0.367   4.098
 3366SOL    HW110548   5.348   0.291   4.162
 3366SOL    HW210549   5.298   0.444   4.138
 3367SOL     OW10550   4.747   0.766   4.690
 3367SOL    HW110551   4.762   0.787   4.786
 3367SOL    HW210552   4.717   0.671   4.681
 3368SOL     OW10553   5.027   0.838   3.766
 3368SOL    HW110554   5.061   0.745   3.781
 3368SOL    HW210555   5.045   0.865   3.671
 3369SOL     OW10556   4.792   1.333   4.573
 3369SOL    HW110557   4.799   1.249   4.518
 3369SOL    HW210558   4.854   1.402   4.537
 3370SOL     OW10559   4.043   0.810   4.673
 3370SOL    HW110560   4.136   0.846   4.678
 3370SOL    HW210561   4.037   0.725   4.725
 3371SOL     OW10562   4.063   0.509   4.730
 3371SOL    HW110563   4.011   0.426   4.713
 3371SOL    HW210564   4.140   0.514   4.666
 3372SOL     OW10565   4.884   0.207   5.201
 3372SOL    HW110566   4.884   0.271   5.278
 3372SOL    HW210567   4.912   0.255   5.118
 3373SOL     OW10568   3.732   1.326   3.924
 3373SOL    HW110569   3.639   1.347   3.893
 3373SOL    HW210570   3.742   1.227   3.937
 3374SOL     OW10571   3.812   1.801   4.651
 3374SOL    HW110572   3.770   1.715   4.624
 3374SOL    HW210573   3.906   1.804   4.617
 3375SOL     OW10574   4.228   1.568   4.634
 3375SOL    HW110575   4.294   1.642   4.643
 3375SOL    HW210576   4.272   1.489   4.592
 3376SOL     OW10577   4.726   0.796   4.962
 3376SOL    HW110578   4.767   0.764   5.048
 3376SOL    HW210579   4.630   0.769   4.959
 3377SOL     OW10580   3.764   0.544   4.838
 3377SOL    HW110581   3.849   0.511   4.797
 3377SOL    HW210582   3.777   0.559   4.936
 3378SOL     OW10583   4.539   0.572   4.049
 3378SOL    HW110584   4.546   0.483   4.003
 3378SOL    HW210585   4.445   0.606   4.041
 3379SOL     OW10586   4.395   0.464   4.993
 3379SOL    HW110587   4.361   0.375   4.963
 3379SOL    HW210588   4.421   0.518   4.913
 3380SOL     OW10589   4.654   1.678   5.189
 3380SOL    HW110590   4.630   1.660   5.094
 3380SOL    HW210591   4.684   1.772   5.199
 3381SOL     OW10592   4.197   0.500   3.915
 3381SOL    HW110593   4.258   0.580   3.919
 3381SOL    HW210594   4.102   0.531   3.922
 3382SOL     OW10595   5.071   1.059   4.958
 3382SOL    HW110596   5.095   0.996   4.884
 3382SOL    HW210597   4.981   1.099   4.940
 3383SOL     OW10598   4.976   1.731   4.852
 3383SOL    HW110599   5.060   1.736   4.798
 3383SOL    HW210600   4.953   1.635   4.870
 3384SOL     OW10601   3.807   1.258   4.746
 3384SOL    HW110602   3.802   1.257   4.846
 3384SOL    HW210603   3.724   1.217   4.708
 3385SOL     OW10604   5.112   1.573   4.201
 3385SOL    HW110605   5.179   1.585   4.127
 3385SOL    HW210606   5.072   1.662   4.224
 3386SOL     OW10607   5.004   0.927   4.396
 3386SOL    HW110608   5.064   0.846   4.398
 3386SOL    HW210609   5.044   0.996   4.336
 3387SOL     OW10610   4.396   1.616   3.878
 3387SOL    HW110611   4.405   1.626   3.779
 3387SOL    HW210612   4.356   1.527   3.899
 3388SOL     OW10613   3.987   0.326   4.444
 3388SOL    HW110614   3.908   0.377   4.410
 3388SOL    HW210615   3.978   0.311   4.542
 3389SOL     OW10616   4.918   1.612   3.755
 3389SOL    HW110617   4.924   1.519   3.792
 3389SOL    HW210618   4.859   1.612   3.675
 3390SOL     OW10619   4.546   1.002   5.096
 3390SOL    HW110620   4.586   1.001   5.004
 3390SOL    HW210621   4.556   1.094   5.136
 3391SOL     OW10622   4.640   0.910   4.015
 3391SOL    HW110623   4.703   0.948   3.947
 3391SOL    HW210624   4.680   0.827   4.054
 3392SOL     OW10625   4.763   1.098   4.420
 3392SOL    HW110626   4.693   1.051   4.474
 3392SOL    HW210627   4.822   1.030   4.377
 3393SOL     OW10628   4.738   0.236   4.695
 3393SOL    HW110629   4.730   0.200   4.602
 3393SOL    HW210630   4.736   0.160   4.760
 3394SOL     OW10631   4.314   1.487   4.215
 3394SOL    HW110632   4.356   1.429   4.145
 3394SOL    HW210633   4.270   1.566   4.171
 3395SOL     OW10634   3.979   1.348   4.014
 3395SOL    HW110635   3.883   1.349   3.987
 3395SOL    HW210636   3.991   1.401   4.098
 3396SOL     OW10637   3.799   0.345   3.757
 3396SOL    HW110638   3.707   0.317   3.728
 3396SOL    HW210639   3.830   0.422   3.701
 3397SOL     OW10640   3.796   0.166   4.042
 3397SOL    HW110641   3.779   0.249   3.988
 3397SOL    HW210642   3.886   0.129   4.020
 3398SOL     OW10643   4.949   0.325   4.173
 3398SOL    HW110644   5.014   0.251   4.162
 3398SOL    HW210645   4.969   0.375   4.257
 3399SOL     OW10646   4.318   0.745   4.376
 3399SOL    HW110647   4.368   0.830   4.357
 3399SOL    HW210648   4.230   0.747   4.328
 3400SOL     OW10649   4.583   1.374   3.740
 3400SOL    HW110650   4.537   1.389   3.828
 3400SOL    HW210651   4.627   1.459   3.710
 3401SOL     OW10652   4.385   1.790   4.677
 3401SOL    HW110653   4.339   1.878   4.664
 3401SOL    HW210654   4.484   1.802   4.670
 3402SOL     OW10655   4.583   0.956   4.585
 3402SOL    HW110656   4.637   0.887   4.633
 3402SOL    HW210657   4.551   1.025   4.651
 3403SOL     OW10658   4.807   0.984   3.811
 3403SOL    HW110659   4.784   1.037   3.729
 3403SOL    HW210660   4.888   0.928   3.792
 3404SOL     OW10661   3.803   1.240   4.377
 3404SOL    HW110662   3.802   1.193   4.465
 3404SOL    HW210663   3.885   1.212   4.326
 3405SOL     OW10664   4.152   0.424   4.244
 3405SOL    HW110665   4.182   0.352   4.182
 3405SOL    HW210666   4.113   0.384   4.327
 3406SOL     OW10667   4.536   1.586   4.411
 3406SOL    HW110668   4.568   1.596   4.317
 3406SOL    HW210669   4.457   1.524   4.413
 3407SOL     OW10670   4.725   0.034   4.878
 3407SOL    HW110671   4.662  -0.038   4.847
 3407SOL    HW210672   4.818  -0.002   4.878
 3408SOL     OW10673   4.494   1.330   4.025
 3408SOL    HW110674   4.448   1.243   4.042
 3408SOL    HW210675   4.585   1.327   4.066
 3409SOL     OW10676   3.763   1.077   4.024
 3409SOL    HW110677   3.862   1.066   4.015
 3409SOL    HW210678   3.723   0.991   4.056
 3410SOL     OW10679   4.599   1.646   4.061
 3410SOL    HW110680   4.522   1.611   4.007
 3410SOL    HW210681   4.567   1.717   4.123
 3411SOL     OW10682   3.954   2.490   0.113
 3411SOL    HW110683   3.861   2.488   0.150
 3411SOL    HW210684   3.955   2.451   0.021
 3412SOL     OW10685   3.949   2.137   0.996
 3412SOL    HW110686   3.984   2.120   1.088
 3412SOL    HW210687   3.861   2.092   0.984
 3413SOL     OW10688   3.743   2.230   0.647
 3413SOL    HW110689   3.661   2.273   0.686
 3413SOL    HW210690   3.715   2.157   0.584
 3414SOL     OW10691   4.293   3.137   1.165
 3414SOL    HW110692   4.200   3.130   1.128
 3414SOL    HW210693   4.304   3.226   1.209
 3415SOL     OW10694   4.859   2.565   0.717
 3415SOL    HW110695   4.916   2.643   0.692
 3415SOL    HW210696   4.799   2.591   0.793
 3416SOL     OW10697   4.492   3.006   1.023
 3416SOL    HW110698   4.414   3.023   1.083
 3416SOL    HW210699   4.526   3.093   0.987
 3417SOL     OW10700   4.574   2.660   1.823
 3417SOL    HW110701   4.570   2.736   1.888
 3417SOL    HW210702   4.596   2.696   1.732
 3418SOL     OW10703   4.409   2.874   0.665
 3418SOL    HW110704   4.478   2.858   0.735
 3418SOL    HW210705   4.336   2.931   0.703
 3419SOL     OW10706   4.410   3.023   1.803
 3419SOL    HW110707   4.470   3.102   1.817
 3419SOL    HW210708   4.324   3.054   1.762
 3420SOL     OW10709   4.059   3.297   1.061
 3420SOL    HW110710   3.981   3.266   1.008
 3420SOL    HW210711   4.117   3.355   1.004
 3421SOL     OW10712   4.162   2.254   1.499
 3421SOL    HW110713   4.244   2.198   1.508
 3421SOL    HW210714   4.081   2.196   1.503
 3422SOL     OW10715   3.955   3.575   0.483
 3422SOL    HW110716   3.989   3.652   0.537
 3422SOL    HW210717   3.999   3.575   0.393
 3423SOL     OW10718   3.954   3.296   0.538
 3423SOL    HW110719   3.928   3.392   0.538
 3423SOL    HW210720   3.883   3.242   0.583
 3424SOL     OW10721   3.964   2.953   0.886
 3424SOL    HW110722   3.978   2.869   0.938
 3424SOL    HW210723   3.909   3.017   0.941
 3425SOL     OW10724   4.344   3.648   1.439
 3425SOL    HW110725   4.252   3.631   1.474
 3425SOL    HW210726   4.372   3.740   1.465
 3426SOL     OW10727   4.330   2.826   0.123
 3426SOL    HW110728   4.337   2.910   0.069
 3426SOL    HW210729   4.376   2.839   0.211
 3427SOL     OW10730   3.846   2.505   0.563
 3427SOL    HW110731   3.801   2.417   0.580
 3427SOL    HW210732   3.845   2.559   0.647
 3428SOL     OW10733   3.751   3.458   0.117
 3428SOL    HW110734   3.732   3.362   0.138
 3428SOL    HW210735   3.718   3.516   0.192
 3429SOL     OW10736   3.837   2.599   1.597
 3429SOL    HW110737   3.925   2.586   1.642
 3429SOL    HW210738   3.824   2.696   1.575
 3430SOL     OW10739   4.337   3.227   0.726
 3430SOL    HW110740   4.288   3.140   0.735
 3430SOL    HW210741   4.314   3.270   0.639
 3431SOL     OW10742   4.533   1.866   0.502
 3431SOL    HW110743   4.573   1.957   0.493
 3431SOL    HW210744   4.433   1.874   0.508
 3432SOL     OW10745   3.921   2.838   1.264
 3432SOL    HW110746   4.010   2.793   1.250
 3432SOL    HW210747   3.848   2.773   1.245
 3433SOL     OW10748   4.041   2.113   1.801
 3433SOL    HW110749   4.112   2.184   1.807
 3433SOL    HW210750   3.953   2.152   1.829
 3434SOL     OW10751   4.322   2.591   0.270
 3434SOL    HW110752   4.346   2.660   0.202
 3434SOL    HW210753   4.244   2.624   0.324
 3435SOL     OW10754   4.531   2.467   1.465
 3435SOL    HW110755   4.484   2.464   1.554
 3435SOL    HW210756   4.480   2.412   1.399
 3436SOL     OW10757   4.697   2.752   1.572
 3436SOL    HW110758   4.743   2.668   1.543
 3436SOL    HW210759   4.641   2.786   1.497
 3437SOL     OW10760   4.715   2.272   1.242
 3437SOL    HW110761   4.638   2.306   1.296
 3437SOL    HW210762   4.681   2.221   1.163
 3438SOL     OW10763   4.765   2.563   0.429
 3438SOL    HW110764   4.791   2.559   0.525
 3438SOL    HW210765   4.680   2.512   0.415
 3439SOL     OW10766   3.800   2.673   0.789
 3439SOL    HW110767   3.899   2.661   0.798
 3439SOL    HW210768   3.776   2.768   0.810
 3440SOL     OW10769   3.854   3.683   1.571
 3440SOL    HW110770   3.844   3.668   1.670
 3440SOL    HW210771   3.768   3.719   1.535
 3441SOL     OW10772   4.589   2.210   0.195
 3441SOL    HW110773   4.648   2.273   0.146
 3441SOL    HW210774   4.608   2.116   0.166
 3442SOL     OW10775   4.274   2.058   0.885
 3442SOL    HW110776   4.269   2.053   0.985
 3442SOL    HW210777   4.276   2.154   0.856
 3443SOL     OW10778   4.732   3.318   0.477
 3443SOL    HW110779   4.686   3.390   0.425
 3443SOL    HW210780   4.728   3.338   0.575
 3444SOL     OW10781   4.075   3.663   0.853
 3444SOL    HW110782   4.125   3.577   0.859
 3444SOL    HW210783   4.140   3.740   0.850
 3445SOL     OW10784   4.045   2.805   0.242
 3445SOL    HW110785   4.127   2.844   0.200
 3445SOL    HW210786   4.018   2.723   0.193
 3446SOL     OW10787   4.185   3.128   1.727
 3446SOL    HW110788   4.135   3.129   1.641
 3446SOL    HW210789   4.122   3.110   1.803
 3447SOL     OW10790   4.835   3.638   0.237
 3447SOL    HW110791   4.775   3.576   0.287
 3447SOL    HW210792   4.866   3.594   0.152
 3448SOL     OW10793   3.926   2.147   1.498
 3448SOL    HW110794   3.846   2.207   1.485
 3448SOL    HW210795   3.916   2.098   1.584
 3449SOL     OW10796   5.356   3.239   0.081
 3449SOL    HW110797   5.324   3.333   0.071
 3449SOL    HW210798   5.280   3.176   0.069
 3450SOL     OW10799   4.188   3.605   0.323
 3450SOL    HW110800   4.221   3.644   0.409
 3450SOL    HW210801   4.264   3.598   0.258
 3451SOL     OW10802   3.973   3.647   1.241
 3451SOL    HW110803   4.030   3.582   1.291
 3451SOL    HW210804   3.957   3.614   1.148
 3452SOL     OW10805   4.664   3.560   0.904
 3452SOL    HW110806   4.744   3.503   0.925
 3452SOL    HW210807   4.615   3.520   0.827
 3453SOL     OW10808   4.106   2.562   0.480
 3453SOL    HW110809   4.151   2.472   0.477
 3453SOL    HW210810   4.012   2.551   0.513
 3454SOL     OW10811   4.505   2.126   1.749
 3454SOL    HW110812   4.572   2.065   1.792
 3454SOL    HW210813   4.432   2.145   1.814
 3455SOL     OW10814   4.612   3.376   1.195
 3455SOL    HW110815   4.589   3.351   1.101
 3455SOL    HW210816   4.673   3.307   1.234
 3456SOL     OW10817   4.527   3.264   0.924
 3456SOL    HW110818   4.617   3.278   0.882
 3456SOL    HW210819   4.456   3.266   0.853
 3457SOL     OW10820   4.646   2.365   0.899
 3457SOL    HW110821   4.621   2.356   0.803
 3457SOL    HW210822   4.694   2.283   0.930
 3458SOL     OW10823   4.263   1.926   0.512
 3458SOL    HW110824   4.182   1.927   0.570
 3458SOL    HW210825   4.266   2.009   0.457
 3459SOL     OW10826   4.021   1.897   0.171
 3459SOL    HW110827   4.070   1.981   0.150
 3459SOL    HW210828   4.083   1.832   0.216
 3460SOL     OW10829   4.659   2.098   0.480
 3460SOL    HW110830   4.611   2.139   0.402
 3460SOL    HW210831   4.758   2.096   0.461
 3461SOL     OW10832   4.951   3.432   0.793
 3461SOL    HW110833   4.972   3.506   0.728
 3461SOL    HW210834   5.019   3.432   0.866
 3462SOL     OW10835   4.183   3.014   0.741
 3462SOL    HW110836   4.112   2.987   0.806
 3462SOL    HW210837   4.157   2.986   0.648
 3463SOL     OW10838   4.995   3.659   0.591
 3463SOL    HW110839   5.039   3.723   0.527
 3463SOL    HW210840   4.945   3.711   0.661
 3464SOL     OW10841   4.756   2.411   0.016
 3464SOL    HW110842   4.715   2.493  -0.023
 3464SOL    HW210843   4.820   2.437   0.089
 3465SOL     OW10844   3.802   2.418   1.386
 3465SOL    HW110845   3.894   2.417   1.345
 3465SOL    HW210846   3.796   2.492   1.453
 3466SOL     OW10847   4.285   2.084   1.147
 3466SOL    HW110848   4.323   2.000   1.184
 3466SOL    HW210849   4.197   2.103   1.191
 3467SOL     OW10850   4.590   2.316   0.642
 3467SOL    HW110851   4.558   2.388   0.580
 3467SOL    HW210852   4.614   2.235   0.589
 3468SOL     OW10853   4.741   1.901   0.753
 3468SOL    HW110854   4.669   1.906   0.684
 3468SOL    HW210855   4.717   1.832   0.822
 3469SOL     OW10856   4.212   3.247   0.174
 3469SOL    HW110857   4.125   3.232   0.221
 3469SOL    HW210858   4.195   3.273   0.079
 3470SOL     OW10859   5.388   3.142   0.657
 3470SOL    HW110860   5.487   3.150   0.671
 3470SOL    HW210861   5.343   3.226   0.688
 3471SOL     OW10862   4.251   2.118   0.328
 3471SOL    HW110863   4.278   2.059   0.253
 3471SOL    HW210864   4.251   2.213   0.297
 3472SOL     OW10865   4.835   3.057   1.100
 3472SOL    HW110866   4.795   3.101   1.181
 3472SOL    HW210867   4.794   3.094   1.017
 3473SOL     OW10868   4.639   1.951   1.402
 3473SOL    HW110869   4.664   1.931   1.307
 3473SOL    HW210870   4.711   2.007   1.444
 3474SOL     OW10871   4.704   2.978   1.719
 3474SOL    HW110872   4.605   2.984   1.729
 3474SOL    HW210873   4.727   2.898   1.663
 3475SOL     OW10874   4.429   2.912   0.368
 3475SOL    HW110875   4.415   2.919   0.467
 3475SOL    HW210876   4.513   2.861   0.350
 3476SOL     OW10877   4.134   2.675   1.251
 3476SOL    HW110878   4.220   2.687   1.301
 3476SOL    HW210879   4.092   2.588   1.278
 3477SOL     OW10880   3.788   3.426   1.331
 3477SOL    HW110881   3.742   3.508   1.297
 3477SOL    HW210882   3.886   3.445   1.340
 3478SOL     OW10883   4.091   2.962   0.501
 3478SOL    HW110884   4.084   3.045   0.445
 3478SOL    HW210885   4.095   2.882   0.441
 3479SOL     OW10886   4.290   2.399   0.865
 3479SOL    HW110887   4.302   2.465   0.791
 3479SOL    HW210888   4.336   2.433   0.948
 3480SOL     OW10889   4.976   3.210   0.388
 3480SOL    HW110890   5.026   3.287   0.428
 3480SOL    HW210891   4.881   3.212   0.420
 3481SOL     OW10892   4.078   3.372   1.329
 3481SOL    HW110893   4.057   3.328   1.242
 3481SOL    HW210894   4.175   3.398   1.332
 3482SOL     OW10895   4.126   2.613   1.598
 3482SOL    HW110896   4.194   2.668   1.551
 3482SOL    HW210897   4.166   2.525   1.625
 3483SOL     OW10898   4.737   1.967   1.770
 3483SOL    HW110899   4.743   2.052   1.718
 3483SOL    HW210900   4.769   1.891   1.713
 3484SOL     OW10901   4.228   1.912   1.740
 3484SOL    HW110902   4.186   1.855   1.670
 3484SOL    HW210903   4.162   1.981   1.772
 3485SOL     OW10904   4.297   2.732   1.029
 3485SOL    HW110905   4.341   2.821   1.020
 3485SOL    HW210906   4.234   2.732   1.106
 3486SOL     OW10907   4.933   2.387   0.275
 3486SOL    HW110908   4.946   2.303   0.329
 3486SOL    HW210909   4.904   2.461   0.335
 3487SOL     OW10910   4.031   2.075   1.231
 3487SOL    HW110911   4.008   2.112   1.321
 3487SOL    HW210912   4.001   1.980   1.225
 3488SOL     OW10913   3.761   3.172   1.282
 3488SOL    HW110914   3.814   3.123   1.350
 3488SOL    HW210915   3.783   3.270   1.287
 3489SOL     OW10916   4.456   2.496   1.064
 3489SOL    HW110917   4.515   2.470   0.988
 3489SOL    HW210918   4.428   2.592   1.053
 3490SOL     OW10919   4.031   1.925   0.618
 3490SOL    HW110920   4.020   2.019   0.651
 3490SOL    HW210921   4.026   1.862   0.695
 3491SOL     OW10922   5.346   2.229   0.374
 3491SOL    HW110923   5.348   2.153   0.438
 3491SOL    HW210924   5.298   2.306   0.414
 3492SOL     OW10925   4.747   2.628   0.966
 3492SOL    HW110926   4.762   2.649   1.062
 3492SOL    HW210927   4.717   2.533   0.957
 3493SOL     OW10928   4.074   2.760   1.804
 3493SOL    HW110929   4.150   2.804   1.852
 3493SOL    HW210930   4.109   2.713   1.722
 3494SOL     OW10931   5.027   2.700   0.042
 3494SOL    HW110932   5.061   2.607   0.057
 3494SOL    HW210933   5.045   2.727  -0.053
 3495SOL     OW10934   4.792   3.195   0.849
 3495SOL    HW110935   4.799   3.111   0.794
 3495SOL    HW210936   4.854   3.264   0.813
 3496SOL     OW10937   4.043   2.672   0.949
 3496SOL    HW110938   4.136   2.708   0.954
 3496SOL    HW210939   4.037   2.587   1.001
 3497SOL     OW10940   4.063   2.371   1.006
 3497SOL    HW110941   4.011   2.288   0.989
 3497SOL    HW210942   4.140   2.376   0.942
 3498SOL     OW10943   4.862   2.242   1.678
 3498SOL    HW110944   4.817   2.305   1.742
 3498SOL    HW210945   4.955   2.273   1.661
 3499SOL     OW10946   4.884   2.069   1.477
 3499SOL    HW110947   4.884   2.133   1.554
 3499SOL    HW210948   4.912   2.117   1.394
 3500SOL     OW10949   3.812   3.663   0.927
 3500SOL    HW110950   3.770   3.577   0.900
 3500SOL    HW210951   3.906   3.666   0.893
 3501SOL     OW10952   4.228   3.430   0.910
 3501SOL    HW110953   4.294   3.504   0.919
 3501SOL    HW210954   4.272   3.351   0.868
 3502SOL     OW10955   4.726   2.658   1.238
 3502SOL    HW110956   4.767   2.626   1.324
 3502SOL    HW210957   4.630   2.631   1.235
 3503SOL     OW10958   3.764   2.406   1.114
 3503SOL    HW110959   3.849   2.373   1.073
 3503SOL    HW210960   3.777   2.421   1.212
 3504SOL     OW10961   3.913   2.382   1.722
 3504SOL    HW110962   3.972   2.342   1.652
 3504SOL    HW210963   3.855   2.453   1.681
 3505SOL     OW10964   4.539   2.434   0.325
 3505SOL    HW110965   4.546   2.345   0.279
 3505SOL    HW210966   4.445   2.468   0.317
 3506SOL     OW10967   3.976   3.426   1.744
 3506SOL    HW110968   3.946   3.483   1.820
 3506SOL    HW210969   3.969   3.329   1.770
 3507SOL     OW10970   4.395   2.326   1.269
 3507SOL    HW110971   4.361   2.237   1.239
 3507SOL    HW210972   4.421   2.380   1.189
 3508SOL     OW10973   4.654   3.540   1.465
 3508SOL    HW110974   4.630   3.522   1.370
 3508SOL    HW210975   4.684   3.634   1.475
 3509SOL     OW10976   4.197   2.362   0.191
 3509SOL    HW110977   4.258   2.442   0.195
 3509SOL    HW210978   4.102   2.393   0.198
 3510SOL     OW10979   3.883   2.999   1.466
 3510SOL    HW110980   3.905   2.938   1.542
 3510SOL    HW210981   3.893   2.950   1.380
 3511SOL     OW10982   5.071   2.921   1.234
 3511SOL    HW110983   5.095   2.858   1.160
 3511SOL    HW210984   4.981   2.961   1.216
 3512SOL     OW10985   4.976   3.593   1.128
 3512SOL    HW110986   5.060   3.598   1.074
 3512SOL    HW210987   4.953   3.497   1.146
 3513SOL     OW10988   3.807   3.120   1.022
 3513SOL    HW110989   3.802   3.119   1.122
 3513SOL    HW210990   3.724   3.079   0.984
 3514SOL     OW10991   4.412   3.524   1.716
 3514SOL    HW110992   4.356   3.605   1.725
 3514SOL    HW210993   4.464   3.528   1.630
 3515SOL     OW10994   4.627   1.948   0.133
 3515SOL    HW110995   4.678   1.949   0.047
 3515SOL    HW210996   4.683   1.906   0.204
 3516SOL     OW10997   5.112   3.435   0.477
 3516SOL    HW110998   5.179   3.447   0.403
 3516SOL    HW210999   5.072   3.524   0.500
 3517SOL     OW11000   3.854   3.656   1.851
 3517SOL    HW111001   3.813   3.582   1.904
 3517SOL    HW211002   3.918   3.707   1.909
 3518SOL     OW11003   4.554   3.135   1.422
 3518SOL    HW111004   4.549   3.168   1.517
 3518SOL    HW211005   4.468   3.154   1.376
 3519SOL     OW11006   4.396   3.478   0.154
 3519SOL    HW111007   4.405   3.488   0.055
 3519SOL    HW211008   4.356   3.389   0.175
 3520SOL     OW11009   3.987   2.188   0.720
 3520SOL    HW111010   3.908   2.239   0.686
 3520SOL    HW211011   3.978   2.173   0.818
 3521SOL     OW11012   4.918   3.474   0.031
 3521SOL    HW111013   4.924   3.381   0.068
 3521SOL    HW211014   4.859   3.474  -0.049
 3522SOL     OW11015   4.546   2.864   1.372
 3522SOL    HW111016   4.586   2.863   1.280
 3522SOL    HW211017   4.556   2.956   1.412
 3523SOL     OW11018   4.640   2.772   0.291
 3523SOL    HW111019   4.703   2.810   0.223
 3523SOL    HW211020   4.680   2.689   0.330
 3524SOL     OW11021   4.096   3.150   1.490
 3524SOL    HW111022   4.083   3.243   1.456
 3524SOL    HW211023   4.012   3.098   1.477
 3525SOL     OW11024   4.763   2.960   0.696
 3525SOL    HW111025   4.693   2.913   0.750
 3525SOL    HW211026   4.822   2.892   0.653
 3526SOL     OW11027   4.738   2.098   0.971
 3526SOL    HW111028   4.730   2.062   0.878
 3526SOL    HW211029   4.736   2.022   1.036
 3527SOL     OW11030   4.314   3.349   0.491
 3527SOL    HW111031   4.356   3.291   0.421
 3527SOL    HW211032   4.270   3.428   0.447
 3528SOL     OW11033   3.979   3.210   0.290
 3528SOL    HW111034   3.883   3.211   0.263
 3528SOL    HW211035   3.991   3.263   0.374
 3529SOL     OW11036   3.829   2.875   1.726
 3529SOL    HW111037   3.752   2.842   1.780
 3529SOL    HW211038   3.914   2.845   1.768
 3530SOL     OW11039   4.396   2.065   1.489
 3530SOL    HW111040   4.486   2.049   1.449
 3530SOL    HW211041   4.404   2.070   1.588
 3531SOL     OW11042   3.796   2.028   0.318
 3531SOL    HW111043   3.779   2.111   0.264
 3531SOL    HW211044   3.886   1.991   0.296
 3532SOL     OW11045   4.337   2.704   1.431
 3532SOL    HW111046   4.393   2.785   1.414
 3532SOL    HW211047   4.396   2.624   1.434
 3533SOL     OW11048   4.440   2.427   1.708
 3533SOL    HW111049   4.459   2.492   1.782
 3533SOL    HW211050   4.500   2.347   1.717
 3534SOL     OW11051   4.114   3.603   1.560
 3534SOL    HW111052   4.023   3.644   1.558
 3534SOL    HW211053   4.107   3.509   1.592
 3535SOL     OW11054   4.949   2.187   0.449
 3535SOL    HW111055   5.014   2.113   0.438
 3535SOL    HW211056   4.969   2.237   0.533
 3536SOL     OW11057   4.318   2.607   0.652
 3536SOL    HW111058   4.368   2.692   0.633
 3536SOL    HW211059   4.230   2.609   0.604
 3537SOL     OW11060   4.583   3.236   0.016
 3537SOL    HW111061   4.537   3.251   0.104
 3537SOL    HW211062   4.627   3.321  -0.014
 3538SOL     OW11063   4.385   3.652   0.953
 3538SOL    HW111064   4.339   3.740   0.940
 3538SOL    HW211065   4.484   3.664   0.946
 3539SOL     OW11066   4.583   2.818   0.861
 3539SOL    HW111067   4.637   2.749   0.909
 3539SOL    HW211068   4.551   2.887   0.927
 3540SOL     OW11069   4.807   2.846   0.087
 3540SOL    HW111070   4.784   2.899   0.005
 3540SOL    HW211071   4.888   2.790   0.068
 3541SOL     OW11072   3.945   3.176   1.844
 3541SOL    HW111073   3.880   3.103   1.823
 3541SOL    HW211074   3.949   3.190   1.942
 3542SOL     OW11075   3.803   3.102   0.653
 3542SOL    HW111076   3.802   3.055   0.741
 3542SOL    HW211077   3.885   3.074   0.602
 3543SOL     OW11078   4.152   2.286   0.520
 3543SOL    HW111079   4.182   2.214   0.458
 3543SOL    HW211080   4.113   2.246   0.603
 3544SOL     OW11081   4.041   2.409   1.280
 3544SOL    HW111082   4.079   2.350   1.352
 3544SOL    HW211083   4.081   2.383   1.192
 3545SOL     OW11084   4.536   3.448   0.687
 3545SOL    HW111085   4.568   3.458   0.593
 3545SOL    HW211086   4.457   3.386   0.689
 3546SOL     OW11087   4.725   1.896   1.154
 3546SOL    HW111088   4.662   1.824   1.123
 3546SOL    HW211089   4.818   1.860   1.154
 3547SOL     OW11090   4.494   3.192   0.301
 3547SOL    HW111091   4.448   3.105   0.318
 3547SOL    HW211092   4.585   3.189   0.342
 3548SOL     OW11093   4.342   3.429   1.284
 3548SOL    HW111094   4.337   3.511   1.341
 3548SOL    HW211095   4.431   3.426   1.239
 3549SOL     OW11096   3.763   2.939   0.300
 3549SOL    HW111097   3.862   2.928   0.291
 3549SOL    HW211098   3.723   2.853   0.332
 3550SOL     OW11099   4.599   3.508   0.337
 3550SOL    HW111100   4.522   3.473   0.283
 3550SOL    HW211101   4.567   3.579   0.399
 3551SOL     OW11102   3.954   2.490   1.975
 3551SOL    HW111103   3.861   2.488   2.012
 3551SOL    HW211104   3.955   2.451   1.883
 3552SOL     OW11105   3.743   2.230   2.509
 3552SOL    HW111106   3.661   2.273   2.548
 3552SOL    HW211107   3.715   2.157   2.446
 3553SOL     OW11108   4.293   3.137   3.027
 3553SOL    HW111109   4.200   3.130   2.990
 3553SOL    HW211110   4.304   3.226   3.071
 3554SOL     OW11111   4.859   2.565   2.579
 3554SOL    HW111112   4.916   2.643   2.554
 3554SOL    HW211113   4.799   2.591   2.655
 3555SOL     OW11114   4.492   3.006   2.885
 3555SOL    HW111115   4.414   3.023   2.945
 3555SOL    HW211116   4.526   3.093   2.849
 3556SOL     OW11117   4.574   2.660   3.685
 3556SOL    HW111118   4.570   2.736   3.750
 3556SOL    HW211119   4.596   2.696   3.594
 3557SOL     OW11120   4.409   2.874   2.527
 3557SOL    HW111121   4.478   2.858   2.597
 3557SOL    HW211122   4.336   2.931   2.565
 3558SOL     OW11123   4.410   3.023   3.665
 3558SOL    HW111124   4.470   3.102   3.679
 3558SOL    HW211125   4.324   3.054   3.624
 3559SOL     OW11126   4.059   3.297   2.923
 3559SOL    HW111127   3.981   3.266   2.870
 3559SOL    HW211128   4.117   3.355   2.866
 3560SOL     OW11129   4.162   2.254   3.361
 3560SOL    HW111130   4.244   2.198   3.370
 3560SOL    HW211131   4.081   2.196   3.365
 3561SOL     OW11132   3.955   3.575   2.345
 3561SOL    HW111133   3.989   3.652   2.399
 3561SOL    HW211134   3.999   3.575   2.255
 3562SOL     OW11135   4.851   3.203   3.552
 3562SOL    HW111136   4.898   3.203   3.640
 3562SOL    HW211137   4.803   3.116   3.541
 3563SOL     OW11138   3.954   3.296   2.400
 3563SOL    HW111139   3.928   3.392   2.400
 3563SOL    HW211140   3.883   3.242   2.445
 3564SOL     OW11141   3.964   2.953   2.748
 3564SOL    HW111142   3.978   2.869   2.800
 3564SOL    HW211143   3.909   3.017   2.803
 3565SOL     OW11144   4.344   3.648   3.301
 3565SOL    HW111145   4.252   3.631   3.336
 3565SOL    HW211146   4.372   3.740   3.327
 3566SOL     OW11147   4.330   2.826   1.985
 3566SOL    HW111148   4.337   2.910   1.931
 3566SOL    HW211149   4.376   2.839   2.073
 3567SOL     OW11150   3.846   2.505   2.425
 3567SOL    HW111151   3.801   2.417   2.442
 3567SOL    HW211152   3.845   2.559   2.509
 3568SOL     OW11153   3.751   3.458   1.979
 3568SOL    HW111154   3.732   3.362   2.000
 3568SOL    HW211155   3.718   3.516   2.054
 3569SOL     OW11156   3.837   2.599   3.459
 3569SOL    HW111157   3.925   2.586   3.504
 3569SOL    HW211158   3.824   2.696   3.437
 3570SOL     OW11159   4.337   3.227   2.588
 3570SOL    HW111160   4.288   3.140   2.597
 3570SOL    HW211161   4.314   3.270   2.501
 3571SOL     OW11162   5.017   3.090   3.285
 3571SOL    HW111163   5.054   3.017   3.227
 3571SOL    HW211164   5.069   3.095   3.370
 3572SOL     OW11165   4.533   1.866   2.364
 3572SOL    HW111166   4.573   1.957   2.355
 3572SOL    HW211167   4.433   1.874   2.370
 3573SOL     OW11168   3.921   2.838   3.126
 3573SOL    HW111169   4.010   2.793   3.112
 3573SOL    HW211170   3.848   2.773   3.107
 3574SOL     OW11171   4.911   3.654   3.478
 3574SOL    HW111172   4.935   3.714   3.402
 3574SOL    HW211173   4.918   3.559   3.448
 3575SOL     OW11174   4.041   2.113   3.663
 3575SOL    HW111175   4.112   2.184   3.669
 3575SOL    HW211176   3.953   2.152   3.691
 3576SOL     OW11177   4.322   2.591   2.132
 3576SOL    HW111178   4.346   2.660   2.064
 3576SOL    HW211179   4.244   2.624   2.186
 3577SOL     OW11180   5.005   2.207   2.806
 3577SOL    HW111181   4.919   2.157   2.793
 3577SOL    HW211182   5.067   2.153   2.862
 3578SOL     OW11183   4.531   2.467   3.327
 3578SOL    HW111184   4.484   2.464   3.416
 3578SOL    HW211185   4.480   2.412   3.261
 3579SOL     OW11186   4.697   2.752   3.434
 3579SOL    HW111187   4.743   2.668   3.405
 3579SOL    HW211188   4.641   2.786   3.359
 3580SOL     OW11189   4.715   2.272   3.104
 3580SOL    HW111190   4.638   2.306   3.158
 3580SOL    HW211191   4.681   2.221   3.025
 3581SOL     OW11192   4.765   2.563   2.291
 3581SOL    HW111193   4.791   2.559   2.387
 3581SOL    HW211194   4.680   2.512   2.277
 3582SOL     OW11195   3.800   2.673   2.651
 3582SOL    HW111196   3.899   2.661   2.660
 3582SOL    HW211197   3.776   2.768   2.672
 3583SOL     OW11198   3.854   3.683   3.433
 3583SOL    HW111199   3.844   3.668   3.532
 3583SOL    HW211200   3.768   3.719   3.397
 3584SOL     OW11201   4.589   2.210   2.057
 3584SOL    HW111202   4.648   2.273   2.008
 3584SOL    HW211203   4.608   2.116   2.028
 3585SOL     OW11204   4.732   3.318   2.339
 3585SOL    HW111205   4.686   3.390   2.287
 3585SOL    HW211206   4.728   3.338   2.437
 3586SOL     OW11207   4.075   3.663   2.715
 3586SOL    HW111208   4.125   3.577   2.721
 3586SOL    HW211209   4.140   3.740   2.712
 3587SOL     OW11210   4.951   3.412   3.368
 3587SOL    HW111211   4.957   3.335   3.432
 3587SOL    HW211212   4.899   3.386   3.288
 3588SOL     OW11213   4.045   2.805   2.104
 3588SOL    HW111214   4.127   2.844   2.062
 3588SOL    HW211215   4.018   2.723   2.055
 3589SOL     OW11216   4.185   3.128   3.589
 3589SOL    HW111217   4.135   3.129   3.503
 3589SOL    HW211218   4.122   3.110   3.665
 3590SOL     OW11219   3.926   2.147   3.360
 3590SOL    HW111220   3.846   2.207   3.347
 3590SOL    HW211221   3.916   2.098   3.446
 3591SOL     OW11222   4.188   3.605   2.185
 3591SOL    HW111223   4.221   3.644   2.271
 3591SOL    HW211224   4.264   3.598   2.120
 3592SOL     OW11225   3.973   3.647   3.103
 3592SOL    HW111226   4.030   3.582   3.153
 3592SOL    HW211227   3.957   3.614   3.010
 3593SOL     OW11228   4.664   3.560   2.766
 3593SOL    HW111229   4.744   3.503   2.787
 3593SOL    HW211230   4.615   3.520   2.689
 3594SOL     OW11231   4.106   2.562   2.342
 3594SOL    HW111232   4.151   2.472   2.339
 3594SOL    HW211233   4.012   2.551   2.375
 3595SOL     OW11234   4.338   1.984   1.979
 3595SOL    HW111235   4.436   1.962   1.986
 3595SOL    HW211236   4.307   1.967   1.886
 3596SOL     OW11237   4.505   2.126   3.611
 3596SOL    HW111238   4.572   2.065   3.654
 3596SOL    HW211239   4.432   2.145   3.676
 3597SOL     OW11240   4.612   3.376   3.057
 3597SOL    HW111241   4.589   3.351   2.963
 3597SOL    HW211242   4.673   3.307   3.096
 3598SOL     OW11243   4.527   3.264   2.786
 3598SOL    HW111244   4.617   3.278   2.744
 3598SOL    HW211245   4.456   3.266   2.715
 3599SOL     OW11246   4.646   2.365   2.761
 3599SOL    HW111247   4.621   2.356   2.665
 3599SOL    HW211248   4.694   2.283   2.792
 3600SOL     OW11249   4.263   1.926   2.374
 3600SOL    HW111250   4.182   1.927   2.432
 3600SOL    HW211251   4.266   2.009   2.319
 3601SOL     OW11252   4.021   1.897   2.033
 3601SOL    HW111253   4.070   1.981   2.012
 3601SOL    HW211254   4.083   1.832   2.078
 3602SOL     OW11255   4.659   2.098   2.342
 3602SOL    HW111256   4.611   2.139   2.264
 3602SOL    HW211257   4.758   2.096   2.323
 3603SOL     OW11258   4.800   2.545   3.326
 3603SOL    HW111259   4.720   2.484   3.329
 3603SOL    HW211260   4.881   2.492   3.302
 3604SOL     OW11261   4.951   3.432   2.655
 3604SOL    HW111262   4.972   3.506   2.590
 3604SOL    HW211263   5.019   3.432   2.728
 3605SOL     OW11264   4.183   3.014   2.603
 3605SOL    HW111265   4.112   2.987   2.668
 3605SOL    HW211266   4.157   2.986   2.510
 3606SOL     OW11267   4.995   3.659   2.453
 3606SOL    HW111268   5.039   3.723   2.389
 3606SOL    HW211269   4.945   3.711   2.523
 3607SOL     OW11270   4.756   2.411   1.878
 3607SOL    HW111271   4.715   2.493   1.839
 3607SOL    HW211272   4.820   2.437   1.951
 3608SOL     OW11273   4.741   1.901   2.615
 3608SOL    HW111274   4.669   1.906   2.546
 3608SOL    HW211275   4.717   1.832   2.684
 3609SOL     OW11276   4.212   3.247   2.036
 3609SOL    HW111277   4.125   3.232   2.083
 3609SOL    HW211278   4.195   3.273   1.941
 3610SOL     OW11279   5.388   3.142   2.519
 3610SOL    HW111280   5.487   3.150   2.533
 3610SOL    HW211281   5.343   3.226   2.550
 3611SOL     OW11282   4.251   2.118   2.190
 3611SOL    HW111283   4.278   2.059   2.115
 3611SOL    HW211284   4.251   2.213   2.159
 3612SOL     OW11285   4.788   3.209   3.202
 3612SOL    HW111286   4.708   3.186   3.257
 3612SOL    HW211287   4.871   3.183   3.251
 3613SOL     OW11288   4.835   3.057   2.962
 3613SOL    HW111289   4.795   3.101   3.043
 3613SOL    HW211290   4.794   3.094   2.879
 3614SOL     OW11291   4.639   1.951   3.264
 3614SOL    HW111292   4.664   1.931   3.169
 3614SOL    HW211293   4.711   2.007   3.306
 3615SOL     OW11294   4.704   2.978   3.581
 3615SOL    HW111295   4.605   2.984   3.591
 3615SOL    HW211296   4.727   2.898   3.525
 3616SOL     OW11297   4.429   2.912   2.230
 3616SOL    HW111298   4.415   2.919   2.329
 3616SOL    HW211299   4.513   2.861   2.212
 3617SOL     OW11300   4.134   2.675   3.113
 3617SOL    HW111301   4.220   2.687   3.163
 3617SOL    HW211302   4.092   2.588   3.140
 3618SOL     OW11303   4.998   2.248   3.124
 3618SOL    HW111304   5.019   2.322   3.188
 3618SOL    HW211305   4.909   2.265   3.081
 3619SOL     OW11306   3.788   3.426   3.193
 3619SOL    HW111307   3.742   3.508   3.159
 3619SOL    HW211308   3.886   3.445   3.202
 3620SOL     OW11309   4.091   2.962   2.363
 3620SOL    HW111310   4.084   3.045   2.307
 3620SOL    HW211311   4.095   2.882   2.303
 3621SOL     OW11312   4.976   3.210   2.250
 3621SOL    HW111313   5.026   3.287   2.290
 3621SOL    HW211314   4.881   3.212   2.282
 3622SOL     OW11315   4.078   3.372   3.191
 3622SOL    HW111316   4.057   3.328   3.104
 3622SOL    HW211317   4.175   3.398   3.194
 3623SOL     OW11318   4.126   2.613   3.460
 3623SOL    HW111319   4.194   2.668   3.413
 3623SOL    HW211320   4.166   2.525   3.487
 3624SOL     OW11321   4.737   1.967   3.632
 3624SOL    HW111322   4.743   2.052   3.580
 3624SOL    HW211323   4.769   1.891   3.575
 3625SOL     OW11324   4.228   1.912   3.602
 3625SOL    HW111325   4.186   1.855   3.532
 3625SOL    HW211326   4.162   1.981   3.634
 3626SOL     OW11327   4.297   2.732   2.891
 3626SOL    HW111328   4.341   2.821   2.882
 3626SOL    HW211329   4.234   2.732   2.968
 3627SOL     OW11330   5.084   2.724   2.907
 3627SOL    HW111331   5.009   2.724   2.841
 3627SOL    HW211332   5.121   2.632   2.916
 3628SOL     OW11333   4.933   2.387   2.137
 3628SOL    HW111334   4.946   2.303   2.191
 3628SOL    HW211335   4.904   2.461   2.197
 3629SOL     OW11336   4.031   2.075   3.093
 3629SOL    HW111337   4.008   2.112   3.183
 3629SOL    HW211338   4.001   1.980   3.087
 3630SOL     OW11339   3.761   3.172   3.144
 3630SOL    HW111340   3.814   3.123   3.212
 3630SOL    HW211341   3.783   3.270   3.149
 3631SOL     OW11342   4.456   2.496   2.926
 3631SOL    HW111343   4.515   2.470   2.850
 3631SOL    HW211344   4.428   2.592   2.915
 3632SOL     OW11345   5.346   2.229   2.236
 3632SOL    HW111346   5.348   2.153   2.300
 3632SOL    HW211347   5.298   2.306   2.276
 3633SOL     OW11348   4.747   2.628   2.828
 3633SOL    HW111349   4.762   2.649   2.924
 3633SOL    HW211350   4.717   2.533   2.819
 3634SOL     OW11351   4.704   3.435   3.562
 3634SOL    HW111352   4.684   3.479   3.474
 3634SOL    HW211353   4.743   3.344   3.546
 3635SOL     OW11354   4.074   2.760   3.666
 3635SOL    HW111355   4.150   2.804   3.714
 3635SOL    HW211356   4.109   2.713   3.584
 3636SOL     OW11357   5.027   2.700   1.904
 3636SOL    HW111358   5.061   2.607   1.919
 3636SOL    HW211359   5.045   2.727   1.809
 3637SOL     OW11360   4.792   3.195   2.711
 3637SOL    HW111361   4.799   3.111   2.656
 3637SOL    HW211362   4.854   3.264   2.675
 3638SOL     OW11363   4.862   2.242   3.540
 3638SOL    HW111364   4.817   2.305   3.604
 3638SOL    HW211365   4.955   2.273   3.523
 3639SOL     OW11366   4.884   2.069   3.339
 3639SOL    HW111367   4.884   2.133   3.416
 3639SOL    HW211368   4.912   2.117   3.256
 3640SOL     OW11369   3.732   3.188   2.062
 3640SOL    HW111370   3.639   3.209   2.031
 3640SOL    HW211371   3.742   3.089   2.075
 3641SOL     OW11372   3.812   3.663   2.789
 3641SOL    HW111373   3.770   3.577   2.762
 3641SOL    HW211374   3.906   3.666   2.755
 3642SOL     OW11375   4.228   3.430   2.772
 3642SOL    HW111376   4.294   3.504   2.781
 3642SOL    HW211377   4.272   3.351   2.730
 3643SOL     OW11378   4.726   2.658   3.100
 3643SOL    HW111379   4.767   2.626   3.186
 3643SOL    HW211380   4.630   2.631   3.097
 3644SOL     OW11381   3.913   2.382   3.584
 3644SOL    HW111382   3.972   2.342   3.514
 3644SOL    HW211383   3.855   2.453   3.543
 3645SOL     OW11384   4.539   2.434   2.187
 3645SOL    HW111385   4.546   2.345   2.141
 3645SOL    HW211386   4.445   2.468   2.179
 3646SOL     OW11387   3.976   3.426   3.606
 3646SOL    HW111388   3.946   3.483   3.682
 3646SOL    HW211389   3.969   3.329   3.632
 3647SOL     OW11390   4.395   2.326   3.131
 3647SOL    HW111391   4.361   2.237   3.101
 3647SOL    HW211392   4.421   2.380   3.051
 3648SOL     OW11393   4.654   3.540   3.327
 3648SOL    HW111394   4.630   3.522   3.232
 3648SOL    HW211395   4.684   3.634   3.337
 3649SOL     OW11396   4.197   2.362   2.053
 3649SOL    HW111397   4.258   2.442   2.057
 3649SOL    HW211398   4.102   2.393   2.060
 3650SOL     OW11399   3.883   2.999   3.328
 3650SOL    HW111400   3.905   2.938   3.404
 3650SOL    HW211401   3.893   2.950   3.242
 3651SOL     OW11402   5.071   2.921   3.096
 3651SOL    HW111403   5.095   2.858   3.022
 3651SOL    HW211404   4.981   2.961   3.078
 3652SOL     OW11405   4.976   3.593   2.990
 3652SOL    HW111406   5.060   3.598   2.936
 3652SOL    HW211407   4.953   3.497   3.008
 3653SOL     OW11408   3.807   3.120   2.884
 3653SOL    HW111409   3.802   3.119   2.984
 3653SOL    HW211410   3.724   3.079   2.846
 3654SOL     OW11411   4.412   3.524   3.578
 3654SOL    HW111412   4.356   3.605   3.587
 3654SOL    HW211413   4.464   3.528   3.492
 3655SOL     OW11414   3.854   3.656   3.713
 3655SOL    HW111415   3.813   3.582   3.766
 3655SOL    HW211416   3.918   3.707   3.771
 3656SOL     OW11417   5.004   2.789   2.534
 3656SOL    HW111418   5.064   2.708   2.536
 3656SOL    HW211419   5.044   2.858   2.474
 3657SOL     OW11420   4.554   3.135   3.284
 3657SOL    HW111421   4.549   3.168   3.379
 3657SOL    HW211422   4.468   3.154   3.238
 3658SOL     OW11423   4.396   3.478   2.016
 3658SOL    HW111424   4.405   3.488   1.917
 3658SOL    HW211425   4.356   3.389   2.037
 3659SOL     OW11426   3.987   2.188   2.582
 3659SOL    HW111427   3.908   2.239   2.548
 3659SOL    HW211428   3.978   2.173   2.680
 3660SOL     OW11429   4.546   2.864   3.234
 3660SOL    HW111430   4.586   2.863   3.142
 3660SOL    HW211431   4.556   2.956   3.274
 3661SOL     OW11432   4.640   2.772   2.153
 3661SOL    HW111433   4.703   2.810   2.085
 3661SOL    HW211434   4.680   2.689   2.192
 3662SOL     OW11435   4.096   3.150   3.352
 3662SOL    HW111436   4.083   3.243   3.318
 3662SOL    HW211437   4.012   3.098   3.339
 3663SOL     OW11438   4.763   2.960   2.558
 3663SOL    HW111439   4.693   2.913   2.612
 3663SOL    HW211440   4.822   2.892   2.515
 3664SOL     OW11441   4.738   2.098   2.833
 3664SOL    HW111442   4.730   2.062   2.740
 3664SOL    HW211443   4.736   2.022   2.898
 3665SOL     OW11444   4.314   3.349   2.353
 3665SOL    HW111445   4.356   3.291   2.283
 3665SOL    HW211446   4.270   3.428   2.309
 3666SOL     OW11447   3.979   3.210   2.152
 3666SOL    HW111448   3.883   3.211   2.125
 3666SOL    HW211449   3.991   3.263   2.236
 3667SOL     OW11450   3.829   2.875   3.588
 3667SOL    HW111451   3.752   2.842   3.642
 3667SOL    HW211452   3.914   2.845   3.630
 3668SOL     OW11453   4.396   2.065   3.351
 3668SOL    HW111454   4.486   2.049   3.311
 3668SOL    HW211455   4.404   2.070   3.450
 3669SOL     OW11456   3.799   2.207   1.895
 3669SOL    HW111457   3.707   2.179   1.866
 3669SOL    HW211458   3.830   2.284   1.839
 3670SOL     OW11459   5.164   2.718   3.260
 3670SOL    HW111460   5.107   2.770   3.197
 3670SOL    HW211461   5.260   2.730   3.236
 3671SOL     OW11462   3.796   2.028   2.180
 3671SOL    HW111463   3.779   2.111   2.126
 3671SOL    HW211464   3.886   1.991   2.158
 3672SOL     OW11465   4.337   2.704   3.293
 3672SOL    HW111466   4.393   2.785   3.276
 3672SOL    HW211467   4.396   2.624   3.296
 3673SOL     OW11468   4.440   2.427   3.570
 3673SOL    HW111469   4.459   2.492   3.644
 3673SOL    HW211470   4.500   2.347   3.579
 3674SOL     OW11471   4.114   3.603   3.422
 3674SOL    HW111472   4.023   3.644   3.420
 3674SOL    HW211473   4.107   3.509   3.454
 3675SOL     OW11474   4.949   2.187   2.311
 3675SOL    HW111475   5.014   2.113   2.300
 3675SOL    HW211476   4.969   2.237   2.395
 3676SOL     OW11477   4.385   3.652   2.815
 3676SOL    HW111478   4.339   3.740   2.802
 3676SOL    HW211479   4.484   3.664   2.808
 3677SOL     OW11480   4.583   2.818   2.723
 3677SOL    HW111481   4.637   2.749   2.771
 3677SOL    HW211482   4.551   2.887   2.789
 3678SOL     OW11483   3.945   3.176   3.706
 3678SOL    HW111484   3.880   3.103   3.685
 3678SOL    HW211485   3.949   3.190   3.804
 3679SOL     OW11486   3.803   3.102   2.515
 3679SOL    HW111487   3.802   3.055   2.603
 3679SOL    HW211488   3.885   3.074   2.464
 3680SOL     OW11489   4.396   3.253   3.486
 3680SOL    HW111490   4.318   3.203   3.524
 3680SOL    HW211491   4.393   3.348   3.517
 3681SOL     OW11492   4.152   2.286   2.382
 3681SOL    HW111493   4.182   2.214   2.320
 3681SOL    HW211494   4.113   2.246   2.465
 3682SOL     OW11495   4.041   2.409   3.142
 3682SOL    HW111496   4.079   2.350   3.214
 3682SOL    HW211497   4.081   2.383   3.054
 3683SOL     OW11498   4.536   3.448   2.549
 3683SOL    HW111499   4.568   3.458   2.455
 3683SOL    HW211500   4.457   3.386   2.551
 3684SOL     OW11501   4.725   1.896   3.016
 3684SOL    HW111502   4.662   1.824   2.985
 3684SOL    HW211503   4.818   1.860   3.016
 3685SOL     OW11504   4.342   3.429   3.146
 3685SOL    HW111505   4.337   3.511   3.203
 3685SOL    HW211506   4.431   3.426   3.101
 3686SOL     OW11507   5.076   1.914   2.030
 3686SOL    HW111508   5.111   1.873   1.946
 3686SOL    HW211509   4.986   1.876   2.050
 3687SOL     OW11510   3.763   2.939   2.162
 3687SOL    HW111511   3.862   2.928   2.153
 3687SOL    HW211512   3.723   2.853   2.194
 3688SOL     OW11513   4.599   3.508   2.199
 3688SOL    HW111514   4.522   3.473   2.145
 3688SOL    HW211515   4.567   3.579   2.261
 3689SOL     OW11516   3.954   2.490   3.837
 3689SOL    HW111517   3.861   2.488   3.874
 3689SOL    HW211518   3.955   2.451   3.745
 3690SOL     OW11519   3.949   2.137   4.720
 3690SOL    HW111520   3.984   2.120   4.812
 3690SOL    HW211521   3.861   2.092   4.708
 3691SOL     OW11522   3.743   2.230   4.371
 3691SOL    HW111523   3.661   2.273   4.410
 3691SOL    HW211524   3.715   2.157   4.308
 3692SOL     OW11525   4.293   3.137   4.889
 3692SOL    HW111526   4.200   3.130   4.852
 3692SOL    HW211527   4.304   3.226   4.933
 3693SOL     OW11528   4.859   2.565   4.441
 3693SOL    HW111529   4.916   2.643   4.416
 3693SOL    HW211530   4.799   2.591   4.517
 3694SOL     OW11531   4.492   3.006   4.747
 3694SOL    HW111532   4.414   3.023   4.807
 3694SOL    HW211533   4.526   3.093   4.711
 3695SOL     OW11534   4.409   2.874   4.389
 3695SOL    HW111535   4.478   2.858   4.459
 3695SOL    HW211536   4.336   2.931   4.427
 3696SOL     OW11537   4.059   3.297   4.785
 3696SOL    HW111538   3.981   3.266   4.732
 3696SOL    HW211539   4.117   3.355   4.728
 3697SOL     OW11540   3.955   3.575   4.207
 3697SOL    HW111541   3.989   3.652   4.261
 3697SOL    HW211542   3.999   3.575   4.117
 3698SOL     OW11543   3.954   3.296   4.262
 3698SOL    HW111544   3.928   3.392   4.262
 3698SOL    HW211545   3.883   3.242   4.307
 3699SOL     OW11546   3.964   2.953   4.610
 3699SOL    HW111547   3.978   2.869   4.662
 3699SOL    HW211548   3.909   3.017   4.665
 3700SOL     OW11549   4.344   3.648   5.163
 3700SOL    HW111550   4.252   3.631   5.198
 3700SOL    HW211551   4.372   3.740   5.189
 3701SOL     OW11552   4.330   2.826   3.847
 3701SOL    HW111553   4.337   2.910   3.793
 3701SOL    HW211554   4.376   2.839   3.935
 3702SOL     OW11555   3.846   2.505   4.287
 3702SOL    HW111556   3.801   2.417   4.304
 3702SOL    HW211557   3.845   2.559   4.371
 3703SOL     OW11558   3.751   3.458   3.841
 3703SOL    HW111559   3.732   3.362   3.862
 3703SOL    HW211560   3.718   3.516   3.916
 3704SOL     OW11561   4.337   3.227   4.450
 3704SOL    HW111562   4.288   3.140   4.459
 3704SOL    HW211563   4.314   3.270   4.363
 3705SOL     OW11564   3.921   2.838   4.988
 3705SOL    HW111565   4.010   2.793   4.974
 3705SOL    HW211566   3.848   2.773   4.969
 3706SOL     OW11567   4.322   2.591   3.994
 3706SOL    HW111568   4.346   2.660   3.926
 3706SOL    HW211569   4.244   2.624   4.048
 3707SOL     OW11570   5.005   2.207   4.668
 3707SOL    HW111571   4.919   2.157   4.655
 3707SOL    HW211572   5.067   2.153   4.724
 3708SOL     OW11573   4.715   2.272   4.966
 3708SOL    HW111574   4.638   2.306   5.020
 3708SOL    HW211575   4.681   2.221   4.887
 3709SOL     OW11576   4.765   2.563   4.153
 3709SOL    HW111577   4.791   2.559   4.249
 3709SOL    HW211578   4.680   2.512   4.139
 3710SOL     OW11579   3.800   2.673   4.513
 3710SOL    HW111580   3.899   2.661   4.522
 3710SOL    HW211581   3.776   2.768   4.534
 3711SOL     OW11582   4.589   2.210   3.919
 3711SOL    HW111583   4.648   2.273   3.870
 3711SOL    HW211584   4.608   2.116   3.890
 3712SOL     OW11585   4.274   2.058   4.609
 3712SOL    HW111586   4.269   2.053   4.709
 3712SOL    HW211587   4.276   2.154   4.580
 3713SOL     OW11588   4.075   3.663   4.577
 3713SOL    HW111589   4.125   3.577   4.583
 3713SOL    HW211590   4.140   3.740   4.574
 3714SOL     OW11591   4.045   2.805   3.966
 3714SOL    HW111592   4.127   2.844   3.924
 3714SOL    HW211593   4.018   2.723   3.917
 3715SOL     OW11594   4.835   3.638   3.961
 3715SOL    HW111595   4.775   3.576   4.011
 3715SOL    HW211596   4.866   3.594   3.876
 3716SOL     OW11597   4.188   3.605   4.047
 3716SOL    HW111598   4.221   3.644   4.133
 3716SOL    HW211599   4.264   3.598   3.982
 3717SOL     OW11600   3.973   3.647   4.965
 3717SOL    HW111601   4.030   3.582   5.015
 3717SOL    HW211602   3.957   3.614   4.872
 3718SOL     OW11603   4.106   2.562   4.204
 3718SOL    HW111604   4.151   2.472   4.201
 3718SOL    HW211605   4.012   2.551   4.237
 3719SOL     OW11606   4.338   1.984   3.841
 3719SOL    HW111607   4.436   1.962   3.848
 3719SOL    HW211608   4.307   1.967   3.748
 3720SOL     OW11609   4.527   3.264   4.648
 3720SOL    HW111610   4.617   3.278   4.606
 3720SOL    HW211611   4.456   3.266   4.577
 3721SOL     OW11612   4.646   2.365   4.623
 3721SOL    HW111613   4.621   2.356   4.527
 3721SOL    HW211614   4.694   2.283   4.654
 3722SOL     OW11615   4.263   1.926   4.236
 3722SOL    HW111616   4.182   1.927   4.294
 3722SOL    HW211617   4.266   2.009   4.181
 3723SOL     OW11618   4.021   1.897   3.895
 3723SOL    HW111619   4.070   1.981   3.874
 3723SOL    HW211620   4.083   1.832   3.940
 3724SOL     OW11621   4.183   3.014   4.465
 3724SOL    HW111622   4.112   2.987   4.530
 3724SOL    HW211623   4.157   2.986   4.372
 3725SOL     OW11624   4.756   2.411   3.740
 3725SOL    HW111625   4.715   2.493   3.701
 3725SOL    HW211626   4.820   2.437   3.813
 3726SOL     OW11627   4.285   2.084   4.871
 3726SOL    HW111628   4.323   2.000   4.908
 3726SOL    HW211629   4.197   2.103   4.915
 3727SOL     OW11630   4.212   3.247   3.898
 3727SOL    HW111631   4.125   3.232   3.945
 3727SOL    HW211632   4.195   3.273   3.803
 3728SOL     OW11633   5.388   3.142   4.381
 3728SOL    HW111634   5.487   3.150   4.395
 3728SOL    HW211635   5.343   3.226   4.412
 3729SOL     OW11636   4.251   2.118   4.052
 3729SOL    HW111637   4.278   2.059   3.977
 3729SOL    HW211638   4.251   2.213   4.021
 3730SOL     OW11639   5.316   3.491   5.349
 3730SOL    HW111640   5.343   3.525   5.259
 3730SOL    HW211641   5.395   3.453   5.395
 3731SOL     OW11642   4.835   3.057   4.824
 3731SOL    HW111643   4.795   3.101   4.905
 3731SOL    HW211644   4.794   3.094   4.741
 3732SOL     OW11645   4.134   2.675   4.975
 3732SOL    HW111646   4.220   2.687   5.025
 3732SOL    HW211647   4.092   2.588   5.002
 3733SOL     OW11648   4.091   2.962   4.225
 3733SOL    HW111649   4.084   3.045   4.169
 3733SOL    HW211650   4.095   2.882   4.165
 3734SOL     OW11651   4.290   2.399   4.589
 3734SOL    HW111652   4.302   2.465   4.515
 3734SOL    HW211653   4.336   2.433   4.672
 3735SOL     OW11654   4.078   3.372   5.053
 3735SOL    HW111655   4.057   3.328   4.966
 3735SOL    HW211656   4.175   3.398   5.056
 3736SOL     OW11657   4.297   2.732   4.753
 3736SOL    HW111658   4.341   2.821   4.744
 3736SOL    HW211659   4.234   2.732   4.830
 3737SOL     OW11660   5.084   2.724   4.769
 3737SOL    HW111661   5.009   2.724   4.703
 3737SOL    HW211662   5.121   2.632   4.778
 3738SOL     OW11663   4.933   2.387   3.999
 3738SOL    HW111664   4.946   2.303   4.053
 3738SOL    HW211665   4.904   2.461   4.059
 3739SOL     OW11666   4.031   2.075   4.955
 3739SOL    HW111667   4.008   2.112   5.045
 3739SOL    HW211668   4.001   1.980   4.949
 3740SOL     OW11669   3.761   3.172   5.006
 3740SOL    HW111670   3.814   3.123   5.074
 3740SOL    HW211671   3.783   3.270   5.011
 3741SOL     OW11672   4.456   2.496   4.788
 3741SOL    HW111673   4.515   2.470   4.712
 3741SOL    HW211674   4.428   2.592   4.777
 3742SOL     OW11675   4.031   1.925   4.342
 3742SOL    HW111676   4.020   2.019   4.375
 3742SOL    HW211677   4.026   1.862   4.419
 3743SOL     OW11678   4.747   2.628   4.690
 3743SOL    HW111679   4.762   2.649   4.786
 3743SOL    HW211680   4.717   2.533   4.681
 3744SOL     OW11681   5.027   2.700   3.766
 3744SOL    HW111682   5.061   2.607   3.781
 3744SOL    HW211683   5.045   2.727   3.671
 3745SOL     OW11684   4.792   3.195   4.573
 3745SOL    HW111685   4.799   3.111   4.518
 3745SOL    HW211686   4.854   3.264   4.537
 3746SOL     OW11687   4.043   2.672   4.673
 3746SOL    HW111688   4.136   2.708   4.678
 3746SOL    HW211689   4.037   2.587   4.725
 3747SOL     OW11690   4.063   2.371   4.730
 3747SOL    HW111691   4.011   2.288   4.713
 3747SOL    HW211692   4.140   2.376   4.666
 3748SOL     OW11693   4.884   2.069   5.201
 3748SOL    HW111694   4.884   2.133   5.278
 3748SOL    HW211695   4.912   2.117   5.118
 3749SOL     OW11696   3.732   3.188   3.924
 3749SOL    HW111697   3.639   3.209   3.893
 3749SOL    HW211698   3.742   3.089   3.937
 3750SOL     OW11699   3.812   3.663   4.651
 3750SOL    HW111700   3.770   3.577   4.624
 3750SOL    HW211701   3.906   3.666   4.617
 3751SOL     OW11702   4.228   3.430   4.634
 3751SOL    HW111703   4.294   3.504   4.643
 3751SOL    HW211704   4.272   3.351   4.592
 3752SOL     OW11705   4.726   2.658   4.962
 3752SOL    HW111706   4.767   2.626   5.048
 3752SOL    HW211707   4.630   2.631   4.959
 3753SOL     OW11708   3.764   2.406   4.838
 3753SOL    HW111709   3.849   2.373   4.797
 3753SOL    HW211710   3.777   2.421   4.936
 3754SOL     OW11711   4.539   2.434   4.049
 3754SOL    HW111712   4.546   2.345   4.003
 3754SOL    HW211713   4.445   2.468   4.041
 3755SOL     OW11714   4.395   2.326   4.993
 3755SOL    HW111715   4.361   2.237   4.963
 3755SOL    HW211716   4.421   2.380   4.913
 3756SOL     OW11717   4.654   3.540   5.189
 3756SOL    HW111718   4.630   3.522   5.094
 3756SOL    HW211719   4.684   3.634   5.199
 3757SOL     OW11720   4.197   2.362   3.915
 3757SOL    HW111721   4.258   2.442   3.919
 3757SOL    HW211722   4.102   2.393   3.922
 3758SOL     OW11723   5.071   2.921   4.958
 3758SOL    HW111724   5.095   2.858   4.884
 3758SOL    HW211725   4.981   2.961   4.940
 3759SOL     OW11726   4.976   3.593   4.852
 3759SOL    HW111727   5.060   3.598   4.798
 3759SOL    HW211728   4.953   3.497   4.870
 3760SOL     OW11729   3.807   3.120   4.746
 3760SOL    HW111730   3.802   3.119   4.846
 3760SOL    HW211731   3.724   3.079   4.708
 3761SOL     OW11732   5.004   2.789   4.396
 3761SOL    HW111733   5.064   2.708   4.398
 3761SOL    HW211734   5.044   2.858   4.336
 3762SOL     OW11735   4.396   3.478   3.878
 3762SOL    HW111736   4.405   3.488   3.779
 3762SOL    HW211737   4.356   3.389   3.899
 3763SOL     OW11738   3.987   2.188   4.444
 3763SOL    HW111739   3.908   2.239   4.410
 3763SOL    HW211740   3.978   2.173   4.542
 3764SOL     OW11741   4.546   2.864   5.096
 3764SOL    HW111742   4.586   2.863   5.004
 3764SOL    HW211743   4.556   2.956   5.136
 3765SOL     OW11744   4.640   2.772   4.015
 3765SOL    HW111745   4.703   2.810   3.947
 3765SOL    HW211746   4.680   2.689   4.054
 3766SOL     OW11747   4.763   2.960   4.420
 3766SOL    HW111748   4.693   2.913   4.474
 3766SOL    HW211749   4.822   2.892   4.377
 3767SOL     OW11750   4.738   2.098   4.695
 3767SOL    HW111751   4.730   2.062   4.602
 3767SOL    HW211752   4.736   2.022   4.760
 3768SOL     OW11753   4.314   3.349   4.215
 3768SOL    HW111754   4.356   3.291   4.145
 3768SOL    HW211755   4.270   3.428   4.171
 3769SOL     OW11756   3.979   3.210   4.014
 3769SOL    HW111757   3.883   3.211   3.987
 3769SOL    HW211758   3.991   3.263   4.098
 3770SOL     OW11759   3.799   2.207   3.757
 3770SOL    HW111760   3.707   2.179   3.728
 3770SOL    HW211761   3.830   2.284   3.701
 3771SOL     OW11762   3.796   2.028   4.042
 3771SOL    HW111763   3.779   2.111   3.988
 3771SOL    HW211764   3.886   1.991   4.020
 3772SOL     OW11765   4.318   2.607   4.376
 3772SOL    HW111766   4.368   2.692   4.357
 3772SOL    HW211767   4.230   2.609   4.328
 3773SOL     OW11768   4.583   3.236   3.740
 3773SOL    HW111769   4.537   3.251   3.828
 3773SOL    HW211770   4.627   3.321   3.710
 3774SOL     OW11771   4.385   3.652   4.677
 3774SOL    HW111772   4.339   3.740   4.664
 3774SOL    HW211773   4.484   3.664   4.670
 3775SOL     OW11774   4.583   2.818   4.585
 3775SOL    HW111775   4.637   2.749   4.633
 3775SOL    HW211776   4.551   2.887   4.651
 3776SOL     OW11777   4.807   2.846   3.811
 3776SOL    HW111778   4.784   2.899   3.729
 3776SOL    HW211779   4.888   2.790   3.792
 3777SOL     OW11780   3.803   3.102   4.377
 3777SOL    HW111781   3.802   3.055   4.465
 3777SOL    HW211782   3.885   3.074   4.326
 3778SOL     OW11783   4.152   2.286   4.244
 3778SOL    HW111784   4.182   2.214   4.182
 3778SOL    HW211785   4.113   2.246   4.327
 3779SOL     OW11786   4.536   3.448   4.411
 3779SOL    HW111787   4.568   3.458   4.317
 3779SOL    HW211788   4.457   3.386   4.413
 3780SOL     OW11789   4.725   1.896   4.878
 3780SOL    HW111790   4.662   1.824   4.847
 3780SOL    HW211791   4.818   1.860   4.878
 3781SOL     OW11792   4.494   3.192   4.025
 3781SOL    HW111793   4.448   3.105   4.042
 3781SOL    HW211794   4.585   3.189   4.066
 3782SOL     OW11795   5.076   1.914   3.892
 3782SOL    HW111796   5.111   1.873   3.808
 3782SOL    HW211797   4.986   1.876   3.912
 3783SOL     OW11798   3.763   2.939   4.024
 3783SOL    HW111799   3.862   2.928   4.015
 3783SOL    HW211800   3.723   2.853   4.056
 3784SOL     OW11801   3.954   4.352   0.113
 3784SOL    HW111802   3.861   4.350   0.150
 3784SOL    HW211803   3.955   4.313   0.021
 3785SOL     OW11804   3.949   3.999   0.996
 3785SOL    HW111805   3.984   3.982   1.088
 3785SOL    HW211806   3.861   3.954   0.984
 3786SOL     OW11807   3.743   4.092   0.647
 3786SOL    HW111808   3.661   4.135   0.686
 3786SOL    HW211809   3.715   4.019   0.584
 3787SOL     OW11810   4.293   4.999   1.165
 3787SOL    HW111811   4.200   4.992   1.128
 3787SOL    HW211812   4.304   5.088   1.209
 3788SOL     OW11813   4.859   4.427   0.717
 3788SOL    HW111814   4.916   4.505   0.692
 3788SOL    HW211815   4.799   4.453   0.793
 3789SOL     OW11816   4.492   4.868   1.023
 3789SOL    HW111817   4.414   4.885   1.083
 3789SOL    HW211818   4.526   4.955   0.987
 3790SOL     OW11819   4.574   4.522   1.823
 3790SOL    HW111820   4.570   4.598   1.888
 3790SOL    HW211821   4.596   4.558   1.732
 3791SOL     OW11822   4.409   4.736   0.665
 3791SOL    HW111823   4.478   4.720   0.735
 3791SOL    HW211824   4.336   4.793   0.703
 3792SOL     OW11825   4.410   4.885   1.803
 3792SOL    HW111826   4.470   4.964   1.817
 3792SOL    HW211827   4.324   4.916   1.762
 3793SOL     OW11828   4.059   5.159   1.061
 3793SOL    HW111829   3.981   5.128   1.008
 3793SOL    HW211830   4.117   5.217   1.004
 3794SOL     OW11831   4.162   4.116   1.499
 3794SOL    HW111832   4.244   4.060   1.508
 3794SOL    HW211833   4.081   4.058   1.503
 3795SOL     OW11834   3.964   4.815   0.886
 3795SOL    HW111835   3.978   4.731   0.938
 3795SOL    HW211836   3.909   4.879   0.941
 3796SOL     OW11837   4.330   4.688   0.123
 3796SOL    HW111838   4.337   4.772   0.069
 3796SOL    HW211839   4.376   4.701   0.211
 3797SOL     OW11840   3.846   4.367   0.563
 3797SOL    HW111841   3.801   4.279   0.580
 3797SOL    HW211842   3.845   4.421   0.647
 3798SOL     OW11843   3.837   4.461   1.597
 3798SOL    HW111844   3.925   4.448   1.642
 3798SOL    HW211845   3.824   4.558   1.575
 3799SOL     OW11846   5.017   4.952   1.423
 3799SOL    HW111847   5.054   4.879   1.365
 3799SOL    HW211848   5.069   4.957   1.508
 3800SOL     OW11849   4.533   3.728   0.502
 3800SOL    HW111850   4.573   3.819   0.493
 3800SOL    HW211851   4.433   3.736   0.508
 3801SOL     OW11852   3.921   4.700   1.264
 3801SOL    HW111853   4.010   4.655   1.250
 3801SOL    HW211854   3.848   4.635   1.245
 3802SOL     OW11855   4.041   3.975   1.801
 3802SOL    HW111856   4.112   4.046   1.807
 3802SOL    HW211857   3.953   4.014   1.829
 3803SOL     OW11858   4.322   4.453   0.270
 3803SOL    HW111859   4.346   4.522   0.202
 3803SOL    HW211860   4.244   4.486   0.324
 3804SOL     OW11861   5.005   4.069   0.944
 3804SOL    HW111862   4.919   4.019   0.931
 3804SOL    HW211863   5.067   4.015   1.000
 3805SOL     OW11864   4.531   4.329   1.465
 3805SOL    HW111865   4.484   4.326   1.554
 3805SOL    HW211866   4.480   4.274   1.399
 3806SOL     OW11867   4.697   4.614   1.572
 3806SOL    HW111868   4.743   4.530   1.543
 3806SOL    HW211869   4.641   4.648   1.497
 3807SOL     OW11870   4.715   4.134   1.242
 3807SOL    HW111871   4.638   4.168   1.296
 3807SOL    HW211872   4.681   4.083   1.163
 3808SOL     OW11873   4.765   4.425   0.429
 3808SOL    HW111874   4.791   4.421   0.525
 3808SOL    HW211875   4.680   4.374   0.415
 3809SOL     OW11876   3.800   4.535   0.789
 3809SOL    HW111877   3.899   4.523   0.798
 3809SOL    HW211878   3.776   4.630   0.810
 3810SOL     OW11879   4.589   4.072   0.195
 3810SOL    HW111880   4.648   4.135   0.146
 3810SOL    HW211881   4.608   3.978   0.166
 3811SOL     OW11882   4.274   3.920   0.885
 3811SOL    HW111883   4.269   3.915   0.985
 3811SOL    HW211884   4.276   4.016   0.856
 3812SOL     OW11885   4.045   4.667   0.242
 3812SOL    HW111886   4.127   4.706   0.200
 3812SOL    HW211887   4.018   4.585   0.193
 3813SOL     OW11888   3.926   4.009   1.498
 3813SOL    HW111889   3.846   4.069   1.485
 3813SOL    HW211890   3.916   3.960   1.584
 3814SOL     OW11891   4.106   4.424   0.480
 3814SOL    HW111892   4.151   4.334   0.477
 3814SOL    HW211893   4.012   4.413   0.513
 3815SOL     OW11894   4.505   3.988   1.749
 3815SOL    HW111895   4.572   3.927   1.792
 3815SOL    HW211896   4.432   4.007   1.814
 3816SOL     OW11897   4.527   5.126   0.924
 3816SOL    HW111898   4.617   5.140   0.882
 3816SOL    HW211899   4.456   5.128   0.853
 3817SOL     OW11900   4.646   4.227   0.899
 3817SOL    HW111901   4.621   4.218   0.803
 3817SOL    HW211902   4.694   4.145   0.930
 3818SOL     OW11903   4.263   3.788   0.512
 3818SOL    HW111904   4.182   3.789   0.570
 3818SOL    HW211905   4.266   3.871   0.457
 3819SOL     OW11906   4.021   3.759   0.171
 3819SOL    HW111907   4.070   3.843   0.150
 3819SOL    HW211908   4.083   3.694   0.216
 3820SOL     OW11909   4.659   3.960   0.480
 3820SOL    HW111910   4.611   4.001   0.402
 3820SOL    HW211911   4.758   3.958   0.461
 3821SOL     OW11912   4.800   4.407   1.464
 3821SOL    HW111913   4.720   4.346   1.467
 3821SOL    HW211914   4.881   4.354   1.440
 3822SOL     OW11915   4.951   5.294   0.793
 3822SOL    HW111916   4.972   5.368   0.728
 3822SOL    HW211917   5.019   5.294   0.866
 3823SOL     OW11918   4.183   4.876   0.741
 3823SOL    HW111919   4.112   4.849   0.806
 3823SOL    HW211920   4.157   4.848   0.648
 3824SOL     OW11921   4.756   4.273   0.016
 3824SOL    HW111922   4.715   4.355  -0.023
 3824SOL    HW211923   4.820   4.299   0.089
 3825SOL     OW11924   3.802   4.280   1.386
 3825SOL    HW111925   3.894   4.279   1.345
 3825SOL    HW211926   3.796   4.354   1.453
 3826SOL     OW11927   4.285   3.946   1.147
 3826SOL    HW111928   4.323   3.862   1.184
 3826SOL    HW211929   4.197   3.965   1.191
 3827SOL     OW11930   4.590   4.178   0.642
 3827SOL    HW111931   4.558   4.250   0.580
 3827SOL    HW211932   4.614   4.097   0.589
 3828SOL     OW11933   4.741   3.763   0.753
 3828SOL    HW111934   4.669   3.768   0.684
 3828SOL    HW211935   4.717   3.694   0.822
 3829SOL     OW11936   4.251   3.980   0.328
 3829SOL    HW111937   4.278   3.921   0.253
 3829SOL    HW211938   4.251   4.075   0.297
 3830SOL     OW11939   4.639   3.813   1.402
 3830SOL    HW111940   4.664   3.793   1.307
 3830SOL    HW211941   4.711   3.869   1.444
 3831SOL     OW11942   4.704   4.840   1.719
 3831SOL    HW111943   4.605   4.846   1.729
 3831SOL    HW211944   4.727   4.760   1.663
 3832SOL     OW11945   4.429   4.774   0.368
 3832SOL    HW111946   4.415   4.781   0.467
 3832SOL    HW211947   4.513   4.723   0.350
 3833SOL     OW11948   4.134   4.537   1.251
 3833SOL    HW111949   4.220   4.549   1.301
 3833SOL    HW211950   4.092   4.450   1.278
 3834SOL     OW11951   4.998   4.110   1.262
 3834SOL    HW111952   5.019   4.184   1.326
 3834SOL    HW211953   4.909   4.127   1.219
 3835SOL     OW11954   4.091   4.824   0.501
 3835SOL    HW111955   4.084   4.907   0.445
 3835SOL    HW211956   4.095   4.744   0.441
 3836SOL     OW11957   4.290   4.261   0.865
 3836SOL    HW111958   4.302   4.327   0.791
 3836SOL    HW211959   4.336   4.295   0.948
 3837SOL     OW11960   4.976   5.072   0.388
 3837SOL    HW111961   5.026   5.149   0.428
 3837SOL    HW211962   4.881   5.074   0.420
 3838SOL     OW11963   4.126   4.475   1.598
 3838SOL    HW111964   4.194   4.530   1.551
 3838SOL    HW211965   4.166   4.387   1.625
 3839SOL     OW11966   4.737   3.829   1.770
 3839SOL    HW111967   4.743   3.914   1.718
 3839SOL    HW211968   4.769   3.753   1.713
 3840SOL     OW11969   4.228   3.774   1.740
 3840SOL    HW111970   4.186   3.717   1.670
 3840SOL    HW211971   4.162   3.843   1.772
 3841SOL     OW11972   4.297   4.594   1.029
 3841SOL    HW111973   4.341   4.683   1.020
 3841SOL    HW211974   4.234   4.594   1.106
 3842SOL     OW11975   5.084   4.586   1.045
 3842SOL    HW111976   5.009   4.586   0.979
 3842SOL    HW211977   5.121   4.494   1.054
 3843SOL     OW11978   4.933   4.249   0.275
 3843SOL    HW111979   4.946   4.165   0.329
 3843SOL    HW211980   4.904   4.323   0.335
 3844SOL     OW11981   4.031   3.937   1.231
 3844SOL    HW111982   4.008   3.974   1.321
 3844SOL    HW211983   4.001   3.842   1.225
 3845SOL     OW11984   4.456   4.358   1.064
 3845SOL    HW111985   4.515   4.332   0.988
 3845SOL    HW211986   4.428   4.454   1.053
 3846SOL     OW11987   4.031   3.787   0.618
 3846SOL    HW111988   4.020   3.881   0.651
 3846SOL    HW211989   4.026   3.724   0.695
 3847SOL     OW11990   5.346   4.091   0.374
 3847SOL    HW111991   5.348   4.015   0.438
 3847SOL    HW211992   5.298   4.168   0.414
 3848SOL     OW11993   4.747   4.490   0.966
 3848SOL    HW111994   4.762   4.511   1.062
 3848SOL    HW211995   4.717   4.395   0.957
 3849SOL     OW11996   4.074   4.622   1.804
 3849SOL    HW111997   4.150   4.666   1.852
 3849SOL    HW211998   4.109   4.575   1.722
 3850SOL     OW11999   5.027   4.562   0.042
 3850SOL    HW112000   5.061   4.469   0.057
 3850SOL    HW212001   5.045   4.589  -0.053
 3851SOL     OW12002   4.043   4.534   0.949
 3851SOL    HW112003   4.136   4.570   0.954
 3851SOL    HW212004   4.037   4.449   1.001
 3852SOL     OW12005   4.063   4.233   1.006
 3852SOL    HW112006   4.011   4.150   0.989
 3852SOL    HW212007   4.140   4.238   0.942
 3853SOL     OW12008   4.862   4.104   1.678
 3853SOL    HW112009   4.817   4.167   1.742
 3853SOL    HW212010   4.955   4.135   1.661
 3854SOL     OW12011   4.884   3.931   1.477
 3854SOL    HW112012   4.884   3.995   1.554
 3854SOL    HW212013   4.912   3.979   1.394
 3855SOL     OW12014   4.726   4.520   1.238
 3855SOL    HW112015   4.767   4.488   1.324
 3855SOL    HW212016   4.630   4.493   1.235
 3856SOL     OW12017   3.764   4.268   1.114
 3856SOL    HW112018   3.849   4.235   1.073
 3856SOL    HW212019   3.777   4.283   1.212
 3857SOL     OW12020   3.913   4.244   1.722
 3857SOL    HW112021   3.972   4.204   1.652
 3857SOL    HW212022   3.855   4.315   1.681
 3858SOL     OW12023   4.539   4.296   0.325
 3858SOL    HW112024   4.546   4.207   0.279
 3858SOL    HW212025   4.445   4.330   0.317
 3859SOL     OW12026   4.395   4.188   1.269
 3859SOL    HW112027   4.361   4.099   1.239
 3859SOL    HW212028   4.421   4.242   1.189
 3860SOL     OW12029   4.197   4.224   0.191
 3860SOL    HW112030   4.258   4.304   0.195
 3860SOL    HW212031   4.102   4.255   0.198
 3861SOL     OW12032   3.883   4.861   1.466
 3861SOL    HW112033   3.905   4.800   1.542
 3861SOL    HW212034   3.893   4.812   1.380
 3862SOL     OW12035   5.071   4.783   1.234
 3862SOL    HW112036   5.095   4.720   1.160
 3862SOL    HW212037   4.981   4.823   1.216
 3863SOL     OW12038   3.807   4.982   1.022
 3863SOL    HW112039   3.802   4.981   1.122
 3863SOL    HW212040   3.724   4.941   0.984
 3864SOL     OW12041   4.627   3.810   0.133
 3864SOL    HW112042   4.678   3.811   0.047
 3864SOL    HW212043   4.683   3.768   0.204
 3865SOL     OW12044   5.004   4.651   0.672
 3865SOL    HW112045   5.064   4.570   0.674
 3865SOL    HW212046   5.044   4.720   0.612
 3866SOL     OW12047   4.554   4.997   1.422
 3866SOL    HW112048   4.549   5.030   1.517
 3866SOL    HW212049   4.468   5.016   1.376
 3867SOL     OW12050   3.987   4.050   0.720
 3867SOL    HW112051   3.908   4.101   0.686
 3867SOL    HW212052   3.978   4.035   0.818
 3868SOL     OW12053   4.546   4.726   1.372
 3868SOL    HW112054   4.586   4.725   1.280
 3868SOL    HW212055   4.556   4.818   1.412
 3869SOL     OW12056   4.640   4.634   0.291
 3869SOL    HW112057   4.703   4.672   0.223
 3869SOL    HW212058   4.680   4.551   0.330
 3870SOL     OW12059   4.096   5.012   1.490
 3870SOL    HW112060   4.083   5.105   1.456
 3870SOL    HW212061   4.012   4.960   1.477
 3871SOL     OW12062   4.763   4.822   0.696
 3871SOL    HW112063   4.693   4.775   0.750
 3871SOL    HW212064   4.822   4.754   0.653
 3872SOL     OW12065   4.738   3.960   0.971
 3872SOL    HW112066   4.730   3.924   0.878
 3872SOL    HW212067   4.736   3.884   1.036
 3873SOL     OW12068   3.829   4.737   1.726
 3873SOL    HW112069   3.752   4.704   1.780
 3873SOL    HW212070   3.914   4.707   1.768
 3874SOL     OW12071   4.396   3.927   1.489
 3874SOL    HW112072   4.486   3.911   1.449
 3874SOL    HW212073   4.404   3.932   1.588
 3875SOL     OW12074   5.164   4.580   1.398
 3875SOL    HW112075   5.107   4.632   1.335
 3875SOL    HW212076   5.260   4.592   1.374
 3876SOL     OW12077   3.796   3.890   0.318
 3876SOL    HW112078   3.779   3.973   0.264
 3876SOL    HW212079   3.886   3.853   0.296
 3877SOL     OW12080   4.337   4.566   1.431
 3877SOL    HW112081   4.393   4.647   1.414
 3877SOL    HW212082   4.396   4.486   1.434
 3878SOL     OW12083   4.440   4.289   1.708
 3878SOL    HW112084   4.459   4.354   1.782
 3878SOL    HW212085   4.500   4.209   1.717
 3879SOL     OW12086   5.174   4.944   1.633
 3879SOL    HW112087   5.165   4.934   1.732
 3879SOL    HW212088   5.270   4.937   1.607
 3880SOL     OW12089   4.949   4.049   0.449
 3880SOL    HW112090   5.014   3.975   0.438
 3880SOL    HW212091   4.969   4.099   0.533
 3881SOL     OW12092   4.318   4.469   0.652
 3881SOL    HW112093   4.368   4.554   0.633
 3881SOL    HW212094   4.230   4.471   0.604
 3882SOL     OW12095   4.583   4.680   0.861
 3882SOL    HW112096   4.637   4.611   0.909
 3882SOL    HW212097   4.551   4.749   0.927
 3883SOL     OW12098   4.807   4.708   0.087
 3883SOL    HW112099   4.784   4.761   0.005
 3883SOL    HW212100   4.888   4.652   0.068
 3884SOL     OW12101   3.803   4.964   0.653
 3884SOL    HW112102   3.802   4.917   0.741
 3884SOL    HW212103   3.885   4.936   0.602
 3885SOL     OW12104   4.152   4.148   0.520
 3885SOL    HW112105   4.182   4.076   0.458
 3885SOL    HW212106   4.113   4.108   0.603
 3886SOL     OW12107   4.041   4.271   1.280
 3886SOL    HW112108   4.079   4.212   1.352
 3886SOL    HW212109   4.081   4.245   1.192
 3887SOL     OW12110   4.725   3.758   1.154
 3887SOL    HW112111   4.662   3.686   1.123
 3887SOL    HW212112   4.818   3.722   1.154
 3888SOL     OW12113   4.494   5.054   0.301
 3888SOL    HW112114   4.448   4.967   0.318
 3888SOL    HW212115   4.585   5.051   0.342
 3889SOL     OW12116   3.763   4.801   0.300
 3889SOL    HW112117   3.862   4.790   0.291
 3889SOL    HW212118   3.723   4.715   0.332
 3890SOL     OW12119   3.954   4.352   1.975
 3890SOL    HW112120   3.861   4.350   2.012
 3890SOL    HW212121   3.955   4.313   1.883
 3891SOL     OW12122   3.949   3.999   2.858
 3891SOL    HW112123   3.984   3.982   2.950
 3891SOL    HW212124   3.861   3.954   2.846
 3892SOL     OW12125   3.743   4.092   2.509
 3892SOL    HW112126   3.661   4.135   2.548
 3892SOL    HW212127   3.715   4.019   2.446
 3893SOL     OW12128   4.293   4.999   3.027
 3893SOL    HW112129   4.200   4.992   2.990
 3893SOL    HW212130   4.304   5.088   3.071
 3894SOL     OW12131   4.859   4.427   2.579
 3894SOL    HW112132   4.916   4.505   2.554
 3894SOL    HW212133   4.799   4.453   2.655
 3895SOL     OW12134   4.492   4.868   2.885
 3895SOL    HW112135   4.414   4.885   2.945
 3895SOL    HW212136   4.526   4.955   2.849
 3896SOL     OW12137   4.574   4.522   3.685
 3896SOL    HW112138   4.570   4.598   3.750
 3896SOL    HW212139   4.596   4.558   3.594
 3897SOL     OW12140   4.409   4.736   2.527
 3897SOL    HW112141   4.478   4.720   2.597
 3897SOL    HW212142   4.336   4.793   2.565
 3898SOL     OW12143   4.410   4.885   3.665
 3898SOL    HW112144   4.470   4.964   3.679
 3898SOL    HW212145   4.324   4.916   3.624
 3899SOL     OW12146   4.059   5.159   2.923
 3899SOL    HW112147   3.981   5.128   2.870
 3899SOL    HW212148   4.117   5.217   2.866
 3900SOL     OW12149   4.162   4.116   3.361
 3900SOL    HW112150   4.244   4.060   3.370
 3900SOL    HW212151   4.081   4.058   3.365
 3901SOL     OW12152   3.964   4.815   2.748
 3901SOL    HW112153   3.978   4.731   2.800
 3901SOL    HW212154   3.909   4.879   2.803
 3902SOL     OW12155   4.330   4.688   1.985
 3902SOL    HW112156   4.337   4.772   1.931
 3902SOL    HW212157   4.376   4.701   2.073
 3903SOL     OW12158   3.846   4.367   2.425
 3903SOL    HW112159   3.801   4.279   2.442
 3903SOL    HW212160   3.845   4.421   2.509
 3904SOL     OW12161   3.837   4.461   3.459
 3904SOL    HW112162   3.925   4.448   3.504
 3904SOL    HW212163   3.824   4.558   3.437
 3905SOL     OW12164   5.017   4.952   3.285
 3905SOL    HW112165   5.054   4.879   3.227
 3905SOL    HW212166   5.069   4.957   3.370
 3906SOL     OW12167   4.533   3.728   2.364
 3906SOL    HW112168   4.573   3.819   2.355
 3906SOL    HW212169   4.433   3.736   2.370
 3907SOL     OW12170   3.921   4.700   3.126
 3907SOL    HW112171   4.010   4.655   3.112
 3907SOL    HW212172   3.848   4.635   3.107
 3908SOL     OW12173   4.041   3.975   3.663
 3908SOL    HW112174   4.112   4.046   3.669
 3908SOL    HW212175   3.953   4.014   3.691
 3909SOL     OW12176   4.322   4.453   2.132
 3909SOL    HW112177   4.346   4.522   2.064
 3909SOL    HW212178   4.244   4.486   2.186
 3910SOL     OW12179   5.005   4.069   2.806
 3910SOL    HW112180   4.919   4.019   2.793
 3910SOL    HW212181   5.067   4.015   2.862
 3911SOL     OW12182   4.531   4.329   3.327
 3911SOL    HW112183   4.484   4.326   3.416
 3911SOL    HW212184   4.480   4.274   3.261
 3912SOL     OW12185   4.697   4.614   3.434
 3912SOL    HW112186   4.743   4.530   3.405
 3912SOL    HW212187   4.641   4.648   3.359
 3913SOL     OW12188   4.715   4.134   3.104
 3913SOL    HW112189   4.638   4.168   3.158
 3913SOL    HW212190   4.681   4.083   3.025
 3914SOL     OW12191   4.765   4.425   2.291
 3914SOL    HW112192   4.791   4.421   2.387
 3914SOL    HW212193   4.680   4.374   2.277
 3915SOL     OW12194   3.800   4.535   2.651
 3915SOL    HW112195   3.899   4.523   2.660
 3915SOL    HW212196   3.776   4.630   2.672
 3916SOL     OW12197   4.589   4.072   2.057
 3916SOL    HW112198   4.648   4.135   2.008
 3916SOL    HW212199   4.608   3.978   2.028
 3917SOL     OW12200   4.274   3.920   2.747
 3917SOL    HW112201   4.269   3.915   2.847
 3917SOL    HW212202   4.276   4.016   2.718
 3918SOL     OW12203   4.045   4.667   2.104
 3918SOL    HW112204   4.127   4.706   2.062
 3918SOL    HW212205   4.018   4.585   2.055
 3919SOL     OW12206   3.926   4.009   3.360
 3919SOL    HW112207   3.846   4.069   3.347
 3919SOL    HW212208   3.916   3.960   3.446
 3920SOL     OW12209   4.106   4.424   2.342
 3920SOL    HW112210   4.151   4.334   2.339
 3920SOL    HW212211   4.012   4.413   2.375
 3921SOL     OW12212   4.338   3.846   1.979
 3921SOL    HW112213   4.436   3.824   1.986
 3921SOL    HW212214   4.307   3.829   1.886
 3922SOL     OW12215   4.505   3.988   3.611
 3922SOL    HW112216   4.572   3.927   3.654
 3922SOL    HW212217   4.432   4.007   3.676
 3923SOL     OW12218   4.527   5.126   2.786
 3923SOL    HW112219   4.617   5.140   2.744
 3923SOL    HW212220   4.456   5.128   2.715
 3924SOL     OW12221   4.646   4.227   2.761
 3924SOL    HW112222   4.621   4.218   2.665
 3924SOL    HW212223   4.694   4.145   2.792
 3925SOL     OW12224   4.263   3.788   2.374
 3925SOL    HW112225   4.182   3.789   2.432
 3925SOL    HW212226   4.266   3.871   2.319
 3926SOL     OW12227   5.158   4.912   1.903
 3926SOL    HW112228   5.190   4.836   1.960
 3926SOL    HW212229   5.066   4.939   1.933
 3927SOL     OW12230   4.021   3.759   2.033
 3927SOL    HW112231   4.070   3.843   2.012
 3927SOL    HW212232   4.083   3.694   2.078
 3928SOL     OW12233   4.659   3.960   2.342
 3928SOL    HW112234   4.611   4.001   2.264
 3928SOL    HW212235   4.758   3.958   2.323
 3929SOL     OW12236   4.800   4.407   3.326
 3929SOL    HW112237   4.720   4.346   3.329
 3929SOL    HW212238   4.881   4.354   3.302
 3930SOL     OW12239   4.951   5.294   2.655
 3930SOL    HW112240   4.972   5.368   2.590
 3930SOL    HW212241   5.019   5.294   2.728
 3931SOL     OW12242   4.183   4.876   2.603
 3931SOL    HW112243   4.112   4.849   2.668
 3931SOL    HW212244   4.157   4.848   2.510
 3932SOL     OW12245   4.756   4.273   1.878
 3932SOL    HW112246   4.715   4.355   1.839
 3932SOL    HW212247   4.820   4.299   1.951
 3933SOL     OW12248   3.802   4.280   3.248
 3933SOL    HW112249   3.894   4.279   3.207
 3933SOL    HW212250   3.796   4.354   3.315
 3934SOL     OW12251   4.285   3.946   3.009
 3934SOL    HW112252   4.323   3.862   3.046
 3934SOL    HW212253   4.197   3.965   3.053
 3935SOL     OW12254   4.590   4.178   2.504
 3935SOL    HW112255   4.558   4.250   2.442
 3935SOL    HW212256   4.614   4.097   2.451
 3936SOL     OW12257   4.741   3.763   2.615
 3936SOL    HW112258   4.669   3.768   2.546
 3936SOL    HW212259   4.717   3.694   2.684
 3937SOL     OW12260   4.251   3.980   2.190
 3937SOL    HW112261   4.278   3.921   2.115
 3937SOL    HW212262   4.251   4.075   2.159
 3938SOL     OW12263   4.639   3.813   3.264
 3938SOL    HW112264   4.664   3.793   3.169
 3938SOL    HW212265   4.711   3.869   3.306
 3939SOL     OW12266   4.704   4.840   3.581
 3939SOL    HW112267   4.605   4.846   3.591
 3939SOL    HW212268   4.727   4.760   3.525
 3940SOL     OW12269   4.429   4.774   2.230
 3940SOL    HW112270   4.415   4.781   2.329
 3940SOL    HW212271   4.513   4.723   2.212
 3941SOL     OW12272   4.134   4.537   3.113
 3941SOL    HW112273   4.220   4.549   3.163
 3941SOL    HW212274   4.092   4.450   3.140
 3942SOL     OW12275   4.998   4.110   3.124
 3942SOL    HW112276   5.019   4.184   3.188
 3942SOL    HW212277   4.909   4.127   3.081
 3943SOL     OW12278   4.091   4.824   2.363
 3943SOL    HW112279   4.084   4.907   2.307
 3943SOL    HW212280   4.095   4.744   2.303
 3944SOL     OW12281   4.290   4.261   2.727
 3944SOL    HW112282   4.302   4.327   2.653
 3944SOL    HW212283   4.336   4.295   2.810
 3945SOL     OW12284   4.976   5.072   2.250
 3945SOL    HW112285   5.026   5.149   2.290
 3945SOL    HW212286   4.881   5.074   2.282
 3946SOL     OW12287   4.126   4.475   3.460
 3946SOL    HW112288   4.194   4.530   3.413
 3946SOL    HW212289   4.166   4.387   3.487
 3947SOL     OW12290   4.737   3.829   3.632
 3947SOL    HW112291   4.743   3.914   3.580
 3947SOL    HW212292   4.769   3.753   3.575
 3948SOL     OW12293   4.228   3.774   3.602
 3948SOL    HW112294   4.186   3.717   3.532
 3948SOL    HW212295   4.162   3.843   3.634
 3949SOL     OW12296   4.297   4.594   2.891
 3949SOL    HW112297   4.341   4.683   2.882
 3949SOL    HW212298   4.234   4.594   2.968
 3950SOL     OW12299   5.084   4.586   2.907
 3950SOL    HW112300   5.009   4.586   2.841
 3950SOL    HW212301   5.121   4.494   2.916
 3951SOL     OW12302   4.933   4.249   2.137
 3951SOL    HW112303   4.946   4.165   2.191
 3951SOL    HW212304   4.904   4.323   2.197
 3952SOL     OW12305   4.031   3.937   3.093
 3952SOL    HW112306   4.008   3.974   3.183
 3952SOL    HW212307   4.001   3.842   3.087
 3953SOL     OW12308   4.456   4.358   2.926
 3953SOL    HW112309   4.515   4.332   2.850
 3953SOL    HW212310   4.428   4.454   2.915
 3954SOL     OW12311   4.031   3.787   2.480
 3954SOL    HW112312   4.020   3.881   2.513
 3954SOL    HW212313   4.026   3.724   2.557
 3955SOL     OW12314   5.346   4.091   2.236
 3955SOL    HW112315   5.348   4.015   2.300
 3955SOL    HW212316   5.298   4.168   2.276
 3956SOL     OW12317   4.747   4.490   2.828
 3956SOL    HW112318   4.762   4.511   2.924
 3956SOL    HW212319   4.717   4.395   2.819
 3957SOL     OW12320   4.074   4.622   3.666
 3957SOL    HW112321   4.150   4.666   3.714
 3957SOL    HW212322   4.109   4.575   3.584
 3958SOL     OW12323   5.027   4.562   1.904
 3958SOL    HW112324   5.061   4.469   1.919
 3958SOL    HW212325   5.045   4.589   1.809
 3959SOL     OW12326   4.043   4.534   2.811
 3959SOL    HW112327   4.136   4.570   2.816
 3959SOL    HW212328   4.037   4.449   2.863
 3960SOL     OW12329   4.063   4.233   2.868
 3960SOL    HW112330   4.011   4.150   2.851
 3960SOL    HW212331   4.140   4.238   2.804
 3961SOL     OW12332   4.862   4.104   3.540
 3961SOL    HW112333   4.817   4.167   3.604
 3961SOL    HW212334   4.955   4.135   3.523
 3962SOL     OW12335   4.884   3.931   3.339
 3962SOL    HW112336   4.884   3.995   3.416
 3962SOL    HW212337   4.912   3.979   3.256
 3963SOL     OW12338   3.732   5.050   2.062
 3963SOL    HW112339   3.639   5.071   2.031
 3963SOL    HW212340   3.742   4.951   2.075
 3964SOL     OW12341   4.726   4.520   3.100
 3964SOL    HW112342   4.767   4.488   3.186
 3964SOL    HW212343   4.630   4.493   3.097
 3965SOL     OW12344   3.764   4.268   2.976
 3965SOL    HW112345   3.849   4.235   2.935
 3965SOL    HW212346   3.777   4.283   3.074
 3966SOL     OW12347   3.913   4.244   3.584
 3966SOL    HW112348   3.972   4.204   3.514
 3966SOL    HW212349   3.855   4.315   3.543
 3967SOL     OW12350   4.539   4.296   2.187
 3967SOL    HW112351   4.546   4.207   2.141
 3967SOL    HW212352   4.445   4.330   2.179
 3968SOL     OW12353   4.395   4.188   3.131
 3968SOL    HW112354   4.361   4.099   3.101
 3968SOL    HW212355   4.421   4.242   3.051
 3969SOL     OW12356   4.197   4.224   2.053
 3969SOL    HW112357   4.258   4.304   2.057
 3969SOL    HW212358   4.102   4.255   2.060
 3970SOL     OW12359   3.883   4.861   3.328
 3970SOL    HW112360   3.905   4.800   3.404
 3970SOL    HW212361   3.893   4.812   3.242
 3971SOL     OW12362   5.071   4.783   3.096
 3971SOL    HW112363   5.095   4.720   3.022
 3971SOL    HW212364   4.981   4.823   3.078
 3972SOL     OW12365   3.807   4.982   2.884
 3972SOL    HW112366   3.802   4.981   2.984
 3972SOL    HW212367   3.724   4.941   2.846
 3973SOL     OW12368   5.004   4.651   2.534
 3973SOL    HW112369   5.064   4.570   2.536
 3973SOL    HW212370   5.044   4.720   2.474
 3974SOL     OW12371   4.554   4.997   3.284
 3974SOL    HW112372   4.549   5.030   3.379
 3974SOL    HW212373   4.468   5.016   3.238
 3975SOL     OW12374   3.987   4.050   2.582
 3975SOL    HW112375   3.908   4.101   2.548
 3975SOL    HW212376   3.978   4.035   2.680
 3976SOL     OW12377   4.918   5.336   1.893
 3976SOL    HW112378   4.924   5.243   1.930
 3976SOL    HW212379   4.859   5.336   1.813
 3977SOL     OW12380   4.546   4.726   3.234
 3977SOL    HW112381   4.586   4.725   3.142
 3977SOL    HW212382   4.556   4.818   3.274
 3978SOL     OW12383   4.640   4.634   2.153
 3978SOL    HW112384   4.703   4.672   2.085
 3978SOL    HW212385   4.680   4.551   2.192
 3979SOL     OW12386   4.096   5.012   3.352
 3979SOL    HW112387   4.083   5.105   3.318
 3979SOL    HW212388   4.012   4.960   3.339
 3980SOL     OW12389   4.763   4.822   2.558
 3980SOL    HW112390   4.693   4.775   2.612
 3980SOL    HW212391   4.822   4.754   2.515
 3981SOL     OW12392   4.738   3.960   2.833
 3981SOL    HW112393   4.730   3.924   2.740
 3981SOL    HW212394   4.736   3.884   2.898
 3982SOL     OW12395   3.829   4.737   3.588
 3982SOL    HW112396   3.752   4.704   3.642
 3982SOL    HW212397   3.914   4.707   3.630
 3983SOL     OW12398   4.396   3.927   3.351
 3983SOL    HW112399   4.486   3.911   3.311
 3983SOL    HW212400   4.404   3.932   3.450
 3984SOL     OW12401   3.799   4.069   1.895
 3984SOL    HW112402   3.707   4.041   1.866
 3984SOL    HW212403   3.830   4.146   1.839
 3985SOL     OW12404   5.164   4.580   3.260
 3985SOL    HW112405   5.107   4.632   3.197
 3985SOL    HW212406   5.260   4.592   3.236
 3986SOL     OW12407   3.796   3.890   2.180
 3986SOL    HW112408   3.779   3.973   2.126
 3986SOL    HW212409   3.886   3.853   2.158
 3987SOL     OW12410   4.337   4.566   3.293
 3987SOL    HW112411   4.393   4.647   3.276
 3987SOL    HW212412   4.396   4.486   3.296
 3988SOL     OW12413   4.440   4.289   3.570
 3988SOL    HW112414   4.459   4.354   3.644
 3988SOL    HW212415   4.500   4.209   3.579
 3989SOL     OW12416   5.174   4.944   3.495
 3989SOL    HW112417   5.165   4.934   3.594
 3989SOL    HW212418   5.270   4.937   3.469
 3990SOL     OW12419   4.949   4.049   2.311
 3990SOL    HW112420   5.014   3.975   2.300
 3990SOL    HW212421   4.969   4.099   2.395
 3991SOL     OW12422   4.318   4.469   2.514
 3991SOL    HW112423   4.368   4.554   2.495
 3991SOL    HW212424   4.230   4.471   2.466
 3992SOL     OW12425   4.583   4.680   2.723
 3992SOL    HW112426   4.637   4.611   2.771
 3992SOL    HW212427   4.551   4.749   2.789
 3993SOL     OW12428   4.807   4.708   1.949
 3993SOL    HW112429   4.784   4.761   1.867
 3993SOL    HW212430   4.888   4.652   1.930
 3994SOL     OW12431   3.803   4.964   2.515
 3994SOL    HW112432   3.802   4.917   2.603
 3994SOL    HW212433   3.885   4.936   2.464
 3995SOL     OW12434   4.152   4.148   2.382
 3995SOL    HW112435   4.182   4.076   2.320
 3995SOL    HW212436   4.113   4.108   2.465
 3996SOL     OW12437   4.041   4.271   3.142
 3996SOL    HW112438   4.079   4.212   3.214
 3996SOL    HW212439   4.081   4.245   3.054
 3997SOL     OW12440   4.725   3.758   3.016
 3997SOL    HW112441   4.662   3.686   2.985
 3997SOL    HW212442   4.818   3.722   3.016
 3998SOL     OW12443   4.494   5.054   2.163
 3998SOL    HW112444   4.448   4.967   2.180
 3998SOL    HW212445   4.585   5.051   2.204
 3999SOL     OW12446   5.076   3.776   2.030
 3999SOL    HW112447   5.111   3.735   1.946
 3999SOL    HW212448   4.986   3.738   2.050
 4000SOL     OW12449   3.763   4.801   2.162
 4000SOL    HW112450   3.862   4.790   2.153
 4000SOL    HW212451   3.723   4.715   2.194
 4001SOL     OW12452   3.954   4.352   3.837
 4001SOL    HW112453   3.861   4.350   3.874
 4001SOL    HW212454   3.955   4.313   3.745
 4002SOL     OW12455   3.949   3.999   4.720
 4002SOL    HW112456   3.984   3.982   4.812
 4002SOL    HW212457   3.861   3.954   4.708
 4003SOL     OW12458   3.743   4.092   4.371
 4003SOL    HW112459   3.661   4.135   4.410
 4003SOL    HW212460   3.715   4.019   4.308
 4004SOL     OW12461   4.293   4.999   4.889
 4004SOL    HW112462   4.200   4.992   4.852
 4004SOL    HW212463   4.304   5.088   4.933
 4005SOL     OW12464   4.859   4.427   4.441
 4005SOL    HW112465   4.916   4.505   4.416
 4005SOL    HW212466   4.799   4.453   4.517
 4006SOL     OW12467   4.492   4.868   4.747
 4006SOL    HW112468   4.414   4.885   4.807
 4006SOL    HW212469   4.526   4.955   4.711
 4007SOL     OW12470   4.409   4.736   4.389
 4007SOL    HW112471   4.478   4.720   4.459
 4007SOL    HW212472   4.336   4.793   4.427
 4008SOL     OW12473   4.059   5.159   4.785
 4008SOL    HW112474   3.981   5.128   4.732
 4008SOL    HW212475   4.117   5.217   4.728
 4009SOL     OW12476   3.964   4.815   4.610
 4009SOL    HW112477   3.978   4.731   4.662
 4009SOL    HW212478   3.909   4.879   4.665
 4010SOL     OW12479   4.330   4.688   3.847
 4010SOL    HW112480   4.337   4.772   3.793
 4010SOL    HW212481   4.376   4.701   3.935
 4011SOL     OW12482   3.846   4.367   4.287
 4011SOL    HW112483   3.801   4.279   4.304
 4011SOL    HW212484   3.845   4.421   4.371
 4012SOL     OW12485   3.921   4.700   4.988
 4012SOL    HW112486   4.010   4.655   4.974
 4012SOL    HW212487   3.848   4.635   4.969
 4013SOL     OW12488   4.322   4.453   3.994
 4013SOL    HW112489   4.346   4.522   3.926
 4013SOL    HW212490   4.244   4.486   4.048
 4014SOL     OW12491   4.715   4.134   4.966
 4014SOL    HW112492   4.638   4.168   5.020
 4014SOL    HW212493   4.681   4.083   4.887
 4015SOL     OW12494   4.765   4.425   4.153
 4015SOL    HW112495   4.791   4.421   4.249
 4015SOL    HW212496   4.680   4.374   4.139
 4016SOL     OW12497   3.800   4.535   4.513
 4016SOL    HW112498   3.899   4.523   4.522
 4016SOL    HW212499   3.776   4.630   4.534
 4017SOL     OW12500   4.589   4.072   3.919
 4017SOL    HW112501   4.648   4.135   3.870
 4017SOL    HW212502   4.608   3.978   3.890
 4018SOL     OW12503   4.274   3.920   4.609
 4018SOL    HW112504   4.269   3.915   4.709
 4018SOL    HW212505   4.276   4.016   4.580
 4019SOL     OW12506   4.045   4.667   3.966
 4019SOL    HW112507   4.127   4.706   3.924
 4019SOL    HW212508   4.018   4.585   3.917
 4020SOL     OW12509   4.106   4.424   4.204
 4020SOL    HW112510   4.151   4.334   4.201
 4020SOL    HW212511   4.012   4.413   4.237
 4021SOL     OW12512   4.338   3.846   3.841
 4021SOL    HW112513   4.436   3.824   3.848
 4021SOL    HW212514   4.307   3.829   3.748
 4022SOL     OW12515   4.527   5.126   4.648
 4022SOL    HW112516   4.617   5.140   4.606
 4022SOL    HW212517   4.456   5.128   4.577
 4023SOL     OW12518   4.646   4.227   4.623
 4023SOL    HW112519   4.621   4.218   4.527
 4023SOL    HW212520   4.694   4.145   4.654
 4024SOL     OW12521   4.263   3.788   4.236
 4024SOL    HW112522   4.182   3.789   4.294
 4024SOL    HW212523   4.266   3.871   4.181
 4025SOL     OW12524   5.158   4.912   3.765
 4025SOL    HW112525   5.190   4.836   3.822
 4025SOL    HW212526   5.066   4.939   3.795
 4026SOL     OW12527   4.021   3.759   3.895
 4026SOL    HW112528   4.070   3.843   3.874
 4026SOL    HW212529   4.083   3.694   3.940
 4027SOL     OW12530   4.951   5.294   4.517
 4027SOL    HW112531   4.972   5.368   4.452
 4027SOL    HW212532   5.019   5.294   4.590
 4028SOL     OW12533   4.183   4.876   4.465
 4028SOL    HW112534   4.112   4.849   4.530
 4028SOL    HW212535   4.157   4.848   4.372
 4029SOL     OW12536   4.756   4.273   3.740
 4029SOL    HW112537   4.715   4.355   3.701
 4029SOL    HW212538   4.820   4.299   3.813
 4030SOL     OW12539   4.285   3.946   4.871
 4030SOL    HW112540   4.323   3.862   4.908
 4030SOL    HW212541   4.197   3.965   4.915
 4031SOL     OW12542   4.429   4.774   4.092
 4031SOL    HW112543   4.415   4.781   4.191
 4031SOL    HW212544   4.513   4.723   4.074
 4032SOL     OW12545   4.134   4.537   4.975
 4032SOL    HW112546   4.220   4.549   5.025
 4032SOL    HW212547   4.092   4.450   5.002
 4033SOL     OW12548   4.091   4.824   4.225
 4033SOL    HW112549   4.084   4.907   4.169
 4033SOL    HW212550   4.095   4.744   4.165
 4034SOL     OW12551   4.290   4.261   4.589
 4034SOL    HW112552   4.302   4.327   4.515
 4034SOL    HW212553   4.336   4.295   4.672
 4035SOL     OW12554   4.976   5.072   4.112
 4035SOL    HW112555   5.026   5.149   4.152
 4035SOL    HW212556   4.881   5.074   4.144
 4036SOL     OW12557   4.297   4.594   4.753
 4036SOL    HW112558   4.341   4.683   4.744
 4036SOL    HW212559   4.234   4.594   4.830
 4037SOL     OW12560   5.084   4.586   4.769
 4037SOL    HW112561   5.009   4.586   4.703
 4037SOL    HW212562   5.121   4.494   4.778
 4038SOL     OW12563   4.933   4.249   3.999
 4038SOL    HW112564   4.946   4.165   4.053
 4038SOL    HW212565   4.904   4.323   4.059
 4039SOL     OW12566   4.031   3.937   4.955
 4039SOL    HW112567   4.008   3.974   5.045
 4039SOL    HW212568   4.001   3.842   4.949
 4040SOL     OW12569   4.456   4.358   4.788
 4040SOL    HW112570   4.515   4.332   4.712
 4040SOL    HW212571   4.428   4.454   4.777
 4041SOL     OW12572   4.031   3.787   4.342
 4041SOL    HW112573   4.020   3.881   4.375
 4041SOL    HW212574   4.026   3.724   4.419
 4042SOL     OW12575   5.346   4.091   4.098
 4042SOL    HW112576   5.348   4.015   4.162
 4042SOL    HW212577   5.298   4.168   4.138
 4043SOL     OW12578   4.747   4.490   4.690
 4043SOL    HW112579   4.762   4.511   4.786
 4043SOL    HW212580   4.717   4.395   4.681
 4044SOL     OW12581   5.027   4.562   3.766
 4044SOL    HW112582   5.061   4.469   3.781
 4044SOL    HW212583   5.045   4.589   3.671
 4045SOL     OW12584   4.043   4.534   4.673
 4045SOL    HW112585   4.136   4.570   4.678
 4045SOL    HW212586   4.037   4.449   4.725
 4046SOL     OW12587   4.063   4.233   4.730
 4046SOL    HW112588   4.011   4.150   4.713
 4046SOL    HW212589   4.140   4.238   4.666
 4047SOL     OW12590   4.884   3.931   5.201
 4047SOL    HW112591   4.884   3.995   5.278
 4047SOL    HW212592   4.912   3.979   5.118
 4048SOL     OW12593   3.732   5.050   3.924
 4048SOL    HW112594   3.639   5.071   3.893
 4048SOL    HW212595   3.742   4.951   3.937
 4049SOL     OW12596   4.726   4.520   4.962
 4049SOL    HW112597   4.767   4.488   5.048
 4049SOL    HW212598   4.630   4.493   4.959
 4050SOL     OW12599   3.764   4.268   4.838
 4050SOL    HW112600   3.849   4.235   4.797
 4050SOL    HW212601   3.777   4.283   4.936
 4051SOL     OW12602   4.539   4.296   4.049
 4051SOL    HW112603   4.546   4.207   4.003
 4051SOL    HW212604   4.445   4.330   4.041
 4052SOL     OW12605   4.395   4.188   4.993
 4052SOL    HW112606   4.361   4.099   4.963
 4052SOL    HW212607   4.421   4.242   4.913
 4053SOL     OW12608   4.197   4.224   3.915
 4053SOL    HW112609   4.258   4.304   3.919
 4053SOL    HW212610   4.102   4.255   3.922
 4054SOL     OW12611   5.071   4.783   4.958
 4054SOL    HW112612   5.095   4.720   4.884
 4054SOL    HW212613   4.981   4.823   4.940
 4055SOL     OW12614   3.807   4.982   4.746
 4055SOL    HW112615   3.802   4.981   4.846
 4055SOL    HW212616   3.724   4.941   4.708
 4056SOL     OW12617   5.004   4.651   4.396
 4056SOL    HW112618   5.064   4.570   4.398
 4056SOL    HW212619   5.044   4.720   4.336
 4057SOL     OW12620   4.554   4.997   5.146
 4057SOL    HW112621   4.549   5.030   5.241
 4057SOL    HW212622   4.468   5.016   5.100
 4058SOL     OW12623   3.987   4.050   4.444
 4058SOL    HW112624   3.908   4.101   4.410
 4058SOL    HW212625   3.978   4.035   4.542
 4059SOL     OW12626   4.918   5.336   3.755
 4059SOL    HW112627   4.924   5.243   3.792
 4059SOL    HW212628   4.859   5.336   3.675
 4060SOL     OW12629   4.546   4.726   5.096
 4060SOL    HW112630   4.586   4.725   5.004
 4060SOL    HW212631   4.556   4.818   5.136
 4061SOL     OW12632   4.640   4.634   4.015
 4061SOL    HW112633   4.703   4.672   3.947
 4061SOL    HW212634   4.680   4.551   4.054
 4062SOL     OW12635   4.763   4.822   4.420
 4062SOL    HW112636   4.693   4.775   4.474
 4062SOL    HW212637   4.822   4.754   4.377
 4063SOL     OW12638   3.799   4.069   3.757
 4063SOL    HW112639   3.707   4.041   3.728
 4063SOL    HW212640   3.830   4.146   3.701
 4064SOL     OW12641   3.796   3.890   4.042
 4064SOL    HW112642   3.779   3.973   3.988
 4064SOL    HW212643   3.886   3.853   4.020
 4065SOL     OW12644   4.949   4.049   4.173
 4065SOL    HW112645   5.014   3.975   4.162
 4065SOL    HW212646   4.969   4.099   4.257
 4066SOL     OW12647   4.318   4.469   4.376
 4066SOL    HW112648   4.368   4.554   4.357
 4066SOL    HW212649   4.230   4.471   4.328
 4067SOL     OW12650   4.583   4.680   4.585
 4067SOL    HW112651   4.637   4.611   4.633
 4067SOL    HW212652   4.551   4.749   4.651
 4068SOL     OW12653   4.807   4.708   3.811
 4068SOL    HW112654   4.784   4.761   3.729
 4068SOL    HW212655   4.888   4.652   3.792
 4069SOL     OW12656   3.803   4.964   4.377
 4069SOL    HW112657   3.802   4.917   4.465
 4069SOL    HW212658   3.885   4.936   4.326
 4070SOL     OW12659   4.152   4.148   4.244
 4070SOL    HW112660   4.182   4.076   4.182
 4070SOL    HW212661   4.113   4.108   4.327
 4071SOL     OW12662   4.725   3.758   4.878
 4071SOL    HW112663   4.662   3.686   4.847
 4071SOL    HW212664   4.818   3.722   4.878
 4072SOL     OW12665   4.494   5.054   4.025
 4072SOL    HW112666   4.448   4.967   4.042
 4072SOL    HW212667   4.585   5.051   4.066
 4073SOL     OW12668   3.763   4.801   4.024
 4073SOL    HW112669   3.862   4.790   4.015
 4073SOL    HW212670   3.723   4.715   4.056
   5.08970   5.08970   5.08970
