UNITED ATOM STRUCTURE FOR MOLECULE UNK
12778
    0X2IT   H18    1   3.092   2.352   2.583
    0X2IT    N4    2   3.026   2.419   2.548
    0X2IT   H17    3   3.059   2.484   2.478
    0X2IT   C14    4   2.895   2.380   2.546
    0X2IT    O5    5   2.849   2.285   2.607
    0X2IT    O4    6   2.822   2.466   2.469
    0X2IT   C13    7   2.680   2.441   2.463
    0X2IT   C10    8   2.607   2.502   2.584
    0X2IT    C9    9   2.457   2.484   2.578
    0X2IT    C4   10   2.394   2.607   2.582
    0X2IT    C5   11   2.245   2.625   2.577
    0X2IT    O1   12   2.197   2.739   2.585
    0X2IT    C6   13   2.166   2.505   2.564
    0X2IT   C12   14   2.015   2.516   2.558
    0X2IT    C7   15   2.229   2.382   2.561
    0X2IT    C8   16   2.381   2.365   2.567
    0X2IT    O2   17   2.427   2.250   2.559
    0X2IT    N3   18   2.164   2.265   2.551
    0X2IT   H15   19   2.064   2.258   2.544
    0X2IT   H16   20   2.221   2.180   2.548
    0X2IT    N2   21   2.482   2.709   2.599
    0X2IT    C3   22   2.473   2.846   2.546
    0X2IT    C2   23   2.599   2.856   2.461
    0X2IT    H2   24   2.639   2.954   2.435
    0X2IT    N1   25   2.611   2.744   2.365
    0X2IT   H14   26   2.674   2.771   2.289
    0X2IT    C1   27   2.688   2.741   2.491
    0X2IT    H1   28   2.796   2.748   2.490
    0X2IT   C11   29   2.622   2.658   2.600
    0X2IT    O3   30   2.691   2.695   2.718
    0X2IT   C15   31   2.628   2.664   2.843
    1X2IT   H18   32   1.617   1.488   3.218
    1X2IT    N4   33   1.583   1.418   3.154
    1X2IT   H17   34   1.524   1.345   3.192
    1X2IT   C14   35   1.566   1.458   3.025
    1X2IT    O5   36   1.612   1.559   2.976
    1X2IT    O4   37   1.492   1.365   2.957
    1X2IT   C13   38   1.471   1.391   2.816
    1X2IT   C10   39   1.591   1.344   2.732
    1X2IT    C9   40   1.570   1.363   2.583
    1X2IT    C4   41   1.581   1.242   2.518
    1X2IT    C5   42   1.565   1.225   2.369
    1X2IT    O1   43   1.581   1.113   2.319
    1X2IT    C6   44   1.532   1.344   2.294
    1X2IT   C12   45   1.514   1.334   2.144
    1X2IT    C7   46   1.522   1.465   2.360
    1X2IT    C8   47   1.539   1.481   2.511
    1X2IT    O2   48   1.523   1.594   2.560
    1X2IT    N3   49   1.493   1.581   2.299
    1X2IT   H15   50   1.477   1.588   2.200
    1X2IT   H16   51   1.486   1.665   2.357
    1X2IT    N2   52   1.617   1.141   2.602
    1X2IT    C3   53   1.578   0.999   2.595
    1X2IT    C2   54   1.506   0.979   2.727
    1X2IT    H2   55   1.494   0.878   2.767
    1X2IT    N1   56   1.400   1.080   2.750
    1X2IT   H14   57   1.333   1.044   2.819
    1X2IT    C1   58   1.531   1.095   2.816
    1X2IT    H1   59   1.541   1.087   2.923
    1X2IT   C11   60   1.625   1.191   2.742
    1X2IT    O3   61   1.751   1.166   2.800
    1X2IT   C15   62   1.866   1.211   2.727
    2X2IT   H18   63   2.165   4.199   2.200
    2X2IT    N4   64   2.097   4.170   2.267
    2X2IT   H17   65   2.022   4.110   2.235
    2X2IT   C14   66   2.140   4.159   2.397
    2X2IT    O5   67   2.243   4.206   2.440
    2X2IT    O4   68   2.047   4.091   2.471
    2X2IT   C13   69   2.077   4.078   2.612
    2X2IT   C10   70   2.034   4.203   2.690
    2X2IT    C9   71   2.057   4.190   2.839
    2X2IT    C4   72   1.937   4.208   2.907
    2X2IT    C5   73   1.924   4.200   3.056
    2X2IT    O1   74   1.814   4.221   3.109
    2X2IT    C6   75   2.044   4.170   3.130
    2X2IT   C12   76   2.038   4.161   3.281
    2X2IT    C7   77   2.164   4.154   3.062
    2X2IT    C8   78   2.176   4.162   2.910
    2X2IT    O2   79   2.287   4.141   2.859
    2X2IT    N3   80   2.281   4.127   3.122
    2X2IT   H15   81   2.291   4.116   3.222
    2X2IT   H16   82   2.363   4.115   3.062
    2X2IT    N2   83   1.835   4.240   2.824
    2X2IT    C3   84   1.693   4.204   2.837
    2X2IT    C2   85   1.668   4.125   2.709
    2X2IT    H2   86   1.566   4.113   2.672
    2X2IT    N1   87   1.766   4.016   2.690
    2X2IT   H14   88   1.728   3.946   2.626
    2X2IT    C1   89   1.782   4.143   2.616
    2X2IT    H1   90   1.771   4.147   2.509
    2X2IT   C11   91   1.881   4.239   2.682
    2X2IT    O3   92   1.857   4.363   2.617
    2X2IT   C15   93   1.905   4.481   2.683
    3X2IT   H18   94   3.497   1.278   1.743
    3X2IT    N4   95   3.437   1.262   1.665
    3X2IT   H17   96   3.340   1.240   1.685
    3X2IT   C14   97   3.466   1.329   1.549
    3X2IT    O5   98   3.573   1.383   1.525
    3X2IT    O4   99   3.361   1.322   1.463
    3X2IT   C13  100   3.380   1.383   1.334
    3X2IT   C10  101   3.453   1.288   1.237
    3X2IT    C9  102   3.470   1.345   1.098
    3X2IT    C4  103   3.411   1.262   1.005
    3X2IT    C5  104   3.408   1.290   0.858
    3X2IT    O1  105   3.356   1.208   0.781
    3X2IT    C6  106   3.469   1.413   0.814
    3X2IT   C12  107   3.470   1.448   0.667
    3X2IT    C7  108   3.529   1.496   0.908
    3X2IT    C8  109   3.532   1.466   1.058
    3X2IT    O2  110   3.585   1.549   1.133
    3X2IT    N3  111   3.590   1.611   0.877
    3X2IT   H15  112   3.596   1.647   0.783
    3X2IT   H16  113   3.630   1.665   0.954
    3X2IT    N2  114   3.362   1.148   1.061
    3X2IT    C3  115   3.243   1.071   1.021
    3X2IT    C2  116   3.157   1.076   1.147
    3X2IT    H2  117   3.079   1.002   1.161
    3X2IT    N1  118   3.138   1.214   1.196
    3X2IT   H14  119   3.055   1.218   1.256
    3X2IT    C1  120   3.239   1.127   1.260
    3X2IT    H1  121   3.225   1.094   1.362
    3X2IT   C11  122   3.380   1.151   1.209
    3X2IT    O3  123   3.452   1.039   1.256
    3X2IT   C15  124   3.578   1.012   1.193
    4SOL     OW  125   0.230   0.628   0.113
    4SOL    HW1  126   0.137   0.626   0.150
    4SOL    HW2  127   0.231   0.589   0.021
    5SOL     OW  128   0.225   0.275   0.996
    5SOL    HW1  129   0.260   0.258   1.088
    5SOL    HW2  130   0.137   0.230   0.984
    6SOL     OW  131   0.019   0.368   0.647
    6SOL    HW1  132  -0.063   0.411   0.686
    6SOL    HW2  133  -0.009   0.295   0.584
    7SOL     OW  134   0.569   1.275   1.165
    7SOL    HW1  135   0.476   1.268   1.128
    7SOL    HW2  136   0.580   1.364   1.209
    8SOL     OW  137   1.555   1.511   0.703
    8SOL    HW1  138   1.498   1.495   0.784
    8SOL    HW2  139   1.496   1.521   0.623
    9SOL     OW  140   1.135   0.703   0.717
    9SOL    HW1  141   1.192   0.781   0.692
    9SOL    HW2  142   1.075   0.729   0.793
   10SOL     OW  143   1.755   0.607   0.231
   10SOL    HW1  144   1.743   0.594   0.132
   10SOL    HW2  145   1.725   0.526   0.280
   11SOL     OW  146   0.768   1.144   1.023
   11SOL    HW1  147   0.690   1.161   1.083
   11SOL    HW2  148   0.802   1.231   0.987
   12SOL     OW  149   0.850   0.798   1.823
   12SOL    HW1  150   0.846   0.874   1.888
   12SOL    HW2  151   0.872   0.834   1.732
   13SOL     OW  152   0.685   1.012   0.665
   13SOL    HW1  153   0.754   0.996   0.735
   13SOL    HW2  154   0.612   1.069   0.703
   14SOL     OW  155   0.686   1.161   1.803
   14SOL    HW1  156   0.746   1.240   1.817
   14SOL    HW2  157   0.600   1.192   1.762
   15SOL     OW  158   0.335   1.435   1.061
   15SOL    HW1  159   0.257   1.404   1.008
   15SOL    HW2  160   0.393   1.493   1.004
   16SOL     OW  161   1.460   1.505   1.339
   16SOL    HW1  162   1.484   1.599   1.365
   16SOL    HW2  163   1.444   1.451   1.421
   17SOL     OW  164   0.438   0.392   1.499
   17SOL    HW1  165   0.520   0.336   1.508
   17SOL    HW2  166   0.357   0.334   1.503
   18SOL     OW  167   1.603   0.447   0.737
   18SOL    HW1  168   1.529   0.493   0.687
   18SOL    HW2  169   1.654   0.515   0.790
   19SOL     OW  170   0.231   1.713   0.483
   19SOL    HW1  171   0.265   1.790   0.537
   19SOL    HW2  172   0.275   1.713   0.393
   20SOL     OW  173   1.127   1.341   1.690
   20SOL    HW1  174   1.174   1.341   1.778
   20SOL    HW2  175   1.079   1.254   1.679
   21SOL     OW  176   0.230   1.434   0.538
   21SOL    HW1  177   0.204   1.530   0.538
   21SOL    HW2  178   0.159   1.380   0.583
   22SOL     OW  179   0.240   1.091   0.886
   22SOL    HW1  180   0.254   1.007   0.938
   22SOL    HW2  181   0.185   1.155   0.941
   23SOL     OW  182   0.620   1.786   1.439
   23SOL    HW1  183   0.528   1.769   1.474
   23SOL    HW2  184   0.648   1.878   1.465
   24SOL     OW  185   0.606   0.964   0.123
   24SOL    HW1  186   0.613   1.048   0.069
   24SOL    HW2  187   0.652   0.977   0.211
   25SOL     OW  188   1.594   0.114   1.480
   25SOL    HW1  189   1.576   0.181   1.408
   25SOL    HW2  190   1.591   0.160   1.569
   26SOL     OW  191   0.122   0.643   0.563
   26SOL    HW1  192   0.077   0.555   0.580
   26SOL    HW2  193   0.121   0.697   0.647
   27SOL     OW  194   1.842   1.767   0.359
   27SOL    HW1  195   1.896   1.738   0.439
   27SOL    HW2  196   1.872   1.857   0.330
   28SOL     OW  197   0.027   1.596   0.117
   28SOL    HW1  198   0.008   1.500   0.138
   28SOL    HW2  199  -0.006   1.654   0.192
   29SOL     OW  200   1.689   0.922   0.612
   29SOL    HW1  201   1.784   0.893   0.620
   29SOL    HW2  202   1.681   0.987   0.537
   30SOL     OW  203   1.641   1.108   0.432
   30SOL    HW1  204   1.727   1.110   0.380
   30SOL    HW2  205   1.655   1.155   0.520
   31SOL     OW  206   0.113   0.737   1.597
   31SOL    HW1  207   0.201   0.724   1.642
   31SOL    HW2  208   0.100   0.834   1.575
   32SOL     OW  209   0.613   1.365   0.726
   32SOL    HW1  210   0.564   1.278   0.735
   32SOL    HW2  211   0.590   1.408   0.639
   33SOL     OW  212   1.293   1.228   1.423
   33SOL    HW1  213   1.330   1.155   1.365
   33SOL    HW2  214   1.345   1.233   1.508
   34SOL     OW  215   0.809   0.004   0.502
   34SOL    HW1  216   0.849   0.095   0.493
   34SOL    HW2  217   0.709   0.012   0.508
   35SOL     OW  218   0.197   0.976   1.264
   35SOL    HW1  219   0.286   0.931   1.250
   35SOL    HW2  220   0.124   0.911   1.245
   36SOL     OW  221   1.525   0.999   0.190
   36SOL    HW1  222   1.462   0.923   0.203
   36SOL    HW2  223   1.573   1.017   0.276
   37SOL     OW  224   1.187   1.792   1.616
   37SOL    HW1  225   1.211   1.852   1.540
   37SOL    HW2  226   1.194   1.697   1.586
   38SOL     OW  227   0.317   0.251   1.801
   38SOL    HW1  228   0.388   0.322   1.807
   38SOL    HW2  229   0.229   0.290   1.829
   39SOL     OW  230   1.466   1.417   0.953
   39SOL    HW1  231   1.407   1.423   1.033
   39SOL    HW2  232   1.451   1.329   0.907
   40SOL     OW  233   1.667   1.714   0.572
   40SOL    HW1  234   1.626   1.691   0.484
   40SOL    HW2  235   1.649   1.640   0.637
   41SOL     OW  236   0.598   0.729   0.270
   41SOL    HW1  237   0.622   0.798   0.202
   41SOL    HW2  238   0.520   0.762   0.324
   42SOL     OW  239   1.281   0.345   0.944
   42SOL    HW1  240   1.195   0.295   0.931
   42SOL    HW2  241   1.343   0.291   1.000
   43SOL     OW  242   1.576   1.662   0.307
   43SOL    HW1  243   1.665   1.708   0.310
   43SOL    HW2  244   1.555   1.638   0.212
   44SOL     OW  245   0.807   0.605   1.465
   44SOL    HW1  246   0.760   0.602   1.554
   44SOL    HW2  247   0.756   0.550   1.399
   45SOL     OW  248   1.394   0.469   1.674
   45SOL    HW1  249   1.374   0.512   1.762
   45SOL    HW2  250   1.472   0.407   1.683
   46SOL     OW  251   0.973   0.890   1.572
   46SOL    HW1  252   1.019   0.806   1.543
   46SOL    HW2  253   0.917   0.924   1.497
   47SOL     OW  254   0.991   0.410   1.242
   47SOL    HW1  255   0.914   0.444   1.296
   47SOL    HW2  256   0.957   0.359   1.163
   48SOL     OW  257   1.041   0.701   0.429
   48SOL    HW1  258   1.067   0.697   0.525
   48SOL    HW2  259   0.956   0.650   0.415
   49SOL     OW  260   0.076   0.811   0.789
   49SOL    HW1  261   0.175   0.799   0.798
   49SOL    HW2  262   0.052   0.906   0.810
   50SOL     OW  263   0.130   1.821   1.571
   50SOL    HW1  264   0.120   1.806   1.670
   50SOL    HW2  265   0.044   1.857   1.535
   51SOL     OW  266   0.865   0.348   0.195
   51SOL    HW1  267   0.924   0.411   0.146
   51SOL    HW2  268   0.884   0.254   0.166
   52SOL     OW  269   1.719   0.585   1.831
   52SOL    HW1  270   1.693   0.674   1.795
   52SOL    HW2  271   1.717   0.517   1.758
   53SOL     OW  272   1.362   1.144   0.545
   53SOL    HW1  273   1.445   1.115   0.497
   53SOL    HW2  274   1.313   1.211   0.489
   54SOL     OW  275   0.550   0.196   0.885
   54SOL    HW1  276   0.545   0.191   0.985
   54SOL    HW2  277   0.552   0.292   0.856
   55SOL     OW  278   1.008   1.456   0.477
   55SOL    HW1  279   0.962   1.528   0.425
   55SOL    HW2  280   1.004   1.476   0.575
   56SOL     OW  281   0.351   1.801   0.853
   56SOL    HW1  282   0.401   1.715   0.859
   56SOL    HW2  283   0.416   1.878   0.850
   57SOL     OW  284   1.795   1.066   0.873
   57SOL    HW1  285   1.733   1.051   0.797
   57SOL    HW2  286   1.743   1.077   0.958
   58SOL     OW  287   1.227   1.550   1.506
   58SOL    HW1  288   1.233   1.473   1.570
   58SOL    HW2  289   1.175   1.524   1.426
   59SOL     OW  290   0.321   0.943   0.242
   59SOL    HW1  291   0.403   0.982   0.200
   59SOL    HW2  292   0.294   0.861   0.193
   60SOL     OW  293   1.458   0.735   0.728
   60SOL    HW1  294   1.453   0.670   0.803
   60SOL    HW2  295   1.538   0.794   0.741
   61SOL     OW  296   0.461   1.266   1.727
   61SOL    HW1  297   0.411   1.267   1.641
   61SOL    HW2  298   0.398   1.248   1.803
   62SOL     OW  299   1.111   1.776   0.237
   62SOL    HW1  300   1.051   1.714   0.287
   62SOL    HW2  301   1.142   1.732   0.152
   63SOL     OW  302   0.202   0.285   1.498
   63SOL    HW1  303   0.122   0.345   1.485
   63SOL    HW2  304   0.192   0.236   1.584
   64SOL     OW  305   1.632   1.377   0.081
   64SOL    HW1  306   1.600   1.471   0.071
   64SOL    HW2  307   1.556   1.314   0.069
   65SOL     OW  308   0.464   1.743   0.323
   65SOL    HW1  309   0.497   1.782   0.409
   65SOL    HW2  310   0.540   1.736   0.258
   66SOL     OW  311   1.400   0.107   0.426
   66SOL    HW1  312   1.376   0.070   0.336
   66SOL    HW2  313   1.499   0.123   0.430
   67SOL     OW  314   0.249   1.785   1.241
   67SOL    HW1  315   0.306   1.720   1.291
   67SOL    HW2  316   0.233   1.752   1.148
   68SOL     OW  317   0.940   1.698   0.904
   68SOL    HW1  318   1.020   1.641   0.925
   68SOL    HW2  319   0.891   1.658   0.827
   69SOL     OW  320   0.382   0.700   0.480
   69SOL    HW1  321   0.427   0.610   0.477
   69SOL    HW2  322   0.288   0.689   0.513
   70SOL     OW  323   1.547   0.222   1.729
   70SOL    HW1  324   1.542   0.259   1.821
   70SOL    HW2  325   1.475   0.153   1.717
   71SOL     OW  326   0.614   0.122   0.117
   71SOL    HW1  327   0.712   0.100   0.124
   71SOL    HW2  328   0.583   0.105   0.024
   72SOL     OW  329   0.781   0.264   1.749
   72SOL    HW1  330   0.848   0.203   1.792
   72SOL    HW2  331   0.708   0.283   1.814
   73SOL     OW  332   0.888   1.514   1.195
   73SOL    HW1  333   0.865   1.489   1.101
   73SOL    HW2  334   0.949   1.445   1.234
   74SOL     OW  335   1.351   0.590   1.433
   74SOL    HW1  336   1.379   0.547   1.518
   74SOL    HW2  337   1.376   0.686   1.434
   75SOL     OW  338   0.803   1.402   0.924
   75SOL    HW1  339   0.893   1.416   0.882
   75SOL    HW2  340   0.732   1.404   0.853
   76SOL     OW  341   0.922   0.503   0.899
   76SOL    HW1  342   0.897   0.494   0.803
   76SOL    HW2  343   0.970   0.421   0.930
   77SOL     OW  344   0.539   0.064   0.512
   77SOL    HW1  345   0.458   0.065   0.570
   77SOL    HW2  346   0.542   0.147   0.457
   78SOL     OW  347   1.434   1.188   0.041
   78SOL    HW1  348   1.466   1.112   0.098
   78SOL    HW2  349   1.342   1.215   0.071
   79SOL     OW  350   0.297   0.035   0.171
   79SOL    HW1  351   0.346   0.119   0.150
   79SOL    HW2  352   0.359  -0.030   0.216
   80SOL     OW  353   0.935   0.236   0.480
   80SOL    HW1  354   0.887   0.277   0.402
   80SOL    HW2  355   1.034   0.234   0.461
   81SOL     OW  356   1.076   0.683   1.464
   81SOL    HW1  357   0.996   0.622   1.467
   81SOL    HW2  358   1.157   0.630   1.440
   82SOL     OW  359   1.227   1.570   0.793
   82SOL    HW1  360   1.248   1.644   0.728
   82SOL    HW2  361   1.295   1.570   0.866
   83SOL     OW  362   0.459   1.152   0.741
   83SOL    HW1  363   0.388   1.125   0.806
   83SOL    HW2  364   0.433   1.124   0.648
   84SOL     OW  365   1.271   1.797   0.591
   84SOL    HW1  366   1.315   1.861   0.527
   84SOL    HW2  367   1.221   1.849   0.661
   85SOL     OW  368   1.032   0.549   0.016
   85SOL    HW1  369   0.991   0.631  -0.023
   85SOL    HW2  370   1.096   0.575   0.089
   86SOL     OW  371   0.078   0.556   1.386
   86SOL    HW1  372   0.170   0.555   1.345
   86SOL    HW2  373   0.072   0.630   1.453
   87SOL     OW  374   0.561   0.222   1.147
   87SOL    HW1  375   0.599   0.138   1.184
   87SOL    HW2  376   0.473   0.241   1.191
   88SOL     OW  377   0.866   0.454   0.642
   88SOL    HW1  378   0.834   0.526   0.580
   88SOL    HW2  379   0.890   0.373   0.589
   89SOL     OW  380   1.017   0.039   0.753
   89SOL    HW1  381   0.945   0.044   0.684
   89SOL    HW2  382   0.993  -0.030   0.822
   90SOL     OW  383   1.429   1.173   0.867
   90SOL    HW1  384   1.374   1.089   0.860
   90SOL    HW2  385   1.455   1.202   0.775
   91SOL     OW  386   1.466   0.590   0.992
   91SOL    HW1  387   1.436   0.495   0.999
   91SOL    HW2  388   1.539   0.606   1.058
   92SOL     OW  389   1.857   0.833   0.377
   92SOL    HW1  390   1.899   0.769   0.441
   92SOL    HW2  391   1.819   0.782   0.299
   93SOL     OW  392   0.488   1.385   0.174
   93SOL    HW1  393   0.401   1.370   0.221
   93SOL    HW2  394   0.471   1.411   0.079
   94SOL     OW  395   1.664   1.280   0.657
   94SOL    HW1  396   1.763   1.288   0.671
   94SOL    HW2  397   1.619   1.364   0.688
   95SOL     OW  398   1.390   0.575   0.078
   95SOL    HW1  399   1.336   0.554   0.159
   95SOL    HW2  400   1.481   0.534   0.087
   96SOL     OW  401   0.527   0.256   0.328
   96SOL    HW1  402   0.554   0.197   0.253
   96SOL    HW2  403   0.527   0.351   0.297
   97SOL     OW  404   1.754   1.223   1.588
   97SOL    HW1  405   1.845   1.184   1.575
   97SOL    HW2  406   1.762   1.319   1.612
   98SOL     OW  407   1.064   1.347   1.340
   98SOL    HW1  408   0.984   1.324   1.395
   98SOL    HW2  409   1.147   1.321   1.389
   99SOL     OW  410   1.592   1.629   1.625
   99SOL    HW1  411   1.619   1.663   1.535
   99SOL    HW2  412   1.671   1.591   1.671
  100SOL     OW  413   1.111   1.195   1.100
  100SOL    HW1  414   1.071   1.239   1.181
  100SOL    HW2  415   1.070   1.232   1.017
  101SOL     OW  416   1.638   1.099   1.079
  101SOL    HW1  417   1.643   1.180   1.138
  101SOL    HW2  418   1.552   1.101   1.028
  102SOL     OW  419   0.915   0.089   1.402
  102SOL    HW1  420   0.940   0.069   1.307
  102SOL    HW2  421   0.987   0.145   1.444
  103SOL     OW  422   0.980   1.116   1.719
  103SOL    HW1  423   0.881   1.122   1.729
  103SOL    HW2  424   1.003   1.036   1.663
  104SOL     OW  425   0.705   1.050   0.368
  104SOL    HW1  426   0.691   1.057   0.467
  104SOL    HW2  427   0.789   0.999   0.350
  105SOL     OW  428   0.410   0.813   1.251
  105SOL    HW1  429   0.496   0.825   1.301
  105SOL    HW2  430   0.368   0.726   1.278
  106SOL     OW  431   1.274   0.386   1.262
  106SOL    HW1  432   1.295   0.460   1.326
  106SOL    HW2  433   1.185   0.403   1.219
  107SOL     OW  434   0.064   1.564   1.331
  107SOL    HW1  435   0.018   1.646   1.297
  107SOL    HW2  436   0.162   1.583   1.340
  108SOL     OW  437   0.367   1.100   0.501
  108SOL    HW1  438   0.360   1.183   0.445
  108SOL    HW2  439   0.371   1.020   0.441
  109SOL     OW  440   0.566   0.537   0.865
  109SOL    HW1  441   0.578   0.603   0.791
  109SOL    HW2  442   0.612   0.571   0.948
  110SOL     OW  443   1.252   1.348   0.388
  110SOL    HW1  444   1.302   1.425   0.428
  110SOL    HW2  445   1.157   1.350   0.420
  111SOL     OW  446   1.272   1.445   1.142
  111SOL    HW1  447   1.319   1.458   1.229
  111SOL    HW2  448   1.206   1.371   1.151
  112SOL     OW  449   1.582   0.639   0.472
  112SOL    HW1  450   1.551   0.700   0.545
  112SOL    HW2  451   1.632   0.691   0.403
  113SOL     OW  452   0.354   1.510   1.329
  113SOL    HW1  453   0.333   1.466   1.242
  113SOL    HW2  454   0.451   1.536   1.332
  114SOL     OW  455   0.402   0.751   1.598
  114SOL    HW1  456   0.470   0.806   1.551
  114SOL    HW2  457   0.442   0.663   1.625
  115SOL     OW  458   1.587   0.779   1.670
  115SOL    HW1  459   1.495   0.817   1.665
  115SOL    HW2  460   1.647   0.826   1.605
  116SOL     OW  461   1.013   0.105   1.770
  116SOL    HW1  462   1.019   0.190   1.718
  116SOL    HW2  463   1.045   0.029   1.713
  117SOL     OW  464   0.504   0.050   1.740
  117SOL    HW1  465   0.462  -0.007   1.670
  117SOL    HW2  466   0.438   0.119   1.772
  118SOL     OW  467   0.573   0.870   1.029
  118SOL    HW1  468   0.617   0.959   1.020
  118SOL    HW2  469   0.510   0.870   1.106
  119SOL     OW  470   1.360   0.862   1.045
  119SOL    HW1  471   1.285   0.862   0.979
  119SOL    HW2  472   1.397   0.770   1.054
  120SOL     OW  473   1.209   0.525   0.275
  120SOL    HW1  474   1.222   0.441   0.329
  120SOL    HW2  475   1.180   0.599   0.335
  121SOL     OW  476   0.307   0.213   1.231
  121SOL    HW1  477   0.284   0.250   1.321
  121SOL    HW2  478   0.277   0.118   1.225
  122SOL     OW  479   0.037   1.310   1.282
  122SOL    HW1  480   0.090   1.261   1.350
  122SOL    HW2  481   0.059   1.408   1.287
  123SOL     OW  482   0.732   0.634   1.064
  123SOL    HW1  483   0.791   0.608   0.988
  123SOL    HW2  484   0.704   0.730   1.053
  124SOL     OW  485   1.728   0.935   1.854
  124SOL    HW1  486   1.682   0.928   1.765
  124SOL    HW2  487   1.666   0.979   1.920
  125SOL     OW  488   0.307   0.063   0.618
  125SOL    HW1  489   0.296   0.157   0.651
  125SOL    HW2  490   0.302   0.000   0.695
  126SOL     OW  491   1.622   0.367   0.374
  126SOL    HW1  492   1.624   0.291   0.438
  126SOL    HW2  493   1.574   0.444   0.414
  127SOL     OW  494   1.023   0.766   0.966
  127SOL    HW1  495   1.038   0.787   1.062
  127SOL    HW2  496   0.993   0.671   0.957
  128SOL     OW  497   0.980   1.573   1.700
  128SOL    HW1  498   0.960   1.617   1.612
  128SOL    HW2  499   1.019   1.482   1.684
  129SOL     OW  500   1.859   1.518   1.605
  129SOL    HW1  501   1.873   1.545   1.510
  129SOL    HW2  502   1.942   1.540   1.658
  130SOL     OW  503   0.350   0.898   1.804
  130SOL    HW1  504   0.426   0.942   1.852
  130SOL    HW2  505   0.385   0.851   1.722
  131SOL     OW  506   1.540   0.274   0.125
  131SOL    HW1  507   1.479   0.199   0.148
  131SOL    HW2  508   1.562   0.326   0.208
  132SOL     OW  509   1.303   0.838   0.042
  132SOL    HW1  510   1.337   0.745   0.057
  132SOL    HW2  511   1.321   0.865  -0.053
  133SOL     OW  512   1.068   1.333   0.849
  133SOL    HW1  513   1.075   1.249   0.794
  133SOL    HW2  514   1.130   1.402   0.813
  134SOL     OW  515   0.319   0.810   0.949
  134SOL    HW1  516   0.412   0.846   0.954
  134SOL    HW2  517   0.313   0.725   1.001
  135SOL     OW  518   0.339   0.509   1.006
  135SOL    HW1  519   0.287   0.426   0.989
  135SOL    HW2  520   0.416   0.514   0.942
  136SOL     OW  521   1.138   0.380   1.678
  136SOL    HW1  522   1.093   0.443   1.742
  136SOL    HW2  523   1.231   0.411   1.661
  137SOL     OW  524   1.160   0.207   1.477
  137SOL    HW1  525   1.160   0.271   1.554
  137SOL    HW2  526   1.188   0.255   1.394
  138SOL     OW  527   0.008   1.326   0.200
  138SOL    HW1  528  -0.085   1.347   0.169
  138SOL    HW2  529   0.018   1.227   0.213
  139SOL     OW  530   0.088   1.801   0.927
  139SOL    HW1  531   0.046   1.715   0.900
  139SOL    HW2  532   0.182   1.804   0.893
  140SOL     OW  533   0.504   1.568   0.910
  140SOL    HW1  534   0.570   1.642   0.919
  140SOL    HW2  535   0.548   1.489   0.868
  141SOL     OW  536   1.002   0.796   1.238
  141SOL    HW1  537   1.043   0.764   1.324
  141SOL    HW2  538   0.906   0.769   1.235
  142SOL     OW  539   0.040   0.544   1.114
  142SOL    HW1  540   0.125   0.511   1.073
  142SOL    HW2  541   0.053   0.559   1.212
  143SOL     OW  542   0.189   0.520   1.722
  143SOL    HW1  543   0.248   0.480   1.652
  143SOL    HW2  544   0.131   0.591   1.681
  144SOL     OW  545   1.369   0.950   1.660
  144SOL    HW1  546   1.408   1.039   1.680
  144SOL    HW2  547   1.379   0.930   1.563
  145SOL     OW  548   0.815   0.572   0.325
  145SOL    HW1  549   0.822   0.483   0.279
  145SOL    HW2  550   0.721   0.606   0.317
  146SOL     OW  551   1.657   0.604   1.206
  146SOL    HW1  552   1.619   0.535   1.268
  146SOL    HW2  553   1.739   0.568   1.162
  147SOL     OW  554   0.252   1.564   1.744
  147SOL    HW1  555   0.222   1.621   1.820
  147SOL    HW2  556   0.245   1.467   1.770
  148SOL     OW  557   0.671   0.464   1.269
  148SOL    HW1  558   0.637   0.375   1.239
  148SOL    HW2  559   0.697   0.518   1.189
  149SOL     OW  560   0.930   1.678   1.465
  149SOL    HW1  561   0.906   1.660   1.370
  149SOL    HW2  562   0.960   1.772   1.475
  150SOL     OW  563   0.473   0.500   0.191
  150SOL    HW1  564   0.534   0.580   0.195
  150SOL    HW2  565   0.378   0.531   0.198
  151SOL     OW  566   0.159   1.137   1.466
  151SOL    HW1  567   0.181   1.076   1.542
  151SOL    HW2  568   0.169   1.088   1.380
  152SOL     OW  569   1.347   1.059   1.234
  152SOL    HW1  570   1.371   0.996   1.160
  152SOL    HW2  571   1.257   1.099   1.216
  153SOL     OW  572   1.302   0.855   0.309
  153SOL    HW1  573   1.216   0.824   0.351
  153SOL    HW2  574   1.298   0.841   0.210
  154SOL     OW  575   1.759   1.747   1.154
  154SOL    HW1  576   1.820   1.777   1.081
  154SOL    HW2  577   1.721   1.658   1.132
  155SOL     OW  578   1.252   1.731   1.128
  155SOL    HW1  579   1.336   1.736   1.074
  155SOL    HW2  580   1.229   1.635   1.146
  156SOL     OW  581   0.083   1.258   1.022
  156SOL    HW1  582   0.078   1.257   1.122
  156SOL    HW2  583   0.000   1.217   0.984
  157SOL     OW  584   0.688   1.662   1.716
  157SOL    HW1  585   0.632   1.743   1.725
  157SOL    HW2  586   0.740   1.666   1.630
  158SOL     OW  587   0.903   0.086   0.133
  158SOL    HW1  588   0.954   0.087   0.047
  158SOL    HW2  589   0.959   0.044   0.204
  159SOL     OW  590   1.726   0.135   0.523
  159SOL    HW1  591   1.799   0.118   0.456
  159SOL    HW2  592   1.695   0.048   0.561
  160SOL     OW  593   1.388   1.573   0.477
  160SOL    HW1  594   1.455   1.585   0.403
  160SOL    HW2  595   1.348   1.662   0.500
  161SOL     OW  596   0.130   1.794   1.851
  161SOL    HW1  597   0.089   1.720   1.904
  161SOL    HW2  598   0.194   1.845   1.909
  162SOL     OW  599   1.280   0.927   0.672
  162SOL    HW1  600   1.340   0.846   0.674
  162SOL    HW2  601   1.320   0.996   0.612
  163SOL     OW  602   0.830   1.273   1.422
  163SOL    HW1  603   0.825   1.306   1.517
  163SOL    HW2  604   0.744   1.292   1.376
  164SOL     OW  605   0.672   1.616   0.154
  164SOL    HW1  606   0.681   1.626   0.055
  164SOL    HW2  607   0.632   1.527   0.175
  165SOL     OW  608   1.650   1.720   1.394
  165SOL    HW1  609   1.703   1.730   1.310
  165SOL    HW2  610   1.623   1.810   1.428
  166SOL     OW  611   1.841   0.175   0.963
  166SOL    HW1  612   1.880   0.090   0.927
  166SOL    HW2  613   1.743   0.177   0.944
  167SOL     OW  614   0.263   0.326   0.720
  167SOL    HW1  615   0.184   0.377   0.686
  167SOL    HW2  616   0.254   0.311   0.818
  168SOL     OW  617   1.194   1.612   0.031
  168SOL    HW1  618   1.200   1.519   0.068
  168SOL    HW2  619   1.135   1.612  -0.049
  169SOL     OW  620   0.822   1.002   1.372
  169SOL    HW1  621   0.862   1.001   1.280
  169SOL    HW2  622   0.832   1.094   1.412
  170SOL     OW  623   0.916   0.910   0.291
  170SOL    HW1  624   0.979   0.948   0.223
  170SOL    HW2  625   0.956   0.827   0.330
  171SOL     OW  626   1.504   1.607   0.044
  171SOL    HW1  627   1.412   1.644   0.051
  171SOL    HW2  628   1.542   1.627  -0.046
  172SOL     OW  629   0.372   1.288   1.490
  172SOL    HW1  630   0.359   1.381   1.456
  172SOL    HW2  631   0.288   1.236   1.477
  173SOL     OW  632   1.614   1.292   1.289
  173SOL    HW1  633   1.674   1.295   1.369
  173SOL    HW2  634   1.539   1.356   1.302
  174SOL     OW  635   1.039   1.098   0.696
  174SOL    HW1  636   0.969   1.051   0.750
  174SOL    HW2  637   1.098   1.030   0.653
  175SOL     OW  638   1.014   0.236   0.971
  175SOL    HW1  639   1.006   0.200   0.878
  175SOL    HW2  640   1.012   0.160   1.036
  176SOL     OW  641   0.590   1.487   0.491
  176SOL    HW1  642   0.632   1.429   0.421
  176SOL    HW2  643   0.546   1.566   0.447
  177SOL     OW  644   1.709   0.385   1.381
  177SOL    HW1  645   1.782   0.454   1.385
  177SOL    HW2  646   1.737   0.310   1.322
  178SOL     OW  647   0.255   1.348   0.290
  178SOL    HW1  648   0.159   1.349   0.263
  178SOL    HW2  649   0.267   1.401   0.374
  179SOL     OW  650   0.105   1.013   1.726
  179SOL    HW1  651   0.028   0.980   1.780
  179SOL    HW2  652   0.190   0.983   1.768
  180SOL     OW  653   0.672   0.203   1.489
  180SOL    HW1  654   0.762   0.187   1.449
  180SOL    HW2  655   0.680   0.208   1.588
  181SOL     OW  656   0.075   0.345   0.033
  181SOL    HW1  657  -0.017   0.317   0.004
  181SOL    HW2  658   0.106   0.422  -0.023
  182SOL     OW  659   1.440   0.856   1.398
  182SOL    HW1  660   1.383   0.908   1.335
  182SOL    HW2  661   1.536   0.868   1.374
  183SOL     OW  662   0.072   0.166   0.318
  183SOL    HW1  663   0.055   0.249   0.264
  183SOL    HW2  664   0.162   0.129   0.296
  184SOL     OW  665   1.183   1.335   0.119
  184SOL    HW1  666   1.084   1.324   0.121
  184SOL    HW2  667   1.217   1.350   0.212
  185SOL     OW  668   0.613   0.842   1.431
  185SOL    HW1  669   0.669   0.923   1.414
  185SOL    HW2  670   0.672   0.762   1.434
  186SOL     OW  671   1.493   1.767   0.959
  186SOL    HW1  672   1.526   1.831   0.890
  186SOL    HW2  673   1.559   1.761   1.034
  187SOL     OW  674   0.716   0.565   1.708
  187SOL    HW1  675   0.735   0.630   1.782
  187SOL    HW2  676   0.776   0.485   1.717
  188SOL     OW  677   1.450   1.220   1.633
  188SOL    HW1  678   1.441   1.210   1.732
  188SOL    HW2  679   1.546   1.213   1.607
  189SOL     OW  680   0.390   1.741   1.560
  189SOL    HW1  681   0.299   1.782   1.558
  189SOL    HW2  682   0.383   1.647   1.592
  190SOL     OW  683   1.674   0.883   1.254
  190SOL    HW1  684   1.647   0.794   1.217
  190SOL    HW2  685   1.675   0.951   1.181
  191SOL     OW  686   1.225   0.325   0.449
  191SOL    HW1  687   1.290   0.251   0.438
  191SOL    HW2  688   1.245   0.375   0.533
  192SOL     OW  689   0.594   0.745   0.652
  192SOL    HW1  690   0.644   0.830   0.633
  192SOL    HW2  691   0.506   0.747   0.604
  193SOL     OW  692   1.777   0.342   1.642
  193SOL    HW1  693   1.760   0.373   1.548
  193SOL    HW2  694   1.693   0.305   1.680
  194SOL     OW  695   1.730   0.934   1.517
  194SOL    HW1  696   1.768   1.025   1.532
  194SOL    HW2  697   1.722   0.917   1.418
  195SOL     OW  698   0.859   1.374   0.016
  195SOL    HW1  699   0.813   1.389   0.104
  195SOL    HW2  700   0.903   1.459  -0.014
  196SOL     OW  701   0.661   1.790   0.953
  196SOL    HW1  702   0.615   1.878   0.940
  196SOL    HW2  703   0.760   1.802   0.946
  197SOL     OW  704   0.859   0.956   0.861
  197SOL    HW1  705   0.913   0.887   0.909
  197SOL    HW2  706   0.827   1.025   0.927
  198SOL     OW  707   1.083   0.984   0.087
  198SOL    HW1  708   1.060   1.037   0.005
  198SOL    HW2  709   1.164   0.928   0.068
  199SOL     OW  710   1.861   1.569   0.851
  199SOL    HW1  711   1.790   1.557   0.781
  199SOL    HW2  712   1.862   1.490   0.911
  200SOL     OW  713   0.221   1.314   1.844
  200SOL    HW1  714   0.156   1.241   1.823
  200SOL    HW2  715   0.225   1.328   1.942
  201SOL     OW  716   0.079   1.240   0.653
  201SOL    HW1  717   0.078   1.193   0.741
  201SOL    HW2  718   0.161   1.212   0.602
  202SOL     OW  719   0.672   1.391   1.624
  202SOL    HW1  720   0.594   1.341   1.662
  202SOL    HW2  721   0.669   1.486   1.655
  203SOL     OW  722   1.824   0.192   1.227
  203SOL    HW1  723   1.820   0.102   1.271
  203SOL    HW2  724   1.827   0.181   1.128
  204SOL     OW  725   0.428   0.424   0.520
  204SOL    HW1  726   0.458   0.352   0.458
  204SOL    HW2  727   0.389   0.384   0.603
  205SOL     OW  728   1.705   1.487   1.104
  205SOL    HW1  729   1.612   1.462   1.077
  205SOL    HW2  730   1.731   1.437   1.186
  206SOL     OW  731   0.317   0.547   1.280
  206SOL    HW1  732   0.355   0.488   1.352
  206SOL    HW2  733   0.357   0.521   1.192
  207SOL     OW  734   0.812   1.586   0.687
  207SOL    HW1  735   0.844   1.596   0.593
  207SOL    HW2  736   0.733   1.524   0.689
  208SOL     OW  737   1.424   0.214   1.112
  208SOL    HW1  738   1.476   0.149   1.167
  208SOL    HW2  739   1.375   0.277   1.173
  209SOL     OW  740   1.001   0.034   1.154
  209SOL    HW1  741   0.938  -0.038   1.123
  209SOL    HW2  742   1.094  -0.002   1.154
  210SOL     OW  743   0.770   1.330   0.301
  210SOL    HW1  744   0.724   1.243   0.318
  210SOL    HW2  745   0.861   1.327   0.342
  211SOL     OW  746   0.618   1.567   1.284
  211SOL    HW1  747   0.613   1.649   1.341
  211SOL    HW2  748   0.707   1.564   1.239
  212SOL     OW  749   1.352   0.052   0.168
  212SOL    HW1  750   1.387   0.011   0.084
  212SOL    HW2  751   1.262   0.014   0.188
  213SOL     OW  752   1.300   0.453   0.691
  213SOL    HW1  753   1.241   0.533   0.695
  213SOL    HW2  754   1.315   0.418   0.784
  214SOL     OW  755   1.593   0.221   0.882
  214SOL    HW1  756   1.509   0.220   0.936
  214SOL    HW2  757   1.595   0.304   0.826
  215SOL     OW  758   0.039   1.077   0.300
  215SOL    HW1  759   0.138   1.066   0.291
  215SOL    HW2  760  -0.001   0.991   0.332
  216SOL     OW  761   0.875   1.646   0.337
  216SOL    HW1  762   0.798   1.611   0.283
  216SOL    HW2  763   0.843   1.717   0.399
  217SOL     OW  764   0.230   0.628   1.975
  217SOL    HW1  765   0.137   0.626   2.012
  217SOL    HW2  766   0.231   0.589   1.883
  218SOL     OW  767   0.225   0.275   2.858
  218SOL    HW1  768   0.260   0.258   2.950
  218SOL    HW2  769   0.137   0.230   2.846
  219SOL     OW  770   0.019   0.368   2.509
  219SOL    HW1  771  -0.063   0.411   2.548
  219SOL    HW2  772  -0.009   0.295   2.446
  220SOL     OW  773   0.569   1.275   3.027
  220SOL    HW1  774   0.476   1.268   2.990
  220SOL    HW2  775   0.580   1.364   3.071
  221SOL     OW  776   1.135   0.703   2.579
  221SOL    HW1  777   1.192   0.781   2.554
  221SOL    HW2  778   1.075   0.729   2.655
  222SOL     OW  779   1.755   0.607   2.093
  222SOL    HW1  780   1.743   0.594   1.994
  222SOL    HW2  781   1.725   0.526   2.142
  223SOL     OW  782   0.768   1.144   2.885
  223SOL    HW1  783   0.690   1.161   2.945
  223SOL    HW2  784   0.802   1.231   2.849
  224SOL     OW  785   0.850   0.798   3.685
  224SOL    HW1  786   0.846   0.874   3.750
  224SOL    HW2  787   0.872   0.834   3.594
  225SOL     OW  788   0.685   1.012   2.527
  225SOL    HW1  789   0.754   0.996   2.597
  225SOL    HW2  790   0.612   1.069   2.565
  226SOL     OW  791   0.686   1.161   3.665
  226SOL    HW1  792   0.746   1.240   3.679
  226SOL    HW2  793   0.600   1.192   3.624
  227SOL     OW  794   0.335   1.435   2.923
  227SOL    HW1  795   0.257   1.404   2.870
  227SOL    HW2  796   0.393   1.493   2.866
  228SOL     OW  797   0.438   0.392   3.361
  228SOL    HW1  798   0.520   0.336   3.370
  228SOL    HW2  799   0.357   0.334   3.365
  229SOL     OW  800   1.603   0.447   2.599
  229SOL    HW1  801   1.529   0.493   2.549
  229SOL    HW2  802   1.654   0.515   2.652
  230SOL     OW  803   0.231   1.713   2.345
  230SOL    HW1  804   0.265   1.790   2.399
  230SOL    HW2  805   0.275   1.713   2.255
  231SOL     OW  806   1.127   1.341   3.552
  231SOL    HW1  807   1.174   1.341   3.640
  231SOL    HW2  808   1.079   1.254   3.541
  232SOL     OW  809   0.230   1.434   2.400
  232SOL    HW1  810   0.204   1.530   2.400
  232SOL    HW2  811   0.159   1.380   2.445
  233SOL     OW  812   0.240   1.091   2.748
  233SOL    HW1  813   0.254   1.007   2.800
  233SOL    HW2  814   0.185   1.155   2.803
  234SOL     OW  815   0.620   1.786   3.301
  234SOL    HW1  816   0.528   1.769   3.336
  234SOL    HW2  817   0.648   1.878   3.327
  235SOL     OW  818   0.606   0.964   1.985
  235SOL    HW1  819   0.613   1.048   1.931
  235SOL    HW2  820   0.652   0.977   2.073
  236SOL     OW  821   1.594   0.114   3.342
  236SOL    HW1  822   1.576   0.181   3.270
  236SOL    HW2  823   1.591   0.160   3.431
  237SOL     OW  824   0.122   0.643   2.425
  237SOL    HW1  825   0.077   0.555   2.442
  237SOL    HW2  826   0.121   0.697   2.509
  238SOL     OW  827   1.842   1.767   2.221
  238SOL    HW1  828   1.896   1.738   2.301
  238SOL    HW2  829   1.872   1.857   2.192
  239SOL     OW  830   0.027   1.596   1.979
  239SOL    HW1  831   0.008   1.500   2.000
  239SOL    HW2  832  -0.006   1.654   2.054
  240SOL     OW  833   0.113   0.737   3.459
  240SOL    HW1  834   0.201   0.724   3.504
  240SOL    HW2  835   0.100   0.834   3.437
  241SOL     OW  836   0.613   1.365   2.588
  241SOL    HW1  837   0.564   1.278   2.597
  241SOL    HW2  838   0.590   1.408   2.501
  242SOL     OW  839   1.293   1.228   3.285
  242SOL    HW1  840   1.330   1.155   3.227
  242SOL    HW2  841   1.345   1.233   3.370
  243SOL     OW  842   0.809   0.004   2.364
  243SOL    HW1  843   0.849   0.095   2.355
  243SOL    HW2  844   0.709   0.012   2.370
  244SOL     OW  845   0.197   0.976   3.126
  244SOL    HW1  846   0.286   0.931   3.112
  244SOL    HW2  847   0.124   0.911   3.107
  245SOL     OW  848   1.525   0.999   2.052
  245SOL    HW1  849   1.462   0.923   2.065
  245SOL    HW2  850   1.573   1.017   2.138
  246SOL     OW  851   1.187   1.792   3.478
  246SOL    HW1  852   1.211   1.852   3.402
  246SOL    HW2  853   1.194   1.697   3.448
  247SOL     OW  854   0.317   0.251   3.663
  247SOL    HW1  855   0.388   0.322   3.669
  247SOL    HW2  856   0.229   0.290   3.691
  248SOL     OW  857   0.598   0.729   2.132
  248SOL    HW1  858   0.622   0.798   2.064
  248SOL    HW2  859   0.520   0.762   2.186
  249SOL     OW  860   1.281   0.345   2.806
  249SOL    HW1  861   1.195   0.295   2.793
  249SOL    HW2  862   1.343   0.291   2.862
  250SOL     OW  863   0.807   0.605   3.327
  250SOL    HW1  864   0.760   0.602   3.416
  250SOL    HW2  865   0.756   0.550   3.261
  251SOL     OW  866   1.394   0.469   3.536
  251SOL    HW1  867   1.374   0.512   3.624
  251SOL    HW2  868   1.472   0.407   3.545
  252SOL     OW  869   0.973   0.890   3.434
  252SOL    HW1  870   1.019   0.806   3.405
  252SOL    HW2  871   0.917   0.924   3.359
  253SOL     OW  872   0.991   0.410   3.104
  253SOL    HW1  873   0.914   0.444   3.158
  253SOL    HW2  874   0.957   0.359   3.025
  254SOL     OW  875   1.041   0.701   2.291
  254SOL    HW1  876   1.067   0.697   2.387
  254SOL    HW2  877   0.956   0.650   2.277
  255SOL     OW  878   0.076   0.811   2.651
  255SOL    HW1  879   0.175   0.799   2.660
  255SOL    HW2  880   0.052   0.906   2.672
  256SOL     OW  881   0.130   1.821   3.433
  256SOL    HW1  882   0.120   1.806   3.532
  256SOL    HW2  883   0.044   1.857   3.397
  257SOL     OW  884   0.865   0.348   2.057
  257SOL    HW1  885   0.924   0.411   2.008
  257SOL    HW2  886   0.884   0.254   2.028
  258SOL     OW  887   1.719   0.585   3.693
  258SOL    HW1  888   1.693   0.674   3.657
  258SOL    HW2  889   1.717   0.517   3.620
  259SOL     OW  890   0.550   0.196   2.747
  259SOL    HW1  891   0.545   0.191   2.847
  259SOL    HW2  892   0.552   0.292   2.718
  260SOL     OW  893   1.008   1.456   2.339
  260SOL    HW1  894   0.962   1.528   2.287
  260SOL    HW2  895   1.004   1.476   2.437
  261SOL     OW  896   0.351   1.801   2.715
  261SOL    HW1  897   0.401   1.715   2.721
  261SOL    HW2  898   0.416   1.878   2.712
  262SOL     OW  899   1.227   1.550   3.368
  262SOL    HW1  900   1.233   1.473   3.432
  262SOL    HW2  901   1.175   1.524   3.288
  263SOL     OW  902   0.321   0.943   2.104
  263SOL    HW1  903   0.403   0.982   2.062
  263SOL    HW2  904   0.294   0.861   2.055
  264SOL     OW  905   1.458   0.735   2.590
  264SOL    HW1  906   1.453   0.670   2.665
  264SOL    HW2  907   1.538   0.794   2.603
  265SOL     OW  908   0.461   1.266   3.589
  265SOL    HW1  909   0.411   1.267   3.503
  265SOL    HW2  910   0.398   1.248   3.665
  266SOL     OW  911   1.111   1.776   2.099
  266SOL    HW1  912   1.051   1.714   2.149
  266SOL    HW2  913   1.142   1.732   2.014
  267SOL     OW  914   0.202   0.285   3.360
  267SOL    HW1  915   0.122   0.345   3.347
  267SOL    HW2  916   0.192   0.236   3.446
  268SOL     OW  917   1.632   1.377   1.943
  268SOL    HW1  918   1.600   1.471   1.933
  268SOL    HW2  919   1.556   1.314   1.931
  269SOL     OW  920   0.464   1.743   2.185
  269SOL    HW1  921   0.497   1.782   2.271
  269SOL    HW2  922   0.540   1.736   2.120
  270SOL     OW  923   1.400   0.107   2.288
  270SOL    HW1  924   1.376   0.070   2.198
  270SOL    HW2  925   1.499   0.123   2.292
  271SOL     OW  926   0.249   1.785   3.103
  271SOL    HW1  927   0.306   1.720   3.153
  271SOL    HW2  928   0.233   1.752   3.010
  272SOL     OW  929   0.940   1.698   2.766
  272SOL    HW1  930   1.020   1.641   2.787
  272SOL    HW2  931   0.891   1.658   2.689
  273SOL     OW  932   0.382   0.700   2.342
  273SOL    HW1  933   0.427   0.610   2.339
  273SOL    HW2  934   0.288   0.689   2.375
  274SOL     OW  935   1.547   0.222   3.591
  274SOL    HW1  936   1.542   0.259   3.683
  274SOL    HW2  937   1.475   0.153   3.579
  275SOL     OW  938   0.614   0.122   1.979
  275SOL    HW1  939   0.712   0.100   1.986
  275SOL    HW2  940   0.583   0.105   1.886
  276SOL     OW  941   0.781   0.264   3.611
  276SOL    HW1  942   0.848   0.203   3.654
  276SOL    HW2  943   0.708   0.283   3.676
  277SOL     OW  944   0.888   1.514   3.057
  277SOL    HW1  945   0.865   1.489   2.963
  277SOL    HW2  946   0.949   1.445   3.096
  278SOL     OW  947   1.351   0.590   3.295
  278SOL    HW1  948   1.379   0.547   3.380
  278SOL    HW2  949   1.376   0.686   3.296
  279SOL     OW  950   0.803   1.402   2.786
  279SOL    HW1  951   0.893   1.416   2.744
  279SOL    HW2  952   0.732   1.404   2.715
  280SOL     OW  953   0.922   0.503   2.761
  280SOL    HW1  954   0.897   0.494   2.665
  280SOL    HW2  955   0.970   0.421   2.792
  281SOL     OW  956   0.539   0.064   2.374
  281SOL    HW1  957   0.458   0.065   2.432
  281SOL    HW2  958   0.542   0.147   2.319
  282SOL     OW  959   1.434   1.188   1.903
  282SOL    HW1  960   1.466   1.112   1.960
  282SOL    HW2  961   1.342   1.215   1.933
  283SOL     OW  962   0.297   0.035   2.033
  283SOL    HW1  963   0.346   0.119   2.012
  283SOL    HW2  964   0.359  -0.030   2.078
  284SOL     OW  965   0.935   0.236   2.342
  284SOL    HW1  966   0.887   0.277   2.264
  284SOL    HW2  967   1.034   0.234   2.323
  285SOL     OW  968   1.076   0.683   3.326
  285SOL    HW1  969   0.996   0.622   3.329
  285SOL    HW2  970   1.157   0.630   3.302
  286SOL     OW  971   1.227   1.570   2.655
  286SOL    HW1  972   1.248   1.644   2.590
  286SOL    HW2  973   1.295   1.570   2.728
  287SOL     OW  974   0.459   1.152   2.603
  287SOL    HW1  975   0.388   1.125   2.668
  287SOL    HW2  976   0.433   1.124   2.510
  288SOL     OW  977   1.271   1.797   2.453
  288SOL    HW1  978   1.315   1.861   2.389
  288SOL    HW2  979   1.221   1.849   2.523
  289SOL     OW  980   1.032   0.549   1.878
  289SOL    HW1  981   0.991   0.631   1.839
  289SOL    HW2  982   1.096   0.575   1.951
  290SOL     OW  983   0.078   0.556   3.248
  290SOL    HW1  984   0.170   0.555   3.207
  290SOL    HW2  985   0.072   0.630   3.315
  291SOL     OW  986   0.561   0.222   3.009
  291SOL    HW1  987   0.599   0.138   3.046
  291SOL    HW2  988   0.473   0.241   3.053
  292SOL     OW  989   0.866   0.454   2.504
  292SOL    HW1  990   0.834   0.526   2.442
  292SOL    HW2  991   0.890   0.373   2.451
  293SOL     OW  992   1.017   0.039   2.615
  293SOL    HW1  993   0.945   0.044   2.546
  293SOL    HW2  994   0.993  -0.030   2.684
  294SOL     OW  995   1.466   0.590   2.854
  294SOL    HW1  996   1.436   0.495   2.861
  294SOL    HW2  997   1.539   0.606   2.920
  295SOL     OW  998   1.857   0.833   2.239
  295SOL    HW1  999   1.899   0.769   2.303
  295SOL    HW2 1000   1.819   0.782   2.161
  296SOL     OW 1001   0.488   1.385   2.036
  296SOL    HW1 1002   0.401   1.370   2.083
  296SOL    HW2 1003   0.471   1.411   1.941
  297SOL     OW 1004   1.390   0.575   1.940
  297SOL    HW1 1005   1.336   0.554   2.021
  297SOL    HW2 1006   1.481   0.534   1.949
  298SOL     OW 1007   0.527   0.256   2.190
  298SOL    HW1 1008   0.554   0.197   2.115
  298SOL    HW2 1009   0.527   0.351   2.159
  299SOL     OW 1010   1.754   1.223   3.450
  299SOL    HW1 1011   1.845   1.184   3.437
  299SOL    HW2 1012   1.762   1.319   3.474
  300SOL     OW 1013   1.064   1.347   3.202
  300SOL    HW1 1014   0.984   1.324   3.257
  300SOL    HW2 1015   1.147   1.321   3.251
  301SOL     OW 1016   1.592   1.629   3.487
  301SOL    HW1 1017   1.619   1.663   3.397
  301SOL    HW2 1018   1.671   1.591   3.533
  302SOL     OW 1019   1.111   1.195   2.962
  302SOL    HW1 1020   1.071   1.239   3.043
  302SOL    HW2 1021   1.070   1.232   2.879
  303SOL     OW 1022   0.915   0.089   3.264
  303SOL    HW1 1023   0.940   0.069   3.169
  303SOL    HW2 1024   0.987   0.145   3.306
  304SOL     OW 1025   0.980   1.116   3.581
  304SOL    HW1 1026   0.881   1.122   3.591
  304SOL    HW2 1027   1.003   1.036   3.525
  305SOL     OW 1028   0.705   1.050   2.230
  305SOL    HW1 1029   0.691   1.057   2.329
  305SOL    HW2 1030   0.789   0.999   2.212
  306SOL     OW 1031   0.410   0.813   3.113
  306SOL    HW1 1032   0.496   0.825   3.163
  306SOL    HW2 1033   0.368   0.726   3.140
  307SOL     OW 1034   1.274   0.386   3.124
  307SOL    HW1 1035   1.295   0.460   3.188
  307SOL    HW2 1036   1.185   0.403   3.081
  308SOL     OW 1037   0.064   1.564   3.193
  308SOL    HW1 1038   0.018   1.646   3.159
  308SOL    HW2 1039   0.162   1.583   3.202
  309SOL     OW 1040   0.367   1.100   2.363
  309SOL    HW1 1041   0.360   1.183   2.307
  309SOL    HW2 1042   0.371   1.020   2.303
  310SOL     OW 1043   0.566   0.537   2.727
  310SOL    HW1 1044   0.578   0.603   2.653
  310SOL    HW2 1045   0.612   0.571   2.810
  311SOL     OW 1046   1.252   1.348   2.250
  311SOL    HW1 1047   1.302   1.425   2.290
  311SOL    HW2 1048   1.157   1.350   2.282
  312SOL     OW 1049   1.272   1.445   3.004
  312SOL    HW1 1050   1.319   1.458   3.091
  312SOL    HW2 1051   1.206   1.371   3.013
  313SOL     OW 1052   1.582   0.639   2.334
  313SOL    HW1 1053   1.551   0.700   2.407
  313SOL    HW2 1054   1.632   0.691   2.265
  314SOL     OW 1055   0.354   1.510   3.191
  314SOL    HW1 1056   0.333   1.466   3.104
  314SOL    HW2 1057   0.451   1.536   3.194
  315SOL     OW 1058   0.402   0.751   3.460
  315SOL    HW1 1059   0.470   0.806   3.413
  315SOL    HW2 1060   0.442   0.663   3.487
  316SOL     OW 1061   1.587   0.779   3.532
  316SOL    HW1 1062   1.495   0.817   3.527
  316SOL    HW2 1063   1.647   0.826   3.467
  317SOL     OW 1064   1.013   0.105   3.632
  317SOL    HW1 1065   1.019   0.190   3.580
  317SOL    HW2 1066   1.045   0.029   3.575
  318SOL     OW 1067   0.504   0.050   3.602
  318SOL    HW1 1068   0.462  -0.007   3.532
  318SOL    HW2 1069   0.438   0.119   3.634
  319SOL     OW 1070   0.573   0.870   2.891
  319SOL    HW1 1071   0.617   0.959   2.882
  319SOL    HW2 1072   0.510   0.870   2.968
  320SOL     OW 1073   1.360   0.862   2.907
  320SOL    HW1 1074   1.285   0.862   2.841
  320SOL    HW2 1075   1.397   0.770   2.916
  321SOL     OW 1076   1.209   0.525   2.137
  321SOL    HW1 1077   1.222   0.441   2.191
  321SOL    HW2 1078   1.180   0.599   2.197
  322SOL     OW 1079   0.307   0.213   3.093
  322SOL    HW1 1080   0.284   0.250   3.183
  322SOL    HW2 1081   0.277   0.118   3.087
  323SOL     OW 1082   0.037   1.310   3.144
  323SOL    HW1 1083   0.090   1.261   3.212
  323SOL    HW2 1084   0.059   1.408   3.149
  324SOL     OW 1085   0.732   0.634   2.926
  324SOL    HW1 1086   0.791   0.608   2.850
  324SOL    HW2 1087   0.704   0.730   2.915
  325SOL     OW 1088   1.728   0.935   3.716
  325SOL    HW1 1089   1.682   0.928   3.627
  325SOL    HW2 1090   1.666   0.979   3.782
  326SOL     OW 1091   0.307   0.063   2.480
  326SOL    HW1 1092   0.296   0.157   2.513
  326SOL    HW2 1093   0.302   0.000   2.557
  327SOL     OW 1094   1.622   0.367   2.236
  327SOL    HW1 1095   1.624   0.291   2.300
  327SOL    HW2 1096   1.574   0.444   2.276
  328SOL     OW 1097   1.023   0.766   2.828
  328SOL    HW1 1098   1.038   0.787   2.924
  328SOL    HW2 1099   0.993   0.671   2.819
  329SOL     OW 1100   0.980   1.573   3.562
  329SOL    HW1 1101   0.960   1.617   3.474
  329SOL    HW2 1102   1.019   1.482   3.546
  330SOL     OW 1103   1.859   1.518   3.467
  330SOL    HW1 1104   1.873   1.545   3.372
  330SOL    HW2 1105   1.942   1.540   3.520
  331SOL     OW 1106   0.350   0.898   3.666
  331SOL    HW1 1107   0.426   0.942   3.714
  331SOL    HW2 1108   0.385   0.851   3.584
  332SOL     OW 1109   1.540   0.274   1.987
  332SOL    HW1 1110   1.479   0.199   2.010
  332SOL    HW2 1111   1.562   0.326   2.070
  333SOL     OW 1112   1.303   0.838   1.904
  333SOL    HW1 1113   1.337   0.745   1.919
  333SOL    HW2 1114   1.321   0.865   1.809
  334SOL     OW 1115   1.068   1.333   2.711
  334SOL    HW1 1116   1.075   1.249   2.656
  334SOL    HW2 1117   1.130   1.402   2.675
  335SOL     OW 1118   0.319   0.810   2.811
  335SOL    HW1 1119   0.412   0.846   2.816
  335SOL    HW2 1120   0.313   0.725   2.863
  336SOL     OW 1121   0.339   0.509   2.868
  336SOL    HW1 1122   0.287   0.426   2.851
  336SOL    HW2 1123   0.416   0.514   2.804
  337SOL     OW 1124   1.138   0.380   3.540
  337SOL    HW1 1125   1.093   0.443   3.604
  337SOL    HW2 1126   1.231   0.411   3.523
  338SOL     OW 1127   1.160   0.207   3.339
  338SOL    HW1 1128   1.160   0.271   3.416
  338SOL    HW2 1129   1.188   0.255   3.256
  339SOL     OW 1130   0.008   1.326   2.062
  339SOL    HW1 1131  -0.085   1.347   2.031
  339SOL    HW2 1132   0.018   1.227   2.075
  340SOL     OW 1133   0.088   1.801   2.789
  340SOL    HW1 1134   0.046   1.715   2.762
  340SOL    HW2 1135   0.182   1.804   2.755
  341SOL     OW 1136   0.504   1.568   2.772
  341SOL    HW1 1137   0.570   1.642   2.781
  341SOL    HW2 1138   0.548   1.489   2.730
  342SOL     OW 1139   1.002   0.796   3.100
  342SOL    HW1 1140   1.043   0.764   3.186
  342SOL    HW2 1141   0.906   0.769   3.097
  343SOL     OW 1142   0.040   0.544   2.976
  343SOL    HW1 1143   0.125   0.511   2.935
  343SOL    HW2 1144   0.053   0.559   3.074
  344SOL     OW 1145   0.189   0.520   3.584
  344SOL    HW1 1146   0.248   0.480   3.514
  344SOL    HW2 1147   0.131   0.591   3.543
  345SOL     OW 1148   1.369   0.950   3.522
  345SOL    HW1 1149   1.408   1.039   3.542
  345SOL    HW2 1150   1.379   0.930   3.425
  346SOL     OW 1151   0.815   0.572   2.187
  346SOL    HW1 1152   0.822   0.483   2.141
  346SOL    HW2 1153   0.721   0.606   2.179
  347SOL     OW 1154   1.657   0.604   3.068
  347SOL    HW1 1155   1.619   0.535   3.130
  347SOL    HW2 1156   1.739   0.568   3.024
  348SOL     OW 1157   0.252   1.564   3.606
  348SOL    HW1 1158   0.222   1.621   3.682
  348SOL    HW2 1159   0.245   1.467   3.632
  349SOL     OW 1160   0.671   0.464   3.131
  349SOL    HW1 1161   0.637   0.375   3.101
  349SOL    HW2 1162   0.697   0.518   3.051
  350SOL     OW 1163   0.930   1.678   3.327
  350SOL    HW1 1164   0.906   1.660   3.232
  350SOL    HW2 1165   0.960   1.772   3.337
  351SOL     OW 1166   0.473   0.500   2.053
  351SOL    HW1 1167   0.534   0.580   2.057
  351SOL    HW2 1168   0.378   0.531   2.060
  352SOL     OW 1169   0.159   1.137   3.328
  352SOL    HW1 1170   0.181   1.076   3.404
  352SOL    HW2 1171   0.169   1.088   3.242
  353SOL     OW 1172   1.347   1.059   3.096
  353SOL    HW1 1173   1.371   0.996   3.022
  353SOL    HW2 1174   1.257   1.099   3.078
  354SOL     OW 1175   1.302   0.855   2.171
  354SOL    HW1 1176   1.216   0.824   2.213
  354SOL    HW2 1177   1.298   0.841   2.072
  355SOL     OW 1178   1.252   1.731   2.990
  355SOL    HW1 1179   1.336   1.736   2.936
  355SOL    HW2 1180   1.229   1.635   3.008
  356SOL     OW 1181   0.083   1.258   2.884
  356SOL    HW1 1182   0.078   1.257   2.984
  356SOL    HW2 1183   0.000   1.217   2.846
  357SOL     OW 1184   0.688   1.662   3.578
  357SOL    HW1 1185   0.632   1.743   3.587
  357SOL    HW2 1186   0.740   1.666   3.492
  358SOL     OW 1187   1.726   0.135   2.385
  358SOL    HW1 1188   1.799   0.118   2.318
  358SOL    HW2 1189   1.695   0.048   2.423
  359SOL     OW 1190   0.130   1.794   3.713
  359SOL    HW1 1191   0.089   1.720   3.766
  359SOL    HW2 1192   0.194   1.845   3.771
  360SOL     OW 1193   1.280   0.927   2.534
  360SOL    HW1 1194   1.340   0.846   2.536
  360SOL    HW2 1195   1.320   0.996   2.474
  361SOL     OW 1196   0.830   1.273   3.284
  361SOL    HW1 1197   0.825   1.306   3.379
  361SOL    HW2 1198   0.744   1.292   3.238
  362SOL     OW 1199   0.672   1.616   2.016
  362SOL    HW1 1200   0.681   1.626   1.917
  362SOL    HW2 1201   0.632   1.527   2.037
  363SOL     OW 1202   1.650   1.720   3.256
  363SOL    HW1 1203   1.703   1.730   3.172
  363SOL    HW2 1204   1.623   1.810   3.290
  364SOL     OW 1205   1.841   0.175   2.825
  364SOL    HW1 1206   1.880   0.090   2.789
  364SOL    HW2 1207   1.743   0.177   2.806
  365SOL     OW 1208   0.263   0.326   2.582
  365SOL    HW1 1209   0.184   0.377   2.548
  365SOL    HW2 1210   0.254   0.311   2.680
  366SOL     OW 1211   1.194   1.612   1.893
  366SOL    HW1 1212   1.200   1.519   1.930
  366SOL    HW2 1213   1.135   1.612   1.813
  367SOL     OW 1214   0.822   1.002   3.234
  367SOL    HW1 1215   0.862   1.001   3.142
  367SOL    HW2 1216   0.832   1.094   3.274
  368SOL     OW 1217   0.916   0.910   2.153
  368SOL    HW1 1218   0.979   0.948   2.085
  368SOL    HW2 1219   0.956   0.827   2.192
  369SOL     OW 1220   1.504   1.607   1.906
  369SOL    HW1 1221   1.412   1.644   1.913
  369SOL    HW2 1222   1.542   1.627   1.816
  370SOL     OW 1223   0.372   1.288   3.352
  370SOL    HW1 1224   0.359   1.381   3.318
  370SOL    HW2 1225   0.288   1.236   3.339
  371SOL     OW 1226   1.039   1.098   2.558
  371SOL    HW1 1227   0.969   1.051   2.612
  371SOL    HW2 1228   1.098   1.030   2.515
  372SOL     OW 1229   1.014   0.236   2.833
  372SOL    HW1 1230   1.006   0.200   2.740
  372SOL    HW2 1231   1.012   0.160   2.898
  373SOL     OW 1232   0.590   1.487   2.353
  373SOL    HW1 1233   0.632   1.429   2.283
  373SOL    HW2 1234   0.546   1.566   2.309
  374SOL     OW 1235   1.709   0.385   3.243
  374SOL    HW1 1236   1.782   0.454   3.247
  374SOL    HW2 1237   1.737   0.310   3.184
  375SOL     OW 1238   0.255   1.348   2.152
  375SOL    HW1 1239   0.159   1.349   2.125
  375SOL    HW2 1240   0.267   1.401   2.236
  376SOL     OW 1241   0.105   1.013   3.588
  376SOL    HW1 1242   0.028   0.980   3.642
  376SOL    HW2 1243   0.190   0.983   3.630
  377SOL     OW 1244   0.672   0.203   3.351
  377SOL    HW1 1245   0.762   0.187   3.311
  377SOL    HW2 1246   0.680   0.208   3.450
  378SOL     OW 1247   0.075   0.345   1.895
  378SOL    HW1 1248  -0.017   0.317   1.866
  378SOL    HW2 1249   0.106   0.422   1.839
  379SOL     OW 1250   1.440   0.856   3.260
  379SOL    HW1 1251   1.383   0.908   3.197
  379SOL    HW2 1252   1.536   0.868   3.236
  380SOL     OW 1253   0.072   0.166   2.180
  380SOL    HW1 1254   0.055   0.249   2.126
  380SOL    HW2 1255   0.162   0.129   2.158
  381SOL     OW 1256   1.183   1.335   1.981
  381SOL    HW1 1257   1.084   1.324   1.983
  381SOL    HW2 1258   1.217   1.350   2.074
  382SOL     OW 1259   0.613   0.842   3.293
  382SOL    HW1 1260   0.669   0.923   3.276
  382SOL    HW2 1261   0.672   0.762   3.296
  383SOL     OW 1262   1.493   1.767   2.821
  383SOL    HW1 1263   1.526   1.831   2.752
  383SOL    HW2 1264   1.559   1.761   2.896
  384SOL     OW 1265   0.716   0.565   3.570
  384SOL    HW1 1266   0.735   0.630   3.644
  384SOL    HW2 1267   0.776   0.485   3.579
  385SOL     OW 1268   1.450   1.220   3.495
  385SOL    HW1 1269   1.441   1.210   3.594
  385SOL    HW2 1270   1.546   1.213   3.469
  386SOL     OW 1271   0.390   1.741   3.422
  386SOL    HW1 1272   0.299   1.782   3.420
  386SOL    HW2 1273   0.383   1.647   3.454
  387SOL     OW 1274   1.674   0.883   3.116
  387SOL    HW1 1275   1.647   0.794   3.079
  387SOL    HW2 1276   1.675   0.951   3.043
  388SOL     OW 1277   1.225   0.325   2.311
  388SOL    HW1 1278   1.290   0.251   2.300
  388SOL    HW2 1279   1.245   0.375   2.395
  389SOL     OW 1280   0.594   0.745   2.514
  389SOL    HW1 1281   0.644   0.830   2.495
  389SOL    HW2 1282   0.506   0.747   2.466
  390SOL     OW 1283   1.777   0.342   3.504
  390SOL    HW1 1284   1.760   0.373   3.410
  390SOL    HW2 1285   1.693   0.305   3.542
  391SOL     OW 1286   1.730   0.934   3.379
  391SOL    HW1 1287   1.768   1.025   3.394
  391SOL    HW2 1288   1.722   0.917   3.280
  392SOL     OW 1289   0.859   1.374   1.878
  392SOL    HW1 1290   0.813   1.389   1.966
  392SOL    HW2 1291   0.903   1.459   1.848
  393SOL     OW 1292   0.661   1.790   2.815
  393SOL    HW1 1293   0.615   1.878   2.802
  393SOL    HW2 1294   0.760   1.802   2.808
  394SOL     OW 1295   0.859   0.956   2.723
  394SOL    HW1 1296   0.913   0.887   2.771
  394SOL    HW2 1297   0.827   1.025   2.789
  395SOL     OW 1298   1.083   0.984   1.949
  395SOL    HW1 1299   1.060   1.037   1.867
  395SOL    HW2 1300   1.164   0.928   1.930
  396SOL     OW 1301   1.861   1.569   2.713
  396SOL    HW1 1302   1.790   1.557   2.643
  396SOL    HW2 1303   1.862   1.490   2.773
  397SOL     OW 1304   0.221   1.314   3.706
  397SOL    HW1 1305   0.156   1.241   3.685
  397SOL    HW2 1306   0.225   1.328   3.804
  398SOL     OW 1307   0.079   1.240   2.515
  398SOL    HW1 1308   0.078   1.193   2.603
  398SOL    HW2 1309   0.161   1.212   2.464
  399SOL     OW 1310   0.672   1.391   3.486
  399SOL    HW1 1311   0.594   1.341   3.524
  399SOL    HW2 1312   0.669   1.486   3.517
  400SOL     OW 1313   1.824   0.192   3.089
  400SOL    HW1 1314   1.820   0.102   3.133
  400SOL    HW2 1315   1.827   0.181   2.990
  401SOL     OW 1316   0.428   0.424   2.382
  401SOL    HW1 1317   0.458   0.352   2.320
  401SOL    HW2 1318   0.389   0.384   2.465
  402SOL     OW 1319   0.317   0.547   3.142
  402SOL    HW1 1320   0.355   0.488   3.214
  402SOL    HW2 1321   0.357   0.521   3.054
  403SOL     OW 1322   0.812   1.586   2.549
  403SOL    HW1 1323   0.844   1.596   2.455
  403SOL    HW2 1324   0.733   1.524   2.551
  404SOL     OW 1325   1.424   0.214   2.974
  404SOL    HW1 1326   1.476   0.149   3.029
  404SOL    HW2 1327   1.375   0.277   3.035
  405SOL     OW 1328   1.001   0.034   3.016
  405SOL    HW1 1329   0.938  -0.038   2.985
  405SOL    HW2 1330   1.094  -0.002   3.016
  406SOL     OW 1331   0.770   1.330   2.163
  406SOL    HW1 1332   0.724   1.243   2.180
  406SOL    HW2 1333   0.861   1.327   2.204
  407SOL     OW 1334   0.618   1.567   3.146
  407SOL    HW1 1335   0.613   1.649   3.203
  407SOL    HW2 1336   0.707   1.564   3.101
  408SOL     OW 1337   1.352   0.052   2.030
  408SOL    HW1 1338   1.387   0.011   1.946
  408SOL    HW2 1339   1.262   0.014   2.050
  409SOL     OW 1340   1.300   0.453   2.553
  409SOL    HW1 1341   1.241   0.533   2.557
  409SOL    HW2 1342   1.315   0.418   2.646
  410SOL     OW 1343   1.593   0.221   2.744
  410SOL    HW1 1344   1.509   0.220   2.798
  410SOL    HW2 1345   1.595   0.304   2.688
  411SOL     OW 1346   0.039   1.077   2.162
  411SOL    HW1 1347   0.138   1.066   2.153
  411SOL    HW2 1348  -0.001   0.991   2.194
  412SOL     OW 1349   0.875   1.646   2.199
  412SOL    HW1 1350   0.798   1.611   2.145
  412SOL    HW2 1351   0.843   1.717   2.261
  413SOL     OW 1352   0.230   0.628   3.837
  413SOL    HW1 1353   0.137   0.626   3.874
  413SOL    HW2 1354   0.231   0.589   3.745
  414SOL     OW 1355   0.225   0.275   4.720
  414SOL    HW1 1356   0.260   0.258   4.812
  414SOL    HW2 1357   0.137   0.230   4.708
  415SOL     OW 1358   0.019   0.368   4.371
  415SOL    HW1 1359  -0.063   0.411   4.410
  415SOL    HW2 1360  -0.009   0.295   4.308
  416SOL     OW 1361   0.569   1.275   4.889
  416SOL    HW1 1362   0.476   1.268   4.852
  416SOL    HW2 1363   0.580   1.364   4.933
  417SOL     OW 1364   1.555   1.511   4.427
  417SOL    HW1 1365   1.498   1.495   4.508
  417SOL    HW2 1366   1.496   1.521   4.347
  418SOL     OW 1367   1.135   0.703   4.441
  418SOL    HW1 1368   1.192   0.781   4.416
  418SOL    HW2 1369   1.075   0.729   4.517
  419SOL     OW 1370   1.755   0.607   3.955
  419SOL    HW1 1371   1.743   0.594   3.856
  419SOL    HW2 1372   1.725   0.526   4.004
  420SOL     OW 1373   0.768   1.144   4.747
  420SOL    HW1 1374   0.690   1.161   4.807
  420SOL    HW2 1375   0.802   1.231   4.711
  421SOL     OW 1376   0.685   1.012   4.389
  421SOL    HW1 1377   0.754   0.996   4.459
  421SOL    HW2 1378   0.612   1.069   4.427
  422SOL     OW 1379   0.335   1.435   4.785
  422SOL    HW1 1380   0.257   1.404   4.732
  422SOL    HW2 1381   0.393   1.493   4.728
  423SOL     OW 1382   1.603   0.447   4.461
  423SOL    HW1 1383   1.529   0.493   4.411
  423SOL    HW2 1384   1.654   0.515   4.514
  424SOL     OW 1385   0.231   1.713   4.207
  424SOL    HW1 1386   0.265   1.790   4.261
  424SOL    HW2 1387   0.275   1.713   4.117
  425SOL     OW 1388   0.230   1.434   4.262
  425SOL    HW1 1389   0.204   1.530   4.262
  425SOL    HW2 1390   0.159   1.380   4.307
  426SOL     OW 1391   0.240   1.091   4.610
  426SOL    HW1 1392   0.254   1.007   4.662
  426SOL    HW2 1393   0.185   1.155   4.665
  427SOL     OW 1394   0.620   1.786   5.163
  427SOL    HW1 1395   0.528   1.769   5.198
  427SOL    HW2 1396   0.648   1.878   5.189
  428SOL     OW 1397   0.606   0.964   3.847
  428SOL    HW1 1398   0.613   1.048   3.793
  428SOL    HW2 1399   0.652   0.977   3.935
  429SOL     OW 1400   0.122   0.643   4.287
  429SOL    HW1 1401   0.077   0.555   4.304
  429SOL    HW2 1402   0.121   0.697   4.371
  430SOL     OW 1403   1.842   1.767   4.083
  430SOL    HW1 1404   1.896   1.738   4.163
  430SOL    HW2 1405   1.872   1.857   4.054
  431SOL     OW 1406   0.027   1.596   3.841
  431SOL    HW1 1407   0.008   1.500   3.862
  431SOL    HW2 1408  -0.006   1.654   3.916
  432SOL     OW 1409   1.689   0.922   4.336
  432SOL    HW1 1410   1.784   0.893   4.344
  432SOL    HW2 1411   1.681   0.987   4.261
  433SOL     OW 1412   1.641   1.108   4.156
  433SOL    HW1 1413   1.727   1.110   4.104
  433SOL    HW2 1414   1.655   1.155   4.244
  434SOL     OW 1415   0.613   1.365   4.450
  434SOL    HW1 1416   0.564   1.278   4.459
  434SOL    HW2 1417   0.590   1.408   4.363
  435SOL     OW 1418   0.809   0.004   4.226
  435SOL    HW1 1419   0.849   0.095   4.217
  435SOL    HW2 1420   0.709   0.012   4.232
  436SOL     OW 1421   0.197   0.976   4.988
  436SOL    HW1 1422   0.286   0.931   4.974
  436SOL    HW2 1423   0.124   0.911   4.969
  437SOL     OW 1424   1.525   0.999   3.914
  437SOL    HW1 1425   1.462   0.923   3.927
  437SOL    HW2 1426   1.573   1.017   4.000
  438SOL     OW 1427   1.466   1.417   4.677
  438SOL    HW1 1428   1.407   1.423   4.757
  438SOL    HW2 1429   1.451   1.329   4.631
  439SOL     OW 1430   1.667   1.714   4.296
  439SOL    HW1 1431   1.626   1.691   4.208
  439SOL    HW2 1432   1.649   1.640   4.361
  440SOL     OW 1433   0.598   0.729   3.994
  440SOL    HW1 1434   0.622   0.798   3.926
  440SOL    HW2 1435   0.520   0.762   4.048
  441SOL     OW 1436   1.281   0.345   4.668
  441SOL    HW1 1437   1.195   0.295   4.655
  441SOL    HW2 1438   1.343   0.291   4.724
  442SOL     OW 1439   1.576   1.662   4.031
  442SOL    HW1 1440   1.665   1.708   4.034
  442SOL    HW2 1441   1.555   1.638   3.936
  443SOL     OW 1442   0.991   0.410   4.966
  443SOL    HW1 1443   0.914   0.444   5.020
  443SOL    HW2 1444   0.957   0.359   4.887
  444SOL     OW 1445   1.041   0.701   4.153
  444SOL    HW1 1446   1.067   0.697   4.249
  444SOL    HW2 1447   0.956   0.650   4.139
  445SOL     OW 1448   0.076   0.811   4.513
  445SOL    HW1 1449   0.175   0.799   4.522
  445SOL    HW2 1450   0.052   0.906   4.534
  446SOL     OW 1451   0.130   1.821   5.295
  446SOL    HW1 1452   0.120   1.806   5.394
  446SOL    HW2 1453   0.044   1.857   5.259
  447SOL     OW 1454   0.865   0.348   3.919
  447SOL    HW1 1455   0.924   0.411   3.870
  447SOL    HW2 1456   0.884   0.254   3.890
  448SOL     OW 1457   1.362   1.144   4.269
  448SOL    HW1 1458   1.445   1.115   4.221
  448SOL    HW2 1459   1.313   1.211   4.213
  449SOL     OW 1460   0.550   0.196   4.609
  449SOL    HW1 1461   0.545   0.191   4.709
  449SOL    HW2 1462   0.552   0.292   4.580
  450SOL     OW 1463   1.008   1.456   4.201
  450SOL    HW1 1464   0.962   1.528   4.149
  450SOL    HW2 1465   1.004   1.476   4.299
  451SOL     OW 1466   0.351   1.801   4.577
  451SOL    HW1 1467   0.401   1.715   4.583
  451SOL    HW2 1468   0.416   1.878   4.574
  452SOL     OW 1469   1.795   1.066   4.597
  452SOL    HW1 1470   1.733   1.051   4.521
  452SOL    HW2 1471   1.743   1.077   4.682
  453SOL     OW 1472   0.321   0.943   3.966
  453SOL    HW1 1473   0.403   0.982   3.924
  453SOL    HW2 1474   0.294   0.861   3.917
  454SOL     OW 1475   1.458   0.735   4.452
  454SOL    HW1 1476   1.453   0.670   4.527
  454SOL    HW2 1477   1.538   0.794   4.465
  455SOL     OW 1478   1.111   1.776   3.961
  455SOL    HW1 1479   1.051   1.714   4.011
  455SOL    HW2 1480   1.142   1.732   3.876
  456SOL     OW 1481   1.632   1.377   3.805
  456SOL    HW1 1482   1.600   1.471   3.795
  456SOL    HW2 1483   1.556   1.314   3.793
  457SOL     OW 1484   0.464   1.743   4.047
  457SOL    HW1 1485   0.497   1.782   4.133
  457SOL    HW2 1486   0.540   1.736   3.982
  458SOL     OW 1487   1.400   0.107   4.150
  458SOL    HW1 1488   1.376   0.070   4.060
  458SOL    HW2 1489   1.499   0.123   4.154
  459SOL     OW 1490   0.249   1.785   4.965
  459SOL    HW1 1491   0.306   1.720   5.015
  459SOL    HW2 1492   0.233   1.752   4.872
  460SOL     OW 1493   0.940   1.698   4.628
  460SOL    HW1 1494   1.020   1.641   4.649
  460SOL    HW2 1495   0.891   1.658   4.551
  461SOL     OW 1496   0.382   0.700   4.204
  461SOL    HW1 1497   0.427   0.610   4.201
  461SOL    HW2 1498   0.288   0.689   4.237
  462SOL     OW 1499   0.614   0.122   3.841
  462SOL    HW1 1500   0.712   0.100   3.848
  462SOL    HW2 1501   0.583   0.105   3.748
  463SOL     OW 1502   0.803   1.402   4.648
  463SOL    HW1 1503   0.893   1.416   4.606
  463SOL    HW2 1504   0.732   1.404   4.577
  464SOL     OW 1505   0.922   0.503   4.623
  464SOL    HW1 1506   0.897   0.494   4.527
  464SOL    HW2 1507   0.970   0.421   4.654
  465SOL     OW 1508   0.539   0.064   4.236
  465SOL    HW1 1509   0.458   0.065   4.294
  465SOL    HW2 1510   0.542   0.147   4.181
  466SOL     OW 1511   1.434   1.188   3.765
  466SOL    HW1 1512   1.466   1.112   3.822
  466SOL    HW2 1513   1.342   1.215   3.795
  467SOL     OW 1514   0.297   0.035   3.895
  467SOL    HW1 1515   0.346   0.119   3.874
  467SOL    HW2 1516   0.359  -0.030   3.940
  468SOL     OW 1517   0.935   0.236   4.204
  468SOL    HW1 1518   0.887   0.277   4.126
  468SOL    HW2 1519   1.034   0.234   4.185
  469SOL     OW 1520   1.227   1.570   4.517
  469SOL    HW1 1521   1.248   1.644   4.452
  469SOL    HW2 1522   1.295   1.570   4.590
  470SOL     OW 1523   0.459   1.152   4.465
  470SOL    HW1 1524   0.388   1.125   4.530
  470SOL    HW2 1525   0.433   1.124   4.372
  471SOL     OW 1526   1.271   1.797   4.315
  471SOL    HW1 1527   1.315   1.861   4.251
  471SOL    HW2 1528   1.221   1.849   4.385
  472SOL     OW 1529   1.032   0.549   3.740
  472SOL    HW1 1530   0.991   0.631   3.701
  472SOL    HW2 1531   1.096   0.575   3.813
  473SOL     OW 1532   0.561   0.222   4.871
  473SOL    HW1 1533   0.599   0.138   4.908
  473SOL    HW2 1534   0.473   0.241   4.915
  474SOL     OW 1535   0.866   0.454   4.366
  474SOL    HW1 1536   0.834   0.526   4.304
  474SOL    HW2 1537   0.890   0.373   4.313
  475SOL     OW 1538   1.017   0.039   4.477
  475SOL    HW1 1539   0.945   0.044   4.408
  475SOL    HW2 1540   0.993  -0.030   4.546
  476SOL     OW 1541   1.429   1.173   4.591
  476SOL    HW1 1542   1.374   1.089   4.584
  476SOL    HW2 1543   1.455   1.202   4.499
  477SOL     OW 1544   1.466   0.590   4.716
  477SOL    HW1 1545   1.436   0.495   4.723
  477SOL    HW2 1546   1.539   0.606   4.782
  478SOL     OW 1547   1.857   0.833   4.101
  478SOL    HW1 1548   1.899   0.769   4.165
  478SOL    HW2 1549   1.819   0.782   4.023
  479SOL     OW 1550   0.488   1.385   3.898
  479SOL    HW1 1551   0.401   1.370   3.945
  479SOL    HW2 1552   0.471   1.411   3.803
  480SOL     OW 1553   1.664   1.280   4.381
  480SOL    HW1 1554   1.763   1.288   4.395
  480SOL    HW2 1555   1.619   1.364   4.412
  481SOL     OW 1556   1.390   0.575   3.802
  481SOL    HW1 1557   1.336   0.554   3.883
  481SOL    HW2 1558   1.481   0.534   3.811
  482SOL     OW 1559   0.527   0.256   4.052
  482SOL    HW1 1560   0.554   0.197   3.977
  482SOL    HW2 1561   0.527   0.351   4.021
  483SOL     OW 1562   1.111   1.195   4.824
  483SOL    HW1 1563   1.071   1.239   4.905
  483SOL    HW2 1564   1.070   1.232   4.741
  484SOL     OW 1565   1.638   1.099   4.803
  484SOL    HW1 1566   1.643   1.180   4.862
  484SOL    HW2 1567   1.552   1.101   4.752
  485SOL     OW 1568   0.705   1.050   4.092
  485SOL    HW1 1569   0.691   1.057   4.191
  485SOL    HW2 1570   0.789   0.999   4.074
  486SOL     OW 1571   0.410   0.813   4.975
  486SOL    HW1 1572   0.496   0.825   5.025
  486SOL    HW2 1573   0.368   0.726   5.002
  487SOL     OW 1574   1.274   0.386   4.986
  487SOL    HW1 1575   1.295   0.460   5.050
  487SOL    HW2 1576   1.185   0.403   4.943
  488SOL     OW 1577   0.367   1.100   4.225
  488SOL    HW1 1578   0.360   1.183   4.169
  488SOL    HW2 1579   0.371   1.020   4.165
  489SOL     OW 1580   0.566   0.537   4.589
  489SOL    HW1 1581   0.578   0.603   4.515
  489SOL    HW2 1582   0.612   0.571   4.672
  490SOL     OW 1583   1.252   1.348   4.112
  490SOL    HW1 1584   1.302   1.425   4.152
  490SOL    HW2 1585   1.157   1.350   4.144
  491SOL     OW 1586   1.272   1.445   4.866
  491SOL    HW1 1587   1.319   1.458   4.953
  491SOL    HW2 1588   1.206   1.371   4.875
  492SOL     OW 1589   1.582   0.639   4.196
  492SOL    HW1 1590   1.551   0.700   4.269
  492SOL    HW2 1591   1.632   0.691   4.127
  493SOL     OW 1592   0.354   1.510   5.053
  493SOL    HW1 1593   0.333   1.466   4.966
  493SOL    HW2 1594   0.451   1.536   5.056
  494SOL     OW 1595   0.573   0.870   4.753
  494SOL    HW1 1596   0.617   0.959   4.744
  494SOL    HW2 1597   0.510   0.870   4.830
  495SOL     OW 1598   1.360   0.862   4.769
  495SOL    HW1 1599   1.285   0.862   4.703
  495SOL    HW2 1600   1.397   0.770   4.778
  496SOL     OW 1601   1.209   0.525   3.999
  496SOL    HW1 1602   1.222   0.441   4.053
  496SOL    HW2 1603   1.180   0.599   4.059
  497SOL     OW 1604   0.307   0.213   4.955
  497SOL    HW1 1605   0.284   0.250   5.045
  497SOL    HW2 1606   0.277   0.118   4.949
  498SOL     OW 1607   0.037   1.310   5.006
  498SOL    HW1 1608   0.090   1.261   5.074
  498SOL    HW2 1609   0.059   1.408   5.011
  499SOL     OW 1610   0.732   0.634   4.788
  499SOL    HW1 1611   0.791   0.608   4.712
  499SOL    HW2 1612   0.704   0.730   4.777
  500SOL     OW 1613   0.307   0.063   4.342
  500SOL    HW1 1614   0.296   0.157   4.375
  500SOL    HW2 1615   0.302   0.000   4.419
  501SOL     OW 1616   1.622   0.367   4.098
  501SOL    HW1 1617   1.624   0.291   4.162
  501SOL    HW2 1618   1.574   0.444   4.138
  502SOL     OW 1619   1.023   0.766   4.690
  502SOL    HW1 1620   1.038   0.787   4.786
  502SOL    HW2 1621   0.993   0.671   4.681
  503SOL     OW 1622   1.540   0.274   3.849
  503SOL    HW1 1623   1.479   0.199   3.872
  503SOL    HW2 1624   1.562   0.326   3.932
  504SOL     OW 1625   1.303   0.838   3.766
  504SOL    HW1 1626   1.337   0.745   3.781
  504SOL    HW2 1627   1.321   0.865   3.671
  505SOL     OW 1628   1.068   1.333   4.573
  505SOL    HW1 1629   1.075   1.249   4.518
  505SOL    HW2 1630   1.130   1.402   4.537
  506SOL     OW 1631   0.319   0.810   4.673
  506SOL    HW1 1632   0.412   0.846   4.678
  506SOL    HW2 1633   0.313   0.725   4.725
  507SOL     OW 1634   0.339   0.509   4.730
  507SOL    HW1 1635   0.287   0.426   4.713
  507SOL    HW2 1636   0.416   0.514   4.666
  508SOL     OW 1637   1.160   0.207   5.201
  508SOL    HW1 1638   1.160   0.271   5.278
  508SOL    HW2 1639   1.188   0.255   5.118
  509SOL     OW 1640   0.008   1.326   3.924
  509SOL    HW1 1641  -0.085   1.347   3.893
  509SOL    HW2 1642   0.018   1.227   3.937
  510SOL     OW 1643   0.088   1.801   4.651
  510SOL    HW1 1644   0.046   1.715   4.624
  510SOL    HW2 1645   0.182   1.804   4.617
  511SOL     OW 1646   0.504   1.568   4.634
  511SOL    HW1 1647   0.570   1.642   4.643
  511SOL    HW2 1648   0.548   1.489   4.592
  512SOL     OW 1649   1.002   0.796   4.962
  512SOL    HW1 1650   1.043   0.764   5.048
  512SOL    HW2 1651   0.906   0.769   4.959
  513SOL     OW 1652   0.040   0.544   4.838
  513SOL    HW1 1653   0.125   0.511   4.797
  513SOL    HW2 1654   0.053   0.559   4.936
  514SOL     OW 1655   0.815   0.572   4.049
  514SOL    HW1 1656   0.822   0.483   4.003
  514SOL    HW2 1657   0.721   0.606   4.041
  515SOL     OW 1658   1.657   0.604   4.930
  515SOL    HW1 1659   1.619   0.535   4.992
  515SOL    HW2 1660   1.739   0.568   4.886
  516SOL     OW 1661   0.671   0.464   4.993
  516SOL    HW1 1662   0.637   0.375   4.963
  516SOL    HW2 1663   0.697   0.518   4.913
  517SOL     OW 1664   0.930   1.678   5.189
  517SOL    HW1 1665   0.906   1.660   5.094
  517SOL    HW2 1666   0.960   1.772   5.199
  518SOL     OW 1667   0.473   0.500   3.915
  518SOL    HW1 1668   0.534   0.580   3.919
  518SOL    HW2 1669   0.378   0.531   3.922
  519SOL     OW 1670   1.347   1.059   4.958
  519SOL    HW1 1671   1.371   0.996   4.884
  519SOL    HW2 1672   1.257   1.099   4.940
  520SOL     OW 1673   1.302   0.855   4.033
  520SOL    HW1 1674   1.216   0.824   4.075
  520SOL    HW2 1675   1.298   0.841   3.934
  521SOL     OW 1676   1.759   1.747   4.878
  521SOL    HW1 1677   1.820   1.777   4.805
  521SOL    HW2 1678   1.721   1.658   4.856
  522SOL     OW 1679   1.252   1.731   4.852
  522SOL    HW1 1680   1.336   1.736   4.798
  522SOL    HW2 1681   1.229   1.635   4.870
  523SOL     OW 1682   0.083   1.258   4.746
  523SOL    HW1 1683   0.078   1.257   4.846
  523SOL    HW2 1684   0.000   1.217   4.708
  524SOL     OW 1685   1.726   0.135   4.247
  524SOL    HW1 1686   1.799   0.118   4.180
  524SOL    HW2 1687   1.695   0.048   4.285
  525SOL     OW 1688   1.388   1.573   4.201
  525SOL    HW1 1689   1.455   1.585   4.127
  525SOL    HW2 1690   1.348   1.662   4.224
  526SOL     OW 1691   1.280   0.927   4.396
  526SOL    HW1 1692   1.340   0.846   4.398
  526SOL    HW2 1693   1.320   0.996   4.336
  527SOL     OW 1694   0.672   1.616   3.878
  527SOL    HW1 1695   0.681   1.626   3.779
  527SOL    HW2 1696   0.632   1.527   3.899
  528SOL     OW 1697   1.650   1.720   5.118
  528SOL    HW1 1698   1.703   1.730   5.034
  528SOL    HW2 1699   1.623   1.810   5.152
  529SOL     OW 1700   1.841   0.175   4.687
  529SOL    HW1 1701   1.880   0.090   4.651
  529SOL    HW2 1702   1.743   0.177   4.668
  530SOL     OW 1703   0.263   0.326   4.444
  530SOL    HW1 1704   0.184   0.377   4.410
  530SOL    HW2 1705   0.254   0.311   4.542
  531SOL     OW 1706   1.194   1.612   3.755
  531SOL    HW1 1707   1.200   1.519   3.792
  531SOL    HW2 1708   1.135   1.612   3.675
  532SOL     OW 1709   0.822   1.002   5.096
  532SOL    HW1 1710   0.862   1.001   5.004
  532SOL    HW2 1711   0.832   1.094   5.136
  533SOL     OW 1712   0.916   0.910   4.015
  533SOL    HW1 1713   0.979   0.948   3.947
  533SOL    HW2 1714   0.956   0.827   4.054
  534SOL     OW 1715   1.504   1.607   3.768
  534SOL    HW1 1716   1.412   1.644   3.775
  534SOL    HW2 1717   1.542   1.627   3.678
  535SOL     OW 1718   1.039   1.098   4.420
  535SOL    HW1 1719   0.969   1.051   4.474
  535SOL    HW2 1720   1.098   1.030   4.377
  536SOL     OW 1721   1.014   0.236   4.695
  536SOL    HW1 1722   1.006   0.200   4.602
  536SOL    HW2 1723   1.012   0.160   4.760
  537SOL     OW 1724   0.590   1.487   4.215
  537SOL    HW1 1725   0.632   1.429   4.145
  537SOL    HW2 1726   0.546   1.566   4.171
  538SOL     OW 1727   1.709   0.385   5.105
  538SOL    HW1 1728   1.782   0.454   5.109
  538SOL    HW2 1729   1.737   0.310   5.046
  539SOL     OW 1730   0.255   1.348   4.014
  539SOL    HW1 1731   0.159   1.349   3.987
  539SOL    HW2 1732   0.267   1.401   4.098
  540SOL     OW 1733   0.075   0.345   3.757
  540SOL    HW1 1734  -0.017   0.317   3.728
  540SOL    HW2 1735   0.106   0.422   3.701
  541SOL     OW 1736   0.072   0.166   4.042
  541SOL    HW1 1737   0.055   0.249   3.988
  541SOL    HW2 1738   0.162   0.129   4.020
  542SOL     OW 1739   1.183   1.335   3.843
  542SOL    HW1 1740   1.084   1.324   3.845
  542SOL    HW2 1741   1.217   1.350   3.936
  543SOL     OW 1742   1.493   1.767   4.683
  543SOL    HW1 1743   1.526   1.831   4.614
  543SOL    HW2 1744   1.559   1.761   4.758
  544SOL     OW 1745   1.450   1.220   5.357
  544SOL    HW1 1746   1.441   1.210   5.456
  544SOL    HW2 1747   1.546   1.213   5.331
  545SOL     OW 1748   1.674   0.883   4.978
  545SOL    HW1 1749   1.647   0.794   4.941
  545SOL    HW2 1750   1.675   0.951   4.905
  546SOL     OW 1751   1.225   0.325   4.173
  546SOL    HW1 1752   1.290   0.251   4.162
  546SOL    HW2 1753   1.245   0.375   4.257
  547SOL     OW 1754   0.594   0.745   4.376
  547SOL    HW1 1755   0.644   0.830   4.357
  547SOL    HW2 1756   0.506   0.747   4.328
  548SOL     OW 1757   1.730   0.934   5.241
  548SOL    HW1 1758   1.768   1.025   5.256
  548SOL    HW2 1759   1.722   0.917   5.142
  549SOL     OW 1760   0.859   1.374   3.740
  549SOL    HW1 1761   0.813   1.389   3.828
  549SOL    HW2 1762   0.903   1.459   3.710
  550SOL     OW 1763   0.661   1.790   4.677
  550SOL    HW1 1764   0.615   1.878   4.664
  550SOL    HW2 1765   0.760   1.802   4.670
  551SOL     OW 1766   0.859   0.956   4.585
  551SOL    HW1 1767   0.913   0.887   4.633
  551SOL    HW2 1768   0.827   1.025   4.651
  552SOL     OW 1769   1.083   0.984   3.811
  552SOL    HW1 1770   1.060   1.037   3.729
  552SOL    HW2 1771   1.164   0.928   3.792
  553SOL     OW 1772   1.861   1.569   4.575
  553SOL    HW1 1773   1.790   1.557   4.505
  553SOL    HW2 1774   1.862   1.490   4.635
  554SOL     OW 1775   0.079   1.240   4.377
  554SOL    HW1 1776   0.078   1.193   4.465
  554SOL    HW2 1777   0.161   1.212   4.326
  555SOL     OW 1778   1.824   0.192   4.951
  555SOL    HW1 1779   1.820   0.102   4.995
  555SOL    HW2 1780   1.827   0.181   4.852
  556SOL     OW 1781   0.428   0.424   4.244
  556SOL    HW1 1782   0.458   0.352   4.182
  556SOL    HW2 1783   0.389   0.384   4.327
  557SOL     OW 1784   1.705   1.487   4.828
  557SOL    HW1 1785   1.612   1.462   4.801
  557SOL    HW2 1786   1.731   1.437   4.910
  558SOL     OW 1787   0.812   1.586   4.411
  558SOL    HW1 1788   0.844   1.596   4.317
  558SOL    HW2 1789   0.733   1.524   4.413
  559SOL     OW 1790   1.424   0.214   4.836
  559SOL    HW1 1791   1.476   0.149   4.891
  559SOL    HW2 1792   1.375   0.277   4.897
  560SOL     OW 1793   1.001   0.034   4.878
  560SOL    HW1 1794   0.938  -0.038   4.847
  560SOL    HW2 1795   1.094  -0.002   4.878
  561SOL     OW 1796   0.770   1.330   4.025
  561SOL    HW1 1797   0.724   1.243   4.042
  561SOL    HW2 1798   0.861   1.327   4.066
  562SOL     OW 1799   1.352   0.052   3.892
  562SOL    HW1 1800   1.387   0.011   3.808
  562SOL    HW2 1801   1.262   0.014   3.912
  563SOL     OW 1802   1.300   0.453   4.415
  563SOL    HW1 1803   1.241   0.533   4.419
  563SOL    HW2 1804   1.315   0.418   4.508
  564SOL     OW 1805   1.593   0.221   4.606
  564SOL    HW1 1806   1.509   0.220   4.660
  564SOL    HW2 1807   1.595   0.304   4.550
  565SOL     OW 1808   0.039   1.077   4.024
  565SOL    HW1 1809   0.138   1.066   4.015
  565SOL    HW2 1810  -0.001   0.991   4.056
  566SOL     OW 1811   0.875   1.646   4.061
  566SOL    HW1 1812   0.798   1.611   4.007
  566SOL    HW2 1813   0.843   1.717   4.123
  567SOL     OW 1814   0.230   2.490   0.113
  567SOL    HW1 1815   0.137   2.488   0.150
  567SOL    HW2 1816   0.231   2.451   0.021
  568SOL     OW 1817   0.225   2.137   0.996
  568SOL    HW1 1818   0.260   2.120   1.088
  568SOL    HW2 1819   0.137   2.092   0.984
  569SOL     OW 1820   0.019   2.230   0.647
  569SOL    HW1 1821  -0.063   2.273   0.686
  569SOL    HW2 1822  -0.009   2.157   0.584
  570SOL     OW 1823   0.569   3.137   1.165
  570SOL    HW1 1824   0.476   3.130   1.128
  570SOL    HW2 1825   0.580   3.226   1.209
  571SOL     OW 1826   1.555   3.373   0.703
  571SOL    HW1 1827   1.498   3.357   0.784
  571SOL    HW2 1828   1.496   3.383   0.623
  572SOL     OW 1829   1.135   2.565   0.717
  572SOL    HW1 1830   1.192   2.643   0.692
  572SOL    HW2 1831   1.075   2.591   0.793
  573SOL     OW 1832   1.755   2.469   0.231
  573SOL    HW1 1833   1.743   2.456   0.132
  573SOL    HW2 1834   1.725   2.388   0.280
  574SOL     OW 1835   0.768   3.006   1.023
  574SOL    HW1 1836   0.690   3.023   1.083
  574SOL    HW2 1837   0.802   3.093   0.987
  575SOL     OW 1838   0.850   2.660   1.823
  575SOL    HW1 1839   0.846   2.736   1.888
  575SOL    HW2 1840   0.872   2.696   1.732
  576SOL     OW 1841   0.685   2.874   0.665
  576SOL    HW1 1842   0.754   2.858   0.735
  576SOL    HW2 1843   0.612   2.931   0.703
  577SOL     OW 1844   0.686   3.023   1.803
  577SOL    HW1 1845   0.746   3.102   1.817
  577SOL    HW2 1846   0.600   3.054   1.762
  578SOL     OW 1847   0.335   3.297   1.061
  578SOL    HW1 1848   0.257   3.266   1.008
  578SOL    HW2 1849   0.393   3.355   1.004
  579SOL     OW 1850   1.460   3.367   1.339
  579SOL    HW1 1851   1.484   3.461   1.365
  579SOL    HW2 1852   1.444   3.313   1.421
  580SOL     OW 1853   0.438   2.254   1.499
  580SOL    HW1 1854   0.520   2.198   1.508
  580SOL    HW2 1855   0.357   2.196   1.503
  581SOL     OW 1856   1.603   2.309   0.737
  581SOL    HW1 1857   1.529   2.355   0.687
  581SOL    HW2 1858   1.654   2.377   0.790
  582SOL     OW 1859   0.231   3.575   0.483
  582SOL    HW1 1860   0.265   3.652   0.537
  582SOL    HW2 1861   0.275   3.575   0.393
  583SOL     OW 1862   1.127   3.203   1.690
  583SOL    HW1 1863   1.174   3.203   1.778
  583SOL    HW2 1864   1.079   3.116   1.679
  584SOL     OW 1865   0.230   3.296   0.538
  584SOL    HW1 1866   0.204   3.392   0.538
  584SOL    HW2 1867   0.159   3.242   0.583
  585SOL     OW 1868   0.240   2.953   0.886
  585SOL    HW1 1869   0.254   2.869   0.938
  585SOL    HW2 1870   0.185   3.017   0.941
  586SOL     OW 1871   0.620   3.648   1.439
  586SOL    HW1 1872   0.528   3.631   1.474
  586SOL    HW2 1873   0.648   3.740   1.465
  587SOL     OW 1874   0.606   2.826   0.123
  587SOL    HW1 1875   0.613   2.910   0.069
  587SOL    HW2 1876   0.652   2.839   0.211
  588SOL     OW 1877   1.594   1.976   1.480
  588SOL    HW1 1878   1.576   2.043   1.408
  588SOL    HW2 1879   1.591   2.022   1.569
  589SOL     OW 1880   0.122   2.505   0.563
  589SOL    HW1 1881   0.077   2.417   0.580
  589SOL    HW2 1882   0.121   2.559   0.647
  590SOL     OW 1883   1.842   3.629   0.359
  590SOL    HW1 1884   1.896   3.600   0.439
  590SOL    HW2 1885   1.872   3.719   0.330
  591SOL     OW 1886   0.027   3.458   0.117
  591SOL    HW1 1887   0.008   3.362   0.138
  591SOL    HW2 1888  -0.006   3.516   0.192
  592SOL     OW 1889   1.689   2.784   0.612
  592SOL    HW1 1890   1.784   2.755   0.620
  592SOL    HW2 1891   1.681   2.849   0.537
  593SOL     OW 1892   1.641   2.970   0.432
  593SOL    HW1 1893   1.727   2.972   0.380
  593SOL    HW2 1894   1.655   3.017   0.520
  594SOL     OW 1895   0.113   2.599   1.597
  594SOL    HW1 1896   0.201   2.586   1.642
  594SOL    HW2 1897   0.100   2.696   1.575
  595SOL     OW 1898   0.613   3.227   0.726
  595SOL    HW1 1899   0.564   3.140   0.735
  595SOL    HW2 1900   0.590   3.270   0.639
  596SOL     OW 1901   1.293   3.090   1.423
  596SOL    HW1 1902   1.330   3.017   1.365
  596SOL    HW2 1903   1.345   3.095   1.508
  597SOL     OW 1904   0.809   1.866   0.502
  597SOL    HW1 1905   0.849   1.957   0.493
  597SOL    HW2 1906   0.709   1.874   0.508
  598SOL     OW 1907   0.197   2.838   1.264
  598SOL    HW1 1908   0.286   2.793   1.250
  598SOL    HW2 1909   0.124   2.773   1.245
  599SOL     OW 1910   1.525   2.861   0.190
  599SOL    HW1 1911   1.462   2.785   0.203
  599SOL    HW2 1912   1.573   2.879   0.276
  600SOL     OW 1913   1.187   3.654   1.616
  600SOL    HW1 1914   1.211   3.714   1.540
  600SOL    HW2 1915   1.194   3.559   1.586
  601SOL     OW 1916   0.317   2.113   1.801
  601SOL    HW1 1917   0.388   2.184   1.807
  601SOL    HW2 1918   0.229   2.152   1.829
  602SOL     OW 1919   1.466   3.279   0.953
  602SOL    HW1 1920   1.407   3.285   1.033
  602SOL    HW2 1921   1.451   3.191   0.907
  603SOL     OW 1922   1.667   3.576   0.572
  603SOL    HW1 1923   1.626   3.553   0.484
  603SOL    HW2 1924   1.649   3.502   0.637
  604SOL     OW 1925   0.598   2.591   0.270
  604SOL    HW1 1926   0.622   2.660   0.202
  604SOL    HW2 1927   0.520   2.624   0.324
  605SOL     OW 1928   1.281   2.207   0.944
  605SOL    HW1 1929   1.195   2.157   0.931
  605SOL    HW2 1930   1.343   2.153   1.000
  606SOL     OW 1931   1.576   3.524   0.307
  606SOL    HW1 1932   1.665   3.570   0.310
  606SOL    HW2 1933   1.555   3.500   0.212
  607SOL     OW 1934   0.807   2.467   1.465
  607SOL    HW1 1935   0.760   2.464   1.554
  607SOL    HW2 1936   0.756   2.412   1.399
  608SOL     OW 1937   1.394   2.331   1.674
  608SOL    HW1 1938   1.374   2.374   1.762
  608SOL    HW2 1939   1.472   2.269   1.683
  609SOL     OW 1940   0.973   2.752   1.572
  609SOL    HW1 1941   1.019   2.668   1.543
  609SOL    HW2 1942   0.917   2.786   1.497
  610SOL     OW 1943   0.991   2.272   1.242
  610SOL    HW1 1944   0.914   2.306   1.296
  610SOL    HW2 1945   0.957   2.221   1.163
  611SOL     OW 1946   1.041   2.563   0.429
  611SOL    HW1 1947   1.067   2.559   0.525
  611SOL    HW2 1948   0.956   2.512   0.415
  612SOL     OW 1949   0.076   2.673   0.789
  612SOL    HW1 1950   0.175   2.661   0.798
  612SOL    HW2 1951   0.052   2.768   0.810
  613SOL     OW 1952   0.130   3.683   1.571
  613SOL    HW1 1953   0.120   3.668   1.670
  613SOL    HW2 1954   0.044   3.719   1.535
  614SOL     OW 1955   0.865   2.210   0.195
  614SOL    HW1 1956   0.924   2.273   0.146
  614SOL    HW2 1957   0.884   2.116   0.166
  615SOL     OW 1958   1.719   2.447   1.831
  615SOL    HW1 1959   1.693   2.536   1.795
  615SOL    HW2 1960   1.717   2.379   1.758
  616SOL     OW 1961   1.362   3.006   0.545
  616SOL    HW1 1962   1.445   2.977   0.497
  616SOL    HW2 1963   1.313   3.073   0.489
  617SOL     OW 1964   0.550   2.058   0.885
  617SOL    HW1 1965   0.545   2.053   0.985
  617SOL    HW2 1966   0.552   2.154   0.856
  618SOL     OW 1967   1.008   3.318   0.477
  618SOL    HW1 1968   0.962   3.390   0.425
  618SOL    HW2 1969   1.004   3.338   0.575
  619SOL     OW 1970   0.351   3.663   0.853
  619SOL    HW1 1971   0.401   3.577   0.859
  619SOL    HW2 1972   0.416   3.740   0.850
  620SOL     OW 1973   1.795   2.928   0.873
  620SOL    HW1 1974   1.733   2.913   0.797
  620SOL    HW2 1975   1.743   2.939   0.958
  621SOL     OW 1976   1.227   3.412   1.506
  621SOL    HW1 1977   1.233   3.335   1.570
  621SOL    HW2 1978   1.175   3.386   1.426
  622SOL     OW 1979   0.321   2.805   0.242
  622SOL    HW1 1980   0.403   2.844   0.200
  622SOL    HW2 1981   0.294   2.723   0.193
  623SOL     OW 1982   1.458   2.597   0.728
  623SOL    HW1 1983   1.453   2.532   0.803
  623SOL    HW2 1984   1.538   2.656   0.741
  624SOL     OW 1985   0.461   3.128   1.727
  624SOL    HW1 1986   0.411   3.129   1.641
  624SOL    HW2 1987   0.398   3.110   1.803
  625SOL     OW 1988   1.111   3.638   0.237
  625SOL    HW1 1989   1.051   3.576   0.287
  625SOL    HW2 1990   1.142   3.594   0.152
  626SOL     OW 1991   0.202   2.147   1.498
  626SOL    HW1 1992   0.122   2.207   1.485
  626SOL    HW2 1993   0.192   2.098   1.584
  627SOL     OW 1994   1.632   3.239   0.081
  627SOL    HW1 1995   1.600   3.333   0.071
  627SOL    HW2 1996   1.556   3.176   0.069
  628SOL     OW 1997   0.464   3.605   0.323
  628SOL    HW1 1998   0.497   3.644   0.409
  628SOL    HW2 1999   0.540   3.598   0.258
  629SOL     OW 2000   1.400   1.969   0.426
  629SOL    HW1 2001   1.376   1.932   0.336
  629SOL    HW2 2002   1.499   1.985   0.430
  630SOL     OW 2003   0.249   3.647   1.241
  630SOL    HW1 2004   0.306   3.582   1.291
  630SOL    HW2 2005   0.233   3.614   1.148
  631SOL     OW 2006   0.940   3.560   0.904
  631SOL    HW1 2007   1.020   3.503   0.925
  631SOL    HW2 2008   0.891   3.520   0.827
  632SOL     OW 2009   0.382   2.562   0.480
  632SOL    HW1 2010   0.427   2.472   0.477
  632SOL    HW2 2011   0.288   2.551   0.513
  633SOL     OW 2012   1.547   2.084   1.729
  633SOL    HW1 2013   1.542   2.121   1.821
  633SOL    HW2 2014   1.475   2.015   1.717
  634SOL     OW 2015   0.781   2.126   1.749
  634SOL    HW1 2016   0.848   2.065   1.792
  634SOL    HW2 2017   0.708   2.145   1.814
  635SOL     OW 2018   0.888   3.376   1.195
  635SOL    HW1 2019   0.865   3.351   1.101
  635SOL    HW2 2020   0.949   3.307   1.234
  636SOL     OW 2021   1.351   2.452   1.433
  636SOL    HW1 2022   1.379   2.409   1.518
  636SOL    HW2 2023   1.376   2.548   1.434
  637SOL     OW 2024   0.803   3.264   0.924
  637SOL    HW1 2025   0.893   3.278   0.882
  637SOL    HW2 2026   0.732   3.266   0.853
  638SOL     OW 2027   0.922   2.365   0.899
  638SOL    HW1 2028   0.897   2.356   0.803
  638SOL    HW2 2029   0.970   2.283   0.930
  639SOL     OW 2030   0.539   1.926   0.512
  639SOL    HW1 2031   0.458   1.927   0.570
  639SOL    HW2 2032   0.542   2.009   0.457
  640SOL     OW 2033   1.434   3.050   0.041
  640SOL    HW1 2034   1.466   2.974   0.098
  640SOL    HW2 2035   1.342   3.077   0.071
  641SOL     OW 2036   0.297   1.897   0.171
  641SOL    HW1 2037   0.346   1.981   0.150
  641SOL    HW2 2038   0.359   1.832   0.216
  642SOL     OW 2039   0.935   2.098   0.480
  642SOL    HW1 2040   0.887   2.139   0.402
  642SOL    HW2 2041   1.034   2.096   0.461
  643SOL     OW 2042   1.076   2.545   1.464
  643SOL    HW1 2043   0.996   2.484   1.467
  643SOL    HW2 2044   1.157   2.492   1.440
  644SOL     OW 2045   1.227   3.432   0.793
  644SOL    HW1 2046   1.248   3.506   0.728
  644SOL    HW2 2047   1.295   3.432   0.866
  645SOL     OW 2048   0.459   3.014   0.741
  645SOL    HW1 2049   0.388   2.987   0.806
  645SOL    HW2 2050   0.433   2.986   0.648
  646SOL     OW 2051   1.271   3.659   0.591
  646SOL    HW1 2052   1.315   3.723   0.527
  646SOL    HW2 2053   1.221   3.711   0.661
  647SOL     OW 2054   1.032   2.411   0.016
  647SOL    HW1 2055   0.991   2.493  -0.023
  647SOL    HW2 2056   1.096   2.437   0.089
  648SOL     OW 2057   0.078   2.418   1.386
  648SOL    HW1 2058   0.170   2.417   1.345
  648SOL    HW2 2059   0.072   2.492   1.453
  649SOL     OW 2060   0.561   2.084   1.147
  649SOL    HW1 2061   0.599   2.000   1.184
  649SOL    HW2 2062   0.473   2.103   1.191
  650SOL     OW 2063   0.866   2.316   0.642
  650SOL    HW1 2064   0.834   2.388   0.580
  650SOL    HW2 2065   0.890   2.235   0.589
  651SOL     OW 2066   1.017   1.901   0.753
  651SOL    HW1 2067   0.945   1.906   0.684
  651SOL    HW2 2068   0.993   1.832   0.822
  652SOL     OW 2069   1.429   3.035   0.867
  652SOL    HW1 2070   1.374   2.951   0.860
  652SOL    HW2 2071   1.455   3.064   0.775
  653SOL     OW 2072   1.466   2.452   0.992
  653SOL    HW1 2073   1.436   2.357   0.999
  653SOL    HW2 2074   1.539   2.468   1.058
  654SOL     OW 2075   1.857   2.695   0.377
  654SOL    HW1 2076   1.899   2.631   0.441
  654SOL    HW2 2077   1.819   2.644   0.299
  655SOL     OW 2078   0.488   3.247   0.174
  655SOL    HW1 2079   0.401   3.232   0.221
  655SOL    HW2 2080   0.471   3.273   0.079
  656SOL     OW 2081   1.664   3.142   0.657
  656SOL    HW1 2082   1.763   3.150   0.671
  656SOL    HW2 2083   1.619   3.226   0.688
  657SOL     OW 2084   1.390   2.437   0.078
  657SOL    HW1 2085   1.336   2.416   0.159
  657SOL    HW2 2086   1.481   2.396   0.087
  658SOL     OW 2087   0.527   2.118   0.328
  658SOL    HW1 2088   0.554   2.059   0.253
  658SOL    HW2 2089   0.527   2.213   0.297
  659SOL     OW 2090   1.754   3.085   1.588
  659SOL    HW1 2091   1.845   3.046   1.575
  659SOL    HW2 2092   1.762   3.181   1.612
  660SOL     OW 2093   1.064   3.209   1.340
  660SOL    HW1 2094   0.984   3.186   1.395
  660SOL    HW2 2095   1.147   3.183   1.389
  661SOL     OW 2096   1.592   3.491   1.625
  661SOL    HW1 2097   1.619   3.525   1.535
  661SOL    HW2 2098   1.671   3.453   1.671
  662SOL     OW 2099   1.111   3.057   1.100
  662SOL    HW1 2100   1.071   3.101   1.181
  662SOL    HW2 2101   1.070   3.094   1.017
  663SOL     OW 2102   1.638   2.961   1.079
  663SOL    HW1 2103   1.643   3.042   1.138
  663SOL    HW2 2104   1.552   2.963   1.028
  664SOL     OW 2105   0.915   1.951   1.402
  664SOL    HW1 2106   0.940   1.931   1.307
  664SOL    HW2 2107   0.987   2.007   1.444
  665SOL     OW 2108   0.980   2.978   1.719
  665SOL    HW1 2109   0.881   2.984   1.729
  665SOL    HW2 2110   1.003   2.898   1.663
  666SOL     OW 2111   0.705   2.912   0.368
  666SOL    HW1 2112   0.691   2.919   0.467
  666SOL    HW2 2113   0.789   2.861   0.350
  667SOL     OW 2114   0.410   2.675   1.251
  667SOL    HW1 2115   0.496   2.687   1.301
  667SOL    HW2 2116   0.368   2.588   1.278
  668SOL     OW 2117   1.274   2.248   1.262
  668SOL    HW1 2118   1.295   2.322   1.326
  668SOL    HW2 2119   1.185   2.265   1.219
  669SOL     OW 2120   0.064   3.426   1.331
  669SOL    HW1 2121   0.018   3.508   1.297
  669SOL    HW2 2122   0.162   3.445   1.340
  670SOL     OW 2123   0.367   2.962   0.501
  670SOL    HW1 2124   0.360   3.045   0.445
  670SOL    HW2 2125   0.371   2.882   0.441
  671SOL     OW 2126   0.566   2.399   0.865
  671SOL    HW1 2127   0.578   2.465   0.791
  671SOL    HW2 2128   0.612   2.433   0.948
  672SOL     OW 2129   1.252   3.210   0.388
  672SOL    HW1 2130   1.302   3.287   0.428
  672SOL    HW2 2131   1.157   3.212   0.420
  673SOL     OW 2132   1.272   3.307   1.142
  673SOL    HW1 2133   1.319   3.320   1.229
  673SOL    HW2 2134   1.206   3.233   1.151
  674SOL     OW 2135   1.582   2.501   0.472
  674SOL    HW1 2136   1.551   2.562   0.545
  674SOL    HW2 2137   1.632   2.553   0.403
  675SOL     OW 2138   0.354   3.372   1.329
  675SOL    HW1 2139   0.333   3.328   1.242
  675SOL    HW2 2140   0.451   3.398   1.332
  676SOL     OW 2141   0.402   2.613   1.598
  676SOL    HW1 2142   0.470   2.668   1.551
  676SOL    HW2 2143   0.442   2.525   1.625
  677SOL     OW 2144   1.587   2.641   1.670
  677SOL    HW1 2145   1.495   2.679   1.665
  677SOL    HW2 2146   1.647   2.688   1.605
  678SOL     OW 2147   1.013   1.967   1.770
  678SOL    HW1 2148   1.019   2.052   1.718
  678SOL    HW2 2149   1.045   1.891   1.713
  679SOL     OW 2150   0.504   1.912   1.740
  679SOL    HW1 2151   0.462   1.855   1.670
  679SOL    HW2 2152   0.438   1.981   1.772
  680SOL     OW 2153   0.573   2.732   1.029
  680SOL    HW1 2154   0.617   2.821   1.020
  680SOL    HW2 2155   0.510   2.732   1.106
  681SOL     OW 2156   1.360   2.724   1.045
  681SOL    HW1 2157   1.285   2.724   0.979
  681SOL    HW2 2158   1.397   2.632   1.054
  682SOL     OW 2159   1.209   2.387   0.275
  682SOL    HW1 2160   1.222   2.303   0.329
  682SOL    HW2 2161   1.180   2.461   0.335
  683SOL     OW 2162   0.307   2.075   1.231
  683SOL    HW1 2163   0.284   2.112   1.321
  683SOL    HW2 2164   0.277   1.980   1.225
  684SOL     OW 2165   0.037   3.172   1.282
  684SOL    HW1 2166   0.090   3.123   1.350
  684SOL    HW2 2167   0.059   3.270   1.287
  685SOL     OW 2168   0.732   2.496   1.064
  685SOL    HW1 2169   0.791   2.470   0.988
  685SOL    HW2 2170   0.704   2.592   1.053
  686SOL     OW 2171   1.728   2.797   1.854
  686SOL    HW1 2172   1.682   2.790   1.765
  686SOL    HW2 2173   1.666   2.841   1.920
  687SOL     OW 2174   0.307   1.925   0.618
  687SOL    HW1 2175   0.296   2.019   0.651
  687SOL    HW2 2176   0.302   1.862   0.695
  688SOL     OW 2177   1.622   2.229   0.374
  688SOL    HW1 2178   1.624   2.153   0.438
  688SOL    HW2 2179   1.574   2.306   0.414
  689SOL     OW 2180   1.023   2.628   0.966
  689SOL    HW1 2181   1.038   2.649   1.062
  689SOL    HW2 2182   0.993   2.533   0.957
  690SOL     OW 2183   0.980   3.435   1.700
  690SOL    HW1 2184   0.960   3.479   1.612
  690SOL    HW2 2185   1.019   3.344   1.684
  691SOL     OW 2186   1.859   3.380   1.605
  691SOL    HW1 2187   1.873   3.407   1.510
  691SOL    HW2 2188   1.942   3.402   1.658
  692SOL     OW 2189   0.350   2.760   1.804
  692SOL    HW1 2190   0.426   2.804   1.852
  692SOL    HW2 2191   0.385   2.713   1.722
  693SOL     OW 2192   1.540   2.136   0.125
  693SOL    HW1 2193   1.479   2.061   0.148
  693SOL    HW2 2194   1.562   2.188   0.208
  694SOL     OW 2195   1.303   2.700   0.042
  694SOL    HW1 2196   1.337   2.607   0.057
  694SOL    HW2 2197   1.321   2.727  -0.053
  695SOL     OW 2198   1.068   3.195   0.849
  695SOL    HW1 2199   1.075   3.111   0.794
  695SOL    HW2 2200   1.130   3.264   0.813
  696SOL     OW 2201   0.319   2.672   0.949
  696SOL    HW1 2202   0.412   2.708   0.954
  696SOL    HW2 2203   0.313   2.587   1.001
  697SOL     OW 2204   0.339   2.371   1.006
  697SOL    HW1 2205   0.287   2.288   0.989
  697SOL    HW2 2206   0.416   2.376   0.942
  698SOL     OW 2207   1.138   2.242   1.678
  698SOL    HW1 2208   1.093   2.305   1.742
  698SOL    HW2 2209   1.231   2.273   1.661
  699SOL     OW 2210   1.160   2.069   1.477
  699SOL    HW1 2211   1.160   2.133   1.554
  699SOL    HW2 2212   1.188   2.117   1.394
  700SOL     OW 2213   0.008   3.188   0.200
  700SOL    HW1 2214  -0.085   3.209   0.169
  700SOL    HW2 2215   0.018   3.089   0.213
  701SOL     OW 2216   0.088   3.663   0.927
  701SOL    HW1 2217   0.046   3.577   0.900
  701SOL    HW2 2218   0.182   3.666   0.893
  702SOL     OW 2219   0.504   3.430   0.910
  702SOL    HW1 2220   0.570   3.504   0.919
  702SOL    HW2 2221   0.548   3.351   0.868
  703SOL     OW 2222   1.002   2.658   1.238
  703SOL    HW1 2223   1.043   2.626   1.324
  703SOL    HW2 2224   0.906   2.631   1.235
  704SOL     OW 2225   0.040   2.406   1.114
  704SOL    HW1 2226   0.125   2.373   1.073
  704SOL    HW2 2227   0.053   2.421   1.212
  705SOL     OW 2228   0.189   2.382   1.722
  705SOL    HW1 2229   0.248   2.342   1.652
  705SOL    HW2 2230   0.131   2.453   1.681
  706SOL     OW 2231   1.369   2.812   1.660
  706SOL    HW1 2232   1.408   2.901   1.680
  706SOL    HW2 2233   1.379   2.792   1.563
  707SOL     OW 2234   0.815   2.434   0.325
  707SOL    HW1 2235   0.822   2.345   0.279
  707SOL    HW2 2236   0.721   2.468   0.317
  708SOL     OW 2237   1.657   2.466   1.206
  708SOL    HW1 2238   1.619   2.397   1.268
  708SOL    HW2 2239   1.739   2.430   1.162
  709SOL     OW 2240   0.252   3.426   1.744
  709SOL    HW1 2241   0.222   3.483   1.820
  709SOL    HW2 2242   0.245   3.329   1.770
  710SOL     OW 2243   0.671   2.326   1.269
  710SOL    HW1 2244   0.637   2.237   1.239
  710SOL    HW2 2245   0.697   2.380   1.189
  711SOL     OW 2246   0.930   3.540   1.465
  711SOL    HW1 2247   0.906   3.522   1.370
  711SOL    HW2 2248   0.960   3.634   1.475
  712SOL     OW 2249   0.473   2.362   0.191
  712SOL    HW1 2250   0.534   2.442   0.195
  712SOL    HW2 2251   0.378   2.393   0.198
  713SOL     OW 2252   0.159   2.999   1.466
  713SOL    HW1 2253   0.181   2.938   1.542
  713SOL    HW2 2254   0.169   2.950   1.380
  714SOL     OW 2255   1.347   2.921   1.234
  714SOL    HW1 2256   1.371   2.858   1.160
  714SOL    HW2 2257   1.257   2.961   1.216
  715SOL     OW 2258   1.302   2.717   0.309
  715SOL    HW1 2259   1.216   2.686   0.351
  715SOL    HW2 2260   1.298   2.703   0.210
  716SOL     OW 2261   1.759   3.609   1.154
  716SOL    HW1 2262   1.820   3.639   1.081
  716SOL    HW2 2263   1.721   3.520   1.132
  717SOL     OW 2264   1.252   3.593   1.128
  717SOL    HW1 2265   1.336   3.598   1.074
  717SOL    HW2 2266   1.229   3.497   1.146
  718SOL     OW 2267   0.083   3.120   1.022
  718SOL    HW1 2268   0.078   3.119   1.122
  718SOL    HW2 2269   0.000   3.079   0.984
  719SOL     OW 2270   0.688   3.524   1.716
  719SOL    HW1 2271   0.632   3.605   1.725
  719SOL    HW2 2272   0.740   3.528   1.630
  720SOL     OW 2273   0.903   1.948   0.133
  720SOL    HW1 2274   0.954   1.949   0.047
  720SOL    HW2 2275   0.959   1.906   0.204
  721SOL     OW 2276   1.726   1.997   0.523
  721SOL    HW1 2277   1.799   1.980   0.456
  721SOL    HW2 2278   1.695   1.910   0.561
  722SOL     OW 2279   1.388   3.435   0.477
  722SOL    HW1 2280   1.455   3.447   0.403
  722SOL    HW2 2281   1.348   3.524   0.500
  723SOL     OW 2282   0.130   3.656   1.851
  723SOL    HW1 2283   0.089   3.582   1.904
  723SOL    HW2 2284   0.194   3.707   1.909
  724SOL     OW 2285   1.280   2.789   0.672
  724SOL    HW1 2286   1.340   2.708   0.674
  724SOL    HW2 2287   1.320   2.858   0.612
  725SOL     OW 2288   0.830   3.135   1.422
  725SOL    HW1 2289   0.825   3.168   1.517
  725SOL    HW2 2290   0.744   3.154   1.376
  726SOL     OW 2291   0.672   3.478   0.154
  726SOL    HW1 2292   0.681   3.488   0.055
  726SOL    HW2 2293   0.632   3.389   0.175
  727SOL     OW 2294   1.650   3.582   1.394
  727SOL    HW1 2295   1.703   3.592   1.310
  727SOL    HW2 2296   1.623   3.672   1.428
  728SOL     OW 2297   1.841   2.037   0.963
  728SOL    HW1 2298   1.880   1.952   0.927
  728SOL    HW2 2299   1.743   2.039   0.944
  729SOL     OW 2300   0.263   2.188   0.720
  729SOL    HW1 2301   0.184   2.239   0.686
  729SOL    HW2 2302   0.254   2.173   0.818
  730SOL     OW 2303   1.194   3.474   0.031
  730SOL    HW1 2304   1.200   3.381   0.068
  730SOL    HW2 2305   1.135   3.474  -0.049
  731SOL     OW 2306   0.822   2.864   1.372
  731SOL    HW1 2307   0.862   2.863   1.280
  731SOL    HW2 2308   0.832   2.956   1.412
  732SOL     OW 2309   0.916   2.772   0.291
  732SOL    HW1 2310   0.979   2.810   0.223
  732SOL    HW2 2311   0.956   2.689   0.330
  733SOL     OW 2312   1.504   3.469   0.044
  733SOL    HW1 2313   1.412   3.506   0.051
  733SOL    HW2 2314   1.542   3.489  -0.046
  734SOL     OW 2315   0.372   3.150   1.490
  734SOL    HW1 2316   0.359   3.243   1.456
  734SOL    HW2 2317   0.288   3.098   1.477
  735SOL     OW 2318   1.614   3.154   1.289
  735SOL    HW1 2319   1.674   3.157   1.369
  735SOL    HW2 2320   1.539   3.218   1.302
  736SOL     OW 2321   1.039   2.960   0.696
  736SOL    HW1 2322   0.969   2.913   0.750
  736SOL    HW2 2323   1.098   2.892   0.653
  737SOL     OW 2324   1.014   2.098   0.971
  737SOL    HW1 2325   1.006   2.062   0.878
  737SOL    HW2 2326   1.012   2.022   1.036
  738SOL     OW 2327   0.590   3.349   0.491
  738SOL    HW1 2328   0.632   3.291   0.421
  738SOL    HW2 2329   0.546   3.428   0.447
  739SOL     OW 2330   1.709   2.247   1.381
  739SOL    HW1 2331   1.782   2.316   1.385
  739SOL    HW2 2332   1.737   2.172   1.322
  740SOL     OW 2333   0.255   3.210   0.290
  740SOL    HW1 2334   0.159   3.211   0.263
  740SOL    HW2 2335   0.267   3.263   0.374
  741SOL     OW 2336   0.105   2.875   1.726
  741SOL    HW1 2337   0.028   2.842   1.780
  741SOL    HW2 2338   0.190   2.845   1.768
  742SOL     OW 2339   0.672   2.065   1.489
  742SOL    HW1 2340   0.762   2.049   1.449
  742SOL    HW2 2341   0.680   2.070   1.588
  743SOL     OW 2342   0.075   2.207   0.033
  743SOL    HW1 2343  -0.017   2.179   0.004
  743SOL    HW2 2344   0.106   2.284  -0.023
  744SOL     OW 2345   1.440   2.718   1.398
  744SOL    HW1 2346   1.383   2.770   1.335
  744SOL    HW2 2347   1.536   2.730   1.374
  745SOL     OW 2348   0.072   2.028   0.318
  745SOL    HW1 2349   0.055   2.111   0.264
  745SOL    HW2 2350   0.162   1.991   0.296
  746SOL     OW 2351   1.183   3.197   0.119
  746SOL    HW1 2352   1.084   3.186   0.121
  746SOL    HW2 2353   1.217   3.212   0.212
  747SOL     OW 2354   0.613   2.704   1.431
  747SOL    HW1 2355   0.669   2.785   1.414
  747SOL    HW2 2356   0.672   2.624   1.434
  748SOL     OW 2357   1.493   3.629   0.959
  748SOL    HW1 2358   1.526   3.693   0.890
  748SOL    HW2 2359   1.559   3.623   1.034
  749SOL     OW 2360   0.716   2.427   1.708
  749SOL    HW1 2361   0.735   2.492   1.782
  749SOL    HW2 2362   0.776   2.347   1.717
  750SOL     OW 2363   1.450   3.082   1.633
  750SOL    HW1 2364   1.441   3.072   1.732
  750SOL    HW2 2365   1.546   3.075   1.607
  751SOL     OW 2366   0.390   3.603   1.560
  751SOL    HW1 2367   0.299   3.644   1.558
  751SOL    HW2 2368   0.383   3.509   1.592
  752SOL     OW 2369   1.674   2.745   1.254
  752SOL    HW1 2370   1.647   2.656   1.217
  752SOL    HW2 2371   1.675   2.813   1.181
  753SOL     OW 2372   1.225   2.187   0.449
  753SOL    HW1 2373   1.290   2.113   0.438
  753SOL    HW2 2374   1.245   2.237   0.533
  754SOL     OW 2375   0.594   2.607   0.652
  754SOL    HW1 2376   0.644   2.692   0.633
  754SOL    HW2 2377   0.506   2.609   0.604
  755SOL     OW 2378   1.777   2.204   1.642
  755SOL    HW1 2379   1.760   2.235   1.548
  755SOL    HW2 2380   1.693   2.167   1.680
  756SOL     OW 2381   1.730   2.796   1.517
  756SOL    HW1 2382   1.768   2.887   1.532
  756SOL    HW2 2383   1.722   2.779   1.418
  757SOL     OW 2384   0.859   3.236   0.016
  757SOL    HW1 2385   0.813   3.251   0.104
  757SOL    HW2 2386   0.903   3.321  -0.014
  758SOL     OW 2387   0.661   3.652   0.953
  758SOL    HW1 2388   0.615   3.740   0.940
  758SOL    HW2 2389   0.760   3.664   0.946
  759SOL     OW 2390   0.859   2.818   0.861
  759SOL    HW1 2391   0.913   2.749   0.909
  759SOL    HW2 2392   0.827   2.887   0.927
  760SOL     OW 2393   1.083   2.846   0.087
  760SOL    HW1 2394   1.060   2.899   0.005
  760SOL    HW2 2395   1.164   2.790   0.068
  761SOL     OW 2396   1.861   3.431   0.851
  761SOL    HW1 2397   1.790   3.419   0.781
  761SOL    HW2 2398   1.862   3.352   0.911
  762SOL     OW 2399   0.221   3.176   1.844
  762SOL    HW1 2400   0.156   3.103   1.823
  762SOL    HW2 2401   0.225   3.190   1.942
  763SOL     OW 2402   0.079   3.102   0.653
  763SOL    HW1 2403   0.078   3.055   0.741
  763SOL    HW2 2404   0.161   3.074   0.602
  764SOL     OW 2405   0.672   3.253   1.624
  764SOL    HW1 2406   0.594   3.203   1.662
  764SOL    HW2 2407   0.669   3.348   1.655
  765SOL     OW 2408   1.824   2.054   1.227
  765SOL    HW1 2409   1.820   1.964   1.271
  765SOL    HW2 2410   1.827   2.043   1.128
  766SOL     OW 2411   0.428   2.286   0.520
  766SOL    HW1 2412   0.458   2.214   0.458
  766SOL    HW2 2413   0.389   2.246   0.603
  767SOL     OW 2414   1.705   3.349   1.104
  767SOL    HW1 2415   1.612   3.324   1.077
  767SOL    HW2 2416   1.731   3.299   1.186
  768SOL     OW 2417   0.317   2.409   1.280
  768SOL    HW1 2418   0.355   2.350   1.352
  768SOL    HW2 2419   0.357   2.383   1.192
  769SOL     OW 2420   0.812   3.448   0.687
  769SOL    HW1 2421   0.844   3.458   0.593
  769SOL    HW2 2422   0.733   3.386   0.689
  770SOL     OW 2423   1.424   2.076   1.112
  770SOL    HW1 2424   1.476   2.011   1.167
  770SOL    HW2 2425   1.375   2.139   1.173
  771SOL     OW 2426   1.001   1.896   1.154
  771SOL    HW1 2427   0.938   1.824   1.123
  771SOL    HW2 2428   1.094   1.860   1.154
  772SOL     OW 2429   0.770   3.192   0.301
  772SOL    HW1 2430   0.724   3.105   0.318
  772SOL    HW2 2431   0.861   3.189   0.342
  773SOL     OW 2432   0.618   3.429   1.284
  773SOL    HW1 2433   0.613   3.511   1.341
  773SOL    HW2 2434   0.707   3.426   1.239
  774SOL     OW 2435   1.352   1.914   0.168
  774SOL    HW1 2436   1.387   1.873   0.084
  774SOL    HW2 2437   1.262   1.876   0.188
  775SOL     OW 2438   1.300   2.315   0.691
  775SOL    HW1 2439   1.241   2.395   0.695
  775SOL    HW2 2440   1.315   2.280   0.784
  776SOL     OW 2441   1.593   2.083   0.882
  776SOL    HW1 2442   1.509   2.082   0.936
  776SOL    HW2 2443   1.595   2.166   0.826
  777SOL     OW 2444   0.039   2.939   0.300
  777SOL    HW1 2445   0.138   2.928   0.291
  777SOL    HW2 2446  -0.001   2.853   0.332
  778SOL     OW 2447   0.875   3.508   0.337
  778SOL    HW1 2448   0.798   3.473   0.283
  778SOL    HW2 2449   0.843   3.579   0.399
  779SOL     OW 2450   0.230   2.490   1.975
  779SOL    HW1 2451   0.137   2.488   2.012
  779SOL    HW2 2452   0.231   2.451   1.883
  780SOL     OW 2453   0.225   2.137   2.858
  780SOL    HW1 2454   0.260   2.120   2.950
  780SOL    HW2 2455   0.137   2.092   2.846
  781SOL     OW 2456   0.019   2.230   2.509
  781SOL    HW1 2457  -0.063   2.273   2.548
  781SOL    HW2 2458  -0.009   2.157   2.446
  782SOL     OW 2459   0.569   3.137   3.027
  782SOL    HW1 2460   0.476   3.130   2.990
  782SOL    HW2 2461   0.580   3.226   3.071
  783SOL     OW 2462   1.555   3.373   2.565
  783SOL    HW1 2463   1.498   3.357   2.646
  783SOL    HW2 2464   1.496   3.383   2.485
  784SOL     OW 2465   1.135   2.565   2.579
  784SOL    HW1 2466   1.192   2.643   2.554
  784SOL    HW2 2467   1.075   2.591   2.655
  785SOL     OW 2468   1.755   2.469   2.093
  785SOL    HW1 2469   1.743   2.456   1.994
  785SOL    HW2 2470   1.725   2.388   2.142
  786SOL     OW 2471   0.768   3.006   2.885
  786SOL    HW1 2472   0.690   3.023   2.945
  786SOL    HW2 2473   0.802   3.093   2.849
  787SOL     OW 2474   0.850   2.660   3.685
  787SOL    HW1 2475   0.846   2.736   3.750
  787SOL    HW2 2476   0.872   2.696   3.594
  788SOL     OW 2477   0.685   2.874   2.527
  788SOL    HW1 2478   0.754   2.858   2.597
  788SOL    HW2 2479   0.612   2.931   2.565
  789SOL     OW 2480   0.686   3.023   3.665
  789SOL    HW1 2481   0.746   3.102   3.679
  789SOL    HW2 2482   0.600   3.054   3.624
  790SOL     OW 2483   0.335   3.297   2.923
  790SOL    HW1 2484   0.257   3.266   2.870
  790SOL    HW2 2485   0.393   3.355   2.866
  791SOL     OW 2486   1.460   3.367   3.201
  791SOL    HW1 2487   1.484   3.461   3.227
  791SOL    HW2 2488   1.444   3.313   3.283
  792SOL     OW 2489   0.438   2.254   3.361
  792SOL    HW1 2490   0.520   2.198   3.370
  792SOL    HW2 2491   0.357   2.196   3.365
  793SOL     OW 2492   1.603   2.309   2.599
  793SOL    HW1 2493   1.529   2.355   2.549
  793SOL    HW2 2494   1.654   2.377   2.652
  794SOL     OW 2495   0.231   3.575   2.345
  794SOL    HW1 2496   0.265   3.652   2.399
  794SOL    HW2 2497   0.275   3.575   2.255
  795SOL     OW 2498   1.127   3.203   3.552
  795SOL    HW1 2499   1.174   3.203   3.640
  795SOL    HW2 2500   1.079   3.116   3.541
  796SOL     OW 2501   0.230   3.296   2.400
  796SOL    HW1 2502   0.204   3.392   2.400
  796SOL    HW2 2503   0.159   3.242   2.445
  797SOL     OW 2504   0.240   2.953   2.748
  797SOL    HW1 2505   0.254   2.869   2.800
  797SOL    HW2 2506   0.185   3.017   2.803
  798SOL     OW 2507   0.620   3.648   3.301
  798SOL    HW1 2508   0.528   3.631   3.336
  798SOL    HW2 2509   0.648   3.740   3.327
  799SOL     OW 2510   0.606   2.826   1.985
  799SOL    HW1 2511   0.613   2.910   1.931
  799SOL    HW2 2512   0.652   2.839   2.073
  800SOL     OW 2513   1.594   1.976   3.342
  800SOL    HW1 2514   1.576   2.043   3.270
  800SOL    HW2 2515   1.591   2.022   3.431
  801SOL     OW 2516   0.122   2.505   2.425
  801SOL    HW1 2517   0.077   2.417   2.442
  801SOL    HW2 2518   0.121   2.559   2.509
  802SOL     OW 2519   1.842   3.629   2.221
  802SOL    HW1 2520   1.896   3.600   2.301
  802SOL    HW2 2521   1.872   3.719   2.192
  803SOL     OW 2522   0.027   3.458   1.979
  803SOL    HW1 2523   0.008   3.362   2.000
  803SOL    HW2 2524  -0.006   3.516   2.054
  804SOL     OW 2525   1.689   2.784   2.474
  804SOL    HW1 2526   1.784   2.755   2.482
  804SOL    HW2 2527   1.681   2.849   2.399
  805SOL     OW 2528   1.641   2.970   2.294
  805SOL    HW1 2529   1.727   2.972   2.242
  805SOL    HW2 2530   1.655   3.017   2.382
  806SOL     OW 2531   0.113   2.599   3.459
  806SOL    HW1 2532   0.201   2.586   3.504
  806SOL    HW2 2533   0.100   2.696   3.437
  807SOL     OW 2534   0.613   3.227   2.588
  807SOL    HW1 2535   0.564   3.140   2.597
  807SOL    HW2 2536   0.590   3.270   2.501
  808SOL     OW 2537   1.293   3.090   3.285
  808SOL    HW1 2538   1.330   3.017   3.227
  808SOL    HW2 2539   1.345   3.095   3.370
  809SOL     OW 2540   0.809   1.866   2.364
  809SOL    HW1 2541   0.849   1.957   2.355
  809SOL    HW2 2542   0.709   1.874   2.370
  810SOL     OW 2543   0.197   2.838   3.126
  810SOL    HW1 2544   0.286   2.793   3.112
  810SOL    HW2 2545   0.124   2.773   3.107
  811SOL     OW 2546   1.525   2.861   2.052
  811SOL    HW1 2547   1.462   2.785   2.065
  811SOL    HW2 2548   1.573   2.879   2.138
  812SOL     OW 2549   1.187   3.654   3.478
  812SOL    HW1 2550   1.211   3.714   3.402
  812SOL    HW2 2551   1.194   3.559   3.448
  813SOL     OW 2552   0.317   2.113   3.663
  813SOL    HW1 2553   0.388   2.184   3.669
  813SOL    HW2 2554   0.229   2.152   3.691
  814SOL     OW 2555   1.466   3.279   2.815
  814SOL    HW1 2556   1.407   3.285   2.895
  814SOL    HW2 2557   1.451   3.191   2.769
  815SOL     OW 2558   1.667   3.576   2.434
  815SOL    HW1 2559   1.626   3.553   2.346
  815SOL    HW2 2560   1.649   3.502   2.499
  816SOL     OW 2561   0.598   2.591   2.132
  816SOL    HW1 2562   0.622   2.660   2.064
  816SOL    HW2 2563   0.520   2.624   2.186
  817SOL     OW 2564   1.281   2.207   2.806
  817SOL    HW1 2565   1.195   2.157   2.793
  817SOL    HW2 2566   1.343   2.153   2.862
  818SOL     OW 2567   1.576   3.524   2.169
  818SOL    HW1 2568   1.665   3.570   2.172
  818SOL    HW2 2569   1.555   3.500   2.074
  819SOL     OW 2570   0.807   2.467   3.327
  819SOL    HW1 2571   0.760   2.464   3.416
  819SOL    HW2 2572   0.756   2.412   3.261
  820SOL     OW 2573   1.394   2.331   3.536
  820SOL    HW1 2574   1.374   2.374   3.624
  820SOL    HW2 2575   1.472   2.269   3.545
  821SOL     OW 2576   0.973   2.752   3.434
  821SOL    HW1 2577   1.019   2.668   3.405
  821SOL    HW2 2578   0.917   2.786   3.359
  822SOL     OW 2579   0.991   2.272   3.104
  822SOL    HW1 2580   0.914   2.306   3.158
  822SOL    HW2 2581   0.957   2.221   3.025
  823SOL     OW 2582   1.041   2.563   2.291
  823SOL    HW1 2583   1.067   2.559   2.387
  823SOL    HW2 2584   0.956   2.512   2.277
  824SOL     OW 2585   0.076   2.673   2.651
  824SOL    HW1 2586   0.175   2.661   2.660
  824SOL    HW2 2587   0.052   2.768   2.672
  825SOL     OW 2588   0.130   3.683   3.433
  825SOL    HW1 2589   0.120   3.668   3.532
  825SOL    HW2 2590   0.044   3.719   3.397
  826SOL     OW 2591   0.865   2.210   2.057
  826SOL    HW1 2592   0.924   2.273   2.008
  826SOL    HW2 2593   0.884   2.116   2.028
  827SOL     OW 2594   1.719   2.447   3.693
  827SOL    HW1 2595   1.693   2.536   3.657
  827SOL    HW2 2596   1.717   2.379   3.620
  828SOL     OW 2597   1.362   3.006   2.407
  828SOL    HW1 2598   1.445   2.977   2.359
  828SOL    HW2 2599   1.313   3.073   2.351
  829SOL     OW 2600   0.550   2.058   2.747
  829SOL    HW1 2601   0.545   2.053   2.847
  829SOL    HW2 2602   0.552   2.154   2.718
  830SOL     OW 2603   1.008   3.318   2.339
  830SOL    HW1 2604   0.962   3.390   2.287
  830SOL    HW2 2605   1.004   3.338   2.437
  831SOL     OW 2606   0.351   3.663   2.715
  831SOL    HW1 2607   0.401   3.577   2.721
  831SOL    HW2 2608   0.416   3.740   2.712
  832SOL     OW 2609   1.795   2.928   2.735
  832SOL    HW1 2610   1.733   2.913   2.659
  832SOL    HW2 2611   1.743   2.939   2.820
  833SOL     OW 2612   1.227   3.412   3.368
  833SOL    HW1 2613   1.233   3.335   3.432
  833SOL    HW2 2614   1.175   3.386   3.288
  834SOL     OW 2615   0.321   2.805   2.104
  834SOL    HW1 2616   0.403   2.844   2.062
  834SOL    HW2 2617   0.294   2.723   2.055
  835SOL     OW 2618   1.458   2.597   2.590
  835SOL    HW1 2619   1.453   2.532   2.665
  835SOL    HW2 2620   1.538   2.656   2.603
  836SOL     OW 2621   0.461   3.128   3.589
  836SOL    HW1 2622   0.411   3.129   3.503
  836SOL    HW2 2623   0.398   3.110   3.665
  837SOL     OW 2624   1.111   3.638   2.099
  837SOL    HW1 2625   1.051   3.576   2.149
  837SOL    HW2 2626   1.142   3.594   2.014
  838SOL     OW 2627   0.202   2.147   3.360
  838SOL    HW1 2628   0.122   2.207   3.347
  838SOL    HW2 2629   0.192   2.098   3.446
  839SOL     OW 2630   1.632   3.239   1.943
  839SOL    HW1 2631   1.600   3.333   1.933
  839SOL    HW2 2632   1.556   3.176   1.931
  840SOL     OW 2633   0.464   3.605   2.185
  840SOL    HW1 2634   0.497   3.644   2.271
  840SOL    HW2 2635   0.540   3.598   2.120
  841SOL     OW 2636   1.400   1.969   2.288
  841SOL    HW1 2637   1.376   1.932   2.198
  841SOL    HW2 2638   1.499   1.985   2.292
  842SOL     OW 2639   0.249   3.647   3.103
  842SOL    HW1 2640   0.306   3.582   3.153
  842SOL    HW2 2641   0.233   3.614   3.010
  843SOL     OW 2642   0.940   3.560   2.766
  843SOL    HW1 2643   1.020   3.503   2.787
  843SOL    HW2 2644   0.891   3.520   2.689
  844SOL     OW 2645   0.382   2.562   2.342
  844SOL    HW1 2646   0.427   2.472   2.339
  844SOL    HW2 2647   0.288   2.551   2.375
  845SOL     OW 2648   1.547   2.084   3.591
  845SOL    HW1 2649   1.542   2.121   3.683
  845SOL    HW2 2650   1.475   2.015   3.579
  846SOL     OW 2651   0.614   1.984   1.979
  846SOL    HW1 2652   0.712   1.962   1.986
  846SOL    HW2 2653   0.583   1.967   1.886
  847SOL     OW 2654   0.781   2.126   3.611
  847SOL    HW1 2655   0.848   2.065   3.654
  847SOL    HW2 2656   0.708   2.145   3.676
  848SOL     OW 2657   0.888   3.376   3.057
  848SOL    HW1 2658   0.865   3.351   2.963
  848SOL    HW2 2659   0.949   3.307   3.096
  849SOL     OW 2660   1.351   2.452   3.295
  849SOL    HW1 2661   1.379   2.409   3.380
  849SOL    HW2 2662   1.376   2.548   3.296
  850SOL     OW 2663   0.803   3.264   2.786
  850SOL    HW1 2664   0.893   3.278   2.744
  850SOL    HW2 2665   0.732   3.266   2.715
  851SOL     OW 2666   0.922   2.365   2.761
  851SOL    HW1 2667   0.897   2.356   2.665
  851SOL    HW2 2668   0.970   2.283   2.792
  852SOL     OW 2669   0.539   1.926   2.374
  852SOL    HW1 2670   0.458   1.927   2.432
  852SOL    HW2 2671   0.542   2.009   2.319
  853SOL     OW 2672   1.434   3.050   1.903
  853SOL    HW1 2673   1.466   2.974   1.960
  853SOL    HW2 2674   1.342   3.077   1.933
  854SOL     OW 2675   0.297   1.897   2.033
  854SOL    HW1 2676   0.346   1.981   2.012
  854SOL    HW2 2677   0.359   1.832   2.078
  855SOL     OW 2678   0.935   2.098   2.342
  855SOL    HW1 2679   0.887   2.139   2.264
  855SOL    HW2 2680   1.034   2.096   2.323
  856SOL     OW 2681   1.076   2.545   3.326
  856SOL    HW1 2682   0.996   2.484   3.329
  856SOL    HW2 2683   1.157   2.492   3.302
  857SOL     OW 2684   1.227   3.432   2.655
  857SOL    HW1 2685   1.248   3.506   2.590
  857SOL    HW2 2686   1.295   3.432   2.728
  858SOL     OW 2687   0.459   3.014   2.603
  858SOL    HW1 2688   0.388   2.987   2.668
  858SOL    HW2 2689   0.433   2.986   2.510
  859SOL     OW 2690   1.271   3.659   2.453
  859SOL    HW1 2691   1.315   3.723   2.389
  859SOL    HW2 2692   1.221   3.711   2.523
  860SOL     OW 2693   1.032   2.411   1.878
  860SOL    HW1 2694   0.991   2.493   1.839
  860SOL    HW2 2695   1.096   2.437   1.951
  861SOL     OW 2696   0.078   2.418   3.248
  861SOL    HW1 2697   0.170   2.417   3.207
  861SOL    HW2 2698   0.072   2.492   3.315
  862SOL     OW 2699   0.561   2.084   3.009
  862SOL    HW1 2700   0.599   2.000   3.046
  862SOL    HW2 2701   0.473   2.103   3.053
  863SOL     OW 2702   0.866   2.316   2.504
  863SOL    HW1 2703   0.834   2.388   2.442
  863SOL    HW2 2704   0.890   2.235   2.451
  864SOL     OW 2705   1.017   1.901   2.615
  864SOL    HW1 2706   0.945   1.906   2.546
  864SOL    HW2 2707   0.993   1.832   2.684
  865SOL     OW 2708   1.429   3.035   2.729
  865SOL    HW1 2709   1.374   2.951   2.722
  865SOL    HW2 2710   1.455   3.064   2.637
  866SOL     OW 2711   1.466   2.452   2.854
  866SOL    HW1 2712   1.436   2.357   2.861
  866SOL    HW2 2713   1.539   2.468   2.920
  867SOL     OW 2714   1.857   2.695   2.239
  867SOL    HW1 2715   1.899   2.631   2.303
  867SOL    HW2 2716   1.819   2.644   2.161
  868SOL     OW 2717   0.488   3.247   2.036
  868SOL    HW1 2718   0.401   3.232   2.083
  868SOL    HW2 2719   0.471   3.273   1.941
  869SOL     OW 2720   1.664   3.142   2.519
  869SOL    HW1 2721   1.763   3.150   2.533
  869SOL    HW2 2722   1.619   3.226   2.550
  870SOL     OW 2723   1.390   2.437   1.940
  870SOL    HW1 2724   1.336   2.416   2.021
  870SOL    HW2 2725   1.481   2.396   1.949
  871SOL     OW 2726   0.527   2.118   2.190
  871SOL    HW1 2727   0.554   2.059   2.115
  871SOL    HW2 2728   0.527   2.213   2.159
  872SOL     OW 2729   1.754   3.085   3.450
  872SOL    HW1 2730   1.845   3.046   3.437
  872SOL    HW2 2731   1.762   3.181   3.474
  873SOL     OW 2732   1.064   3.209   3.202
  873SOL    HW1 2733   0.984   3.186   3.257
  873SOL    HW2 2734   1.147   3.183   3.251
  874SOL     OW 2735   1.592   3.491   3.487
  874SOL    HW1 2736   1.619   3.525   3.397
  874SOL    HW2 2737   1.671   3.453   3.533
  875SOL     OW 2738   1.111   3.057   2.962
  875SOL    HW1 2739   1.071   3.101   3.043
  875SOL    HW2 2740   1.070   3.094   2.879
  876SOL     OW 2741   1.638   2.961   2.941
  876SOL    HW1 2742   1.643   3.042   3.000
  876SOL    HW2 2743   1.552   2.963   2.890
  877SOL     OW 2744   0.915   1.951   3.264
  877SOL    HW1 2745   0.940   1.931   3.169
  877SOL    HW2 2746   0.987   2.007   3.306
  878SOL     OW 2747   0.980   2.978   3.581
  878SOL    HW1 2748   0.881   2.984   3.591
  878SOL    HW2 2749   1.003   2.898   3.525
  879SOL     OW 2750   0.705   2.912   2.230
  879SOL    HW1 2751   0.691   2.919   2.329
  879SOL    HW2 2752   0.789   2.861   2.212
  880SOL     OW 2753   0.410   2.675   3.113
  880SOL    HW1 2754   0.496   2.687   3.163
  880SOL    HW2 2755   0.368   2.588   3.140
  881SOL     OW 2756   1.274   2.248   3.124
  881SOL    HW1 2757   1.295   2.322   3.188
  881SOL    HW2 2758   1.185   2.265   3.081
  882SOL     OW 2759   0.064   3.426   3.193
  882SOL    HW1 2760   0.018   3.508   3.159
  882SOL    HW2 2761   0.162   3.445   3.202
  883SOL     OW 2762   0.367   2.962   2.363
  883SOL    HW1 2763   0.360   3.045   2.307
  883SOL    HW2 2764   0.371   2.882   2.303
  884SOL     OW 2765   0.566   2.399   2.727
  884SOL    HW1 2766   0.578   2.465   2.653
  884SOL    HW2 2767   0.612   2.433   2.810
  885SOL     OW 2768   1.252   3.210   2.250
  885SOL    HW1 2769   1.302   3.287   2.290
  885SOL    HW2 2770   1.157   3.212   2.282
  886SOL     OW 2771   1.272   3.307   3.004
  886SOL    HW1 2772   1.319   3.320   3.091
  886SOL    HW2 2773   1.206   3.233   3.013
  887SOL     OW 2774   1.582   2.501   2.334
  887SOL    HW1 2775   1.551   2.562   2.407
  887SOL    HW2 2776   1.632   2.553   2.265
  888SOL     OW 2777   0.354   3.372   3.191
  888SOL    HW1 2778   0.333   3.328   3.104
  888SOL    HW2 2779   0.451   3.398   3.194
  889SOL     OW 2780   0.402   2.613   3.460
  889SOL    HW1 2781   0.470   2.668   3.413
  889SOL    HW2 2782   0.442   2.525   3.487
  890SOL     OW 2783   1.587   2.641   3.532
  890SOL    HW1 2784   1.495   2.679   3.527
  890SOL    HW2 2785   1.647   2.688   3.467
  891SOL     OW 2786   1.013   1.967   3.632
  891SOL    HW1 2787   1.019   2.052   3.580
  891SOL    HW2 2788   1.045   1.891   3.575
  892SOL     OW 2789   0.504   1.912   3.602
  892SOL    HW1 2790   0.462   1.855   3.532
  892SOL    HW2 2791   0.438   1.981   3.634
  893SOL     OW 2792   0.573   2.732   2.891
  893SOL    HW1 2793   0.617   2.821   2.882
  893SOL    HW2 2794   0.510   2.732   2.968
  894SOL     OW 2795   1.360   2.724   2.907
  894SOL    HW1 2796   1.285   2.724   2.841
  894SOL    HW2 2797   1.397   2.632   2.916
  895SOL     OW 2798   1.209   2.387   2.137
  895SOL    HW1 2799   1.222   2.303   2.191
  895SOL    HW2 2800   1.180   2.461   2.197
  896SOL     OW 2801   0.307   2.075   3.093
  896SOL    HW1 2802   0.284   2.112   3.183
  896SOL    HW2 2803   0.277   1.980   3.087
  897SOL     OW 2804   0.037   3.172   3.144
  897SOL    HW1 2805   0.090   3.123   3.212
  897SOL    HW2 2806   0.059   3.270   3.149
  898SOL     OW 2807   0.732   2.496   2.926
  898SOL    HW1 2808   0.791   2.470   2.850
  898SOL    HW2 2809   0.704   2.592   2.915
  899SOL     OW 2810   1.728   2.797   3.716
  899SOL    HW1 2811   1.682   2.790   3.627
  899SOL    HW2 2812   1.666   2.841   3.782
  900SOL     OW 2813   0.307   1.925   2.480
  900SOL    HW1 2814   0.296   2.019   2.513
  900SOL    HW2 2815   0.302   1.862   2.557
  901SOL     OW 2816   1.622   2.229   2.236
  901SOL    HW1 2817   1.624   2.153   2.300
  901SOL    HW2 2818   1.574   2.306   2.276
  902SOL     OW 2819   1.023   2.628   2.828
  902SOL    HW1 2820   1.038   2.649   2.924
  902SOL    HW2 2821   0.993   2.533   2.819
  903SOL     OW 2822   0.980   3.435   3.562
  903SOL    HW1 2823   0.960   3.479   3.474
  903SOL    HW2 2824   1.019   3.344   3.546
  904SOL     OW 2825   1.859   3.380   3.467
  904SOL    HW1 2826   1.873   3.407   3.372
  904SOL    HW2 2827   1.942   3.402   3.520
  905SOL     OW 2828   0.350   2.760   3.666
  905SOL    HW1 2829   0.426   2.804   3.714
  905SOL    HW2 2830   0.385   2.713   3.584
  906SOL     OW 2831   1.540   2.136   1.987
  906SOL    HW1 2832   1.479   2.061   2.010
  906SOL    HW2 2833   1.562   2.188   2.070
  907SOL     OW 2834   1.303   2.700   1.904
  907SOL    HW1 2835   1.337   2.607   1.919
  907SOL    HW2 2836   1.321   2.727   1.809
  908SOL     OW 2837   1.068   3.195   2.711
  908SOL    HW1 2838   1.075   3.111   2.656
  908SOL    HW2 2839   1.130   3.264   2.675
  909SOL     OW 2840   0.319   2.672   2.811
  909SOL    HW1 2841   0.412   2.708   2.816
  909SOL    HW2 2842   0.313   2.587   2.863
  910SOL     OW 2843   0.339   2.371   2.868
  910SOL    HW1 2844   0.287   2.288   2.851
  910SOL    HW2 2845   0.416   2.376   2.804
  911SOL     OW 2846   1.138   2.242   3.540
  911SOL    HW1 2847   1.093   2.305   3.604
  911SOL    HW2 2848   1.231   2.273   3.523
  912SOL     OW 2849   1.160   2.069   3.339
  912SOL    HW1 2850   1.160   2.133   3.416
  912SOL    HW2 2851   1.188   2.117   3.256
  913SOL     OW 2852   0.008   3.188   2.062
  913SOL    HW1 2853  -0.085   3.209   2.031
  913SOL    HW2 2854   0.018   3.089   2.075
  914SOL     OW 2855   0.088   3.663   2.789
  914SOL    HW1 2856   0.046   3.577   2.762
  914SOL    HW2 2857   0.182   3.666   2.755
  915SOL     OW 2858   0.504   3.430   2.772
  915SOL    HW1 2859   0.570   3.504   2.781
  915SOL    HW2 2860   0.548   3.351   2.730
  916SOL     OW 2861   1.002   2.658   3.100
  916SOL    HW1 2862   1.043   2.626   3.186
  916SOL    HW2 2863   0.906   2.631   3.097
  917SOL     OW 2864   0.040   2.406   2.976
  917SOL    HW1 2865   0.125   2.373   2.935
  917SOL    HW2 2866   0.053   2.421   3.074
  918SOL     OW 2867   0.189   2.382   3.584
  918SOL    HW1 2868   0.248   2.342   3.514
  918SOL    HW2 2869   0.131   2.453   3.543
  919SOL     OW 2870   1.369   2.812   3.522
  919SOL    HW1 2871   1.408   2.901   3.542
  919SOL    HW2 2872   1.379   2.792   3.425
  920SOL     OW 2873   0.815   2.434   2.187
  920SOL    HW1 2874   0.822   2.345   2.141
  920SOL    HW2 2875   0.721   2.468   2.179
  921SOL     OW 2876   1.657   2.466   3.068
  921SOL    HW1 2877   1.619   2.397   3.130
  921SOL    HW2 2878   1.739   2.430   3.024
  922SOL     OW 2879   0.252   3.426   3.606
  922SOL    HW1 2880   0.222   3.483   3.682
  922SOL    HW2 2881   0.245   3.329   3.632
  923SOL     OW 2882   0.671   2.326   3.131
  923SOL    HW1 2883   0.637   2.237   3.101
  923SOL    HW2 2884   0.697   2.380   3.051
  924SOL     OW 2885   0.930   3.540   3.327
  924SOL    HW1 2886   0.906   3.522   3.232
  924SOL    HW2 2887   0.960   3.634   3.337
  925SOL     OW 2888   0.473   2.362   2.053
  925SOL    HW1 2889   0.534   2.442   2.057
  925SOL    HW2 2890   0.378   2.393   2.060
  926SOL     OW 2891   0.159   2.999   3.328
  926SOL    HW1 2892   0.181   2.938   3.404
  926SOL    HW2 2893   0.169   2.950   3.242
  927SOL     OW 2894   1.347   2.921   3.096
  927SOL    HW1 2895   1.371   2.858   3.022
  927SOL    HW2 2896   1.257   2.961   3.078
  928SOL     OW 2897   1.302   2.717   2.171
  928SOL    HW1 2898   1.216   2.686   2.213
  928SOL    HW2 2899   1.298   2.703   2.072
  929SOL     OW 2900   1.759   3.609   3.016
  929SOL    HW1 2901   1.820   3.639   2.943
  929SOL    HW2 2902   1.721   3.520   2.994
  930SOL     OW 2903   1.252   3.593   2.990
  930SOL    HW1 2904   1.336   3.598   2.936
  930SOL    HW2 2905   1.229   3.497   3.008
  931SOL     OW 2906   0.083   3.120   2.884
  931SOL    HW1 2907   0.078   3.119   2.984
  931SOL    HW2 2908   0.000   3.079   2.846
  932SOL     OW 2909   0.688   3.524   3.578
  932SOL    HW1 2910   0.632   3.605   3.587
  932SOL    HW2 2911   0.740   3.528   3.492
  933SOL     OW 2912   1.726   1.997   2.385
  933SOL    HW1 2913   1.799   1.980   2.318
  933SOL    HW2 2914   1.695   1.910   2.423
  934SOL     OW 2915   1.388   3.435   2.339
  934SOL    HW1 2916   1.455   3.447   2.265
  934SOL    HW2 2917   1.348   3.524   2.362
  935SOL     OW 2918   0.130   3.656   3.713
  935SOL    HW1 2919   0.089   3.582   3.766
  935SOL    HW2 2920   0.194   3.707   3.771
  936SOL     OW 2921   1.280   2.789   2.534
  936SOL    HW1 2922   1.340   2.708   2.536
  936SOL    HW2 2923   1.320   2.858   2.474
  937SOL     OW 2924   0.830   3.135   3.284
  937SOL    HW1 2925   0.825   3.168   3.379
  937SOL    HW2 2926   0.744   3.154   3.238
  938SOL     OW 2927   0.672   3.478   2.016
  938SOL    HW1 2928   0.681   3.488   1.917
  938SOL    HW2 2929   0.632   3.389   2.037
  939SOL     OW 2930   1.650   3.582   3.256
  939SOL    HW1 2931   1.703   3.592   3.172
  939SOL    HW2 2932   1.623   3.672   3.290
  940SOL     OW 2933   1.841   2.037   2.825
  940SOL    HW1 2934   1.880   1.952   2.789
  940SOL    HW2 2935   1.743   2.039   2.806
  941SOL     OW 2936   0.263   2.188   2.582
  941SOL    HW1 2937   0.184   2.239   2.548
  941SOL    HW2 2938   0.254   2.173   2.680
  942SOL     OW 2939   1.194   3.474   1.893
  942SOL    HW1 2940   1.200   3.381   1.930
  942SOL    HW2 2941   1.135   3.474   1.813
  943SOL     OW 2942   0.822   2.864   3.234
  943SOL    HW1 2943   0.862   2.863   3.142
  943SOL    HW2 2944   0.832   2.956   3.274
  944SOL     OW 2945   0.916   2.772   2.153
  944SOL    HW1 2946   0.979   2.810   2.085
  944SOL    HW2 2947   0.956   2.689   2.192
  945SOL     OW 2948   1.504   3.469   1.906
  945SOL    HW1 2949   1.412   3.506   1.913
  945SOL    HW2 2950   1.542   3.489   1.816
  946SOL     OW 2951   0.372   3.150   3.352
  946SOL    HW1 2952   0.359   3.243   3.318
  946SOL    HW2 2953   0.288   3.098   3.339
  947SOL     OW 2954   1.614   3.154   3.151
  947SOL    HW1 2955   1.674   3.157   3.231
  947SOL    HW2 2956   1.539   3.218   3.164
  948SOL     OW 2957   1.039   2.960   2.558
  948SOL    HW1 2958   0.969   2.913   2.612
  948SOL    HW2 2959   1.098   2.892   2.515
  949SOL     OW 2960   1.014   2.098   2.833
  949SOL    HW1 2961   1.006   2.062   2.740
  949SOL    HW2 2962   1.012   2.022   2.898
  950SOL     OW 2963   0.590   3.349   2.353
  950SOL    HW1 2964   0.632   3.291   2.283
  950SOL    HW2 2965   0.546   3.428   2.309
  951SOL     OW 2966   1.709   2.247   3.243
  951SOL    HW1 2967   1.782   2.316   3.247
  951SOL    HW2 2968   1.737   2.172   3.184
  952SOL     OW 2969   0.255   3.210   2.152
  952SOL    HW1 2970   0.159   3.211   2.125
  952SOL    HW2 2971   0.267   3.263   2.236
  953SOL     OW 2972   0.105   2.875   3.588
  953SOL    HW1 2973   0.028   2.842   3.642
  953SOL    HW2 2974   0.190   2.845   3.630
  954SOL     OW 2975   0.672   2.065   3.351
  954SOL    HW1 2976   0.762   2.049   3.311
  954SOL    HW2 2977   0.680   2.070   3.450
  955SOL     OW 2978   0.075   2.207   1.895
  955SOL    HW1 2979  -0.017   2.179   1.866
  955SOL    HW2 2980   0.106   2.284   1.839
  956SOL     OW 2981   1.440   2.718   3.260
  956SOL    HW1 2982   1.383   2.770   3.197
  956SOL    HW2 2983   1.536   2.730   3.236
  957SOL     OW 2984   0.072   2.028   2.180
  957SOL    HW1 2985   0.055   2.111   2.126
  957SOL    HW2 2986   0.162   1.991   2.158
  958SOL     OW 2987   1.183   3.197   1.981
  958SOL    HW1 2988   1.084   3.186   1.983
  958SOL    HW2 2989   1.217   3.212   2.074
  959SOL     OW 2990   0.613   2.704   3.293
  959SOL    HW1 2991   0.669   2.785   3.276
  959SOL    HW2 2992   0.672   2.624   3.296
  960SOL     OW 2993   1.493   3.629   2.821
  960SOL    HW1 2994   1.526   3.693   2.752
  960SOL    HW2 2995   1.559   3.623   2.896
  961SOL     OW 2996   0.716   2.427   3.570
  961SOL    HW1 2997   0.735   2.492   3.644
  961SOL    HW2 2998   0.776   2.347   3.579
  962SOL     OW 2999   1.450   3.082   3.495
  962SOL    HW1 3000   1.441   3.072   3.594
  962SOL    HW2 3001   1.546   3.075   3.469
  963SOL     OW 3002   0.390   3.603   3.422
  963SOL    HW1 3003   0.299   3.644   3.420
  963SOL    HW2 3004   0.383   3.509   3.454
  964SOL     OW 3005   1.674   2.745   3.116
  964SOL    HW1 3006   1.647   2.656   3.079
  964SOL    HW2 3007   1.675   2.813   3.043
  965SOL     OW 3008   1.225   2.187   2.311
  965SOL    HW1 3009   1.290   2.113   2.300
  965SOL    HW2 3010   1.245   2.237   2.395
  966SOL     OW 3011   0.594   2.607   2.514
  966SOL    HW1 3012   0.644   2.692   2.495
  966SOL    HW2 3013   0.506   2.609   2.466
  967SOL     OW 3014   1.777   2.204   3.504
  967SOL    HW1 3015   1.760   2.235   3.410
  967SOL    HW2 3016   1.693   2.167   3.542
  968SOL     OW 3017   1.730   2.796   3.379
  968SOL    HW1 3018   1.768   2.887   3.394
  968SOL    HW2 3019   1.722   2.779   3.280
  969SOL     OW 3020   0.859   3.236   1.878
  969SOL    HW1 3021   0.813   3.251   1.966
  969SOL    HW2 3022   0.903   3.321   1.848
  970SOL     OW 3023   0.661   3.652   2.815
  970SOL    HW1 3024   0.615   3.740   2.802
  970SOL    HW2 3025   0.760   3.664   2.808
  971SOL     OW 3026   0.859   2.818   2.723
  971SOL    HW1 3027   0.913   2.749   2.771
  971SOL    HW2 3028   0.827   2.887   2.789
  972SOL     OW 3029   1.083   2.846   1.949
  972SOL    HW1 3030   1.060   2.899   1.867
  972SOL    HW2 3031   1.164   2.790   1.930
  973SOL     OW 3032   1.861   3.431   2.713
  973SOL    HW1 3033   1.790   3.419   2.643
  973SOL    HW2 3034   1.862   3.352   2.773
  974SOL     OW 3035   0.221   3.176   3.706
  974SOL    HW1 3036   0.156   3.103   3.685
  974SOL    HW2 3037   0.225   3.190   3.804
  975SOL     OW 3038   0.079   3.102   2.515
  975SOL    HW1 3039   0.078   3.055   2.603
  975SOL    HW2 3040   0.161   3.074   2.464
  976SOL     OW 3041   0.672   3.253   3.486
  976SOL    HW1 3042   0.594   3.203   3.524
  976SOL    HW2 3043   0.669   3.348   3.517
  977SOL     OW 3044   1.824   2.054   3.089
  977SOL    HW1 3045   1.820   1.964   3.133
  977SOL    HW2 3046   1.827   2.043   2.990
  978SOL     OW 3047   0.428   2.286   2.382
  978SOL    HW1 3048   0.458   2.214   2.320
  978SOL    HW2 3049   0.389   2.246   2.465
  979SOL     OW 3050   1.705   3.349   2.966
  979SOL    HW1 3051   1.612   3.324   2.939
  979SOL    HW2 3052   1.731   3.299   3.048
  980SOL     OW 3053   0.317   2.409   3.142
  980SOL    HW1 3054   0.355   2.350   3.214
  980SOL    HW2 3055   0.357   2.383   3.054
  981SOL     OW 3056   0.812   3.448   2.549
  981SOL    HW1 3057   0.844   3.458   2.455
  981SOL    HW2 3058   0.733   3.386   2.551
  982SOL     OW 3059   1.424   2.076   2.974
  982SOL    HW1 3060   1.476   2.011   3.029
  982SOL    HW2 3061   1.375   2.139   3.035
  983SOL     OW 3062   1.001   1.896   3.016
  983SOL    HW1 3063   0.938   1.824   2.985
  983SOL    HW2 3064   1.094   1.860   3.016
  984SOL     OW 3065   0.770   3.192   2.163
  984SOL    HW1 3066   0.724   3.105   2.180
  984SOL    HW2 3067   0.861   3.189   2.204
  985SOL     OW 3068   0.618   3.429   3.146
  985SOL    HW1 3069   0.613   3.511   3.203
  985SOL    HW2 3070   0.707   3.426   3.101
  986SOL     OW 3071   1.352   1.914   2.030
  986SOL    HW1 3072   1.387   1.873   1.946
  986SOL    HW2 3073   1.262   1.876   2.050
  987SOL     OW 3074   1.300   2.315   2.553
  987SOL    HW1 3075   1.241   2.395   2.557
  987SOL    HW2 3076   1.315   2.280   2.646
  988SOL     OW 3077   1.593   2.083   2.744
  988SOL    HW1 3078   1.509   2.082   2.798
  988SOL    HW2 3079   1.595   2.166   2.688
  989SOL     OW 3080   0.039   2.939   2.162
  989SOL    HW1 3081   0.138   2.928   2.153
  989SOL    HW2 3082  -0.001   2.853   2.194
  990SOL     OW 3083   0.875   3.508   2.199
  990SOL    HW1 3084   0.798   3.473   2.145
  990SOL    HW2 3085   0.843   3.579   2.261
  991SOL     OW 3086   0.230   2.490   3.837
  991SOL    HW1 3087   0.137   2.488   3.874
  991SOL    HW2 3088   0.231   2.451   3.745
  992SOL     OW 3089   0.225   2.137   4.720
  992SOL    HW1 3090   0.260   2.120   4.812
  992SOL    HW2 3091   0.137   2.092   4.708
  993SOL     OW 3092   0.019   2.230   4.371
  993SOL    HW1 3093  -0.063   2.273   4.410
  993SOL    HW2 3094  -0.009   2.157   4.308
  994SOL     OW 3095   0.569   3.137   4.889
  994SOL    HW1 3096   0.476   3.130   4.852
  994SOL    HW2 3097   0.580   3.226   4.933
  995SOL     OW 3098   1.555   3.373   4.427
  995SOL    HW1 3099   1.498   3.357   4.508
  995SOL    HW2 3100   1.496   3.383   4.347
  996SOL     OW 3101   1.135   2.565   4.441
  996SOL    HW1 3102   1.192   2.643   4.416
  996SOL    HW2 3103   1.075   2.591   4.517
  997SOL     OW 3104   1.755   2.469   3.955
  997SOL    HW1 3105   1.743   2.456   3.856
  997SOL    HW2 3106   1.725   2.388   4.004
  998SOL     OW 3107   0.768   3.006   4.747
  998SOL    HW1 3108   0.690   3.023   4.807
  998SOL    HW2 3109   0.802   3.093   4.711
  999SOL     OW 3110   0.685   2.874   4.389
  999SOL    HW1 3111   0.754   2.858   4.459
  999SOL    HW2 3112   0.612   2.931   4.427
 1000SOL     OW 3113   0.335   3.297   4.785
 1000SOL    HW1 3114   0.257   3.266   4.732
 1000SOL    HW2 3115   0.393   3.355   4.728
 1001SOL     OW 3116   1.603   2.309   4.461
 1001SOL    HW1 3117   1.529   2.355   4.411
 1001SOL    HW2 3118   1.654   2.377   4.514
 1002SOL     OW 3119   0.231   3.575   4.207
 1002SOL    HW1 3120   0.265   3.652   4.261
 1002SOL    HW2 3121   0.275   3.575   4.117
 1003SOL     OW 3122   0.230   3.296   4.262
 1003SOL    HW1 3123   0.204   3.392   4.262
 1003SOL    HW2 3124   0.159   3.242   4.307
 1004SOL     OW 3125   0.240   2.953   4.610
 1004SOL    HW1 3126   0.254   2.869   4.662
 1004SOL    HW2 3127   0.185   3.017   4.665
 1005SOL     OW 3128   0.620   3.648   5.163
 1005SOL    HW1 3129   0.528   3.631   5.198
 1005SOL    HW2 3130   0.648   3.740   5.189
 1006SOL     OW 3131   0.606   2.826   3.847
 1006SOL    HW1 3132   0.613   2.910   3.793
 1006SOL    HW2 3133   0.652   2.839   3.935
 1007SOL     OW 3134   0.122   2.505   4.287
 1007SOL    HW1 3135   0.077   2.417   4.304
 1007SOL    HW2 3136   0.121   2.559   4.371
 1008SOL     OW 3137   1.842   3.629   4.083
 1008SOL    HW1 3138   1.896   3.600   4.163
 1008SOL    HW2 3139   1.872   3.719   4.054
 1009SOL     OW 3140   0.027   3.458   3.841
 1009SOL    HW1 3141   0.008   3.362   3.862
 1009SOL    HW2 3142  -0.006   3.516   3.916
 1010SOL     OW 3143   1.689   2.784   4.336
 1010SOL    HW1 3144   1.784   2.755   4.344
 1010SOL    HW2 3145   1.681   2.849   4.261
 1011SOL     OW 3146   1.641   2.970   4.156
 1011SOL    HW1 3147   1.727   2.972   4.104
 1011SOL    HW2 3148   1.655   3.017   4.244
 1012SOL     OW 3149   0.613   3.227   4.450
 1012SOL    HW1 3150   0.564   3.140   4.459
 1012SOL    HW2 3151   0.590   3.270   4.363
 1013SOL     OW 3152   0.809   1.866   4.226
 1013SOL    HW1 3153   0.849   1.957   4.217
 1013SOL    HW2 3154   0.709   1.874   4.232
 1014SOL     OW 3155   0.197   2.838   4.988
 1014SOL    HW1 3156   0.286   2.793   4.974
 1014SOL    HW2 3157   0.124   2.773   4.969
 1015SOL     OW 3158   1.525   2.861   3.914
 1015SOL    HW1 3159   1.462   2.785   3.927
 1015SOL    HW2 3160   1.573   2.879   4.000
 1016SOL     OW 3161   1.466   3.279   4.677
 1016SOL    HW1 3162   1.407   3.285   4.757
 1016SOL    HW2 3163   1.451   3.191   4.631
 1017SOL     OW 3164   1.667   3.576   4.296
 1017SOL    HW1 3165   1.626   3.553   4.208
 1017SOL    HW2 3166   1.649   3.502   4.361
 1018SOL     OW 3167   0.598   2.591   3.994
 1018SOL    HW1 3168   0.622   2.660   3.926
 1018SOL    HW2 3169   0.520   2.624   4.048
 1019SOL     OW 3170   1.281   2.207   4.668
 1019SOL    HW1 3171   1.195   2.157   4.655
 1019SOL    HW2 3172   1.343   2.153   4.724
 1020SOL     OW 3173   1.576   3.524   4.031
 1020SOL    HW1 3174   1.665   3.570   4.034
 1020SOL    HW2 3175   1.555   3.500   3.936
 1021SOL     OW 3176   0.991   2.272   4.966
 1021SOL    HW1 3177   0.914   2.306   5.020
 1021SOL    HW2 3178   0.957   2.221   4.887
 1022SOL     OW 3179   1.041   2.563   4.153
 1022SOL    HW1 3180   1.067   2.559   4.249
 1022SOL    HW2 3181   0.956   2.512   4.139
 1023SOL     OW 3182   0.076   2.673   4.513
 1023SOL    HW1 3183   0.175   2.661   4.522
 1023SOL    HW2 3184   0.052   2.768   4.534
 1024SOL     OW 3185   0.130   3.683   5.295
 1024SOL    HW1 3186   0.120   3.668   5.394
 1024SOL    HW2 3187   0.044   3.719   5.259
 1025SOL     OW 3188   0.865   2.210   3.919
 1025SOL    HW1 3189   0.924   2.273   3.870
 1025SOL    HW2 3190   0.884   2.116   3.890
 1026SOL     OW 3191   1.362   3.006   4.269
 1026SOL    HW1 3192   1.445   2.977   4.221
 1026SOL    HW2 3193   1.313   3.073   4.213
 1027SOL     OW 3194   0.550   2.058   4.609
 1027SOL    HW1 3195   0.545   2.053   4.709
 1027SOL    HW2 3196   0.552   2.154   4.580
 1028SOL     OW 3197   1.008   3.318   4.201
 1028SOL    HW1 3198   0.962   3.390   4.149
 1028SOL    HW2 3199   1.004   3.338   4.299
 1029SOL     OW 3200   0.351   3.663   4.577
 1029SOL    HW1 3201   0.401   3.577   4.583
 1029SOL    HW2 3202   0.416   3.740   4.574
 1030SOL     OW 3203   1.795   2.928   4.597
 1030SOL    HW1 3204   1.733   2.913   4.521
 1030SOL    HW2 3205   1.743   2.939   4.682
 1031SOL     OW 3206   0.321   2.805   3.966
 1031SOL    HW1 3207   0.403   2.844   3.924
 1031SOL    HW2 3208   0.294   2.723   3.917
 1032SOL     OW 3209   1.458   2.597   4.452
 1032SOL    HW1 3210   1.453   2.532   4.527
 1032SOL    HW2 3211   1.538   2.656   4.465
 1033SOL     OW 3212   1.111   3.638   3.961
 1033SOL    HW1 3213   1.051   3.576   4.011
 1033SOL    HW2 3214   1.142   3.594   3.876
 1034SOL     OW 3215   1.632   3.239   3.805
 1034SOL    HW1 3216   1.600   3.333   3.795
 1034SOL    HW2 3217   1.556   3.176   3.793
 1035SOL     OW 3218   0.464   3.605   4.047
 1035SOL    HW1 3219   0.497   3.644   4.133
 1035SOL    HW2 3220   0.540   3.598   3.982
 1036SOL     OW 3221   1.400   1.969   4.150
 1036SOL    HW1 3222   1.376   1.932   4.060
 1036SOL    HW2 3223   1.499   1.985   4.154
 1037SOL     OW 3224   0.249   3.647   4.965
 1037SOL    HW1 3225   0.306   3.582   5.015
 1037SOL    HW2 3226   0.233   3.614   4.872
 1038SOL     OW 3227   0.940   3.560   4.628
 1038SOL    HW1 3228   1.020   3.503   4.649
 1038SOL    HW2 3229   0.891   3.520   4.551
 1039SOL     OW 3230   0.382   2.562   4.204
 1039SOL    HW1 3231   0.427   2.472   4.201
 1039SOL    HW2 3232   0.288   2.551   4.237
 1040SOL     OW 3233   0.614   1.984   3.841
 1040SOL    HW1 3234   0.712   1.962   3.848
 1040SOL    HW2 3235   0.583   1.967   3.748
 1041SOL     OW 3236   0.803   3.264   4.648
 1041SOL    HW1 3237   0.893   3.278   4.606
 1041SOL    HW2 3238   0.732   3.266   4.577
 1042SOL     OW 3239   0.922   2.365   4.623
 1042SOL    HW1 3240   0.897   2.356   4.527
 1042SOL    HW2 3241   0.970   2.283   4.654
 1043SOL     OW 3242   0.539   1.926   4.236
 1043SOL    HW1 3243   0.458   1.927   4.294
 1043SOL    HW2 3244   0.542   2.009   4.181
 1044SOL     OW 3245   1.434   3.050   3.765
 1044SOL    HW1 3246   1.466   2.974   3.822
 1044SOL    HW2 3247   1.342   3.077   3.795
 1045SOL     OW 3248   0.297   1.897   3.895
 1045SOL    HW1 3249   0.346   1.981   3.874
 1045SOL    HW2 3250   0.359   1.832   3.940
 1046SOL     OW 3251   0.935   2.098   4.204
 1046SOL    HW1 3252   0.887   2.139   4.126
 1046SOL    HW2 3253   1.034   2.096   4.185
 1047SOL     OW 3254   1.227   3.432   4.517
 1047SOL    HW1 3255   1.248   3.506   4.452
 1047SOL    HW2 3256   1.295   3.432   4.590
 1048SOL     OW 3257   0.459   3.014   4.465
 1048SOL    HW1 3258   0.388   2.987   4.530
 1048SOL    HW2 3259   0.433   2.986   4.372
 1049SOL     OW 3260   1.271   3.659   4.315
 1049SOL    HW1 3261   1.315   3.723   4.251
 1049SOL    HW2 3262   1.221   3.711   4.385
 1050SOL     OW 3263   1.032   2.411   3.740
 1050SOL    HW1 3264   0.991   2.493   3.701
 1050SOL    HW2 3265   1.096   2.437   3.813
 1051SOL     OW 3266   0.561   2.084   4.871
 1051SOL    HW1 3267   0.599   2.000   4.908
 1051SOL    HW2 3268   0.473   2.103   4.915
 1052SOL     OW 3269   0.866   2.316   4.366
 1052SOL    HW1 3270   0.834   2.388   4.304
 1052SOL    HW2 3271   0.890   2.235   4.313
 1053SOL     OW 3272   1.017   1.901   4.477
 1053SOL    HW1 3273   0.945   1.906   4.408
 1053SOL    HW2 3274   0.993   1.832   4.546
 1054SOL     OW 3275   1.429   3.035   4.591
 1054SOL    HW1 3276   1.374   2.951   4.584
 1054SOL    HW2 3277   1.455   3.064   4.499
 1055SOL     OW 3278   1.466   2.452   4.716
 1055SOL    HW1 3279   1.436   2.357   4.723
 1055SOL    HW2 3280   1.539   2.468   4.782
 1056SOL     OW 3281   1.857   2.695   4.101
 1056SOL    HW1 3282   1.899   2.631   4.165
 1056SOL    HW2 3283   1.819   2.644   4.023
 1057SOL     OW 3284   0.488   3.247   3.898
 1057SOL    HW1 3285   0.401   3.232   3.945
 1057SOL    HW2 3286   0.471   3.273   3.803
 1058SOL     OW 3287   1.664   3.142   4.381
 1058SOL    HW1 3288   1.763   3.150   4.395
 1058SOL    HW2 3289   1.619   3.226   4.412
 1059SOL     OW 3290   1.390   2.437   3.802
 1059SOL    HW1 3291   1.336   2.416   3.883
 1059SOL    HW2 3292   1.481   2.396   3.811
 1060SOL     OW 3293   0.527   2.118   4.052
 1060SOL    HW1 3294   0.554   2.059   3.977
 1060SOL    HW2 3295   0.527   2.213   4.021
 1061SOL     OW 3296   1.111   3.057   4.824
 1061SOL    HW1 3297   1.071   3.101   4.905
 1061SOL    HW2 3298   1.070   3.094   4.741
 1062SOL     OW 3299   1.638   2.961   4.803
 1062SOL    HW1 3300   1.643   3.042   4.862
 1062SOL    HW2 3301   1.552   2.963   4.752
 1063SOL     OW 3302   0.705   2.912   4.092
 1063SOL    HW1 3303   0.691   2.919   4.191
 1063SOL    HW2 3304   0.789   2.861   4.074
 1064SOL     OW 3305   0.410   2.675   4.975
 1064SOL    HW1 3306   0.496   2.687   5.025
 1064SOL    HW2 3307   0.368   2.588   5.002
 1065SOL     OW 3308   1.274   2.248   4.986
 1065SOL    HW1 3309   1.295   2.322   5.050
 1065SOL    HW2 3310   1.185   2.265   4.943
 1066SOL     OW 3311   0.367   2.962   4.225
 1066SOL    HW1 3312   0.360   3.045   4.169
 1066SOL    HW2 3313   0.371   2.882   4.165
 1067SOL     OW 3314   0.566   2.399   4.589
 1067SOL    HW1 3315   0.578   2.465   4.515
 1067SOL    HW2 3316   0.612   2.433   4.672
 1068SOL     OW 3317   1.252   3.210   4.112
 1068SOL    HW1 3318   1.302   3.287   4.152
 1068SOL    HW2 3319   1.157   3.212   4.144
 1069SOL     OW 3320   1.272   3.307   4.866
 1069SOL    HW1 3321   1.319   3.320   4.953
 1069SOL    HW2 3322   1.206   3.233   4.875
 1070SOL     OW 3323   1.582   2.501   4.196
 1070SOL    HW1 3324   1.551   2.562   4.269
 1070SOL    HW2 3325   1.632   2.553   4.127
 1071SOL     OW 3326   0.354   3.372   5.053
 1071SOL    HW1 3327   0.333   3.328   4.966
 1071SOL    HW2 3328   0.451   3.398   5.056
 1072SOL     OW 3329   0.573   2.732   4.753
 1072SOL    HW1 3330   0.617   2.821   4.744
 1072SOL    HW2 3331   0.510   2.732   4.830
 1073SOL     OW 3332   1.360   2.724   4.769
 1073SOL    HW1 3333   1.285   2.724   4.703
 1073SOL    HW2 3334   1.397   2.632   4.778
 1074SOL     OW 3335   1.209   2.387   3.999
 1074SOL    HW1 3336   1.222   2.303   4.053
 1074SOL    HW2 3337   1.180   2.461   4.059
 1075SOL     OW 3338   0.307   2.075   4.955
 1075SOL    HW1 3339   0.284   2.112   5.045
 1075SOL    HW2 3340   0.277   1.980   4.949
 1076SOL     OW 3341   0.037   3.172   5.006
 1076SOL    HW1 3342   0.090   3.123   5.074
 1076SOL    HW2 3343   0.059   3.270   5.011
 1077SOL     OW 3344   0.732   2.496   4.788
 1077SOL    HW1 3345   0.791   2.470   4.712
 1077SOL    HW2 3346   0.704   2.592   4.777
 1078SOL     OW 3347   0.307   1.925   4.342
 1078SOL    HW1 3348   0.296   2.019   4.375
 1078SOL    HW2 3349   0.302   1.862   4.419
 1079SOL     OW 3350   1.622   2.229   4.098
 1079SOL    HW1 3351   1.624   2.153   4.162
 1079SOL    HW2 3352   1.574   2.306   4.138
 1080SOL     OW 3353   1.023   2.628   4.690
 1080SOL    HW1 3354   1.038   2.649   4.786
 1080SOL    HW2 3355   0.993   2.533   4.681
 1081SOL     OW 3356   1.540   2.136   3.849
 1081SOL    HW1 3357   1.479   2.061   3.872
 1081SOL    HW2 3358   1.562   2.188   3.932
 1082SOL     OW 3359   1.303   2.700   3.766
 1082SOL    HW1 3360   1.337   2.607   3.781
 1082SOL    HW2 3361   1.321   2.727   3.671
 1083SOL     OW 3362   1.068   3.195   4.573
 1083SOL    HW1 3363   1.075   3.111   4.518
 1083SOL    HW2 3364   1.130   3.264   4.537
 1084SOL     OW 3365   0.319   2.672   4.673
 1084SOL    HW1 3366   0.412   2.708   4.678
 1084SOL    HW2 3367   0.313   2.587   4.725
 1085SOL     OW 3368   0.339   2.371   4.730
 1085SOL    HW1 3369   0.287   2.288   4.713
 1085SOL    HW2 3370   0.416   2.376   4.666
 1086SOL     OW 3371   1.160   2.069   5.201
 1086SOL    HW1 3372   1.160   2.133   5.278
 1086SOL    HW2 3373   1.188   2.117   5.118
 1087SOL     OW 3374   0.008   3.188   3.924
 1087SOL    HW1 3375  -0.085   3.209   3.893
 1087SOL    HW2 3376   0.018   3.089   3.937
 1088SOL     OW 3377   0.088   3.663   4.651
 1088SOL    HW1 3378   0.046   3.577   4.624
 1088SOL    HW2 3379   0.182   3.666   4.617
 1089SOL     OW 3380   0.504   3.430   4.634
 1089SOL    HW1 3381   0.570   3.504   4.643
 1089SOL    HW2 3382   0.548   3.351   4.592
 1090SOL     OW 3383   1.002   2.658   4.962
 1090SOL    HW1 3384   1.043   2.626   5.048
 1090SOL    HW2 3385   0.906   2.631   4.959
 1091SOL     OW 3386   0.040   2.406   4.838
 1091SOL    HW1 3387   0.125   2.373   4.797
 1091SOL    HW2 3388   0.053   2.421   4.936
 1092SOL     OW 3389   0.815   2.434   4.049
 1092SOL    HW1 3390   0.822   2.345   4.003
 1092SOL    HW2 3391   0.721   2.468   4.041
 1093SOL     OW 3392   1.657   2.466   4.930
 1093SOL    HW1 3393   1.619   2.397   4.992
 1093SOL    HW2 3394   1.739   2.430   4.886
 1094SOL     OW 3395   0.671   2.326   4.993
 1094SOL    HW1 3396   0.637   2.237   4.963
 1094SOL    HW2 3397   0.697   2.380   4.913
 1095SOL     OW 3398   0.930   3.540   5.189
 1095SOL    HW1 3399   0.906   3.522   5.094
 1095SOL    HW2 3400   0.960   3.634   5.199
 1096SOL     OW 3401   0.473   2.362   3.915
 1096SOL    HW1 3402   0.534   2.442   3.919
 1096SOL    HW2 3403   0.378   2.393   3.922
 1097SOL     OW 3404   1.347   2.921   4.958
 1097SOL    HW1 3405   1.371   2.858   4.884
 1097SOL    HW2 3406   1.257   2.961   4.940
 1098SOL     OW 3407   1.302   2.717   4.033
 1098SOL    HW1 3408   1.216   2.686   4.075
 1098SOL    HW2 3409   1.298   2.703   3.934
 1099SOL     OW 3410   1.759   3.609   4.878
 1099SOL    HW1 3411   1.820   3.639   4.805
 1099SOL    HW2 3412   1.721   3.520   4.856
 1100SOL     OW 3413   1.252   3.593   4.852
 1100SOL    HW1 3414   1.336   3.598   4.798
 1100SOL    HW2 3415   1.229   3.497   4.870
 1101SOL     OW 3416   0.083   3.120   4.746
 1101SOL    HW1 3417   0.078   3.119   4.846
 1101SOL    HW2 3418   0.000   3.079   4.708
 1102SOL     OW 3419   1.726   1.997   4.247
 1102SOL    HW1 3420   1.799   1.980   4.180
 1102SOL    HW2 3421   1.695   1.910   4.285
 1103SOL     OW 3422   1.388   3.435   4.201
 1103SOL    HW1 3423   1.455   3.447   4.127
 1103SOL    HW2 3424   1.348   3.524   4.224
 1104SOL     OW 3425   1.280   2.789   4.396
 1104SOL    HW1 3426   1.340   2.708   4.398
 1104SOL    HW2 3427   1.320   2.858   4.336
 1105SOL     OW 3428   0.672   3.478   3.878
 1105SOL    HW1 3429   0.681   3.488   3.779
 1105SOL    HW2 3430   0.632   3.389   3.899
 1106SOL     OW 3431   1.650   3.582   5.118
 1106SOL    HW1 3432   1.703   3.592   5.034
 1106SOL    HW2 3433   1.623   3.672   5.152
 1107SOL     OW 3434   1.841   2.037   4.687
 1107SOL    HW1 3435   1.880   1.952   4.651
 1107SOL    HW2 3436   1.743   2.039   4.668
 1108SOL     OW 3437   0.263   2.188   4.444
 1108SOL    HW1 3438   0.184   2.239   4.410
 1108SOL    HW2 3439   0.254   2.173   4.542
 1109SOL     OW 3440   1.194   3.474   3.755
 1109SOL    HW1 3441   1.200   3.381   3.792
 1109SOL    HW2 3442   1.135   3.474   3.675
 1110SOL     OW 3443   0.822   2.864   5.096
 1110SOL    HW1 3444   0.862   2.863   5.004
 1110SOL    HW2 3445   0.832   2.956   5.136
 1111SOL     OW 3446   0.916   2.772   4.015
 1111SOL    HW1 3447   0.979   2.810   3.947
 1111SOL    HW2 3448   0.956   2.689   4.054
 1112SOL     OW 3449   1.504   3.469   3.768
 1112SOL    HW1 3450   1.412   3.506   3.775
 1112SOL    HW2 3451   1.542   3.489   3.678
 1113SOL     OW 3452   1.039   2.960   4.420
 1113SOL    HW1 3453   0.969   2.913   4.474
 1113SOL    HW2 3454   1.098   2.892   4.377
 1114SOL     OW 3455   1.014   2.098   4.695
 1114SOL    HW1 3456   1.006   2.062   4.602
 1114SOL    HW2 3457   1.012   2.022   4.760
 1115SOL     OW 3458   0.590   3.349   4.215
 1115SOL    HW1 3459   0.632   3.291   4.145
 1115SOL    HW2 3460   0.546   3.428   4.171
 1116SOL     OW 3461   1.709   2.247   5.105
 1116SOL    HW1 3462   1.782   2.316   5.109
 1116SOL    HW2 3463   1.737   2.172   5.046
 1117SOL     OW 3464   0.255   3.210   4.014
 1117SOL    HW1 3465   0.159   3.211   3.987
 1117SOL    HW2 3466   0.267   3.263   4.098
 1118SOL     OW 3467   0.075   2.207   3.757
 1118SOL    HW1 3468  -0.017   2.179   3.728
 1118SOL    HW2 3469   0.106   2.284   3.701
 1119SOL     OW 3470   0.072   2.028   4.042
 1119SOL    HW1 3471   0.055   2.111   3.988
 1119SOL    HW2 3472   0.162   1.991   4.020
 1120SOL     OW 3473   1.183   3.197   3.843
 1120SOL    HW1 3474   1.084   3.186   3.845
 1120SOL    HW2 3475   1.217   3.212   3.936
 1121SOL     OW 3476   1.493   3.629   4.683
 1121SOL    HW1 3477   1.526   3.693   4.614
 1121SOL    HW2 3478   1.559   3.623   4.758
 1122SOL     OW 3479   1.450   3.082   5.357
 1122SOL    HW1 3480   1.441   3.072   5.456
 1122SOL    HW2 3481   1.546   3.075   5.331
 1123SOL     OW 3482   1.674   2.745   4.978
 1123SOL    HW1 3483   1.647   2.656   4.941
 1123SOL    HW2 3484   1.675   2.813   4.905
 1124SOL     OW 3485   1.225   2.187   4.173
 1124SOL    HW1 3486   1.290   2.113   4.162
 1124SOL    HW2 3487   1.245   2.237   4.257
 1125SOL     OW 3488   0.594   2.607   4.376
 1125SOL    HW1 3489   0.644   2.692   4.357
 1125SOL    HW2 3490   0.506   2.609   4.328
 1126SOL     OW 3491   1.730   2.796   5.241
 1126SOL    HW1 3492   1.768   2.887   5.256
 1126SOL    HW2 3493   1.722   2.779   5.142
 1127SOL     OW 3494   0.859   3.236   3.740
 1127SOL    HW1 3495   0.813   3.251   3.828
 1127SOL    HW2 3496   0.903   3.321   3.710
 1128SOL     OW 3497   0.661   3.652   4.677
 1128SOL    HW1 3498   0.615   3.740   4.664
 1128SOL    HW2 3499   0.760   3.664   4.670
 1129SOL     OW 3500   0.859   2.818   4.585
 1129SOL    HW1 3501   0.913   2.749   4.633
 1129SOL    HW2 3502   0.827   2.887   4.651
 1130SOL     OW 3503   1.083   2.846   3.811
 1130SOL    HW1 3504   1.060   2.899   3.729
 1130SOL    HW2 3505   1.164   2.790   3.792
 1131SOL     OW 3506   1.861   3.431   4.575
 1131SOL    HW1 3507   1.790   3.419   4.505
 1131SOL    HW2 3508   1.862   3.352   4.635
 1132SOL     OW 3509   0.079   3.102   4.377
 1132SOL    HW1 3510   0.078   3.055   4.465
 1132SOL    HW2 3511   0.161   3.074   4.326
 1133SOL     OW 3512   1.824   2.054   4.951
 1133SOL    HW1 3513   1.820   1.964   4.995
 1133SOL    HW2 3514   1.827   2.043   4.852
 1134SOL     OW 3515   0.428   2.286   4.244
 1134SOL    HW1 3516   0.458   2.214   4.182
 1134SOL    HW2 3517   0.389   2.246   4.327
 1135SOL     OW 3518   1.705   3.349   4.828
 1135SOL    HW1 3519   1.612   3.324   4.801
 1135SOL    HW2 3520   1.731   3.299   4.910
 1136SOL     OW 3521   0.812   3.448   4.411
 1136SOL    HW1 3522   0.844   3.458   4.317
 1136SOL    HW2 3523   0.733   3.386   4.413
 1137SOL     OW 3524   1.424   2.076   4.836
 1137SOL    HW1 3525   1.476   2.011   4.891
 1137SOL    HW2 3526   1.375   2.139   4.897
 1138SOL     OW 3527   1.001   1.896   4.878
 1138SOL    HW1 3528   0.938   1.824   4.847
 1138SOL    HW2 3529   1.094   1.860   4.878
 1139SOL     OW 3530   0.770   3.192   4.025
 1139SOL    HW1 3531   0.724   3.105   4.042
 1139SOL    HW2 3532   0.861   3.189   4.066
 1140SOL     OW 3533   1.352   1.914   3.892
 1140SOL    HW1 3534   1.387   1.873   3.808
 1140SOL    HW2 3535   1.262   1.876   3.912
 1141SOL     OW 3536   1.300   2.315   4.415
 1141SOL    HW1 3537   1.241   2.395   4.419
 1141SOL    HW2 3538   1.315   2.280   4.508
 1142SOL     OW 3539   1.593   2.083   4.606
 1142SOL    HW1 3540   1.509   2.082   4.660
 1142SOL    HW2 3541   1.595   2.166   4.550
 1143SOL     OW 3542   0.039   2.939   4.024
 1143SOL    HW1 3543   0.138   2.928   4.015
 1143SOL    HW2 3544  -0.001   2.853   4.056
 1144SOL     OW 3545   0.875   3.508   4.061
 1144SOL    HW1 3546   0.798   3.473   4.007
 1144SOL    HW2 3547   0.843   3.579   4.123
 1145SOL     OW 3548   0.230   4.352   0.113
 1145SOL    HW1 3549   0.137   4.350   0.150
 1145SOL    HW2 3550   0.231   4.313   0.021
 1146SOL     OW 3551   0.225   3.999   0.996
 1146SOL    HW1 3552   0.260   3.982   1.088
 1146SOL    HW2 3553   0.137   3.954   0.984
 1147SOL     OW 3554   0.019   4.092   0.647
 1147SOL    HW1 3555  -0.063   4.135   0.686
 1147SOL    HW2 3556  -0.009   4.019   0.584
 1148SOL     OW 3557   0.569   4.999   1.165
 1148SOL    HW1 3558   0.476   4.992   1.128
 1148SOL    HW2 3559   0.580   5.088   1.209
 1149SOL     OW 3560   1.555   5.235   0.703
 1149SOL    HW1 3561   1.498   5.219   0.784
 1149SOL    HW2 3562   1.496   5.245   0.623
 1150SOL     OW 3563   1.135   4.427   0.717
 1150SOL    HW1 3564   1.192   4.505   0.692
 1150SOL    HW2 3565   1.075   4.453   0.793
 1151SOL     OW 3566   1.755   4.331   0.231
 1151SOL    HW1 3567   1.743   4.318   0.132
 1151SOL    HW2 3568   1.725   4.250   0.280
 1152SOL     OW 3569   0.768   4.868   1.023
 1152SOL    HW1 3570   0.690   4.885   1.083
 1152SOL    HW2 3571   0.802   4.955   0.987
 1153SOL     OW 3572   0.850   4.522   1.823
 1153SOL    HW1 3573   0.846   4.598   1.888
 1153SOL    HW2 3574   0.872   4.558   1.732
 1154SOL     OW 3575   0.685   4.736   0.665
 1154SOL    HW1 3576   0.754   4.720   0.735
 1154SOL    HW2 3577   0.612   4.793   0.703
 1155SOL     OW 3578   0.686   4.885   1.803
 1155SOL    HW1 3579   0.746   4.964   1.817
 1155SOL    HW2 3580   0.600   4.916   1.762
 1156SOL     OW 3581   0.335   5.159   1.061
 1156SOL    HW1 3582   0.257   5.128   1.008
 1156SOL    HW2 3583   0.393   5.217   1.004
 1157SOL     OW 3584   0.438   4.116   1.499
 1157SOL    HW1 3585   0.520   4.060   1.508
 1157SOL    HW2 3586   0.357   4.058   1.503
 1158SOL     OW 3587   1.603   4.171   0.737
 1158SOL    HW1 3588   1.529   4.217   0.687
 1158SOL    HW2 3589   1.654   4.239   0.790
 1159SOL     OW 3590   0.240   4.815   0.886
 1159SOL    HW1 3591   0.254   4.731   0.938
 1159SOL    HW2 3592   0.185   4.879   0.941
 1160SOL     OW 3593   0.606   4.688   0.123
 1160SOL    HW1 3594   0.613   4.772   0.069
 1160SOL    HW2 3595   0.652   4.701   0.211
 1161SOL     OW 3596   1.594   3.838   1.480
 1161SOL    HW1 3597   1.576   3.905   1.408
 1161SOL    HW2 3598   1.591   3.884   1.569
 1162SOL     OW 3599   0.122   4.367   0.563
 1162SOL    HW1 3600   0.077   4.279   0.580
 1162SOL    HW2 3601   0.121   4.421   0.647
 1163SOL     OW 3602   1.689   4.646   0.612
 1163SOL    HW1 3603   1.784   4.617   0.620
 1163SOL    HW2 3604   1.681   4.711   0.537
 1164SOL     OW 3605   1.641   4.832   0.432
 1164SOL    HW1 3606   1.727   4.834   0.380
 1164SOL    HW2 3607   1.655   4.879   0.520
 1165SOL     OW 3608   0.113   4.461   1.597
 1165SOL    HW1 3609   0.201   4.448   1.642
 1165SOL    HW2 3610   0.100   4.558   1.575
 1166SOL     OW 3611   1.293   4.952   1.423
 1166SOL    HW1 3612   1.330   4.879   1.365
 1166SOL    HW2 3613   1.345   4.957   1.508
 1167SOL     OW 3614   0.809   3.728   0.502
 1167SOL    HW1 3615   0.849   3.819   0.493
 1167SOL    HW2 3616   0.709   3.736   0.508
 1168SOL     OW 3617   0.197   4.700   1.264
 1168SOL    HW1 3618   0.286   4.655   1.250
 1168SOL    HW2 3619   0.124   4.635   1.245
 1169SOL     OW 3620   1.525   4.723   0.190
 1169SOL    HW1 3621   1.462   4.647   0.203
 1169SOL    HW2 3622   1.573   4.741   0.276
 1170SOL     OW 3623   0.317   3.975   1.801
 1170SOL    HW1 3624   0.388   4.046   1.807
 1170SOL    HW2 3625   0.229   4.014   1.829
 1171SOL     OW 3626   1.466   5.141   0.953
 1171SOL    HW1 3627   1.407   5.147   1.033
 1171SOL    HW2 3628   1.451   5.053   0.907
 1172SOL     OW 3629   0.598   4.453   0.270
 1172SOL    HW1 3630   0.622   4.522   0.202
 1172SOL    HW2 3631   0.520   4.486   0.324
 1173SOL     OW 3632   1.281   4.069   0.944
 1173SOL    HW1 3633   1.195   4.019   0.931
 1173SOL    HW2 3634   1.343   4.015   1.000
 1174SOL     OW 3635   0.807   4.329   1.465
 1174SOL    HW1 3636   0.760   4.326   1.554
 1174SOL    HW2 3637   0.756   4.274   1.399
 1175SOL     OW 3638   1.394   4.193   1.674
 1175SOL    HW1 3639   1.374   4.236   1.762
 1175SOL    HW2 3640   1.472   4.131   1.683
 1176SOL     OW 3641   0.973   4.614   1.572
 1176SOL    HW1 3642   1.019   4.530   1.543
 1176SOL    HW2 3643   0.917   4.648   1.497
 1177SOL     OW 3644   0.991   4.134   1.242
 1177SOL    HW1 3645   0.914   4.168   1.296
 1177SOL    HW2 3646   0.957   4.083   1.163
 1178SOL     OW 3647   1.041   4.425   0.429
 1178SOL    HW1 3648   1.067   4.421   0.525
 1178SOL    HW2 3649   0.956   4.374   0.415
 1179SOL     OW 3650   0.076   4.535   0.789
 1179SOL    HW1 3651   0.175   4.523   0.798
 1179SOL    HW2 3652   0.052   4.630   0.810
 1180SOL     OW 3653   0.865   4.072   0.195
 1180SOL    HW1 3654   0.924   4.135   0.146
 1180SOL    HW2 3655   0.884   3.978   0.166
 1181SOL     OW 3656   1.719   4.309   1.831
 1181SOL    HW1 3657   1.693   4.398   1.795
 1181SOL    HW2 3658   1.717   4.241   1.758
 1182SOL     OW 3659   1.362   4.868   0.545
 1182SOL    HW1 3660   1.445   4.839   0.497
 1182SOL    HW2 3661   1.313   4.935   0.489
 1183SOL     OW 3662   0.550   3.920   0.885
 1183SOL    HW1 3663   0.545   3.915   0.985
 1183SOL    HW2 3664   0.552   4.016   0.856
 1184SOL     OW 3665   1.795   4.790   0.873
 1184SOL    HW1 3666   1.733   4.775   0.797
 1184SOL    HW2 3667   1.743   4.801   0.958
 1185SOL     OW 3668   0.321   4.667   0.242
 1185SOL    HW1 3669   0.403   4.706   0.200
 1185SOL    HW2 3670   0.294   4.585   0.193
 1186SOL     OW 3671   1.458   4.459   0.728
 1186SOL    HW1 3672   1.453   4.394   0.803
 1186SOL    HW2 3673   1.538   4.518   0.741
 1187SOL     OW 3674   0.202   4.009   1.498
 1187SOL    HW1 3675   0.122   4.069   1.485
 1187SOL    HW2 3676   0.192   3.960   1.584
 1188SOL     OW 3677   1.632   5.101   0.081
 1188SOL    HW1 3678   1.600   5.195   0.071
 1188SOL    HW2 3679   1.556   5.038   0.069
 1189SOL     OW 3680   1.400   3.831   0.426
 1189SOL    HW1 3681   1.376   3.794   0.336
 1189SOL    HW2 3682   1.499   3.847   0.430
 1190SOL     OW 3683   0.382   4.424   0.480
 1190SOL    HW1 3684   0.427   4.334   0.477
 1190SOL    HW2 3685   0.288   4.413   0.513
 1191SOL     OW 3686   1.547   3.946   1.729
 1191SOL    HW1 3687   1.542   3.983   1.821
 1191SOL    HW2 3688   1.475   3.877   1.717
 1192SOL     OW 3689   0.781   3.988   1.749
 1192SOL    HW1 3690   0.848   3.927   1.792
 1192SOL    HW2 3691   0.708   4.007   1.814
 1193SOL     OW 3692   1.351   4.314   1.433
 1193SOL    HW1 3693   1.379   4.271   1.518
 1193SOL    HW2 3694   1.376   4.410   1.434
 1194SOL     OW 3695   0.803   5.126   0.924
 1194SOL    HW1 3696   0.893   5.140   0.882
 1194SOL    HW2 3697   0.732   5.128   0.853
 1195SOL     OW 3698   0.922   4.227   0.899
 1195SOL    HW1 3699   0.897   4.218   0.803
 1195SOL    HW2 3700   0.970   4.145   0.930
 1196SOL     OW 3701   0.539   3.788   0.512
 1196SOL    HW1 3702   0.458   3.789   0.570
 1196SOL    HW2 3703   0.542   3.871   0.457
 1197SOL     OW 3704   1.434   4.912   0.041
 1197SOL    HW1 3705   1.466   4.836   0.098
 1197SOL    HW2 3706   1.342   4.939   0.071
 1198SOL     OW 3707   0.297   3.759   0.171
 1198SOL    HW1 3708   0.346   3.843   0.150
 1198SOL    HW2 3709   0.359   3.694   0.216
 1199SOL     OW 3710   0.935   3.960   0.480
 1199SOL    HW1 3711   0.887   4.001   0.402
 1199SOL    HW2 3712   1.034   3.958   0.461
 1200SOL     OW 3713   1.076   4.407   1.464
 1200SOL    HW1 3714   0.996   4.346   1.467
 1200SOL    HW2 3715   1.157   4.354   1.440
 1201SOL     OW 3716   1.227   5.294   0.793
 1201SOL    HW1 3717   1.248   5.368   0.728
 1201SOL    HW2 3718   1.295   5.294   0.866
 1202SOL     OW 3719   0.459   4.876   0.741
 1202SOL    HW1 3720   0.388   4.849   0.806
 1202SOL    HW2 3721   0.433   4.848   0.648
 1203SOL     OW 3722   1.032   4.273   0.016
 1203SOL    HW1 3723   0.991   4.355  -0.023
 1203SOL    HW2 3724   1.096   4.299   0.089
 1204SOL     OW 3725   0.078   4.280   1.386
 1204SOL    HW1 3726   0.170   4.279   1.345
 1204SOL    HW2 3727   0.072   4.354   1.453
 1205SOL     OW 3728   0.561   3.946   1.147
 1205SOL    HW1 3729   0.599   3.862   1.184
 1205SOL    HW2 3730   0.473   3.965   1.191
 1206SOL     OW 3731   0.866   4.178   0.642
 1206SOL    HW1 3732   0.834   4.250   0.580
 1206SOL    HW2 3733   0.890   4.097   0.589
 1207SOL     OW 3734   1.017   3.763   0.753
 1207SOL    HW1 3735   0.945   3.768   0.684
 1207SOL    HW2 3736   0.993   3.694   0.822
 1208SOL     OW 3737   1.429   4.897   0.867
 1208SOL    HW1 3738   1.374   4.813   0.860
 1208SOL    HW2 3739   1.455   4.926   0.775
 1209SOL     OW 3740   1.466   4.314   0.992
 1209SOL    HW1 3741   1.436   4.219   0.999
 1209SOL    HW2 3742   1.539   4.330   1.058
 1210SOL     OW 3743   1.857   4.557   0.377
 1210SOL    HW1 3744   1.899   4.493   0.441
 1210SOL    HW2 3745   1.819   4.506   0.299
 1211SOL     OW 3746   1.664   5.004   0.657
 1211SOL    HW1 3747   1.763   5.012   0.671
 1211SOL    HW2 3748   1.619   5.088   0.688
 1212SOL     OW 3749   1.390   4.299   0.078
 1212SOL    HW1 3750   1.336   4.278   0.159
 1212SOL    HW2 3751   1.481   4.258   0.087
 1213SOL     OW 3752   0.527   3.980   0.328
 1213SOL    HW1 3753   0.554   3.921   0.253
 1213SOL    HW2 3754   0.527   4.075   0.297
 1214SOL     OW 3755   1.754   4.947   1.588
 1214SOL    HW1 3756   1.845   4.908   1.575
 1214SOL    HW2 3757   1.762   5.043   1.612
 1215SOL     OW 3758   1.638   4.823   1.079
 1215SOL    HW1 3759   1.643   4.904   1.138
 1215SOL    HW2 3760   1.552   4.825   1.028
 1216SOL     OW 3761   0.915   3.813   1.402
 1216SOL    HW1 3762   0.940   3.793   1.307
 1216SOL    HW2 3763   0.987   3.869   1.444
 1217SOL     OW 3764   0.980   4.840   1.719
 1217SOL    HW1 3765   0.881   4.846   1.729
 1217SOL    HW2 3766   1.003   4.760   1.663
 1218SOL     OW 3767   0.705   4.774   0.368
 1218SOL    HW1 3768   0.691   4.781   0.467
 1218SOL    HW2 3769   0.789   4.723   0.350
 1219SOL     OW 3770   0.410   4.537   1.251
 1219SOL    HW1 3771   0.496   4.549   1.301
 1219SOL    HW2 3772   0.368   4.450   1.278
 1220SOL     OW 3773   1.274   4.110   1.262
 1220SOL    HW1 3774   1.295   4.184   1.326
 1220SOL    HW2 3775   1.185   4.127   1.219
 1221SOL     OW 3776   0.367   4.824   0.501
 1221SOL    HW1 3777   0.360   4.907   0.445
 1221SOL    HW2 3778   0.371   4.744   0.441
 1222SOL     OW 3779   0.566   4.261   0.865
 1222SOL    HW1 3780   0.578   4.327   0.791
 1222SOL    HW2 3781   0.612   4.295   0.948
 1223SOL     OW 3782   1.582   4.363   0.472
 1223SOL    HW1 3783   1.551   4.424   0.545
 1223SOL    HW2 3784   1.632   4.415   0.403
 1224SOL     OW 3785   0.402   4.475   1.598
 1224SOL    HW1 3786   0.470   4.530   1.551
 1224SOL    HW2 3787   0.442   4.387   1.625
 1225SOL     OW 3788   1.587   4.503   1.670
 1225SOL    HW1 3789   1.495   4.541   1.665
 1225SOL    HW2 3790   1.647   4.550   1.605
 1226SOL     OW 3791   1.013   3.829   1.770
 1226SOL    HW1 3792   1.019   3.914   1.718
 1226SOL    HW2 3793   1.045   3.753   1.713
 1227SOL     OW 3794   0.504   3.774   1.740
 1227SOL    HW1 3795   0.462   3.717   1.670
 1227SOL    HW2 3796   0.438   3.843   1.772
 1228SOL     OW 3797   0.573   4.594   1.029
 1228SOL    HW1 3798   0.617   4.683   1.020
 1228SOL    HW2 3799   0.510   4.594   1.106
 1229SOL     OW 3800   1.360   4.586   1.045
 1229SOL    HW1 3801   1.285   4.586   0.979
 1229SOL    HW2 3802   1.397   4.494   1.054
 1230SOL     OW 3803   1.209   4.249   0.275
 1230SOL    HW1 3804   1.222   4.165   0.329
 1230SOL    HW2 3805   1.180   4.323   0.335
 1231SOL     OW 3806   0.307   3.937   1.231
 1231SOL    HW1 3807   0.284   3.974   1.321
 1231SOL    HW2 3808   0.277   3.842   1.225
 1232SOL     OW 3809   0.037   5.034   1.282
 1232SOL    HW1 3810   0.090   4.985   1.350
 1232SOL    HW2 3811   0.059   5.132   1.287
 1233SOL     OW 3812   0.732   4.358   1.064
 1233SOL    HW1 3813   0.791   4.332   0.988
 1233SOL    HW2 3814   0.704   4.454   1.053
 1234SOL     OW 3815   1.728   4.659   1.854
 1234SOL    HW1 3816   1.682   4.652   1.765
 1234SOL    HW2 3817   1.666   4.703   1.920
 1235SOL     OW 3818   0.307   3.787   0.618
 1235SOL    HW1 3819   0.296   3.881   0.651
 1235SOL    HW2 3820   0.302   3.724   0.695
 1236SOL     OW 3821   1.622   4.091   0.374
 1236SOL    HW1 3822   1.624   4.015   0.438
 1236SOL    HW2 3823   1.574   4.168   0.414
 1237SOL     OW 3824   1.023   4.490   0.966
 1237SOL    HW1 3825   1.038   4.511   1.062
 1237SOL    HW2 3826   0.993   4.395   0.957
 1238SOL     OW 3827   1.859   5.242   1.605
 1238SOL    HW1 3828   1.873   5.269   1.510
 1238SOL    HW2 3829   1.942   5.264   1.658
 1239SOL     OW 3830   0.350   4.622   1.804
 1239SOL    HW1 3831   0.426   4.666   1.852
 1239SOL    HW2 3832   0.385   4.575   1.722
 1240SOL     OW 3833   1.540   3.998   0.125
 1240SOL    HW1 3834   1.479   3.923   0.148
 1240SOL    HW2 3835   1.562   4.050   0.208
 1241SOL     OW 3836   1.303   4.562   0.042
 1241SOL    HW1 3837   1.337   4.469   0.057
 1241SOL    HW2 3838   1.321   4.589  -0.053
 1242SOL     OW 3839   0.319   4.534   0.949
 1242SOL    HW1 3840   0.412   4.570   0.954
 1242SOL    HW2 3841   0.313   4.449   1.001
 1243SOL     OW 3842   0.339   4.233   1.006
 1243SOL    HW1 3843   0.287   4.150   0.989
 1243SOL    HW2 3844   0.416   4.238   0.942
 1244SOL     OW 3845   1.138   4.104   1.678
 1244SOL    HW1 3846   1.093   4.167   1.742
 1244SOL    HW2 3847   1.231   4.135   1.661
 1245SOL     OW 3848   1.160   3.931   1.477
 1245SOL    HW1 3849   1.160   3.995   1.554
 1245SOL    HW2 3850   1.188   3.979   1.394
 1246SOL     OW 3851   0.008   5.050   0.200
 1246SOL    HW1 3852  -0.085   5.071   0.169
 1246SOL    HW2 3853   0.018   4.951   0.213
 1247SOL     OW 3854   1.002   4.520   1.238
 1247SOL    HW1 3855   1.043   4.488   1.324
 1247SOL    HW2 3856   0.906   4.493   1.235
 1248SOL     OW 3857   0.040   4.268   1.114
 1248SOL    HW1 3858   0.125   4.235   1.073
 1248SOL    HW2 3859   0.053   4.283   1.212
 1249SOL     OW 3860   0.189   4.244   1.722
 1249SOL    HW1 3861   0.248   4.204   1.652
 1249SOL    HW2 3862   0.131   4.315   1.681
 1250SOL     OW 3863   1.369   4.674   1.660
 1250SOL    HW1 3864   1.408   4.763   1.680
 1250SOL    HW2 3865   1.379   4.654   1.563
 1251SOL     OW 3866   0.815   4.296   0.325
 1251SOL    HW1 3867   0.822   4.207   0.279
 1251SOL    HW2 3868   0.721   4.330   0.317
 1252SOL     OW 3869   1.657   4.328   1.206
 1252SOL    HW1 3870   1.619   4.259   1.268
 1252SOL    HW2 3871   1.739   4.292   1.162
 1253SOL     OW 3872   0.671   4.188   1.269
 1253SOL    HW1 3873   0.637   4.099   1.239
 1253SOL    HW2 3874   0.697   4.242   1.189
 1254SOL     OW 3875   0.473   4.224   0.191
 1254SOL    HW1 3876   0.534   4.304   0.195
 1254SOL    HW2 3877   0.378   4.255   0.198
 1255SOL     OW 3878   0.159   4.861   1.466
 1255SOL    HW1 3879   0.181   4.800   1.542
 1255SOL    HW2 3880   0.169   4.812   1.380
 1256SOL     OW 3881   1.347   4.783   1.234
 1256SOL    HW1 3882   1.371   4.720   1.160
 1256SOL    HW2 3883   1.257   4.823   1.216
 1257SOL     OW 3884   1.302   4.579   0.309
 1257SOL    HW1 3885   1.216   4.548   0.351
 1257SOL    HW2 3886   1.298   4.565   0.210
 1258SOL     OW 3887   0.083   4.982   1.022
 1258SOL    HW1 3888   0.078   4.981   1.122
 1258SOL    HW2 3889   0.000   4.941   0.984
 1259SOL     OW 3890   0.903   3.810   0.133
 1259SOL    HW1 3891   0.954   3.811   0.047
 1259SOL    HW2 3892   0.959   3.768   0.204
 1260SOL     OW 3893   1.726   3.859   0.523
 1260SOL    HW1 3894   1.799   3.842   0.456
 1260SOL    HW2 3895   1.695   3.772   0.561
 1261SOL     OW 3896   1.280   4.651   0.672
 1261SOL    HW1 3897   1.340   4.570   0.674
 1261SOL    HW2 3898   1.320   4.720   0.612
 1262SOL     OW 3899   0.830   4.997   1.422
 1262SOL    HW1 3900   0.825   5.030   1.517
 1262SOL    HW2 3901   0.744   5.016   1.376
 1263SOL     OW 3902   1.841   3.899   0.963
 1263SOL    HW1 3903   1.880   3.814   0.927
 1263SOL    HW2 3904   1.743   3.901   0.944
 1264SOL     OW 3905   0.263   4.050   0.720
 1264SOL    HW1 3906   0.184   4.101   0.686
 1264SOL    HW2 3907   0.254   4.035   0.818
 1265SOL     OW 3908   0.822   4.726   1.372
 1265SOL    HW1 3909   0.862   4.725   1.280
 1265SOL    HW2 3910   0.832   4.818   1.412
 1266SOL     OW 3911   0.916   4.634   0.291
 1266SOL    HW1 3912   0.979   4.672   0.223
 1266SOL    HW2 3913   0.956   4.551   0.330
 1267SOL     OW 3914   0.372   5.012   1.490
 1267SOL    HW1 3915   0.359   5.105   1.456
 1267SOL    HW2 3916   0.288   4.960   1.477
 1268SOL     OW 3917   1.614   5.016   1.289
 1268SOL    HW1 3918   1.674   5.019   1.369
 1268SOL    HW2 3919   1.539   5.080   1.302
 1269SOL     OW 3920   1.039   4.822   0.696
 1269SOL    HW1 3921   0.969   4.775   0.750
 1269SOL    HW2 3922   1.098   4.754   0.653
 1270SOL     OW 3923   1.014   3.960   0.971
 1270SOL    HW1 3924   1.006   3.924   0.878
 1270SOL    HW2 3925   1.012   3.884   1.036
 1271SOL     OW 3926   1.709   4.109   1.381
 1271SOL    HW1 3927   1.782   4.178   1.385
 1271SOL    HW2 3928   1.737   4.034   1.322
 1272SOL     OW 3929   0.105   4.737   1.726
 1272SOL    HW1 3930   0.028   4.704   1.780
 1272SOL    HW2 3931   0.190   4.707   1.768
 1273SOL     OW 3932   0.672   3.927   1.489
 1273SOL    HW1 3933   0.762   3.911   1.449
 1273SOL    HW2 3934   0.680   3.932   1.588
 1274SOL     OW 3935   0.075   4.069   0.033
 1274SOL    HW1 3936  -0.017   4.041   0.004
 1274SOL    HW2 3937   0.106   4.146  -0.023
 1275SOL     OW 3938   1.440   4.580   1.398
 1275SOL    HW1 3939   1.383   4.632   1.335
 1275SOL    HW2 3940   1.536   4.592   1.374
 1276SOL     OW 3941   0.072   3.890   0.318
 1276SOL    HW1 3942   0.055   3.973   0.264
 1276SOL    HW2 3943   0.162   3.853   0.296
 1277SOL     OW 3944   0.613   4.566   1.431
 1277SOL    HW1 3945   0.669   4.647   1.414
 1277SOL    HW2 3946   0.672   4.486   1.434
 1278SOL     OW 3947   0.716   4.289   1.708
 1278SOL    HW1 3948   0.735   4.354   1.782
 1278SOL    HW2 3949   0.776   4.209   1.717
 1279SOL     OW 3950   1.450   4.944   1.633
 1279SOL    HW1 3951   1.441   4.934   1.732
 1279SOL    HW2 3952   1.546   4.937   1.607
 1280SOL     OW 3953   1.674   4.607   1.254
 1280SOL    HW1 3954   1.647   4.518   1.217
 1280SOL    HW2 3955   1.675   4.675   1.181
 1281SOL     OW 3956   1.225   4.049   0.449
 1281SOL    HW1 3957   1.290   3.975   0.438
 1281SOL    HW2 3958   1.245   4.099   0.533
 1282SOL     OW 3959   0.594   4.469   0.652
 1282SOL    HW1 3960   0.644   4.554   0.633
 1282SOL    HW2 3961   0.506   4.471   0.604
 1283SOL     OW 3962   1.777   4.066   1.642
 1283SOL    HW1 3963   1.760   4.097   1.548
 1283SOL    HW2 3964   1.693   4.029   1.680
 1284SOL     OW 3965   1.730   4.658   1.517
 1284SOL    HW1 3966   1.768   4.749   1.532
 1284SOL    HW2 3967   1.722   4.641   1.418
 1285SOL     OW 3968   0.859   4.680   0.861
 1285SOL    HW1 3969   0.913   4.611   0.909
 1285SOL    HW2 3970   0.827   4.749   0.927
 1286SOL     OW 3971   1.083   4.708   0.087
 1286SOL    HW1 3972   1.060   4.761   0.005
 1286SOL    HW2 3973   1.164   4.652   0.068
 1287SOL     OW 3974   0.079   4.964   0.653
 1287SOL    HW1 3975   0.078   4.917   0.741
 1287SOL    HW2 3976   0.161   4.936   0.602
 1288SOL     OW 3977   1.824   3.916   1.227
 1288SOL    HW1 3978   1.820   3.826   1.271
 1288SOL    HW2 3979   1.827   3.905   1.128
 1289SOL     OW 3980   0.428   4.148   0.520
 1289SOL    HW1 3981   0.458   4.076   0.458
 1289SOL    HW2 3982   0.389   4.108   0.603
 1290SOL     OW 3983   0.317   4.271   1.280
 1290SOL    HW1 3984   0.355   4.212   1.352
 1290SOL    HW2 3985   0.357   4.245   1.192
 1291SOL     OW 3986   1.424   3.938   1.112
 1291SOL    HW1 3987   1.476   3.873   1.167
 1291SOL    HW2 3988   1.375   4.001   1.173
 1292SOL     OW 3989   1.001   3.758   1.154
 1292SOL    HW1 3990   0.938   3.686   1.123
 1292SOL    HW2 3991   1.094   3.722   1.154
 1293SOL     OW 3992   0.770   5.054   0.301
 1293SOL    HW1 3993   0.724   4.967   0.318
 1293SOL    HW2 3994   0.861   5.051   0.342
 1294SOL     OW 3995   1.352   3.776   0.168
 1294SOL    HW1 3996   1.387   3.735   0.084
 1294SOL    HW2 3997   1.262   3.738   0.188
 1295SOL     OW 3998   1.300   4.177   0.691
 1295SOL    HW1 3999   1.241   4.257   0.695
 1295SOL    HW2 4000   1.315   4.142   0.784
 1296SOL     OW 4001   1.593   3.945   0.882
 1296SOL    HW1 4002   1.509   3.944   0.936
 1296SOL    HW2 4003   1.595   4.028   0.826
 1297SOL     OW 4004   0.039   4.801   0.300
 1297SOL    HW1 4005   0.138   4.790   0.291
 1297SOL    HW2 4006  -0.001   4.715   0.332
 1298SOL     OW 4007   0.230   4.352   1.975
 1298SOL    HW1 4008   0.137   4.350   2.012
 1298SOL    HW2 4009   0.231   4.313   1.883
 1299SOL     OW 4010   0.225   3.999   2.858
 1299SOL    HW1 4011   0.260   3.982   2.950
 1299SOL    HW2 4012   0.137   3.954   2.846
 1300SOL     OW 4013   0.019   4.092   2.509
 1300SOL    HW1 4014  -0.063   4.135   2.548
 1300SOL    HW2 4015  -0.009   4.019   2.446
 1301SOL     OW 4016   0.569   4.999   3.027
 1301SOL    HW1 4017   0.476   4.992   2.990
 1301SOL    HW2 4018   0.580   5.088   3.071
 1302SOL     OW 4019   1.555   5.235   2.565
 1302SOL    HW1 4020   1.498   5.219   2.646
 1302SOL    HW2 4021   1.496   5.245   2.485
 1303SOL     OW 4022   1.135   4.427   2.579
 1303SOL    HW1 4023   1.192   4.505   2.554
 1303SOL    HW2 4024   1.075   4.453   2.655
 1304SOL     OW 4025   1.755   4.331   2.093
 1304SOL    HW1 4026   1.743   4.318   1.994
 1304SOL    HW2 4027   1.725   4.250   2.142
 1305SOL     OW 4028   0.768   4.868   2.885
 1305SOL    HW1 4029   0.690   4.885   2.945
 1305SOL    HW2 4030   0.802   4.955   2.849
 1306SOL     OW 4031   0.850   4.522   3.685
 1306SOL    HW1 4032   0.846   4.598   3.750
 1306SOL    HW2 4033   0.872   4.558   3.594
 1307SOL     OW 4034   0.685   4.736   2.527
 1307SOL    HW1 4035   0.754   4.720   2.597
 1307SOL    HW2 4036   0.612   4.793   2.565
 1308SOL     OW 4037   0.686   4.885   3.665
 1308SOL    HW1 4038   0.746   4.964   3.679
 1308SOL    HW2 4039   0.600   4.916   3.624
 1309SOL     OW 4040   0.335   5.159   2.923
 1309SOL    HW1 4041   0.257   5.128   2.870
 1309SOL    HW2 4042   0.393   5.217   2.866
 1310SOL     OW 4043   0.438   4.116   3.361
 1310SOL    HW1 4044   0.520   4.060   3.370
 1310SOL    HW2 4045   0.357   4.058   3.365
 1311SOL     OW 4046   0.240   4.815   2.748
 1311SOL    HW1 4047   0.254   4.731   2.800
 1311SOL    HW2 4048   0.185   4.879   2.803
 1312SOL     OW 4049   0.606   4.688   1.985
 1312SOL    HW1 4050   0.613   4.772   1.931
 1312SOL    HW2 4051   0.652   4.701   2.073
 1313SOL     OW 4052   1.594   3.838   3.342
 1313SOL    HW1 4053   1.576   3.905   3.270
 1313SOL    HW2 4054   1.591   3.884   3.431
 1314SOL     OW 4055   0.122   4.367   2.425
 1314SOL    HW1 4056   0.077   4.279   2.442
 1314SOL    HW2 4057   0.121   4.421   2.509
 1315SOL     OW 4058   1.689   4.646   2.474
 1315SOL    HW1 4059   1.784   4.617   2.482
 1315SOL    HW2 4060   1.681   4.711   2.399
 1316SOL     OW 4061   1.641   4.832   2.294
 1316SOL    HW1 4062   1.727   4.834   2.242
 1316SOL    HW2 4063   1.655   4.879   2.382
 1317SOL     OW 4064   0.113   4.461   3.459
 1317SOL    HW1 4065   0.201   4.448   3.504
 1317SOL    HW2 4066   0.100   4.558   3.437
 1318SOL     OW 4067   1.293   4.952   3.285
 1318SOL    HW1 4068   1.330   4.879   3.227
 1318SOL    HW2 4069   1.345   4.957   3.370
 1319SOL     OW 4070   0.809   3.728   2.364
 1319SOL    HW1 4071   0.849   3.819   2.355
 1319SOL    HW2 4072   0.709   3.736   2.370
 1320SOL     OW 4073   0.197   4.700   3.126
 1320SOL    HW1 4074   0.286   4.655   3.112
 1320SOL    HW2 4075   0.124   4.635   3.107
 1321SOL     OW 4076   1.525   4.723   2.052
 1321SOL    HW1 4077   1.462   4.647   2.065
 1321SOL    HW2 4078   1.573   4.741   2.138
 1322SOL     OW 4079   0.317   3.975   3.663
 1322SOL    HW1 4080   0.388   4.046   3.669
 1322SOL    HW2 4081   0.229   4.014   3.691
 1323SOL     OW 4082   1.466   5.141   2.815
 1323SOL    HW1 4083   1.407   5.147   2.895
 1323SOL    HW2 4084   1.451   5.053   2.769
 1324SOL     OW 4085   0.598   4.453   2.132
 1324SOL    HW1 4086   0.622   4.522   2.064
 1324SOL    HW2 4087   0.520   4.486   2.186
 1325SOL     OW 4088   1.281   4.069   2.806
 1325SOL    HW1 4089   1.195   4.019   2.793
 1325SOL    HW2 4090   1.343   4.015   2.862
 1326SOL     OW 4091   0.807   4.329   3.327
 1326SOL    HW1 4092   0.760   4.326   3.416
 1326SOL    HW2 4093   0.756   4.274   3.261
 1327SOL     OW 4094   1.394   4.193   3.536
 1327SOL    HW1 4095   1.374   4.236   3.624
 1327SOL    HW2 4096   1.472   4.131   3.545
 1328SOL     OW 4097   0.973   4.614   3.434
 1328SOL    HW1 4098   1.019   4.530   3.405
 1328SOL    HW2 4099   0.917   4.648   3.359
 1329SOL     OW 4100   0.991   4.134   3.104
 1329SOL    HW1 4101   0.914   4.168   3.158
 1329SOL    HW2 4102   0.957   4.083   3.025
 1330SOL     OW 4103   1.041   4.425   2.291
 1330SOL    HW1 4104   1.067   4.421   2.387
 1330SOL    HW2 4105   0.956   4.374   2.277
 1331SOL     OW 4106   0.076   4.535   2.651
 1331SOL    HW1 4107   0.175   4.523   2.660
 1331SOL    HW2 4108   0.052   4.630   2.672
 1332SOL     OW 4109   0.865   4.072   2.057
 1332SOL    HW1 4110   0.924   4.135   2.008
 1332SOL    HW2 4111   0.884   3.978   2.028
 1333SOL     OW 4112   1.719   4.309   3.693
 1333SOL    HW1 4113   1.693   4.398   3.657
 1333SOL    HW2 4114   1.717   4.241   3.620
 1334SOL     OW 4115   1.362   4.868   2.407
 1334SOL    HW1 4116   1.445   4.839   2.359
 1334SOL    HW2 4117   1.313   4.935   2.351
 1335SOL     OW 4118   0.550   3.920   2.747
 1335SOL    HW1 4119   0.545   3.915   2.847
 1335SOL    HW2 4120   0.552   4.016   2.718
 1336SOL     OW 4121   1.795   4.790   2.735
 1336SOL    HW1 4122   1.733   4.775   2.659
 1336SOL    HW2 4123   1.743   4.801   2.820
 1337SOL     OW 4124   0.321   4.667   2.104
 1337SOL    HW1 4125   0.403   4.706   2.062
 1337SOL    HW2 4126   0.294   4.585   2.055
 1338SOL     OW 4127   1.458   4.459   2.590
 1338SOL    HW1 4128   1.453   4.394   2.665
 1338SOL    HW2 4129   1.538   4.518   2.603
 1339SOL     OW 4130   0.202   4.009   3.360
 1339SOL    HW1 4131   0.122   4.069   3.347
 1339SOL    HW2 4132   0.192   3.960   3.446
 1340SOL     OW 4133   1.632   5.101   1.943
 1340SOL    HW1 4134   1.600   5.195   1.933
 1340SOL    HW2 4135   1.556   5.038   1.931
 1341SOL     OW 4136   1.400   3.831   2.288
 1341SOL    HW1 4137   1.376   3.794   2.198
 1341SOL    HW2 4138   1.499   3.847   2.292
 1342SOL     OW 4139   0.382   4.424   2.342
 1342SOL    HW1 4140   0.427   4.334   2.339
 1342SOL    HW2 4141   0.288   4.413   2.375
 1343SOL     OW 4142   1.547   3.946   3.591
 1343SOL    HW1 4143   1.542   3.983   3.683
 1343SOL    HW2 4144   1.475   3.877   3.579
 1344SOL     OW 4145   0.614   3.846   1.979
 1344SOL    HW1 4146   0.712   3.824   1.986
 1344SOL    HW2 4147   0.583   3.829   1.886
 1345SOL     OW 4148   0.781   3.988   3.611
 1345SOL    HW1 4149   0.848   3.927   3.654
 1345SOL    HW2 4150   0.708   4.007   3.676
 1346SOL     OW 4151   1.351   4.314   3.295
 1346SOL    HW1 4152   1.379   4.271   3.380
 1346SOL    HW2 4153   1.376   4.410   3.296
 1347SOL     OW 4154   0.803   5.126   2.786
 1347SOL    HW1 4155   0.893   5.140   2.744
 1347SOL    HW2 4156   0.732   5.128   2.715
 1348SOL     OW 4157   0.922   4.227   2.761
 1348SOL    HW1 4158   0.897   4.218   2.665
 1348SOL    HW2 4159   0.970   4.145   2.792
 1349SOL     OW 4160   0.539   3.788   2.374
 1349SOL    HW1 4161   0.458   3.789   2.432
 1349SOL    HW2 4162   0.542   3.871   2.319
 1350SOL     OW 4163   1.434   4.912   1.903
 1350SOL    HW1 4164   1.466   4.836   1.960
 1350SOL    HW2 4165   1.342   4.939   1.933
 1351SOL     OW 4166   0.297   3.759   2.033
 1351SOL    HW1 4167   0.346   3.843   2.012
 1351SOL    HW2 4168   0.359   3.694   2.078
 1352SOL     OW 4169   0.935   3.960   2.342
 1352SOL    HW1 4170   0.887   4.001   2.264
 1352SOL    HW2 4171   1.034   3.958   2.323
 1353SOL     OW 4172   1.076   4.407   3.326
 1353SOL    HW1 4173   0.996   4.346   3.329
 1353SOL    HW2 4174   1.157   4.354   3.302
 1354SOL     OW 4175   1.227   5.294   2.655
 1354SOL    HW1 4176   1.248   5.368   2.590
 1354SOL    HW2 4177   1.295   5.294   2.728
 1355SOL     OW 4178   0.459   4.876   2.603
 1355SOL    HW1 4179   0.388   4.849   2.668
 1355SOL    HW2 4180   0.433   4.848   2.510
 1356SOL     OW 4181   1.032   4.273   1.878
 1356SOL    HW1 4182   0.991   4.355   1.839
 1356SOL    HW2 4183   1.096   4.299   1.951
 1357SOL     OW 4184   0.078   4.280   3.248
 1357SOL    HW1 4185   0.170   4.279   3.207
 1357SOL    HW2 4186   0.072   4.354   3.315
 1358SOL     OW 4187   0.561   3.946   3.009
 1358SOL    HW1 4188   0.599   3.862   3.046
 1358SOL    HW2 4189   0.473   3.965   3.053
 1359SOL     OW 4190   0.866   4.178   2.504
 1359SOL    HW1 4191   0.834   4.250   2.442
 1359SOL    HW2 4192   0.890   4.097   2.451
 1360SOL     OW 4193   1.017   3.763   2.615
 1360SOL    HW1 4194   0.945   3.768   2.546
 1360SOL    HW2 4195   0.993   3.694   2.684
 1361SOL     OW 4196   1.429   4.897   2.729
 1361SOL    HW1 4197   1.374   4.813   2.722
 1361SOL    HW2 4198   1.455   4.926   2.637
 1362SOL     OW 4199   1.466   4.314   2.854
 1362SOL    HW1 4200   1.436   4.219   2.861
 1362SOL    HW2 4201   1.539   4.330   2.920
 1363SOL     OW 4202   1.857   4.557   2.239
 1363SOL    HW1 4203   1.899   4.493   2.303
 1363SOL    HW2 4204   1.819   4.506   2.161
 1364SOL     OW 4205   1.664   5.004   2.519
 1364SOL    HW1 4206   1.763   5.012   2.533
 1364SOL    HW2 4207   1.619   5.088   2.550
 1365SOL     OW 4208   1.390   4.299   1.940
 1365SOL    HW1 4209   1.336   4.278   2.021
 1365SOL    HW2 4210   1.481   4.258   1.949
 1366SOL     OW 4211   0.527   3.980   2.190
 1366SOL    HW1 4212   0.554   3.921   2.115
 1366SOL    HW2 4213   0.527   4.075   2.159
 1367SOL     OW 4214   1.754   4.947   3.450
 1367SOL    HW1 4215   1.845   4.908   3.437
 1367SOL    HW2 4216   1.762   5.043   3.474
 1368SOL     OW 4217   1.638   4.823   2.941
 1368SOL    HW1 4218   1.643   4.904   3.000
 1368SOL    HW2 4219   1.552   4.825   2.890
 1369SOL     OW 4220   0.915   3.813   3.264
 1369SOL    HW1 4221   0.940   3.793   3.169
 1369SOL    HW2 4222   0.987   3.869   3.306
 1370SOL     OW 4223   0.980   4.840   3.581
 1370SOL    HW1 4224   0.881   4.846   3.591
 1370SOL    HW2 4225   1.003   4.760   3.525
 1371SOL     OW 4226   0.705   4.774   2.230
 1371SOL    HW1 4227   0.691   4.781   2.329
 1371SOL    HW2 4228   0.789   4.723   2.212
 1372SOL     OW 4229   0.410   4.537   3.113
 1372SOL    HW1 4230   0.496   4.549   3.163
 1372SOL    HW2 4231   0.368   4.450   3.140
 1373SOL     OW 4232   1.274   4.110   3.124
 1373SOL    HW1 4233   1.295   4.184   3.188
 1373SOL    HW2 4234   1.185   4.127   3.081
 1374SOL     OW 4235   0.367   4.824   2.363
 1374SOL    HW1 4236   0.360   4.907   2.307
 1374SOL    HW2 4237   0.371   4.744   2.303
 1375SOL     OW 4238   0.566   4.261   2.727
 1375SOL    HW1 4239   0.578   4.327   2.653
 1375SOL    HW2 4240   0.612   4.295   2.810
 1376SOL     OW 4241   1.582   4.363   2.334
 1376SOL    HW1 4242   1.551   4.424   2.407
 1376SOL    HW2 4243   1.632   4.415   2.265
 1377SOL     OW 4244   0.402   4.475   3.460
 1377SOL    HW1 4245   0.470   4.530   3.413
 1377SOL    HW2 4246   0.442   4.387   3.487
 1378SOL     OW 4247   1.587   4.503   3.532
 1378SOL    HW1 4248   1.495   4.541   3.527
 1378SOL    HW2 4249   1.647   4.550   3.467
 1379SOL     OW 4250   1.013   3.829   3.632
 1379SOL    HW1 4251   1.019   3.914   3.580
 1379SOL    HW2 4252   1.045   3.753   3.575
 1380SOL     OW 4253   0.504   3.774   3.602
 1380SOL    HW1 4254   0.462   3.717   3.532
 1380SOL    HW2 4255   0.438   3.843   3.634
 1381SOL     OW 4256   0.573   4.594   2.891
 1381SOL    HW1 4257   0.617   4.683   2.882
 1381SOL    HW2 4258   0.510   4.594   2.968
 1382SOL     OW 4259   1.360   4.586   2.907
 1382SOL    HW1 4260   1.285   4.586   2.841
 1382SOL    HW2 4261   1.397   4.494   2.916
 1383SOL     OW 4262   1.209   4.249   2.137
 1383SOL    HW1 4263   1.222   4.165   2.191
 1383SOL    HW2 4264   1.180   4.323   2.197
 1384SOL     OW 4265   0.307   3.937   3.093
 1384SOL    HW1 4266   0.284   3.974   3.183
 1384SOL    HW2 4267   0.277   3.842   3.087
 1385SOL     OW 4268   0.037   5.034   3.144
 1385SOL    HW1 4269   0.090   4.985   3.212
 1385SOL    HW2 4270   0.059   5.132   3.149
 1386SOL     OW 4271   0.732   4.358   2.926
 1386SOL    HW1 4272   0.791   4.332   2.850
 1386SOL    HW2 4273   0.704   4.454   2.915
 1387SOL     OW 4274   1.728   4.659   3.716
 1387SOL    HW1 4275   1.682   4.652   3.627
 1387SOL    HW2 4276   1.666   4.703   3.782
 1388SOL     OW 4277   0.307   3.787   2.480
 1388SOL    HW1 4278   0.296   3.881   2.513
 1388SOL    HW2 4279   0.302   3.724   2.557
 1389SOL     OW 4280   1.622   4.091   2.236
 1389SOL    HW1 4281   1.624   4.015   2.300
 1389SOL    HW2 4282   1.574   4.168   2.276
 1390SOL     OW 4283   1.023   4.490   2.828
 1390SOL    HW1 4284   1.038   4.511   2.924
 1390SOL    HW2 4285   0.993   4.395   2.819
 1391SOL     OW 4286   1.859   5.242   3.467
 1391SOL    HW1 4287   1.873   5.269   3.372
 1391SOL    HW2 4288   1.942   5.264   3.520
 1392SOL     OW 4289   0.350   4.622   3.666
 1392SOL    HW1 4290   0.426   4.666   3.714
 1392SOL    HW2 4291   0.385   4.575   3.584
 1393SOL     OW 4292   1.540   3.998   1.987
 1393SOL    HW1 4293   1.479   3.923   2.010
 1393SOL    HW2 4294   1.562   4.050   2.070
 1394SOL     OW 4295   1.303   4.562   1.904
 1394SOL    HW1 4296   1.337   4.469   1.919
 1394SOL    HW2 4297   1.321   4.589   1.809
 1395SOL     OW 4298   0.319   4.534   2.811
 1395SOL    HW1 4299   0.412   4.570   2.816
 1395SOL    HW2 4300   0.313   4.449   2.863
 1396SOL     OW 4301   0.339   4.233   2.868
 1396SOL    HW1 4302   0.287   4.150   2.851
 1396SOL    HW2 4303   0.416   4.238   2.804
 1397SOL     OW 4304   1.138   4.104   3.540
 1397SOL    HW1 4305   1.093   4.167   3.604
 1397SOL    HW2 4306   1.231   4.135   3.523
 1398SOL     OW 4307   1.160   3.931   3.339
 1398SOL    HW1 4308   1.160   3.995   3.416
 1398SOL    HW2 4309   1.188   3.979   3.256
 1399SOL     OW 4310   0.008   5.050   2.062
 1399SOL    HW1 4311  -0.085   5.071   2.031
 1399SOL    HW2 4312   0.018   4.951   2.075
 1400SOL     OW 4313   1.002   4.520   3.100
 1400SOL    HW1 4314   1.043   4.488   3.186
 1400SOL    HW2 4315   0.906   4.493   3.097
 1401SOL     OW 4316   0.040   4.268   2.976
 1401SOL    HW1 4317   0.125   4.235   2.935
 1401SOL    HW2 4318   0.053   4.283   3.074
 1402SOL     OW 4319   0.189   4.244   3.584
 1402SOL    HW1 4320   0.248   4.204   3.514
 1402SOL    HW2 4321   0.131   4.315   3.543
 1403SOL     OW 4322   1.369   4.674   3.522
 1403SOL    HW1 4323   1.408   4.763   3.542
 1403SOL    HW2 4324   1.379   4.654   3.425
 1404SOL     OW 4325   0.815   4.296   2.187
 1404SOL    HW1 4326   0.822   4.207   2.141
 1404SOL    HW2 4327   0.721   4.330   2.179
 1405SOL     OW 4328   0.671   4.188   3.131
 1405SOL    HW1 4329   0.637   4.099   3.101
 1405SOL    HW2 4330   0.697   4.242   3.051
 1406SOL     OW 4331   0.473   4.224   2.053
 1406SOL    HW1 4332   0.534   4.304   2.057
 1406SOL    HW2 4333   0.378   4.255   2.060
 1407SOL     OW 4334   0.159   4.861   3.328
 1407SOL    HW1 4335   0.181   4.800   3.404
 1407SOL    HW2 4336   0.169   4.812   3.242
 1408SOL     OW 4337   1.347   4.783   3.096
 1408SOL    HW1 4338   1.371   4.720   3.022
 1408SOL    HW2 4339   1.257   4.823   3.078
 1409SOL     OW 4340   1.302   4.579   2.171
 1409SOL    HW1 4341   1.216   4.548   2.213
 1409SOL    HW2 4342   1.298   4.565   2.072
 1410SOL     OW 4343   0.083   4.982   2.884
 1410SOL    HW1 4344   0.078   4.981   2.984
 1410SOL    HW2 4345   0.000   4.941   2.846
 1411SOL     OW 4346   1.726   3.859   2.385
 1411SOL    HW1 4347   1.799   3.842   2.318
 1411SOL    HW2 4348   1.695   3.772   2.423
 1412SOL     OW 4349   1.280   4.651   2.534
 1412SOL    HW1 4350   1.340   4.570   2.536
 1412SOL    HW2 4351   1.320   4.720   2.474
 1413SOL     OW 4352   0.830   4.997   3.284
 1413SOL    HW1 4353   0.825   5.030   3.379
 1413SOL    HW2 4354   0.744   5.016   3.238
 1414SOL     OW 4355   1.841   3.899   2.825
 1414SOL    HW1 4356   1.880   3.814   2.789
 1414SOL    HW2 4357   1.743   3.901   2.806
 1415SOL     OW 4358   0.263   4.050   2.582
 1415SOL    HW1 4359   0.184   4.101   2.548
 1415SOL    HW2 4360   0.254   4.035   2.680
 1416SOL     OW 4361   1.194   5.336   1.893
 1416SOL    HW1 4362   1.200   5.243   1.930
 1416SOL    HW2 4363   1.135   5.336   1.813
 1417SOL     OW 4364   0.822   4.726   3.234
 1417SOL    HW1 4365   0.862   4.725   3.142
 1417SOL    HW2 4366   0.832   4.818   3.274
 1418SOL     OW 4367   0.916   4.634   2.153
 1418SOL    HW1 4368   0.979   4.672   2.085
 1418SOL    HW2 4369   0.956   4.551   2.192
 1419SOL     OW 4370   0.372   5.012   3.352
 1419SOL    HW1 4371   0.359   5.105   3.318
 1419SOL    HW2 4372   0.288   4.960   3.339
 1420SOL     OW 4373   1.614   5.016   3.151
 1420SOL    HW1 4374   1.674   5.019   3.231
 1420SOL    HW2 4375   1.539   5.080   3.164
 1421SOL     OW 4376   1.039   4.822   2.558
 1421SOL    HW1 4377   0.969   4.775   2.612
 1421SOL    HW2 4378   1.098   4.754   2.515
 1422SOL     OW 4379   1.014   3.960   2.833
 1422SOL    HW1 4380   1.006   3.924   2.740
 1422SOL    HW2 4381   1.012   3.884   2.898
 1423SOL     OW 4382   0.105   4.737   3.588
 1423SOL    HW1 4383   0.028   4.704   3.642
 1423SOL    HW2 4384   0.190   4.707   3.630
 1424SOL     OW 4385   0.672   3.927   3.351
 1424SOL    HW1 4386   0.762   3.911   3.311
 1424SOL    HW2 4387   0.680   3.932   3.450
 1425SOL     OW 4388   0.075   4.069   1.895
 1425SOL    HW1 4389  -0.017   4.041   1.866
 1425SOL    HW2 4390   0.106   4.146   1.839
 1426SOL     OW 4391   1.440   4.580   3.260
 1426SOL    HW1 4392   1.383   4.632   3.197
 1426SOL    HW2 4393   1.536   4.592   3.236
 1427SOL     OW 4394   0.072   3.890   2.180
 1427SOL    HW1 4395   0.055   3.973   2.126
 1427SOL    HW2 4396   0.162   3.853   2.158
 1428SOL     OW 4397   0.613   4.566   3.293
 1428SOL    HW1 4398   0.669   4.647   3.276
 1428SOL    HW2 4399   0.672   4.486   3.296
 1429SOL     OW 4400   0.716   4.289   3.570
 1429SOL    HW1 4401   0.735   4.354   3.644
 1429SOL    HW2 4402   0.776   4.209   3.579
 1430SOL     OW 4403   1.450   4.944   3.495
 1430SOL    HW1 4404   1.441   4.934   3.594
 1430SOL    HW2 4405   1.546   4.937   3.469
 1431SOL     OW 4406   1.674   4.607   3.116
 1431SOL    HW1 4407   1.647   4.518   3.079
 1431SOL    HW2 4408   1.675   4.675   3.043
 1432SOL     OW 4409   1.225   4.049   2.311
 1432SOL    HW1 4410   1.290   3.975   2.300
 1432SOL    HW2 4411   1.245   4.099   2.395
 1433SOL     OW 4412   0.594   4.469   2.514
 1433SOL    HW1 4413   0.644   4.554   2.495
 1433SOL    HW2 4414   0.506   4.471   2.466
 1434SOL     OW 4415   1.777   4.066   3.504
 1434SOL    HW1 4416   1.760   4.097   3.410
 1434SOL    HW2 4417   1.693   4.029   3.542
 1435SOL     OW 4418   1.730   4.658   3.379
 1435SOL    HW1 4419   1.768   4.749   3.394
 1435SOL    HW2 4420   1.722   4.641   3.280
 1436SOL     OW 4421   0.859   4.680   2.723
 1436SOL    HW1 4422   0.913   4.611   2.771
 1436SOL    HW2 4423   0.827   4.749   2.789
 1437SOL     OW 4424   1.083   4.708   1.949
 1437SOL    HW1 4425   1.060   4.761   1.867
 1437SOL    HW2 4426   1.164   4.652   1.930
 1438SOL     OW 4427   0.079   4.964   2.515
 1438SOL    HW1 4428   0.078   4.917   2.603
 1438SOL    HW2 4429   0.161   4.936   2.464
 1439SOL     OW 4430   1.824   3.916   3.089
 1439SOL    HW1 4431   1.820   3.826   3.133
 1439SOL    HW2 4432   1.827   3.905   2.990
 1440SOL     OW 4433   0.428   4.148   2.382
 1440SOL    HW1 4434   0.458   4.076   2.320
 1440SOL    HW2 4435   0.389   4.108   2.465
 1441SOL     OW 4436   0.317   4.271   3.142
 1441SOL    HW1 4437   0.355   4.212   3.214
 1441SOL    HW2 4438   0.357   4.245   3.054
 1442SOL     OW 4439   1.424   3.938   2.974
 1442SOL    HW1 4440   1.476   3.873   3.029
 1442SOL    HW2 4441   1.375   4.001   3.035
 1443SOL     OW 4442   1.001   3.758   3.016
 1443SOL    HW1 4443   0.938   3.686   2.985
 1443SOL    HW2 4444   1.094   3.722   3.016
 1444SOL     OW 4445   0.770   5.054   2.163
 1444SOL    HW1 4446   0.724   4.967   2.180
 1444SOL    HW2 4447   0.861   5.051   2.204
 1445SOL     OW 4448   1.352   3.776   2.030
 1445SOL    HW1 4449   1.387   3.735   1.946
 1445SOL    HW2 4450   1.262   3.738   2.050
 1446SOL     OW 4451   1.300   4.177   2.553
 1446SOL    HW1 4452   1.241   4.257   2.557
 1446SOL    HW2 4453   1.315   4.142   2.646
 1447SOL     OW 4454   0.039   4.801   2.162
 1447SOL    HW1 4455   0.138   4.790   2.153
 1447SOL    HW2 4456  -0.001   4.715   2.194
 1448SOL     OW 4457   0.230   4.352   3.837
 1448SOL    HW1 4458   0.137   4.350   3.874
 1448SOL    HW2 4459   0.231   4.313   3.745
 1449SOL     OW 4460   0.225   3.999   4.720
 1449SOL    HW1 4461   0.260   3.982   4.812
 1449SOL    HW2 4462   0.137   3.954   4.708
 1450SOL     OW 4463   0.019   4.092   4.371
 1450SOL    HW1 4464  -0.063   4.135   4.410
 1450SOL    HW2 4465  -0.009   4.019   4.308
 1451SOL     OW 4466   0.569   4.999   4.889
 1451SOL    HW1 4467   0.476   4.992   4.852
 1451SOL    HW2 4468   0.580   5.088   4.933
 1452SOL     OW 4469   1.555   5.235   4.427
 1452SOL    HW1 4470   1.498   5.219   4.508
 1452SOL    HW2 4471   1.496   5.245   4.347
 1453SOL     OW 4472   1.135   4.427   4.441
 1453SOL    HW1 4473   1.192   4.505   4.416
 1453SOL    HW2 4474   1.075   4.453   4.517
 1454SOL     OW 4475   1.755   4.331   3.955
 1454SOL    HW1 4476   1.743   4.318   3.856
 1454SOL    HW2 4477   1.725   4.250   4.004
 1455SOL     OW 4478   0.768   4.868   4.747
 1455SOL    HW1 4479   0.690   4.885   4.807
 1455SOL    HW2 4480   0.802   4.955   4.711
 1456SOL     OW 4481   0.685   4.736   4.389
 1456SOL    HW1 4482   0.754   4.720   4.459
 1456SOL    HW2 4483   0.612   4.793   4.427
 1457SOL     OW 4484   0.335   5.159   4.785
 1457SOL    HW1 4485   0.257   5.128   4.732
 1457SOL    HW2 4486   0.393   5.217   4.728
 1458SOL     OW 4487   1.603   4.171   4.461
 1458SOL    HW1 4488   1.529   4.217   4.411
 1458SOL    HW2 4489   1.654   4.239   4.514
 1459SOL     OW 4490   0.240   4.815   4.610
 1459SOL    HW1 4491   0.254   4.731   4.662
 1459SOL    HW2 4492   0.185   4.879   4.665
 1460SOL     OW 4493   0.606   4.688   3.847
 1460SOL    HW1 4494   0.613   4.772   3.793
 1460SOL    HW2 4495   0.652   4.701   3.935
 1461SOL     OW 4496   0.122   4.367   4.287
 1461SOL    HW1 4497   0.077   4.279   4.304
 1461SOL    HW2 4498   0.121   4.421   4.371
 1462SOL     OW 4499   1.689   4.646   4.336
 1462SOL    HW1 4500   1.784   4.617   4.344
 1462SOL    HW2 4501   1.681   4.711   4.261
 1463SOL     OW 4502   1.641   4.832   4.156
 1463SOL    HW1 4503   1.727   4.834   4.104
 1463SOL    HW2 4504   1.655   4.879   4.244
 1464SOL     OW 4505   0.809   3.728   4.226
 1464SOL    HW1 4506   0.849   3.819   4.217
 1464SOL    HW2 4507   0.709   3.736   4.232
 1465SOL     OW 4508   0.197   4.700   4.988
 1465SOL    HW1 4509   0.286   4.655   4.974
 1465SOL    HW2 4510   0.124   4.635   4.969
 1466SOL     OW 4511   1.525   4.723   3.914
 1466SOL    HW1 4512   1.462   4.647   3.927
 1466SOL    HW2 4513   1.573   4.741   4.000
 1467SOL     OW 4514   1.466   5.141   4.677
 1467SOL    HW1 4515   1.407   5.147   4.757
 1467SOL    HW2 4516   1.451   5.053   4.631
 1468SOL     OW 4517   0.598   4.453   3.994
 1468SOL    HW1 4518   0.622   4.522   3.926
 1468SOL    HW2 4519   0.520   4.486   4.048
 1469SOL     OW 4520   1.281   4.069   4.668
 1469SOL    HW1 4521   1.195   4.019   4.655
 1469SOL    HW2 4522   1.343   4.015   4.724
 1470SOL     OW 4523   0.991   4.134   4.966
 1470SOL    HW1 4524   0.914   4.168   5.020
 1470SOL    HW2 4525   0.957   4.083   4.887
 1471SOL     OW 4526   1.041   4.425   4.153
 1471SOL    HW1 4527   1.067   4.421   4.249
 1471SOL    HW2 4528   0.956   4.374   4.139
 1472SOL     OW 4529   0.076   4.535   4.513
 1472SOL    HW1 4530   0.175   4.523   4.522
 1472SOL    HW2 4531   0.052   4.630   4.534
 1473SOL     OW 4532   0.865   4.072   3.919
 1473SOL    HW1 4533   0.924   4.135   3.870
 1473SOL    HW2 4534   0.884   3.978   3.890
 1474SOL     OW 4535   1.362   4.868   4.269
 1474SOL    HW1 4536   1.445   4.839   4.221
 1474SOL    HW2 4537   1.313   4.935   4.213
 1475SOL     OW 4538   0.550   3.920   4.609
 1475SOL    HW1 4539   0.545   3.915   4.709
 1475SOL    HW2 4540   0.552   4.016   4.580
 1476SOL     OW 4541   1.795   4.790   4.597
 1476SOL    HW1 4542   1.733   4.775   4.521
 1476SOL    HW2 4543   1.743   4.801   4.682
 1477SOL     OW 4544   0.321   4.667   3.966
 1477SOL    HW1 4545   0.403   4.706   3.924
 1477SOL    HW2 4546   0.294   4.585   3.917
 1478SOL     OW 4547   1.458   4.459   4.452
 1478SOL    HW1 4548   1.453   4.394   4.527
 1478SOL    HW2 4549   1.538   4.518   4.465
 1479SOL     OW 4550   1.632   5.101   3.805
 1479SOL    HW1 4551   1.600   5.195   3.795
 1479SOL    HW2 4552   1.556   5.038   3.793
 1480SOL     OW 4553   1.400   3.831   4.150
 1480SOL    HW1 4554   1.376   3.794   4.060
 1480SOL    HW2 4555   1.499   3.847   4.154
 1481SOL     OW 4556   0.382   4.424   4.204
 1481SOL    HW1 4557   0.427   4.334   4.201
 1481SOL    HW2 4558   0.288   4.413   4.237
 1482SOL     OW 4559   0.614   3.846   3.841
 1482SOL    HW1 4560   0.712   3.824   3.848
 1482SOL    HW2 4561   0.583   3.829   3.748
 1483SOL     OW 4562   0.803   5.126   4.648
 1483SOL    HW1 4563   0.893   5.140   4.606
 1483SOL    HW2 4564   0.732   5.128   4.577
 1484SOL     OW 4565   0.922   4.227   4.623
 1484SOL    HW1 4566   0.897   4.218   4.527
 1484SOL    HW2 4567   0.970   4.145   4.654
 1485SOL     OW 4568   0.539   3.788   4.236
 1485SOL    HW1 4569   0.458   3.789   4.294
 1485SOL    HW2 4570   0.542   3.871   4.181
 1486SOL     OW 4571   1.434   4.912   3.765
 1486SOL    HW1 4572   1.466   4.836   3.822
 1486SOL    HW2 4573   1.342   4.939   3.795
 1487SOL     OW 4574   0.297   3.759   3.895
 1487SOL    HW1 4575   0.346   3.843   3.874
 1487SOL    HW2 4576   0.359   3.694   3.940
 1488SOL     OW 4577   0.935   3.960   4.204
 1488SOL    HW1 4578   0.887   4.001   4.126
 1488SOL    HW2 4579   1.034   3.958   4.185
 1489SOL     OW 4580   1.227   5.294   4.517
 1489SOL    HW1 4581   1.248   5.368   4.452
 1489SOL    HW2 4582   1.295   5.294   4.590
 1490SOL     OW 4583   0.459   4.876   4.465
 1490SOL    HW1 4584   0.388   4.849   4.530
 1490SOL    HW2 4585   0.433   4.848   4.372
 1491SOL     OW 4586   1.032   4.273   3.740
 1491SOL    HW1 4587   0.991   4.355   3.701
 1491SOL    HW2 4588   1.096   4.299   3.813
 1492SOL     OW 4589   0.561   3.946   4.871
 1492SOL    HW1 4590   0.599   3.862   4.908
 1492SOL    HW2 4591   0.473   3.965   4.915
 1493SOL     OW 4592   0.866   4.178   4.366
 1493SOL    HW1 4593   0.834   4.250   4.304
 1493SOL    HW2 4594   0.890   4.097   4.313
 1494SOL     OW 4595   1.017   3.763   4.477
 1494SOL    HW1 4596   0.945   3.768   4.408
 1494SOL    HW2 4597   0.993   3.694   4.546
 1495SOL     OW 4598   1.429   4.897   4.591
 1495SOL    HW1 4599   1.374   4.813   4.584
 1495SOL    HW2 4600   1.455   4.926   4.499
 1496SOL     OW 4601   1.466   4.314   4.716
 1496SOL    HW1 4602   1.436   4.219   4.723
 1496SOL    HW2 4603   1.539   4.330   4.782
 1497SOL     OW 4604   1.857   4.557   4.101
 1497SOL    HW1 4605   1.899   4.493   4.165
 1497SOL    HW2 4606   1.819   4.506   4.023
 1498SOL     OW 4607   1.664   5.004   4.381
 1498SOL    HW1 4608   1.763   5.012   4.395
 1498SOL    HW2 4609   1.619   5.088   4.412
 1499SOL     OW 4610   1.390   4.299   3.802
 1499SOL    HW1 4611   1.336   4.278   3.883
 1499SOL    HW2 4612   1.481   4.258   3.811
 1500SOL     OW 4613   0.527   3.980   4.052
 1500SOL    HW1 4614   0.554   3.921   3.977
 1500SOL    HW2 4615   0.527   4.075   4.021
 1501SOL     OW 4616   1.638   4.823   4.803
 1501SOL    HW1 4617   1.643   4.904   4.862
 1501SOL    HW2 4618   1.552   4.825   4.752
 1502SOL     OW 4619   0.705   4.774   4.092
 1502SOL    HW1 4620   0.691   4.781   4.191
 1502SOL    HW2 4621   0.789   4.723   4.074
 1503SOL     OW 4622   0.410   4.537   4.975
 1503SOL    HW1 4623   0.496   4.549   5.025
 1503SOL    HW2 4624   0.368   4.450   5.002
 1504SOL     OW 4625   1.274   4.110   4.986
 1504SOL    HW1 4626   1.295   4.184   5.050
 1504SOL    HW2 4627   1.185   4.127   4.943
 1505SOL     OW 4628   0.367   4.824   4.225
 1505SOL    HW1 4629   0.360   4.907   4.169
 1505SOL    HW2 4630   0.371   4.744   4.165
 1506SOL     OW 4631   0.566   4.261   4.589
 1506SOL    HW1 4632   0.578   4.327   4.515
 1506SOL    HW2 4633   0.612   4.295   4.672
 1507SOL     OW 4634   1.582   4.363   4.196
 1507SOL    HW1 4635   1.551   4.424   4.269
 1507SOL    HW2 4636   1.632   4.415   4.127
 1508SOL     OW 4637   0.573   4.594   4.753
 1508SOL    HW1 4638   0.617   4.683   4.744
 1508SOL    HW2 4639   0.510   4.594   4.830
 1509SOL     OW 4640   1.360   4.586   4.769
 1509SOL    HW1 4641   1.285   4.586   4.703
 1509SOL    HW2 4642   1.397   4.494   4.778
 1510SOL     OW 4643   1.209   4.249   3.999
 1510SOL    HW1 4644   1.222   4.165   4.053
 1510SOL    HW2 4645   1.180   4.323   4.059
 1511SOL     OW 4646   0.307   3.937   4.955
 1511SOL    HW1 4647   0.284   3.974   5.045
 1511SOL    HW2 4648   0.277   3.842   4.949
 1512SOL     OW 4649   0.037   5.034   5.006
 1512SOL    HW1 4650   0.090   4.985   5.074
 1512SOL    HW2 4651   0.059   5.132   5.011
 1513SOL     OW 4652   0.732   4.358   4.788
 1513SOL    HW1 4653   0.791   4.332   4.712
 1513SOL    HW2 4654   0.704   4.454   4.777
 1514SOL     OW 4655   0.307   3.787   4.342
 1514SOL    HW1 4656   0.296   3.881   4.375
 1514SOL    HW2 4657   0.302   3.724   4.419
 1515SOL     OW 4658   1.622   4.091   4.098
 1515SOL    HW1 4659   1.624   4.015   4.162
 1515SOL    HW2 4660   1.574   4.168   4.138
 1516SOL     OW 4661   1.023   4.490   4.690
 1516SOL    HW1 4662   1.038   4.511   4.786
 1516SOL    HW2 4663   0.993   4.395   4.681
 1517SOL     OW 4664   1.540   3.998   3.849
 1517SOL    HW1 4665   1.479   3.923   3.872
 1517SOL    HW2 4666   1.562   4.050   3.932
 1518SOL     OW 4667   1.303   4.562   3.766
 1518SOL    HW1 4668   1.337   4.469   3.781
 1518SOL    HW2 4669   1.321   4.589   3.671
 1519SOL     OW 4670   0.319   4.534   4.673
 1519SOL    HW1 4671   0.412   4.570   4.678
 1519SOL    HW2 4672   0.313   4.449   4.725
 1520SOL     OW 4673   0.339   4.233   4.730
 1520SOL    HW1 4674   0.287   4.150   4.713
 1520SOL    HW2 4675   0.416   4.238   4.666
 1521SOL     OW 4676   1.160   3.931   5.201
 1521SOL    HW1 4677   1.160   3.995   5.278
 1521SOL    HW2 4678   1.188   3.979   5.118
 1522SOL     OW 4679   0.008   5.050   3.924
 1522SOL    HW1 4680  -0.085   5.071   3.893
 1522SOL    HW2 4681   0.018   4.951   3.937
 1523SOL     OW 4682   1.002   4.520   4.962
 1523SOL    HW1 4683   1.043   4.488   5.048
 1523SOL    HW2 4684   0.906   4.493   4.959
 1524SOL     OW 4685   0.040   4.268   4.838
 1524SOL    HW1 4686   0.125   4.235   4.797
 1524SOL    HW2 4687   0.053   4.283   4.936
 1525SOL     OW 4688   0.815   4.296   4.049
 1525SOL    HW1 4689   0.822   4.207   4.003
 1525SOL    HW2 4690   0.721   4.330   4.041
 1526SOL     OW 4691   1.657   4.328   4.930
 1526SOL    HW1 4692   1.619   4.259   4.992
 1526SOL    HW2 4693   1.739   4.292   4.886
 1527SOL     OW 4694   0.671   4.188   4.993
 1527SOL    HW1 4695   0.637   4.099   4.963
 1527SOL    HW2 4696   0.697   4.242   4.913
 1528SOL     OW 4697   0.473   4.224   3.915
 1528SOL    HW1 4698   0.534   4.304   3.919
 1528SOL    HW2 4699   0.378   4.255   3.922
 1529SOL     OW 4700   1.347   4.783   4.958
 1529SOL    HW1 4701   1.371   4.720   4.884
 1529SOL    HW2 4702   1.257   4.823   4.940
 1530SOL     OW 4703   1.302   4.579   4.033
 1530SOL    HW1 4704   1.216   4.548   4.075
 1530SOL    HW2 4705   1.298   4.565   3.934
 1531SOL     OW 4706   0.083   4.982   4.746
 1531SOL    HW1 4707   0.078   4.981   4.846
 1531SOL    HW2 4708   0.000   4.941   4.708
 1532SOL     OW 4709   1.726   3.859   4.247
 1532SOL    HW1 4710   1.799   3.842   4.180
 1532SOL    HW2 4711   1.695   3.772   4.285
 1533SOL     OW 4712   1.280   4.651   4.396
 1533SOL    HW1 4713   1.340   4.570   4.398
 1533SOL    HW2 4714   1.320   4.720   4.336
 1534SOL     OW 4715   0.830   4.997   5.146
 1534SOL    HW1 4716   0.825   5.030   5.241
 1534SOL    HW2 4717   0.744   5.016   5.100
 1535SOL     OW 4718   1.841   3.899   4.687
 1535SOL    HW1 4719   1.880   3.814   4.651
 1535SOL    HW2 4720   1.743   3.901   4.668
 1536SOL     OW 4721   0.263   4.050   4.444
 1536SOL    HW1 4722   0.184   4.101   4.410
 1536SOL    HW2 4723   0.254   4.035   4.542
 1537SOL     OW 4724   1.194   5.336   3.755
 1537SOL    HW1 4725   1.200   5.243   3.792
 1537SOL    HW2 4726   1.135   5.336   3.675
 1538SOL     OW 4727   0.822   4.726   5.096
 1538SOL    HW1 4728   0.862   4.725   5.004
 1538SOL    HW2 4729   0.832   4.818   5.136
 1539SOL     OW 4730   0.916   4.634   4.015
 1539SOL    HW1 4731   0.979   4.672   3.947
 1539SOL    HW2 4732   0.956   4.551   4.054
 1540SOL     OW 4733   1.039   4.822   4.420
 1540SOL    HW1 4734   0.969   4.775   4.474
 1540SOL    HW2 4735   1.098   4.754   4.377
 1541SOL     OW 4736   1.014   3.960   4.695
 1541SOL    HW1 4737   1.006   3.924   4.602
 1541SOL    HW2 4738   1.012   3.884   4.760
 1542SOL     OW 4739   1.709   4.109   5.105
 1542SOL    HW1 4740   1.782   4.178   5.109
 1542SOL    HW2 4741   1.737   4.034   5.046
 1543SOL     OW 4742   0.075   4.069   3.757
 1543SOL    HW1 4743  -0.017   4.041   3.728
 1543SOL    HW2 4744   0.106   4.146   3.701
 1544SOL     OW 4745   0.072   3.890   4.042
 1544SOL    HW1 4746   0.055   3.973   3.988
 1544SOL    HW2 4747   0.162   3.853   4.020
 1545SOL     OW 4748   1.450   4.944   5.357
 1545SOL    HW1 4749   1.441   4.934   5.456
 1545SOL    HW2 4750   1.546   4.937   5.331
 1546SOL     OW 4751   1.674   4.607   4.978
 1546SOL    HW1 4752   1.647   4.518   4.941
 1546SOL    HW2 4753   1.675   4.675   4.905
 1547SOL     OW 4754   1.225   4.049   4.173
 1547SOL    HW1 4755   1.290   3.975   4.162
 1547SOL    HW2 4756   1.245   4.099   4.257
 1548SOL     OW 4757   0.594   4.469   4.376
 1548SOL    HW1 4758   0.644   4.554   4.357
 1548SOL    HW2 4759   0.506   4.471   4.328
 1549SOL     OW 4760   1.730   4.658   5.241
 1549SOL    HW1 4761   1.768   4.749   5.256
 1549SOL    HW2 4762   1.722   4.641   5.142
 1550SOL     OW 4763   0.859   4.680   4.585
 1550SOL    HW1 4764   0.913   4.611   4.633
 1550SOL    HW2 4765   0.827   4.749   4.651
 1551SOL     OW 4766   1.083   4.708   3.811
 1551SOL    HW1 4767   1.060   4.761   3.729
 1551SOL    HW2 4768   1.164   4.652   3.792
 1552SOL     OW 4769   0.079   4.964   4.377
 1552SOL    HW1 4770   0.078   4.917   4.465
 1552SOL    HW2 4771   0.161   4.936   4.326
 1553SOL     OW 4772   1.824   3.916   4.951
 1553SOL    HW1 4773   1.820   3.826   4.995
 1553SOL    HW2 4774   1.827   3.905   4.852
 1554SOL     OW 4775   0.428   4.148   4.244
 1554SOL    HW1 4776   0.458   4.076   4.182
 1554SOL    HW2 4777   0.389   4.108   4.327
 1555SOL     OW 4778   1.424   3.938   4.836
 1555SOL    HW1 4779   1.476   3.873   4.891
 1555SOL    HW2 4780   1.375   4.001   4.897
 1556SOL     OW 4781   1.001   3.758   4.878
 1556SOL    HW1 4782   0.938   3.686   4.847
 1556SOL    HW2 4783   1.094   3.722   4.878
 1557SOL     OW 4784   0.770   5.054   4.025
 1557SOL    HW1 4785   0.724   4.967   4.042
 1557SOL    HW2 4786   0.861   5.051   4.066
 1558SOL     OW 4787   1.352   3.776   3.892
 1558SOL    HW1 4788   1.387   3.735   3.808
 1558SOL    HW2 4789   1.262   3.738   3.912
 1559SOL     OW 4790   1.300   4.177   4.415
 1559SOL    HW1 4791   1.241   4.257   4.419
 1559SOL    HW2 4792   1.315   4.142   4.508
 1560SOL     OW 4793   1.593   3.945   4.606
 1560SOL    HW1 4794   1.509   3.944   4.660
 1560SOL    HW2 4795   1.595   4.028   4.550
 1561SOL     OW 4796   0.039   4.801   4.024
 1561SOL    HW1 4797   0.138   4.790   4.015
 1561SOL    HW2 4798  -0.001   4.715   4.056
 1562SOL     OW 4799   2.092   0.628   0.113
 1562SOL    HW1 4800   1.999   0.626   0.150
 1562SOL    HW2 4801   2.093   0.589   0.021
 1563SOL     OW 4802   2.087   0.275   0.996
 1563SOL    HW1 4803   2.122   0.258   1.088
 1563SOL    HW2 4804   1.999   0.230   0.984
 1564SOL     OW 4805   1.881   0.368   0.647
 1564SOL    HW1 4806   1.799   0.411   0.686
 1564SOL    HW2 4807   1.853   0.295   0.584
 1565SOL     OW 4808   2.431   1.275   1.165
 1565SOL    HW1 4809   2.338   1.268   1.128
 1565SOL    HW2 4810   2.442   1.364   1.209
 1566SOL     OW 4811   2.997   0.703   0.717
 1566SOL    HW1 4812   3.054   0.781   0.692
 1566SOL    HW2 4813   2.937   0.729   0.793
 1567SOL     OW 4814   3.617   0.607   0.231
 1567SOL    HW1 4815   3.605   0.594   0.132
 1567SOL    HW2 4816   3.587   0.526   0.280
 1568SOL     OW 4817   2.630   1.144   1.023
 1568SOL    HW1 4818   2.552   1.161   1.083
 1568SOL    HW2 4819   2.664   1.231   0.987
 1569SOL     OW 4820   2.712   0.798   1.823
 1569SOL    HW1 4821   2.708   0.874   1.888
 1569SOL    HW2 4822   2.734   0.834   1.732
 1570SOL     OW 4823   2.547   1.012   0.665
 1570SOL    HW1 4824   2.616   0.996   0.735
 1570SOL    HW2 4825   2.474   1.069   0.703
 1571SOL     OW 4826   2.548   1.161   1.803
 1571SOL    HW1 4827   2.608   1.240   1.817
 1571SOL    HW2 4828   2.462   1.192   1.762
 1572SOL     OW 4829   2.197   1.435   1.061
 1572SOL    HW1 4830   2.119   1.404   1.008
 1572SOL    HW2 4831   2.255   1.493   1.004
 1573SOL     OW 4832   2.300   0.392   1.499
 1573SOL    HW1 4833   2.382   0.336   1.508
 1573SOL    HW2 4834   2.219   0.334   1.503
 1574SOL     OW 4835   3.465   0.447   0.737
 1574SOL    HW1 4836   3.391   0.493   0.687
 1574SOL    HW2 4837   3.516   0.515   0.790
 1575SOL     OW 4838   2.093   1.713   0.483
 1575SOL    HW1 4839   2.127   1.790   0.537
 1575SOL    HW2 4840   2.137   1.713   0.393
 1576SOL     OW 4841   2.989   1.341   1.690
 1576SOL    HW1 4842   3.036   1.341   1.778
 1576SOL    HW2 4843   2.941   1.254   1.679
 1577SOL     OW 4844   2.092   1.434   0.538
 1577SOL    HW1 4845   2.066   1.530   0.538
 1577SOL    HW2 4846   2.021   1.380   0.583
 1578SOL     OW 4847   2.102   1.091   0.886
 1578SOL    HW1 4848   2.116   1.007   0.938
 1578SOL    HW2 4849   2.047   1.155   0.941
 1579SOL     OW 4850   2.482   1.786   1.439
 1579SOL    HW1 4851   2.390   1.769   1.474
 1579SOL    HW2 4852   2.510   1.878   1.465
 1580SOL     OW 4853   2.468   0.964   0.123
 1580SOL    HW1 4854   2.475   1.048   0.069
 1580SOL    HW2 4855   2.514   0.977   0.211
 1581SOL     OW 4856   3.456   0.114   1.480
 1581SOL    HW1 4857   3.438   0.181   1.408
 1581SOL    HW2 4858   3.453   0.160   1.569
 1582SOL     OW 4859   1.984   0.643   0.563
 1582SOL    HW1 4860   1.939   0.555   0.580
 1582SOL    HW2 4861   1.983   0.697   0.647
 1583SOL     OW 4862   3.704   1.767   0.359
 1583SOL    HW1 4863   3.758   1.738   0.439
 1583SOL    HW2 4864   3.734   1.857   0.330
 1584SOL     OW 4865   1.889   1.596   0.117
 1584SOL    HW1 4866   1.870   1.500   0.138
 1584SOL    HW2 4867   1.856   1.654   0.192
 1585SOL     OW 4868   3.551   0.922   0.612
 1585SOL    HW1 4869   3.646   0.893   0.620
 1585SOL    HW2 4870   3.543   0.987   0.537
 1586SOL     OW 4871   3.503   1.108   0.432
 1586SOL    HW1 4872   3.589   1.110   0.380
 1586SOL    HW2 4873   3.517   1.155   0.520
 1587SOL     OW 4874   1.975   0.737   1.597
 1587SOL    HW1 4875   2.063   0.724   1.642
 1587SOL    HW2 4876   1.962   0.834   1.575
 1588SOL     OW 4877   2.475   1.365   0.726
 1588SOL    HW1 4878   2.426   1.278   0.735
 1588SOL    HW2 4879   2.452   1.408   0.639
 1589SOL     OW 4880   2.671   0.004   0.502
 1589SOL    HW1 4881   2.711   0.095   0.493
 1589SOL    HW2 4882   2.571   0.012   0.508
 1590SOL     OW 4883   2.059   0.976   1.264
 1590SOL    HW1 4884   2.148   0.931   1.250
 1590SOL    HW2 4885   1.986   0.911   1.245
 1591SOL     OW 4886   3.387   0.999   0.190
 1591SOL    HW1 4887   3.324   0.923   0.203
 1591SOL    HW2 4888   3.435   1.017   0.276
 1592SOL     OW 4889   3.049   1.792   1.616
 1592SOL    HW1 4890   3.073   1.852   1.540
 1592SOL    HW2 4891   3.056   1.697   1.586
 1593SOL     OW 4892   2.179   0.251   1.801
 1593SOL    HW1 4893   2.250   0.322   1.807
 1593SOL    HW2 4894   2.091   0.290   1.829
 1594SOL     OW 4895   3.529   1.714   0.572
 1594SOL    HW1 4896   3.488   1.691   0.484
 1594SOL    HW2 4897   3.511   1.640   0.637
 1595SOL     OW 4898   2.460   0.729   0.270
 1595SOL    HW1 4899   2.484   0.798   0.202
 1595SOL    HW2 4900   2.382   0.762   0.324
 1596SOL     OW 4901   3.143   0.345   0.944
 1596SOL    HW1 4902   3.057   0.295   0.931
 1596SOL    HW2 4903   3.205   0.291   1.000
 1597SOL     OW 4904   3.438   1.662   0.307
 1597SOL    HW1 4905   3.527   1.708   0.310
 1597SOL    HW2 4906   3.417   1.638   0.212
 1598SOL     OW 4907   2.669   0.605   1.465
 1598SOL    HW1 4908   2.622   0.602   1.554
 1598SOL    HW2 4909   2.618   0.550   1.399
 1599SOL     OW 4910   3.256   0.469   1.674
 1599SOL    HW1 4911   3.236   0.512   1.762
 1599SOL    HW2 4912   3.334   0.407   1.683
 1600SOL     OW 4913   2.835   0.890   1.572
 1600SOL    HW1 4914   2.881   0.806   1.543
 1600SOL    HW2 4915   2.779   0.924   1.497
 1601SOL     OW 4916   2.853   0.410   1.242
 1601SOL    HW1 4917   2.776   0.444   1.296
 1601SOL    HW2 4918   2.819   0.359   1.163
 1602SOL     OW 4919   2.903   0.701   0.429
 1602SOL    HW1 4920   2.929   0.697   0.525
 1602SOL    HW2 4921   2.818   0.650   0.415
 1603SOL     OW 4922   1.938   0.811   0.789
 1603SOL    HW1 4923   2.037   0.799   0.798
 1603SOL    HW2 4924   1.914   0.906   0.810
 1604SOL     OW 4925   1.992   1.821   1.571
 1604SOL    HW1 4926   1.982   1.806   1.670
 1604SOL    HW2 4927   1.906   1.857   1.535
 1605SOL     OW 4928   2.727   0.348   0.195
 1605SOL    HW1 4929   2.786   0.411   0.146
 1605SOL    HW2 4930   2.746   0.254   0.166
 1606SOL     OW 4931   3.581   0.585   1.831
 1606SOL    HW1 4932   3.555   0.674   1.795
 1606SOL    HW2 4933   3.579   0.517   1.758
 1607SOL     OW 4934   3.224   1.144   0.545
 1607SOL    HW1 4935   3.307   1.115   0.497
 1607SOL    HW2 4936   3.175   1.211   0.489
 1608SOL     OW 4937   2.412   0.196   0.885
 1608SOL    HW1 4938   2.407   0.191   0.985
 1608SOL    HW2 4939   2.414   0.292   0.856
 1609SOL     OW 4940   2.870   1.456   0.477
 1609SOL    HW1 4941   2.824   1.528   0.425
 1609SOL    HW2 4942   2.866   1.476   0.575
 1610SOL     OW 4943   2.213   1.801   0.853
 1610SOL    HW1 4944   2.263   1.715   0.859
 1610SOL    HW2 4945   2.278   1.878   0.850
 1611SOL     OW 4946   3.657   1.066   0.873
 1611SOL    HW1 4947   3.595   1.051   0.797
 1611SOL    HW2 4948   3.605   1.077   0.958
 1612SOL     OW 4949   3.089   1.550   1.506
 1612SOL    HW1 4950   3.095   1.473   1.570
 1612SOL    HW2 4951   3.037   1.524   1.426
 1613SOL     OW 4952   2.183   0.943   0.242
 1613SOL    HW1 4953   2.265   0.982   0.200
 1613SOL    HW2 4954   2.156   0.861   0.193
 1614SOL     OW 4955   3.320   0.735   0.728
 1614SOL    HW1 4956   3.315   0.670   0.803
 1614SOL    HW2 4957   3.400   0.794   0.741
 1615SOL     OW 4958   2.323   1.266   1.727
 1615SOL    HW1 4959   2.273   1.267   1.641
 1615SOL    HW2 4960   2.260   1.248   1.803
 1616SOL     OW 4961   2.973   1.776   0.237
 1616SOL    HW1 4962   2.913   1.714   0.287
 1616SOL    HW2 4963   3.004   1.732   0.152
 1617SOL     OW 4964   2.064   0.285   1.498
 1617SOL    HW1 4965   1.984   0.345   1.485
 1617SOL    HW2 4966   2.054   0.236   1.584
 1618SOL     OW 4967   3.494   1.377   0.081
 1618SOL    HW1 4968   3.462   1.471   0.071
 1618SOL    HW2 4969   3.418   1.314   0.069
 1619SOL     OW 4970   2.326   1.743   0.323
 1619SOL    HW1 4971   2.359   1.782   0.409
 1619SOL    HW2 4972   2.402   1.736   0.258
 1620SOL     OW 4973   3.262   0.107   0.426
 1620SOL    HW1 4974   3.238   0.070   0.336
 1620SOL    HW2 4975   3.361   0.123   0.430
 1621SOL     OW 4976   2.111   1.785   1.241
 1621SOL    HW1 4977   2.168   1.720   1.291
 1621SOL    HW2 4978   2.095   1.752   1.148
 1622SOL     OW 4979   2.802   1.698   0.904
 1622SOL    HW1 4980   2.882   1.641   0.925
 1622SOL    HW2 4981   2.753   1.658   0.827
 1623SOL     OW 4982   2.244   0.700   0.480
 1623SOL    HW1 4983   2.289   0.610   0.477
 1623SOL    HW2 4984   2.150   0.689   0.513
 1624SOL     OW 4985   3.409   0.222   1.729
 1624SOL    HW1 4986   3.404   0.259   1.821
 1624SOL    HW2 4987   3.337   0.153   1.717
 1625SOL     OW 4988   2.476   0.122   0.117
 1625SOL    HW1 4989   2.574   0.100   0.124
 1625SOL    HW2 4990   2.445   0.105   0.024
 1626SOL     OW 4991   2.643   0.264   1.749
 1626SOL    HW1 4992   2.710   0.203   1.792
 1626SOL    HW2 4993   2.570   0.283   1.814
 1627SOL     OW 4994   2.750   1.514   1.195
 1627SOL    HW1 4995   2.727   1.489   1.101
 1627SOL    HW2 4996   2.811   1.445   1.234
 1628SOL     OW 4997   3.213   0.590   1.433
 1628SOL    HW1 4998   3.241   0.547   1.518
 1628SOL    HW2 4999   3.238   0.686   1.434
 1629SOL     OW 5000   2.665   1.402   0.924
 1629SOL    HW1 5001   2.755   1.416   0.882
 1629SOL    HW2 5002   2.594   1.404   0.853
 1630SOL     OW 5003   2.784   0.503   0.899
 1630SOL    HW1 5004   2.759   0.494   0.803
 1630SOL    HW2 5005   2.832   0.421   0.930
 1631SOL     OW 5006   2.401   0.064   0.512
 1631SOL    HW1 5007   2.320   0.065   0.570
 1631SOL    HW2 5008   2.404   0.147   0.457
 1632SOL     OW 5009   3.296   1.188   0.041
 1632SOL    HW1 5010   3.328   1.112   0.098
 1632SOL    HW2 5011   3.204   1.215   0.071
 1633SOL     OW 5012   2.159   0.035   0.171
 1633SOL    HW1 5013   2.208   0.119   0.150
 1633SOL    HW2 5014   2.221  -0.030   0.216
 1634SOL     OW 5015   2.797   0.236   0.480
 1634SOL    HW1 5016   2.749   0.277   0.402
 1634SOL    HW2 5017   2.896   0.234   0.461
 1635SOL     OW 5018   2.938   0.683   1.464
 1635SOL    HW1 5019   2.858   0.622   1.467
 1635SOL    HW2 5020   3.019   0.630   1.440
 1636SOL     OW 5021   3.089   1.570   0.793
 1636SOL    HW1 5022   3.110   1.644   0.728
 1636SOL    HW2 5023   3.157   1.570   0.866
 1637SOL     OW 5024   2.321   1.152   0.741
 1637SOL    HW1 5025   2.250   1.125   0.806
 1637SOL    HW2 5026   2.295   1.124   0.648
 1638SOL     OW 5027   3.133   1.797   0.591
 1638SOL    HW1 5028   3.177   1.861   0.527
 1638SOL    HW2 5029   3.083   1.849   0.661
 1639SOL     OW 5030   2.894   0.549   0.016
 1639SOL    HW1 5031   2.853   0.631  -0.023
 1639SOL    HW2 5032   2.958   0.575   0.089
 1640SOL     OW 5033   1.940   0.556   1.386
 1640SOL    HW1 5034   2.032   0.555   1.345
 1640SOL    HW2 5035   1.934   0.630   1.453
 1641SOL     OW 5036   2.423   0.222   1.147
 1641SOL    HW1 5037   2.461   0.138   1.184
 1641SOL    HW2 5038   2.335   0.241   1.191
 1642SOL     OW 5039   2.728   0.454   0.642
 1642SOL    HW1 5040   2.696   0.526   0.580
 1642SOL    HW2 5041   2.752   0.373   0.589
 1643SOL     OW 5042   2.879   0.039   0.753
 1643SOL    HW1 5043   2.807   0.044   0.684
 1643SOL    HW2 5044   2.855  -0.030   0.822
 1644SOL     OW 5045   3.328   0.590   0.992
 1644SOL    HW1 5046   3.298   0.495   0.999
 1644SOL    HW2 5047   3.401   0.606   1.058
 1645SOL     OW 5048   3.719   0.833   0.377
 1645SOL    HW1 5049   3.761   0.769   0.441
 1645SOL    HW2 5050   3.681   0.782   0.299
 1646SOL     OW 5051   2.350   1.385   0.174
 1646SOL    HW1 5052   2.263   1.370   0.221
 1646SOL    HW2 5053   2.333   1.411   0.079
 1647SOL     OW 5054   3.252   0.575   0.078
 1647SOL    HW1 5055   3.198   0.554   0.159
 1647SOL    HW2 5056   3.343   0.534   0.087
 1648SOL     OW 5057   2.389   0.256   0.328
 1648SOL    HW1 5058   2.416   0.197   0.253
 1648SOL    HW2 5059   2.389   0.351   0.297
 1649SOL     OW 5060   2.926   1.347   1.340
 1649SOL    HW1 5061   2.846   1.324   1.395
 1649SOL    HW2 5062   3.009   1.321   1.389
 1650SOL     OW 5063   3.454   1.629   1.625
 1650SOL    HW1 5064   3.481   1.663   1.535
 1650SOL    HW2 5065   3.533   1.591   1.671
 1651SOL     OW 5066   2.973   1.195   1.100
 1651SOL    HW1 5067   2.933   1.239   1.181
 1651SOL    HW2 5068   2.932   1.232   1.017
 1652SOL     OW 5069   2.777   0.089   1.402
 1652SOL    HW1 5070   2.802   0.069   1.307
 1652SOL    HW2 5071   2.849   0.145   1.444
 1653SOL     OW 5072   2.842   1.116   1.719
 1653SOL    HW1 5073   2.743   1.122   1.729
 1653SOL    HW2 5074   2.865   1.036   1.663
 1654SOL     OW 5075   2.567   1.050   0.368
 1654SOL    HW1 5076   2.553   1.057   0.467
 1654SOL    HW2 5077   2.651   0.999   0.350
 1655SOL     OW 5078   2.272   0.813   1.251
 1655SOL    HW1 5079   2.358   0.825   1.301
 1655SOL    HW2 5080   2.230   0.726   1.278
 1656SOL     OW 5081   3.136   0.386   1.262
 1656SOL    HW1 5082   3.157   0.460   1.326
 1656SOL    HW2 5083   3.047   0.403   1.219
 1657SOL     OW 5084   1.926   1.564   1.331
 1657SOL    HW1 5085   1.880   1.646   1.297
 1657SOL    HW2 5086   2.024   1.583   1.340
 1658SOL     OW 5087   2.229   1.100   0.501
 1658SOL    HW1 5088   2.222   1.183   0.445
 1658SOL    HW2 5089   2.233   1.020   0.441
 1659SOL     OW 5090   2.428   0.537   0.865
 1659SOL    HW1 5091   2.440   0.603   0.791
 1659SOL    HW2 5092   2.474   0.571   0.948
 1660SOL     OW 5093   3.114   1.348   0.388
 1660SOL    HW1 5094   3.164   1.425   0.428
 1660SOL    HW2 5095   3.019   1.350   0.420
 1661SOL     OW 5096   3.134   1.445   1.142
 1661SOL    HW1 5097   3.181   1.458   1.229
 1661SOL    HW2 5098   3.068   1.371   1.151
 1662SOL     OW 5099   3.444   0.639   0.472
 1662SOL    HW1 5100   3.413   0.700   0.545
 1662SOL    HW2 5101   3.494   0.691   0.403
 1663SOL     OW 5102   2.216   1.510   1.329
 1663SOL    HW1 5103   2.195   1.466   1.242
 1663SOL    HW2 5104   2.313   1.536   1.332
 1664SOL     OW 5105   2.264   0.751   1.598
 1664SOL    HW1 5106   2.332   0.806   1.551
 1664SOL    HW2 5107   2.304   0.663   1.625
 1665SOL     OW 5108   3.449   0.779   1.670
 1665SOL    HW1 5109   3.357   0.817   1.665
 1665SOL    HW2 5110   3.509   0.826   1.605
 1666SOL     OW 5111   2.875   0.105   1.770
 1666SOL    HW1 5112   2.881   0.190   1.718
 1666SOL    HW2 5113   2.907   0.029   1.713
 1667SOL     OW 5114   2.366   0.050   1.740
 1667SOL    HW1 5115   2.324  -0.007   1.670
 1667SOL    HW2 5116   2.300   0.119   1.772
 1668SOL     OW 5117   2.435   0.870   1.029
 1668SOL    HW1 5118   2.479   0.959   1.020
 1668SOL    HW2 5119   2.372   0.870   1.106
 1669SOL     OW 5120   3.222   0.862   1.045
 1669SOL    HW1 5121   3.147   0.862   0.979
 1669SOL    HW2 5122   3.259   0.770   1.054
 1670SOL     OW 5123   3.071   0.525   0.275
 1670SOL    HW1 5124   3.084   0.441   0.329
 1670SOL    HW2 5125   3.042   0.599   0.335
 1671SOL     OW 5126   2.169   0.213   1.231
 1671SOL    HW1 5127   2.146   0.250   1.321
 1671SOL    HW2 5128   2.139   0.118   1.225
 1672SOL     OW 5129   1.899   1.310   1.282
 1672SOL    HW1 5130   1.952   1.261   1.350
 1672SOL    HW2 5131   1.921   1.408   1.287
 1673SOL     OW 5132   2.594   0.634   1.064
 1673SOL    HW1 5133   2.653   0.608   0.988
 1673SOL    HW2 5134   2.566   0.730   1.053
 1674SOL     OW 5135   3.590   0.935   1.854
 1674SOL    HW1 5136   3.544   0.928   1.765
 1674SOL    HW2 5137   3.528   0.979   1.920
 1675SOL     OW 5138   2.169   0.063   0.618
 1675SOL    HW1 5139   2.158   0.157   0.651
 1675SOL    HW2 5140   2.164   0.000   0.695
 1676SOL     OW 5141   3.484   0.367   0.374
 1676SOL    HW1 5142   3.486   0.291   0.438
 1676SOL    HW2 5143   3.436   0.444   0.414
 1677SOL     OW 5144   2.885   0.766   0.966
 1677SOL    HW1 5145   2.900   0.787   1.062
 1677SOL    HW2 5146   2.855   0.671   0.957
 1678SOL     OW 5147   2.842   1.573   1.700
 1678SOL    HW1 5148   2.822   1.617   1.612
 1678SOL    HW2 5149   2.881   1.482   1.684
 1679SOL     OW 5150   3.721   1.518   1.605
 1679SOL    HW1 5151   3.735   1.545   1.510
 1679SOL    HW2 5152   3.804   1.540   1.658
 1680SOL     OW 5153   2.212   0.898   1.804
 1680SOL    HW1 5154   2.288   0.942   1.852
 1680SOL    HW2 5155   2.247   0.851   1.722
 1681SOL     OW 5156   3.402   0.274   0.125
 1681SOL    HW1 5157   3.341   0.199   0.148
 1681SOL    HW2 5158   3.424   0.326   0.208
 1682SOL     OW 5159   3.165   0.838   0.042
 1682SOL    HW1 5160   3.199   0.745   0.057
 1682SOL    HW2 5161   3.183   0.865  -0.053
 1683SOL     OW 5162   2.930   1.333   0.849
 1683SOL    HW1 5163   2.937   1.249   0.794
 1683SOL    HW2 5164   2.992   1.402   0.813
 1684SOL     OW 5165   2.181   0.810   0.949
 1684SOL    HW1 5166   2.274   0.846   0.954
 1684SOL    HW2 5167   2.175   0.725   1.001
 1685SOL     OW 5168   2.201   0.509   1.006
 1685SOL    HW1 5169   2.149   0.426   0.989
 1685SOL    HW2 5170   2.278   0.514   0.942
 1686SOL     OW 5171   3.000   0.380   1.678
 1686SOL    HW1 5172   2.955   0.443   1.742
 1686SOL    HW2 5173   3.093   0.411   1.661
 1687SOL     OW 5174   3.022   0.207   1.477
 1687SOL    HW1 5175   3.022   0.271   1.554
 1687SOL    HW2 5176   3.050   0.255   1.394
 1688SOL     OW 5177   1.950   1.801   0.927
 1688SOL    HW1 5178   1.908   1.715   0.900
 1688SOL    HW2 5179   2.044   1.804   0.893
 1689SOL     OW 5180   2.366   1.568   0.910
 1689SOL    HW1 5181   2.432   1.642   0.919
 1689SOL    HW2 5182   2.410   1.489   0.868
 1690SOL     OW 5183   2.864   0.796   1.238
 1690SOL    HW1 5184   2.905   0.764   1.324
 1690SOL    HW2 5185   2.768   0.769   1.235
 1691SOL     OW 5186   1.902   0.544   1.114
 1691SOL    HW1 5187   1.987   0.511   1.073
 1691SOL    HW2 5188   1.915   0.559   1.212
 1692SOL     OW 5189   2.051   0.520   1.722
 1692SOL    HW1 5190   2.110   0.480   1.652
 1692SOL    HW2 5191   1.993   0.591   1.681
 1693SOL     OW 5192   3.231   0.950   1.660
 1693SOL    HW1 5193   3.270   1.039   1.680
 1693SOL    HW2 5194   3.241   0.930   1.563
 1694SOL     OW 5195   2.677   0.572   0.325
 1694SOL    HW1 5196   2.684   0.483   0.279
 1694SOL    HW2 5197   2.583   0.606   0.317
 1695SOL     OW 5198   3.519   0.604   1.206
 1695SOL    HW1 5199   3.481   0.535   1.268
 1695SOL    HW2 5200   3.601   0.568   1.162
 1696SOL     OW 5201   2.114   1.564   1.744
 1696SOL    HW1 5202   2.084   1.621   1.820
 1696SOL    HW2 5203   2.107   1.467   1.770
 1697SOL     OW 5204   2.533   0.464   1.269
 1697SOL    HW1 5205   2.499   0.375   1.239
 1697SOL    HW2 5206   2.559   0.518   1.189
 1698SOL     OW 5207   2.792   1.678   1.465
 1698SOL    HW1 5208   2.768   1.660   1.370
 1698SOL    HW2 5209   2.822   1.772   1.475
 1699SOL     OW 5210   2.335   0.500   0.191
 1699SOL    HW1 5211   2.396   0.580   0.195
 1699SOL    HW2 5212   2.240   0.531   0.198
 1700SOL     OW 5213   2.021   1.137   1.466
 1700SOL    HW1 5214   2.043   1.076   1.542
 1700SOL    HW2 5215   2.031   1.088   1.380
 1701SOL     OW 5216   3.164   0.855   0.309
 1701SOL    HW1 5217   3.078   0.824   0.351
 1701SOL    HW2 5218   3.160   0.841   0.210
 1702SOL     OW 5219   3.114   1.731   1.128
 1702SOL    HW1 5220   3.198   1.736   1.074
 1702SOL    HW2 5221   3.091   1.635   1.146
 1703SOL     OW 5222   1.945   1.258   1.022
 1703SOL    HW1 5223   1.940   1.257   1.122
 1703SOL    HW2 5224   1.862   1.217   0.984
 1704SOL     OW 5225   2.550   1.662   1.716
 1704SOL    HW1 5226   2.494   1.743   1.725
 1704SOL    HW2 5227   2.602   1.666   1.630
 1705SOL     OW 5228   2.765   0.086   0.133
 1705SOL    HW1 5229   2.816   0.087   0.047
 1705SOL    HW2 5230   2.821   0.044   0.204
 1706SOL     OW 5231   3.588   0.135   0.523
 1706SOL    HW1 5232   3.661   0.118   0.456
 1706SOL    HW2 5233   3.557   0.048   0.561
 1707SOL     OW 5234   3.250   1.573   0.477
 1707SOL    HW1 5235   3.317   1.585   0.403
 1707SOL    HW2 5236   3.210   1.662   0.500
 1708SOL     OW 5237   1.992   1.794   1.851
 1708SOL    HW1 5238   1.951   1.720   1.904
 1708SOL    HW2 5239   2.056   1.845   1.909
 1709SOL     OW 5240   3.142   0.927   0.672
 1709SOL    HW1 5241   3.202   0.846   0.674
 1709SOL    HW2 5242   3.182   0.996   0.612
 1710SOL     OW 5243   2.692   1.273   1.422
 1710SOL    HW1 5244   2.687   1.306   1.517
 1710SOL    HW2 5245   2.606   1.292   1.376
 1711SOL     OW 5246   2.534   1.616   0.154
 1711SOL    HW1 5247   2.543   1.626   0.055
 1711SOL    HW2 5248   2.494   1.527   0.175
 1712SOL     OW 5249   3.512   1.720   1.394
 1712SOL    HW1 5250   3.565   1.730   1.310
 1712SOL    HW2 5251   3.485   1.810   1.428
 1713SOL     OW 5252   3.703   0.175   0.963
 1713SOL    HW1 5253   3.742   0.090   0.927
 1713SOL    HW2 5254   3.605   0.177   0.944
 1714SOL     OW 5255   2.125   0.326   0.720
 1714SOL    HW1 5256   2.046   0.377   0.686
 1714SOL    HW2 5257   2.116   0.311   0.818
 1715SOL     OW 5258   3.056   1.612   0.031
 1715SOL    HW1 5259   3.062   1.519   0.068
 1715SOL    HW2 5260   2.997   1.612  -0.049
 1716SOL     OW 5261   2.684   1.002   1.372
 1716SOL    HW1 5262   2.724   1.001   1.280
 1716SOL    HW2 5263   2.694   1.094   1.412
 1717SOL     OW 5264   2.778   0.910   0.291
 1717SOL    HW1 5265   2.841   0.948   0.223
 1717SOL    HW2 5266   2.818   0.827   0.330
 1718SOL     OW 5267   3.366   1.607   0.044
 1718SOL    HW1 5268   3.274   1.644   0.051
 1718SOL    HW2 5269   3.404   1.627  -0.046
 1719SOL     OW 5270   2.234   1.288   1.490
 1719SOL    HW1 5271   2.221   1.381   1.456
 1719SOL    HW2 5272   2.150   1.236   1.477
 1720SOL     OW 5273   2.901   1.098   0.696
 1720SOL    HW1 5274   2.831   1.051   0.750
 1720SOL    HW2 5275   2.960   1.030   0.653
 1721SOL     OW 5276   2.876   0.236   0.971
 1721SOL    HW1 5277   2.868   0.200   0.878
 1721SOL    HW2 5278   2.874   0.160   1.036
 1722SOL     OW 5279   2.452   1.487   0.491
 1722SOL    HW1 5280   2.494   1.429   0.421
 1722SOL    HW2 5281   2.408   1.566   0.447
 1723SOL     OW 5282   3.571   0.385   1.381
 1723SOL    HW1 5283   3.644   0.454   1.385
 1723SOL    HW2 5284   3.599   0.310   1.322
 1724SOL     OW 5285   2.117   1.348   0.290
 1724SOL    HW1 5286   2.021   1.349   0.263
 1724SOL    HW2 5287   2.129   1.401   0.374
 1725SOL     OW 5288   1.967   1.013   1.726
 1725SOL    HW1 5289   1.890   0.980   1.780
 1725SOL    HW2 5290   2.052   0.983   1.768
 1726SOL     OW 5291   2.534   0.203   1.489
 1726SOL    HW1 5292   2.624   0.187   1.449
 1726SOL    HW2 5293   2.542   0.208   1.588
 1727SOL     OW 5294   3.302   0.856   1.398
 1727SOL    HW1 5295   3.245   0.908   1.335
 1727SOL    HW2 5296   3.398   0.868   1.374
 1728SOL     OW 5297   1.934   0.166   0.318
 1728SOL    HW1 5298   1.917   0.249   0.264
 1728SOL    HW2 5299   2.024   0.129   0.296
 1729SOL     OW 5300   3.045   1.335   0.119
 1729SOL    HW1 5301   2.946   1.324   0.121
 1729SOL    HW2 5302   3.079   1.350   0.212
 1730SOL     OW 5303   2.475   0.842   1.431
 1730SOL    HW1 5304   2.531   0.923   1.414
 1730SOL    HW2 5305   2.534   0.762   1.434
 1731SOL     OW 5306   3.355   1.767   0.959
 1731SOL    HW1 5307   3.388   1.831   0.890
 1731SOL    HW2 5308   3.421   1.761   1.034
 1732SOL     OW 5309   2.578   0.565   1.708
 1732SOL    HW1 5310   2.597   0.630   1.782
 1732SOL    HW2 5311   2.638   0.485   1.717
 1733SOL     OW 5312   2.252   1.741   1.560
 1733SOL    HW1 5313   2.161   1.782   1.558
 1733SOL    HW2 5314   2.245   1.647   1.592
 1734SOL     OW 5315   3.087   0.325   0.449
 1734SOL    HW1 5316   3.152   0.251   0.438
 1734SOL    HW2 5317   3.107   0.375   0.533
 1735SOL     OW 5318   2.456   0.745   0.652
 1735SOL    HW1 5319   2.506   0.830   0.633
 1735SOL    HW2 5320   2.368   0.747   0.604
 1736SOL     OW 5321   3.639   0.342   1.642
 1736SOL    HW1 5322   3.622   0.373   1.548
 1736SOL    HW2 5323   3.555   0.305   1.680
 1737SOL     OW 5324   3.592   0.934   1.517
 1737SOL    HW1 5325   3.630   1.025   1.532
 1737SOL    HW2 5326   3.584   0.917   1.418
 1738SOL     OW 5327   2.721   1.374   0.016
 1738SOL    HW1 5328   2.675   1.389   0.104
 1738SOL    HW2 5329   2.765   1.459  -0.014
 1739SOL     OW 5330   2.523   1.790   0.953
 1739SOL    HW1 5331   2.477   1.878   0.940
 1739SOL    HW2 5332   2.622   1.802   0.946
 1740SOL     OW 5333   2.721   0.956   0.861
 1740SOL    HW1 5334   2.775   0.887   0.909
 1740SOL    HW2 5335   2.689   1.025   0.927
 1741SOL     OW 5336   2.945   0.984   0.087
 1741SOL    HW1 5337   2.922   1.037   0.005
 1741SOL    HW2 5338   3.026   0.928   0.068
 1742SOL     OW 5339   2.083   1.314   1.844
 1742SOL    HW1 5340   2.018   1.241   1.823
 1742SOL    HW2 5341   2.087   1.328   1.942
 1743SOL     OW 5342   1.941   1.240   0.653
 1743SOL    HW1 5343   1.940   1.193   0.741
 1743SOL    HW2 5344   2.023   1.212   0.602
 1744SOL     OW 5345   2.534   1.391   1.624
 1744SOL    HW1 5346   2.456   1.341   1.662
 1744SOL    HW2 5347   2.531   1.486   1.655
 1745SOL     OW 5348   3.686   0.192   1.227
 1745SOL    HW1 5349   3.682   0.102   1.271
 1745SOL    HW2 5350   3.689   0.181   1.128
 1746SOL     OW 5351   2.290   0.424   0.520
 1746SOL    HW1 5352   2.320   0.352   0.458
 1746SOL    HW2 5353   2.251   0.384   0.603
 1747SOL     OW 5354   2.179   0.547   1.280
 1747SOL    HW1 5355   2.217   0.488   1.352
 1747SOL    HW2 5356   2.219   0.521   1.192
 1748SOL     OW 5357   2.674   1.586   0.687
 1748SOL    HW1 5358   2.706   1.596   0.593
 1748SOL    HW2 5359   2.595   1.524   0.689
 1749SOL     OW 5360   3.286   0.214   1.112
 1749SOL    HW1 5361   3.338   0.149   1.167
 1749SOL    HW2 5362   3.237   0.277   1.173
 1750SOL     OW 5363   2.863   0.034   1.154
 1750SOL    HW1 5364   2.800  -0.038   1.123
 1750SOL    HW2 5365   2.956  -0.002   1.154
 1751SOL     OW 5366   2.632   1.330   0.301
 1751SOL    HW1 5367   2.586   1.243   0.318
 1751SOL    HW2 5368   2.723   1.327   0.342
 1752SOL     OW 5369   2.480   1.567   1.284
 1752SOL    HW1 5370   2.475   1.649   1.341
 1752SOL    HW2 5371   2.569   1.564   1.239
 1753SOL     OW 5372   3.214   0.052   0.168
 1753SOL    HW1 5373   3.249   0.011   0.084
 1753SOL    HW2 5374   3.124   0.014   0.188
 1754SOL     OW 5375   3.162   0.453   0.691
 1754SOL    HW1 5376   3.103   0.533   0.695
 1754SOL    HW2 5377   3.177   0.418   0.784
 1755SOL     OW 5378   3.455   0.221   0.882
 1755SOL    HW1 5379   3.371   0.220   0.936
 1755SOL    HW2 5380   3.457   0.304   0.826
 1756SOL     OW 5381   1.901   1.077   0.300
 1756SOL    HW1 5382   2.000   1.066   0.291
 1756SOL    HW2 5383   1.861   0.991   0.332
 1757SOL     OW 5384   2.737   1.646   0.337
 1757SOL    HW1 5385   2.660   1.611   0.283
 1757SOL    HW2 5386   2.705   1.717   0.399
 1758SOL     OW 5387   2.092   0.628   1.975
 1758SOL    HW1 5388   1.999   0.626   2.012
 1758SOL    HW2 5389   2.093   0.589   1.883
 1759SOL     OW 5390   2.087   0.275   2.858
 1759SOL    HW1 5391   2.122   0.258   2.950
 1759SOL    HW2 5392   1.999   0.230   2.846
 1760SOL     OW 5393   1.881   0.368   2.509
 1760SOL    HW1 5394   1.799   0.411   2.548
 1760SOL    HW2 5395   1.853   0.295   2.446
 1761SOL     OW 5396   2.431   1.275   3.027
 1761SOL    HW1 5397   2.338   1.268   2.990
 1761SOL    HW2 5398   2.442   1.364   3.071
 1762SOL     OW 5399   3.417   1.511   2.565
 1762SOL    HW1 5400   3.360   1.495   2.646
 1762SOL    HW2 5401   3.358   1.521   2.485
 1763SOL     OW 5402   2.997   0.703   2.579
 1763SOL    HW1 5403   3.054   0.781   2.554
 1763SOL    HW2 5404   2.937   0.729   2.655
 1764SOL     OW 5405   3.617   0.607   2.093
 1764SOL    HW1 5406   3.605   0.594   1.994
 1764SOL    HW2 5407   3.587   0.526   2.142
 1765SOL     OW 5408   2.630   1.144   2.885
 1765SOL    HW1 5409   2.552   1.161   2.945
 1765SOL    HW2 5410   2.664   1.231   2.849
 1766SOL     OW 5411   2.712   0.798   3.685
 1766SOL    HW1 5412   2.708   0.874   3.750
 1766SOL    HW2 5413   2.734   0.834   3.594
 1767SOL     OW 5414   2.547   1.012   2.527
 1767SOL    HW1 5415   2.616   0.996   2.597
 1767SOL    HW2 5416   2.474   1.069   2.565
 1768SOL     OW 5417   2.548   1.161   3.665
 1768SOL    HW1 5418   2.608   1.240   3.679
 1768SOL    HW2 5419   2.462   1.192   3.624
 1769SOL     OW 5420   2.197   1.435   2.923
 1769SOL    HW1 5421   2.119   1.404   2.870
 1769SOL    HW2 5422   2.255   1.493   2.866
 1770SOL     OW 5423   3.322   1.505   3.201
 1770SOL    HW1 5424   3.346   1.599   3.227
 1770SOL    HW2 5425   3.306   1.451   3.283
 1771SOL     OW 5426   2.300   0.392   3.361
 1771SOL    HW1 5427   2.382   0.336   3.370
 1771SOL    HW2 5428   2.219   0.334   3.365
 1772SOL     OW 5429   3.465   0.447   2.599
 1772SOL    HW1 5430   3.391   0.493   2.549
 1772SOL    HW2 5431   3.516   0.515   2.652
 1773SOL     OW 5432   2.093   1.713   2.345
 1773SOL    HW1 5433   2.127   1.790   2.399
 1773SOL    HW2 5434   2.137   1.713   2.255
 1774SOL     OW 5435   2.989   1.341   3.552
 1774SOL    HW1 5436   3.036   1.341   3.640
 1774SOL    HW2 5437   2.941   1.254   3.541
 1775SOL     OW 5438   2.092   1.434   2.400
 1775SOL    HW1 5439   2.066   1.530   2.400
 1775SOL    HW2 5440   2.021   1.380   2.445
 1776SOL     OW 5441   2.102   1.091   2.748
 1776SOL    HW1 5442   2.116   1.007   2.800
 1776SOL    HW2 5443   2.047   1.155   2.803
 1777SOL     OW 5444   2.482   1.786   3.301
 1777SOL    HW1 5445   2.390   1.769   3.336
 1777SOL    HW2 5446   2.510   1.878   3.327
 1778SOL     OW 5447   2.468   0.964   1.985
 1778SOL    HW1 5448   2.475   1.048   1.931
 1778SOL    HW2 5449   2.514   0.977   2.073
 1779SOL     OW 5450   3.456   0.114   3.342
 1779SOL    HW1 5451   3.438   0.181   3.270
 1779SOL    HW2 5452   3.453   0.160   3.431
 1780SOL     OW 5453   1.984   0.643   2.425
 1780SOL    HW1 5454   1.939   0.555   2.442
 1780SOL    HW2 5455   1.983   0.697   2.509
 1781SOL     OW 5456   3.704   1.767   2.221
 1781SOL    HW1 5457   3.758   1.738   2.301
 1781SOL    HW2 5458   3.734   1.857   2.192
 1782SOL     OW 5459   1.889   1.596   1.979
 1782SOL    HW1 5460   1.870   1.500   2.000
 1782SOL    HW2 5461   1.856   1.654   2.054
 1783SOL     OW 5462   3.551   0.922   2.474
 1783SOL    HW1 5463   3.646   0.893   2.482
 1783SOL    HW2 5464   3.543   0.987   2.399
 1784SOL     OW 5465   3.503   1.108   2.294
 1784SOL    HW1 5466   3.589   1.110   2.242
 1784SOL    HW2 5467   3.517   1.155   2.382
 1785SOL     OW 5468   1.975   0.737   3.459
 1785SOL    HW1 5469   2.063   0.724   3.504
 1785SOL    HW2 5470   1.962   0.834   3.437
 1786SOL     OW 5471   2.475   1.365   2.588
 1786SOL    HW1 5472   2.426   1.278   2.597
 1786SOL    HW2 5473   2.452   1.408   2.501
 1787SOL     OW 5474   3.155   1.228   3.285
 1787SOL    HW1 5475   3.192   1.155   3.227
 1787SOL    HW2 5476   3.207   1.233   3.370
 1788SOL     OW 5477   2.671   0.004   2.364
 1788SOL    HW1 5478   2.711   0.095   2.355
 1788SOL    HW2 5479   2.571   0.012   2.370
 1789SOL     OW 5480   2.059   0.976   3.126
 1789SOL    HW1 5481   2.148   0.931   3.112
 1789SOL    HW2 5482   1.986   0.911   3.107
 1790SOL     OW 5483   3.387   0.999   2.052
 1790SOL    HW1 5484   3.324   0.923   2.065
 1790SOL    HW2 5485   3.435   1.017   2.138
 1791SOL     OW 5486   3.049   1.792   3.478
 1791SOL    HW1 5487   3.073   1.852   3.402
 1791SOL    HW2 5488   3.056   1.697   3.448
 1792SOL     OW 5489   2.179   0.251   3.663
 1792SOL    HW1 5490   2.250   0.322   3.669
 1792SOL    HW2 5491   2.091   0.290   3.691
 1793SOL     OW 5492   3.328   1.417   2.815
 1793SOL    HW1 5493   3.269   1.423   2.895
 1793SOL    HW2 5494   3.313   1.329   2.769
 1794SOL     OW 5495   3.529   1.714   2.434
 1794SOL    HW1 5496   3.488   1.691   2.346
 1794SOL    HW2 5497   3.511   1.640   2.499
 1795SOL     OW 5498   2.460   0.729   2.132
 1795SOL    HW1 5499   2.484   0.798   2.064
 1795SOL    HW2 5500   2.382   0.762   2.186
 1796SOL     OW 5501   3.143   0.345   2.806
 1796SOL    HW1 5502   3.057   0.295   2.793
 1796SOL    HW2 5503   3.205   0.291   2.862
 1797SOL     OW 5504   3.438   1.662   2.169
 1797SOL    HW1 5505   3.527   1.708   2.172
 1797SOL    HW2 5506   3.417   1.638   2.074
 1798SOL     OW 5507   2.669   0.605   3.327
 1798SOL    HW1 5508   2.622   0.602   3.416
 1798SOL    HW2 5509   2.618   0.550   3.261
 1799SOL     OW 5510   3.256   0.469   3.536
 1799SOL    HW1 5511   3.236   0.512   3.624
 1799SOL    HW2 5512   3.334   0.407   3.545
 1800SOL     OW 5513   2.835   0.890   3.434
 1800SOL    HW1 5514   2.881   0.806   3.405
 1800SOL    HW2 5515   2.779   0.924   3.359
 1801SOL     OW 5516   2.853   0.410   3.104
 1801SOL    HW1 5517   2.776   0.444   3.158
 1801SOL    HW2 5518   2.819   0.359   3.025
 1802SOL     OW 5519   2.903   0.701   2.291
 1802SOL    HW1 5520   2.929   0.697   2.387
 1802SOL    HW2 5521   2.818   0.650   2.277
 1803SOL     OW 5522   1.938   0.811   2.651
 1803SOL    HW1 5523   2.037   0.799   2.660
 1803SOL    HW2 5524   1.914   0.906   2.672
 1804SOL     OW 5525   1.992   1.821   3.433
 1804SOL    HW1 5526   1.982   1.806   3.532
 1804SOL    HW2 5527   1.906   1.857   3.397
 1805SOL     OW 5528   2.727   0.348   2.057
 1805SOL    HW1 5529   2.786   0.411   2.008
 1805SOL    HW2 5530   2.746   0.254   2.028
 1806SOL     OW 5531   3.581   0.585   3.693
 1806SOL    HW1 5532   3.555   0.674   3.657
 1806SOL    HW2 5533   3.579   0.517   3.620
 1807SOL     OW 5534   3.224   1.144   2.407
 1807SOL    HW1 5535   3.307   1.115   2.359
 1807SOL    HW2 5536   3.175   1.211   2.351
 1808SOL     OW 5537   2.412   0.196   2.747
 1808SOL    HW1 5538   2.407   0.191   2.847
 1808SOL    HW2 5539   2.414   0.292   2.718
 1809SOL     OW 5540   2.870   1.456   2.339
 1809SOL    HW1 5541   2.824   1.528   2.287
 1809SOL    HW2 5542   2.866   1.476   2.437
 1810SOL     OW 5543   2.213   1.801   2.715
 1810SOL    HW1 5544   2.263   1.715   2.721
 1810SOL    HW2 5545   2.278   1.878   2.712
 1811SOL     OW 5546   3.657   1.066   2.735
 1811SOL    HW1 5547   3.595   1.051   2.659
 1811SOL    HW2 5548   3.605   1.077   2.820
 1812SOL     OW 5549   3.089   1.550   3.368
 1812SOL    HW1 5550   3.095   1.473   3.432
 1812SOL    HW2 5551   3.037   1.524   3.288
 1813SOL     OW 5552   2.183   0.943   2.104
 1813SOL    HW1 5553   2.265   0.982   2.062
 1813SOL    HW2 5554   2.156   0.861   2.055
 1814SOL     OW 5555   3.320   0.735   2.590
 1814SOL    HW1 5556   3.315   0.670   2.665
 1814SOL    HW2 5557   3.400   0.794   2.603
 1815SOL     OW 5558   2.323   1.266   3.589
 1815SOL    HW1 5559   2.273   1.267   3.503
 1815SOL    HW2 5560   2.260   1.248   3.665
 1816SOL     OW 5561   2.973   1.776   2.099
 1816SOL    HW1 5562   2.913   1.714   2.149
 1816SOL    HW2 5563   3.004   1.732   2.014
 1817SOL     OW 5564   2.064   0.285   3.360
 1817SOL    HW1 5565   1.984   0.345   3.347
 1817SOL    HW2 5566   2.054   0.236   3.446
 1818SOL     OW 5567   3.494   1.377   1.943
 1818SOL    HW1 5568   3.462   1.471   1.933
 1818SOL    HW2 5569   3.418   1.314   1.931
 1819SOL     OW 5570   2.326   1.743   2.185
 1819SOL    HW1 5571   2.359   1.782   2.271
 1819SOL    HW2 5572   2.402   1.736   2.120
 1820SOL     OW 5573   3.262   0.107   2.288
 1820SOL    HW1 5574   3.238   0.070   2.198
 1820SOL    HW2 5575   3.361   0.123   2.292
 1821SOL     OW 5576   2.111   1.785   3.103
 1821SOL    HW1 5577   2.168   1.720   3.153
 1821SOL    HW2 5578   2.095   1.752   3.010
 1822SOL     OW 5579   2.802   1.698   2.766
 1822SOL    HW1 5580   2.882   1.641   2.787
 1822SOL    HW2 5581   2.753   1.658   2.689
 1823SOL     OW 5582   2.244   0.700   2.342
 1823SOL    HW1 5583   2.289   0.610   2.339
 1823SOL    HW2 5584   2.150   0.689   2.375
 1824SOL     OW 5585   3.409   0.222   3.591
 1824SOL    HW1 5586   3.404   0.259   3.683
 1824SOL    HW2 5587   3.337   0.153   3.579
 1825SOL     OW 5588   2.476   0.122   1.979
 1825SOL    HW1 5589   2.574   0.100   1.986
 1825SOL    HW2 5590   2.445   0.105   1.886
 1826SOL     OW 5591   2.643   0.264   3.611
 1826SOL    HW1 5592   2.710   0.203   3.654
 1826SOL    HW2 5593   2.570   0.283   3.676
 1827SOL     OW 5594   2.750   1.514   3.057
 1827SOL    HW1 5595   2.727   1.489   2.963
 1827SOL    HW2 5596   2.811   1.445   3.096
 1828SOL     OW 5597   3.213   0.590   3.295
 1828SOL    HW1 5598   3.241   0.547   3.380
 1828SOL    HW2 5599   3.238   0.686   3.296
 1829SOL     OW 5600   2.665   1.402   2.786
 1829SOL    HW1 5601   2.755   1.416   2.744
 1829SOL    HW2 5602   2.594   1.404   2.715
 1830SOL     OW 5603   2.784   0.503   2.761
 1830SOL    HW1 5604   2.759   0.494   2.665
 1830SOL    HW2 5605   2.832   0.421   2.792
 1831SOL     OW 5606   2.401   0.064   2.374
 1831SOL    HW1 5607   2.320   0.065   2.432
 1831SOL    HW2 5608   2.404   0.147   2.319
 1832SOL     OW 5609   3.296   1.188   1.903
 1832SOL    HW1 5610   3.328   1.112   1.960
 1832SOL    HW2 5611   3.204   1.215   1.933
 1833SOL     OW 5612   2.159   0.035   2.033
 1833SOL    HW1 5613   2.208   0.119   2.012
 1833SOL    HW2 5614   2.221  -0.030   2.078
 1834SOL     OW 5615   2.797   0.236   2.342
 1834SOL    HW1 5616   2.749   0.277   2.264
 1834SOL    HW2 5617   2.896   0.234   2.323
 1835SOL     OW 5618   2.938   0.683   3.326
 1835SOL    HW1 5619   2.858   0.622   3.329
 1835SOL    HW2 5620   3.019   0.630   3.302
 1836SOL     OW 5621   3.089   1.570   2.655
 1836SOL    HW1 5622   3.110   1.644   2.590
 1836SOL    HW2 5623   3.157   1.570   2.728
 1837SOL     OW 5624   2.321   1.152   2.603
 1837SOL    HW1 5625   2.250   1.125   2.668
 1837SOL    HW2 5626   2.295   1.124   2.510
 1838SOL     OW 5627   3.133   1.797   2.453
 1838SOL    HW1 5628   3.177   1.861   2.389
 1838SOL    HW2 5629   3.083   1.849   2.523
 1839SOL     OW 5630   2.894   0.549   1.878
 1839SOL    HW1 5631   2.853   0.631   1.839
 1839SOL    HW2 5632   2.958   0.575   1.951
 1840SOL     OW 5633   1.940   0.556   3.248
 1840SOL    HW1 5634   2.032   0.555   3.207
 1840SOL    HW2 5635   1.934   0.630   3.315
 1841SOL     OW 5636   2.423   0.222   3.009
 1841SOL    HW1 5637   2.461   0.138   3.046
 1841SOL    HW2 5638   2.335   0.241   3.053
 1842SOL     OW 5639   2.728   0.454   2.504
 1842SOL    HW1 5640   2.696   0.526   2.442
 1842SOL    HW2 5641   2.752   0.373   2.451
 1843SOL     OW 5642   2.879   0.039   2.615
 1843SOL    HW1 5643   2.807   0.044   2.546
 1843SOL    HW2 5644   2.855  -0.030   2.684
 1844SOL     OW 5645   3.291   1.173   2.729
 1844SOL    HW1 5646   3.236   1.089   2.722
 1844SOL    HW2 5647   3.317   1.202   2.637
 1845SOL     OW 5648   3.328   0.590   2.854
 1845SOL    HW1 5649   3.298   0.495   2.861
 1845SOL    HW2 5650   3.401   0.606   2.920
 1846SOL     OW 5651   3.719   0.833   2.239
 1846SOL    HW1 5652   3.761   0.769   2.303
 1846SOL    HW2 5653   3.681   0.782   2.161
 1847SOL     OW 5654   2.350   1.385   2.036
 1847SOL    HW1 5655   2.263   1.370   2.083
 1847SOL    HW2 5656   2.333   1.411   1.941
 1848SOL     OW 5657   3.526   1.280   2.519
 1848SOL    HW1 5658   3.625   1.288   2.533
 1848SOL    HW2 5659   3.481   1.364   2.550
 1849SOL     OW 5660   3.252   0.575   1.940
 1849SOL    HW1 5661   3.198   0.554   2.021
 1849SOL    HW2 5662   3.343   0.534   1.949
 1850SOL     OW 5663   2.389   0.256   2.190
 1850SOL    HW1 5664   2.416   0.197   2.115
 1850SOL    HW2 5665   2.389   0.351   2.159
 1851SOL     OW 5666   3.616   1.223   3.450
 1851SOL    HW1 5667   3.707   1.184   3.437
 1851SOL    HW2 5668   3.624   1.319   3.474
 1852SOL     OW 5669   2.926   1.347   3.202
 1852SOL    HW1 5670   2.846   1.324   3.257
 1852SOL    HW2 5671   3.009   1.321   3.251
 1853SOL     OW 5672   3.454   1.629   3.487
 1853SOL    HW1 5673   3.481   1.663   3.397
 1853SOL    HW2 5674   3.533   1.591   3.533
 1854SOL     OW 5675   2.973   1.195   2.962
 1854SOL    HW1 5676   2.933   1.239   3.043
 1854SOL    HW2 5677   2.932   1.232   2.879
 1855SOL     OW 5678   3.500   1.099   2.941
 1855SOL    HW1 5679   3.505   1.180   3.000
 1855SOL    HW2 5680   3.414   1.101   2.890
 1856SOL     OW 5681   2.777   0.089   3.264
 1856SOL    HW1 5682   2.802   0.069   3.169
 1856SOL    HW2 5683   2.849   0.145   3.306
 1857SOL     OW 5684   2.842   1.116   3.581
 1857SOL    HW1 5685   2.743   1.122   3.591
 1857SOL    HW2 5686   2.865   1.036   3.525
 1858SOL     OW 5687   2.567   1.050   2.230
 1858SOL    HW1 5688   2.553   1.057   2.329
 1858SOL    HW2 5689   2.651   0.999   2.212
 1859SOL     OW 5690   2.272   0.813   3.113
 1859SOL    HW1 5691   2.358   0.825   3.163
 1859SOL    HW2 5692   2.230   0.726   3.140
 1860SOL     OW 5693   3.136   0.386   3.124
 1860SOL    HW1 5694   3.157   0.460   3.188
 1860SOL    HW2 5695   3.047   0.403   3.081
 1861SOL     OW 5696   1.926   1.564   3.193
 1861SOL    HW1 5697   1.880   1.646   3.159
 1861SOL    HW2 5698   2.024   1.583   3.202
 1862SOL     OW 5699   2.229   1.100   2.363
 1862SOL    HW1 5700   2.222   1.183   2.307
 1862SOL    HW2 5701   2.233   1.020   2.303
 1863SOL     OW 5702   2.428   0.537   2.727
 1863SOL    HW1 5703   2.440   0.603   2.653
 1863SOL    HW2 5704   2.474   0.571   2.810
 1864SOL     OW 5705   3.114   1.348   2.250
 1864SOL    HW1 5706   3.164   1.425   2.290
 1864SOL    HW2 5707   3.019   1.350   2.282
 1865SOL     OW 5708   3.134   1.445   3.004
 1865SOL    HW1 5709   3.181   1.458   3.091
 1865SOL    HW2 5710   3.068   1.371   3.013
 1866SOL     OW 5711   3.444   0.639   2.334
 1866SOL    HW1 5712   3.413   0.700   2.407
 1866SOL    HW2 5713   3.494   0.691   2.265
 1867SOL     OW 5714   2.216   1.510   3.191
 1867SOL    HW1 5715   2.195   1.466   3.104
 1867SOL    HW2 5716   2.313   1.536   3.194
 1868SOL     OW 5717   2.264   0.751   3.460
 1868SOL    HW1 5718   2.332   0.806   3.413
 1868SOL    HW2 5719   2.304   0.663   3.487
 1869SOL     OW 5720   3.449   0.779   3.532
 1869SOL    HW1 5721   3.357   0.817   3.527
 1869SOL    HW2 5722   3.509   0.826   3.467
 1870SOL     OW 5723   2.875   0.105   3.632
 1870SOL    HW1 5724   2.881   0.190   3.580
 1870SOL    HW2 5725   2.907   0.029   3.575
 1871SOL     OW 5726   2.366   0.050   3.602
 1871SOL    HW1 5727   2.324  -0.007   3.532
 1871SOL    HW2 5728   2.300   0.119   3.634
 1872SOL     OW 5729   2.435   0.870   2.891
 1872SOL    HW1 5730   2.479   0.959   2.882
 1872SOL    HW2 5731   2.372   0.870   2.968
 1873SOL     OW 5732   3.222   0.862   2.907
 1873SOL    HW1 5733   3.147   0.862   2.841
 1873SOL    HW2 5734   3.259   0.770   2.916
 1874SOL     OW 5735   3.071   0.525   2.137
 1874SOL    HW1 5736   3.084   0.441   2.191
 1874SOL    HW2 5737   3.042   0.599   2.197
 1875SOL     OW 5738   2.169   0.213   3.093
 1875SOL    HW1 5739   2.146   0.250   3.183
 1875SOL    HW2 5740   2.139   0.118   3.087
 1876SOL     OW 5741   1.899   1.310   3.144
 1876SOL    HW1 5742   1.952   1.261   3.212
 1876SOL    HW2 5743   1.921   1.408   3.149
 1877SOL     OW 5744   2.594   0.634   2.926
 1877SOL    HW1 5745   2.653   0.608   2.850
 1877SOL    HW2 5746   2.566   0.730   2.915
 1878SOL     OW 5747   3.590   0.935   3.716
 1878SOL    HW1 5748   3.544   0.928   3.627
 1878SOL    HW2 5749   3.528   0.979   3.782
 1879SOL     OW 5750   2.169   0.063   2.480
 1879SOL    HW1 5751   2.158   0.157   2.513
 1879SOL    HW2 5752   2.164   0.000   2.557
 1880SOL     OW 5753   3.484   0.367   2.236
 1880SOL    HW1 5754   3.486   0.291   2.300
 1880SOL    HW2 5755   3.436   0.444   2.276
 1881SOL     OW 5756   2.885   0.766   2.828
 1881SOL    HW1 5757   2.900   0.787   2.924
 1881SOL    HW2 5758   2.855   0.671   2.819
 1882SOL     OW 5759   2.842   1.573   3.562
 1882SOL    HW1 5760   2.822   1.617   3.474
 1882SOL    HW2 5761   2.881   1.482   3.546
 1883SOL     OW 5762   3.721   1.518   3.467
 1883SOL    HW1 5763   3.735   1.545   3.372
 1883SOL    HW2 5764   3.804   1.540   3.520
 1884SOL     OW 5765   2.212   0.898   3.666
 1884SOL    HW1 5766   2.288   0.942   3.714
 1884SOL    HW2 5767   2.247   0.851   3.584
 1885SOL     OW 5768   3.402   0.274   1.987
 1885SOL    HW1 5769   3.341   0.199   2.010
 1885SOL    HW2 5770   3.424   0.326   2.070
 1886SOL     OW 5771   3.165   0.838   1.904
 1886SOL    HW1 5772   3.199   0.745   1.919
 1886SOL    HW2 5773   3.183   0.865   1.809
 1887SOL     OW 5774   2.930   1.333   2.711
 1887SOL    HW1 5775   2.937   1.249   2.656
 1887SOL    HW2 5776   2.992   1.402   2.675
 1888SOL     OW 5777   2.181   0.810   2.811
 1888SOL    HW1 5778   2.274   0.846   2.816
 1888SOL    HW2 5779   2.175   0.725   2.863
 1889SOL     OW 5780   2.201   0.509   2.868
 1889SOL    HW1 5781   2.149   0.426   2.851
 1889SOL    HW2 5782   2.278   0.514   2.804
 1890SOL     OW 5783   3.000   0.380   3.540
 1890SOL    HW1 5784   2.955   0.443   3.604
 1890SOL    HW2 5785   3.093   0.411   3.523
 1891SOL     OW 5786   3.022   0.207   3.339
 1891SOL    HW1 5787   3.022   0.271   3.416
 1891SOL    HW2 5788   3.050   0.255   3.256
 1892SOL     OW 5789   1.870   1.326   2.062
 1892SOL    HW1 5790   1.777   1.347   2.031
 1892SOL    HW2 5791   1.880   1.227   2.075
 1893SOL     OW 5792   1.950   1.801   2.789
 1893SOL    HW1 5793   1.908   1.715   2.762
 1893SOL    HW2 5794   2.044   1.804   2.755
 1894SOL     OW 5795   2.366   1.568   2.772
 1894SOL    HW1 5796   2.432   1.642   2.781
 1894SOL    HW2 5797   2.410   1.489   2.730
 1895SOL     OW 5798   2.864   0.796   3.100
 1895SOL    HW1 5799   2.905   0.764   3.186
 1895SOL    HW2 5800   2.768   0.769   3.097
 1896SOL     OW 5801   1.902   0.544   2.976
 1896SOL    HW1 5802   1.987   0.511   2.935
 1896SOL    HW2 5803   1.915   0.559   3.074
 1897SOL     OW 5804   2.051   0.520   3.584
 1897SOL    HW1 5805   2.110   0.480   3.514
 1897SOL    HW2 5806   1.993   0.591   3.543
 1898SOL     OW 5807   3.231   0.950   3.522
 1898SOL    HW1 5808   3.270   1.039   3.542
 1898SOL    HW2 5809   3.241   0.930   3.425
 1899SOL     OW 5810   2.677   0.572   2.187
 1899SOL    HW1 5811   2.684   0.483   2.141
 1899SOL    HW2 5812   2.583   0.606   2.179
 1900SOL     OW 5813   3.519   0.604   3.068
 1900SOL    HW1 5814   3.481   0.535   3.130
 1900SOL    HW2 5815   3.601   0.568   3.024
 1901SOL     OW 5816   2.114   1.564   3.606
 1901SOL    HW1 5817   2.084   1.621   3.682
 1901SOL    HW2 5818   2.107   1.467   3.632
 1902SOL     OW 5819   2.533   0.464   3.131
 1902SOL    HW1 5820   2.499   0.375   3.101
 1902SOL    HW2 5821   2.559   0.518   3.051
 1903SOL     OW 5822   2.792   1.678   3.327
 1903SOL    HW1 5823   2.768   1.660   3.232
 1903SOL    HW2 5824   2.822   1.772   3.337
 1904SOL     OW 5825   2.335   0.500   2.053
 1904SOL    HW1 5826   2.396   0.580   2.057
 1904SOL    HW2 5827   2.240   0.531   2.060
 1905SOL     OW 5828   2.021   1.137   3.328
 1905SOL    HW1 5829   2.043   1.076   3.404
 1905SOL    HW2 5830   2.031   1.088   3.242
 1906SOL     OW 5831   3.209   1.059   3.096
 1906SOL    HW1 5832   3.233   0.996   3.022
 1906SOL    HW2 5833   3.119   1.099   3.078
 1907SOL     OW 5834   3.164   0.855   2.171
 1907SOL    HW1 5835   3.078   0.824   2.213
 1907SOL    HW2 5836   3.160   0.841   2.072
 1908SOL     OW 5837   3.621   1.747   3.016
 1908SOL    HW1 5838   3.682   1.777   2.943
 1908SOL    HW2 5839   3.583   1.658   2.994
 1909SOL     OW 5840   3.114   1.731   2.990
 1909SOL    HW1 5841   3.198   1.736   2.936
 1909SOL    HW2 5842   3.091   1.635   3.008
 1910SOL     OW 5843   2.550   1.662   3.578
 1910SOL    HW1 5844   2.494   1.743   3.587
 1910SOL    HW2 5845   2.602   1.666   3.492
 1911SOL     OW 5846   3.588   0.135   2.385
 1911SOL    HW1 5847   3.661   0.118   2.318
 1911SOL    HW2 5848   3.557   0.048   2.423
 1912SOL     OW 5849   3.250   1.573   2.339
 1912SOL    HW1 5850   3.317   1.585   2.265
 1912SOL    HW2 5851   3.210   1.662   2.362
 1913SOL     OW 5852   1.992   1.794   3.713
 1913SOL    HW1 5853   1.951   1.720   3.766
 1913SOL    HW2 5854   2.056   1.845   3.771
 1914SOL     OW 5855   3.142   0.927   2.534
 1914SOL    HW1 5856   3.202   0.846   2.536
 1914SOL    HW2 5857   3.182   0.996   2.474
 1915SOL     OW 5858   2.692   1.273   3.284
 1915SOL    HW1 5859   2.687   1.306   3.379
 1915SOL    HW2 5860   2.606   1.292   3.238
 1916SOL     OW 5861   2.534   1.616   2.016
 1916SOL    HW1 5862   2.543   1.626   1.917
 1916SOL    HW2 5863   2.494   1.527   2.037
 1917SOL     OW 5864   3.512   1.720   3.256
 1917SOL    HW1 5865   3.565   1.730   3.172
 1917SOL    HW2 5866   3.485   1.810   3.290
 1918SOL     OW 5867   3.703   0.175   2.825
 1918SOL    HW1 5868   3.742   0.090   2.789
 1918SOL    HW2 5869   3.605   0.177   2.806
 1919SOL     OW 5870   2.125   0.326   2.582
 1919SOL    HW1 5871   2.046   0.377   2.548
 1919SOL    HW2 5872   2.116   0.311   2.680
 1920SOL     OW 5873   3.056   1.612   1.893
 1920SOL    HW1 5874   3.062   1.519   1.930
 1920SOL    HW2 5875   2.997   1.612   1.813
 1921SOL     OW 5876   2.684   1.002   3.234
 1921SOL    HW1 5877   2.724   1.001   3.142
 1921SOL    HW2 5878   2.694   1.094   3.274
 1922SOL     OW 5879   2.778   0.910   2.153
 1922SOL    HW1 5880   2.841   0.948   2.085
 1922SOL    HW2 5881   2.818   0.827   2.192
 1923SOL     OW 5882   3.366   1.607   1.906
 1923SOL    HW1 5883   3.274   1.644   1.913
 1923SOL    HW2 5884   3.404   1.627   1.816
 1924SOL     OW 5885   2.234   1.288   3.352
 1924SOL    HW1 5886   2.221   1.381   3.318
 1924SOL    HW2 5887   2.150   1.236   3.339
 1925SOL     OW 5888   3.476   1.292   3.151
 1925SOL    HW1 5889   3.536   1.295   3.231
 1925SOL    HW2 5890   3.401   1.356   3.164
 1926SOL     OW 5891   2.901   1.098   2.558
 1926SOL    HW1 5892   2.831   1.051   2.612
 1926SOL    HW2 5893   2.960   1.030   2.515
 1927SOL     OW 5894   2.876   0.236   2.833
 1927SOL    HW1 5895   2.868   0.200   2.740
 1927SOL    HW2 5896   2.874   0.160   2.898
 1928SOL     OW 5897   2.452   1.487   2.353
 1928SOL    HW1 5898   2.494   1.429   2.283
 1928SOL    HW2 5899   2.408   1.566   2.309
 1929SOL     OW 5900   3.571   0.385   3.243
 1929SOL    HW1 5901   3.644   0.454   3.247
 1929SOL    HW2 5902   3.599   0.310   3.184
 1930SOL     OW 5903   2.117   1.348   2.152
 1930SOL    HW1 5904   2.021   1.349   2.125
 1930SOL    HW2 5905   2.129   1.401   2.236
 1931SOL     OW 5906   1.967   1.013   3.588
 1931SOL    HW1 5907   1.890   0.980   3.642
 1931SOL    HW2 5908   2.052   0.983   3.630
 1932SOL     OW 5909   2.534   0.203   3.351
 1932SOL    HW1 5910   2.624   0.187   3.311
 1932SOL    HW2 5911   2.542   0.208   3.450
 1933SOL     OW 5912   1.937   0.345   1.895
 1933SOL    HW1 5913   1.845   0.317   1.866
 1933SOL    HW2 5914   1.968   0.422   1.839
 1934SOL     OW 5915   3.302   0.856   3.260
 1934SOL    HW1 5916   3.245   0.908   3.197
 1934SOL    HW2 5917   3.398   0.868   3.236
 1935SOL     OW 5918   1.934   0.166   2.180
 1935SOL    HW1 5919   1.917   0.249   2.126
 1935SOL    HW2 5920   2.024   0.129   2.158
 1936SOL     OW 5921   3.045   1.335   1.981
 1936SOL    HW1 5922   2.946   1.324   1.983
 1936SOL    HW2 5923   3.079   1.350   2.074
 1937SOL     OW 5924   2.475   0.842   3.293
 1937SOL    HW1 5925   2.531   0.923   3.276
 1937SOL    HW2 5926   2.534   0.762   3.296
 1938SOL     OW 5927   3.355   1.767   2.821
 1938SOL    HW1 5928   3.388   1.831   2.752
 1938SOL    HW2 5929   3.421   1.761   2.896
 1939SOL     OW 5930   2.578   0.565   3.570
 1939SOL    HW1 5931   2.597   0.630   3.644
 1939SOL    HW2 5932   2.638   0.485   3.579
 1940SOL     OW 5933   3.312   1.220   3.495
 1940SOL    HW1 5934   3.303   1.210   3.594
 1940SOL    HW2 5935   3.408   1.213   3.469
 1941SOL     OW 5936   2.252   1.741   3.422
 1941SOL    HW1 5937   2.161   1.782   3.420
 1941SOL    HW2 5938   2.245   1.647   3.454
 1942SOL     OW 5939   3.536   0.883   3.116
 1942SOL    HW1 5940   3.509   0.794   3.079
 1942SOL    HW2 5941   3.537   0.951   3.043
 1943SOL     OW 5942   3.087   0.325   2.311
 1943SOL    HW1 5943   3.152   0.251   2.300
 1943SOL    HW2 5944   3.107   0.375   2.395
 1944SOL     OW 5945   2.456   0.745   2.514
 1944SOL    HW1 5946   2.506   0.830   2.495
 1944SOL    HW2 5947   2.368   0.747   2.466
 1945SOL     OW 5948   3.639   0.342   3.504
 1945SOL    HW1 5949   3.622   0.373   3.410
 1945SOL    HW2 5950   3.555   0.305   3.542
 1946SOL     OW 5951   3.592   0.934   3.379
 1946SOL    HW1 5952   3.630   1.025   3.394
 1946SOL    HW2 5953   3.584   0.917   3.280
 1947SOL     OW 5954   2.721   1.374   1.878
 1947SOL    HW1 5955   2.675   1.389   1.966
 1947SOL    HW2 5956   2.765   1.459   1.848
 1948SOL     OW 5957   2.523   1.790   2.815
 1948SOL    HW1 5958   2.477   1.878   2.802
 1948SOL    HW2 5959   2.622   1.802   2.808
 1949SOL     OW 5960   2.721   0.956   2.723
 1949SOL    HW1 5961   2.775   0.887   2.771
 1949SOL    HW2 5962   2.689   1.025   2.789
 1950SOL     OW 5963   2.945   0.984   1.949
 1950SOL    HW1 5964   2.922   1.037   1.867
 1950SOL    HW2 5965   3.026   0.928   1.930
 1951SOL     OW 5966   3.723   1.569   2.713
 1951SOL    HW1 5967   3.652   1.557   2.643
 1951SOL    HW2 5968   3.724   1.490   2.773
 1952SOL     OW 5969   2.083   1.314   3.706
 1952SOL    HW1 5970   2.018   1.241   3.685
 1952SOL    HW2 5971   2.087   1.328   3.804
 1953SOL     OW 5972   2.534   1.391   3.486
 1953SOL    HW1 5973   2.456   1.341   3.524
 1953SOL    HW2 5974   2.531   1.486   3.517
 1954SOL     OW 5975   3.686   0.192   3.089
 1954SOL    HW1 5976   3.682   0.102   3.133
 1954SOL    HW2 5977   3.689   0.181   2.990
 1955SOL     OW 5978   2.290   0.424   2.382
 1955SOL    HW1 5979   2.320   0.352   2.320
 1955SOL    HW2 5980   2.251   0.384   2.465
 1956SOL     OW 5981   3.567   1.487   2.966
 1956SOL    HW1 5982   3.474   1.462   2.939
 1956SOL    HW2 5983   3.593   1.437   3.048
 1957SOL     OW 5984   2.179   0.547   3.142
 1957SOL    HW1 5985   2.217   0.488   3.214
 1957SOL    HW2 5986   2.219   0.521   3.054
 1958SOL     OW 5987   2.674   1.586   2.549
 1958SOL    HW1 5988   2.706   1.596   2.455
 1958SOL    HW2 5989   2.595   1.524   2.551
 1959SOL     OW 5990   3.286   0.214   2.974
 1959SOL    HW1 5991   3.338   0.149   3.029
 1959SOL    HW2 5992   3.237   0.277   3.035
 1960SOL     OW 5993   2.863   0.034   3.016
 1960SOL    HW1 5994   2.800  -0.038   2.985
 1960SOL    HW2 5995   2.956  -0.002   3.016
 1961SOL     OW 5996   2.632   1.330   2.163
 1961SOL    HW1 5997   2.586   1.243   2.180
 1961SOL    HW2 5998   2.723   1.327   2.204
 1962SOL     OW 5999   2.480   1.567   3.146
 1962SOL    HW1 6000   2.475   1.649   3.203
 1962SOL    HW2 6001   2.569   1.564   3.101
 1963SOL     OW 6002   3.214   0.052   2.030
 1963SOL    HW1 6003   3.249   0.011   1.946
 1963SOL    HW2 6004   3.124   0.014   2.050
 1964SOL     OW 6005   3.162   0.453   2.553
 1964SOL    HW1 6006   3.103   0.533   2.557
 1964SOL    HW2 6007   3.177   0.418   2.646
 1965SOL     OW 6008   3.455   0.221   2.744
 1965SOL    HW1 6009   3.371   0.220   2.798
 1965SOL    HW2 6010   3.457   0.304   2.688
 1966SOL     OW 6011   1.901   1.077   2.162
 1966SOL    HW1 6012   2.000   1.066   2.153
 1966SOL    HW2 6013   1.861   0.991   2.194
 1967SOL     OW 6014   2.737   1.646   2.199
 1967SOL    HW1 6015   2.660   1.611   2.145
 1967SOL    HW2 6016   2.705   1.717   2.261
 1968SOL     OW 6017   2.092   0.628   3.837
 1968SOL    HW1 6018   1.999   0.626   3.874
 1968SOL    HW2 6019   2.093   0.589   3.745
 1969SOL     OW 6020   2.087   0.275   4.720
 1969SOL    HW1 6021   2.122   0.258   4.812
 1969SOL    HW2 6022   1.999   0.230   4.708
 1970SOL     OW 6023   1.881   0.368   4.371
 1970SOL    HW1 6024   1.799   0.411   4.410
 1970SOL    HW2 6025   1.853   0.295   4.308
 1971SOL     OW 6026   2.431   1.275   4.889
 1971SOL    HW1 6027   2.338   1.268   4.852
 1971SOL    HW2 6028   2.442   1.364   4.933
 1972SOL     OW 6029   3.417   1.511   4.427
 1972SOL    HW1 6030   3.360   1.495   4.508
 1972SOL    HW2 6031   3.358   1.521   4.347
 1973SOL     OW 6032   2.997   0.703   4.441
 1973SOL    HW1 6033   3.054   0.781   4.416
 1973SOL    HW2 6034   2.937   0.729   4.517
 1974SOL     OW 6035   3.617   0.607   3.955
 1974SOL    HW1 6036   3.605   0.594   3.856
 1974SOL    HW2 6037   3.587   0.526   4.004
 1975SOL     OW 6038   2.630   1.144   4.747
 1975SOL    HW1 6039   2.552   1.161   4.807
 1975SOL    HW2 6040   2.664   1.231   4.711
 1976SOL     OW 6041   2.547   1.012   4.389
 1976SOL    HW1 6042   2.616   0.996   4.459
 1976SOL    HW2 6043   2.474   1.069   4.427
 1977SOL     OW 6044   2.197   1.435   4.785
 1977SOL    HW1 6045   2.119   1.404   4.732
 1977SOL    HW2 6046   2.255   1.493   4.728
 1978SOL     OW 6047   3.465   0.447   4.461
 1978SOL    HW1 6048   3.391   0.493   4.411
 1978SOL    HW2 6049   3.516   0.515   4.514
 1979SOL     OW 6050   2.093   1.713   4.207
 1979SOL    HW1 6051   2.127   1.790   4.261
 1979SOL    HW2 6052   2.137   1.713   4.117
 1980SOL     OW 6053   2.092   1.434   4.262
 1980SOL    HW1 6054   2.066   1.530   4.262
 1980SOL    HW2 6055   2.021   1.380   4.307
 1981SOL     OW 6056   2.102   1.091   4.610
 1981SOL    HW1 6057   2.116   1.007   4.662
 1981SOL    HW2 6058   2.047   1.155   4.665
 1982SOL     OW 6059   2.482   1.786   5.163
 1982SOL    HW1 6060   2.390   1.769   5.198
 1982SOL    HW2 6061   2.510   1.878   5.189
 1983SOL     OW 6062   2.468   0.964   3.847
 1983SOL    HW1 6063   2.475   1.048   3.793
 1983SOL    HW2 6064   2.514   0.977   3.935
 1984SOL     OW 6065   1.984   0.643   4.287
 1984SOL    HW1 6066   1.939   0.555   4.304
 1984SOL    HW2 6067   1.983   0.697   4.371
 1985SOL     OW 6068   3.704   1.767   4.083
 1985SOL    HW1 6069   3.758   1.738   4.163
 1985SOL    HW2 6070   3.734   1.857   4.054
 1986SOL     OW 6071   1.889   1.596   3.841
 1986SOL    HW1 6072   1.870   1.500   3.862
 1986SOL    HW2 6073   1.856   1.654   3.916
 1987SOL     OW 6074   3.551   0.922   4.336
 1987SOL    HW1 6075   3.646   0.893   4.344
 1987SOL    HW2 6076   3.543   0.987   4.261
 1988SOL     OW 6077   3.503   1.108   4.156
 1988SOL    HW1 6078   3.589   1.110   4.104
 1988SOL    HW2 6079   3.517   1.155   4.244
 1989SOL     OW 6080   2.475   1.365   4.450
 1989SOL    HW1 6081   2.426   1.278   4.459
 1989SOL    HW2 6082   2.452   1.408   4.363
 1990SOL     OW 6083   2.671   0.004   4.226
 1990SOL    HW1 6084   2.711   0.095   4.217
 1990SOL    HW2 6085   2.571   0.012   4.232
 1991SOL     OW 6086   2.059   0.976   4.988
 1991SOL    HW1 6087   2.148   0.931   4.974
 1991SOL    HW2 6088   1.986   0.911   4.969
 1992SOL     OW 6089   3.387   0.999   3.914
 1992SOL    HW1 6090   3.324   0.923   3.927
 1992SOL    HW2 6091   3.435   1.017   4.000
 1993SOL     OW 6092   3.328   1.417   4.677
 1993SOL    HW1 6093   3.269   1.423   4.757
 1993SOL    HW2 6094   3.313   1.329   4.631
 1994SOL     OW 6095   3.529   1.714   4.296
 1994SOL    HW1 6096   3.488   1.691   4.208
 1994SOL    HW2 6097   3.511   1.640   4.361
 1995SOL     OW 6098   2.460   0.729   3.994
 1995SOL    HW1 6099   2.484   0.798   3.926
 1995SOL    HW2 6100   2.382   0.762   4.048
 1996SOL     OW 6101   3.143   0.345   4.668
 1996SOL    HW1 6102   3.057   0.295   4.655
 1996SOL    HW2 6103   3.205   0.291   4.724
 1997SOL     OW 6104   3.438   1.662   4.031
 1997SOL    HW1 6105   3.527   1.708   4.034
 1997SOL    HW2 6106   3.417   1.638   3.936
 1998SOL     OW 6107   2.853   0.410   4.966
 1998SOL    HW1 6108   2.776   0.444   5.020
 1998SOL    HW2 6109   2.819   0.359   4.887
 1999SOL     OW 6110   2.903   0.701   4.153
 1999SOL    HW1 6111   2.929   0.697   4.249
 1999SOL    HW2 6112   2.818   0.650   4.139
 2000SOL     OW 6113   1.938   0.811   4.513
 2000SOL    HW1 6114   2.037   0.799   4.522
 2000SOL    HW2 6115   1.914   0.906   4.534
 2001SOL     OW 6116   2.727   0.348   3.919
 2001SOL    HW1 6117   2.786   0.411   3.870
 2001SOL    HW2 6118   2.746   0.254   3.890
 2002SOL     OW 6119   3.224   1.144   4.269
 2002SOL    HW1 6120   3.307   1.115   4.221
 2002SOL    HW2 6121   3.175   1.211   4.213
 2003SOL     OW 6122   2.412   0.196   4.609
 2003SOL    HW1 6123   2.407   0.191   4.709
 2003SOL    HW2 6124   2.414   0.292   4.580
 2004SOL     OW 6125   2.870   1.456   4.201
 2004SOL    HW1 6126   2.824   1.528   4.149
 2004SOL    HW2 6127   2.866   1.476   4.299
 2005SOL     OW 6128   2.213   1.801   4.577
 2005SOL    HW1 6129   2.263   1.715   4.583
 2005SOL    HW2 6130   2.278   1.878   4.574
 2006SOL     OW 6131   3.657   1.066   4.597
 2006SOL    HW1 6132   3.595   1.051   4.521
 2006SOL    HW2 6133   3.605   1.077   4.682
 2007SOL     OW 6134   2.183   0.943   3.966
 2007SOL    HW1 6135   2.265   0.982   3.924
 2007SOL    HW2 6136   2.156   0.861   3.917
 2008SOL     OW 6137   3.320   0.735   4.452
 2008SOL    HW1 6138   3.315   0.670   4.527
 2008SOL    HW2 6139   3.400   0.794   4.465
 2009SOL     OW 6140   2.973   1.776   3.961
 2009SOL    HW1 6141   2.913   1.714   4.011
 2009SOL    HW2 6142   3.004   1.732   3.876
 2010SOL     OW 6143   3.494   1.377   3.805
 2010SOL    HW1 6144   3.462   1.471   3.795
 2010SOL    HW2 6145   3.418   1.314   3.793
 2011SOL     OW 6146   2.326   1.743   4.047
 2011SOL    HW1 6147   2.359   1.782   4.133
 2011SOL    HW2 6148   2.402   1.736   3.982
 2012SOL     OW 6149   3.262   0.107   4.150
 2012SOL    HW1 6150   3.238   0.070   4.060
 2012SOL    HW2 6151   3.361   0.123   4.154
 2013SOL     OW 6152   2.111   1.785   4.965
 2013SOL    HW1 6153   2.168   1.720   5.015
 2013SOL    HW2 6154   2.095   1.752   4.872
 2014SOL     OW 6155   2.802   1.698   4.628
 2014SOL    HW1 6156   2.882   1.641   4.649
 2014SOL    HW2 6157   2.753   1.658   4.551
 2015SOL     OW 6158   2.244   0.700   4.204
 2015SOL    HW1 6159   2.289   0.610   4.201
 2015SOL    HW2 6160   2.150   0.689   4.237
 2016SOL     OW 6161   2.476   0.122   3.841
 2016SOL    HW1 6162   2.574   0.100   3.848
 2016SOL    HW2 6163   2.445   0.105   3.748
 2017SOL     OW 6164   2.665   1.402   4.648
 2017SOL    HW1 6165   2.755   1.416   4.606
 2017SOL    HW2 6166   2.594   1.404   4.577
 2018SOL     OW 6167   2.784   0.503   4.623
 2018SOL    HW1 6168   2.759   0.494   4.527
 2018SOL    HW2 6169   2.832   0.421   4.654
 2019SOL     OW 6170   2.401   0.064   4.236
 2019SOL    HW1 6171   2.320   0.065   4.294
 2019SOL    HW2 6172   2.404   0.147   4.181
 2020SOL     OW 6173   3.296   1.188   3.765
 2020SOL    HW1 6174   3.328   1.112   3.822
 2020SOL    HW2 6175   3.204   1.215   3.795
 2021SOL     OW 6176   2.159   0.035   3.895
 2021SOL    HW1 6177   2.208   0.119   3.874
 2021SOL    HW2 6178   2.221  -0.030   3.940
 2022SOL     OW 6179   2.797   0.236   4.204
 2022SOL    HW1 6180   2.749   0.277   4.126
 2022SOL    HW2 6181   2.896   0.234   4.185
 2023SOL     OW 6182   3.089   1.570   4.517
 2023SOL    HW1 6183   3.110   1.644   4.452
 2023SOL    HW2 6184   3.157   1.570   4.590
 2024SOL     OW 6185   2.321   1.152   4.465
 2024SOL    HW1 6186   2.250   1.125   4.530
 2024SOL    HW2 6187   2.295   1.124   4.372
 2025SOL     OW 6188   3.133   1.797   4.315
 2025SOL    HW1 6189   3.177   1.861   4.251
 2025SOL    HW2 6190   3.083   1.849   4.385
 2026SOL     OW 6191   2.894   0.549   3.740
 2026SOL    HW1 6192   2.853   0.631   3.701
 2026SOL    HW2 6193   2.958   0.575   3.813
 2027SOL     OW 6194   2.423   0.222   4.871
 2027SOL    HW1 6195   2.461   0.138   4.908
 2027SOL    HW2 6196   2.335   0.241   4.915
 2028SOL     OW 6197   2.728   0.454   4.366
 2028SOL    HW1 6198   2.696   0.526   4.304
 2028SOL    HW2 6199   2.752   0.373   4.313
 2029SOL     OW 6200   2.879   0.039   4.477
 2029SOL    HW1 6201   2.807   0.044   4.408
 2029SOL    HW2 6202   2.855  -0.030   4.546
 2030SOL     OW 6203   3.291   1.173   4.591
 2030SOL    HW1 6204   3.236   1.089   4.584
 2030SOL    HW2 6205   3.317   1.202   4.499
 2031SOL     OW 6206   3.328   0.590   4.716
 2031SOL    HW1 6207   3.298   0.495   4.723
 2031SOL    HW2 6208   3.401   0.606   4.782
 2032SOL     OW 6209   3.719   0.833   4.101
 2032SOL    HW1 6210   3.761   0.769   4.165
 2032SOL    HW2 6211   3.681   0.782   4.023
 2033SOL     OW 6212   2.350   1.385   3.898
 2033SOL    HW1 6213   2.263   1.370   3.945
 2033SOL    HW2 6214   2.333   1.411   3.803
 2034SOL     OW 6215   3.526   1.280   4.381
 2034SOL    HW1 6216   3.625   1.288   4.395
 2034SOL    HW2 6217   3.481   1.364   4.412
 2035SOL     OW 6218   3.252   0.575   3.802
 2035SOL    HW1 6219   3.198   0.554   3.883
 2035SOL    HW2 6220   3.343   0.534   3.811
 2036SOL     OW 6221   2.389   0.256   4.052
 2036SOL    HW1 6222   2.416   0.197   3.977
 2036SOL    HW2 6223   2.389   0.351   4.021
 2037SOL     OW 6224   2.973   1.195   4.824
 2037SOL    HW1 6225   2.933   1.239   4.905
 2037SOL    HW2 6226   2.932   1.232   4.741
 2038SOL     OW 6227   3.500   1.099   4.803
 2038SOL    HW1 6228   3.505   1.180   4.862
 2038SOL    HW2 6229   3.414   1.101   4.752
 2039SOL     OW 6230   2.567   1.050   4.092
 2039SOL    HW1 6231   2.553   1.057   4.191
 2039SOL    HW2 6232   2.651   0.999   4.074
 2040SOL     OW 6233   2.272   0.813   4.975
 2040SOL    HW1 6234   2.358   0.825   5.025
 2040SOL    HW2 6235   2.230   0.726   5.002
 2041SOL     OW 6236   3.136   0.386   4.986
 2041SOL    HW1 6237   3.157   0.460   5.050
 2041SOL    HW2 6238   3.047   0.403   4.943
 2042SOL     OW 6239   2.229   1.100   4.225
 2042SOL    HW1 6240   2.222   1.183   4.169
 2042SOL    HW2 6241   2.233   1.020   4.165
 2043SOL     OW 6242   2.428   0.537   4.589
 2043SOL    HW1 6243   2.440   0.603   4.515
 2043SOL    HW2 6244   2.474   0.571   4.672
 2044SOL     OW 6245   3.114   1.348   4.112
 2044SOL    HW1 6246   3.164   1.425   4.152
 2044SOL    HW2 6247   3.019   1.350   4.144
 2045SOL     OW 6248   3.134   1.445   4.866
 2045SOL    HW1 6249   3.181   1.458   4.953
 2045SOL    HW2 6250   3.068   1.371   4.875
 2046SOL     OW 6251   3.444   0.639   4.196
 2046SOL    HW1 6252   3.413   0.700   4.269
 2046SOL    HW2 6253   3.494   0.691   4.127
 2047SOL     OW 6254   2.216   1.510   5.053
 2047SOL    HW1 6255   2.195   1.466   4.966
 2047SOL    HW2 6256   2.313   1.536   5.056
 2048SOL     OW 6257   2.435   0.870   4.753
 2048SOL    HW1 6258   2.479   0.959   4.744
 2048SOL    HW2 6259   2.372   0.870   4.830
 2049SOL     OW 6260   3.222   0.862   4.769
 2049SOL    HW1 6261   3.147   0.862   4.703
 2049SOL    HW2 6262   3.259   0.770   4.778
 2050SOL     OW 6263   3.071   0.525   3.999
 2050SOL    HW1 6264   3.084   0.441   4.053
 2050SOL    HW2 6265   3.042   0.599   4.059
 2051SOL     OW 6266   2.169   0.213   4.955
 2051SOL    HW1 6267   2.146   0.250   5.045
 2051SOL    HW2 6268   2.139   0.118   4.949
 2052SOL     OW 6269   1.899   1.310   5.006
 2052SOL    HW1 6270   1.952   1.261   5.074
 2052SOL    HW2 6271   1.921   1.408   5.011
 2053SOL     OW 6272   2.594   0.634   4.788
 2053SOL    HW1 6273   2.653   0.608   4.712
 2053SOL    HW2 6274   2.566   0.730   4.777
 2054SOL     OW 6275   2.169   0.063   4.342
 2054SOL    HW1 6276   2.158   0.157   4.375
 2054SOL    HW2 6277   2.164   0.000   4.419
 2055SOL     OW 6278   3.484   0.367   4.098
 2055SOL    HW1 6279   3.486   0.291   4.162
 2055SOL    HW2 6280   3.436   0.444   4.138
 2056SOL     OW 6281   2.885   0.766   4.690
 2056SOL    HW1 6282   2.900   0.787   4.786
 2056SOL    HW2 6283   2.855   0.671   4.681
 2057SOL     OW 6284   3.402   0.274   3.849
 2057SOL    HW1 6285   3.341   0.199   3.872
 2057SOL    HW2 6286   3.424   0.326   3.932
 2058SOL     OW 6287   3.165   0.838   3.766
 2058SOL    HW1 6288   3.199   0.745   3.781
 2058SOL    HW2 6289   3.183   0.865   3.671
 2059SOL     OW 6290   2.930   1.333   4.573
 2059SOL    HW1 6291   2.937   1.249   4.518
 2059SOL    HW2 6292   2.992   1.402   4.537
 2060SOL     OW 6293   2.181   0.810   4.673
 2060SOL    HW1 6294   2.274   0.846   4.678
 2060SOL    HW2 6295   2.175   0.725   4.725
 2061SOL     OW 6296   2.201   0.509   4.730
 2061SOL    HW1 6297   2.149   0.426   4.713
 2061SOL    HW2 6298   2.278   0.514   4.666
 2062SOL     OW 6299   3.022   0.207   5.201
 2062SOL    HW1 6300   3.022   0.271   5.278
 2062SOL    HW2 6301   3.050   0.255   5.118
 2063SOL     OW 6302   1.870   1.326   3.924
 2063SOL    HW1 6303   1.777   1.347   3.893
 2063SOL    HW2 6304   1.880   1.227   3.937
 2064SOL     OW 6305   1.950   1.801   4.651
 2064SOL    HW1 6306   1.908   1.715   4.624
 2064SOL    HW2 6307   2.044   1.804   4.617
 2065SOL     OW 6308   2.366   1.568   4.634
 2065SOL    HW1 6309   2.432   1.642   4.643
 2065SOL    HW2 6310   2.410   1.489   4.592
 2066SOL     OW 6311   2.864   0.796   4.962
 2066SOL    HW1 6312   2.905   0.764   5.048
 2066SOL    HW2 6313   2.768   0.769   4.959
 2067SOL     OW 6314   1.902   0.544   4.838
 2067SOL    HW1 6315   1.987   0.511   4.797
 2067SOL    HW2 6316   1.915   0.559   4.936
 2068SOL     OW 6317   2.677   0.572   4.049
 2068SOL    HW1 6318   2.684   0.483   4.003
 2068SOL    HW2 6319   2.583   0.606   4.041
 2069SOL     OW 6320   3.519   0.604   4.930
 2069SOL    HW1 6321   3.481   0.535   4.992
 2069SOL    HW2 6322   3.601   0.568   4.886
 2070SOL     OW 6323   2.533   0.464   4.993
 2070SOL    HW1 6324   2.499   0.375   4.963
 2070SOL    HW2 6325   2.559   0.518   4.913
 2071SOL     OW 6326   2.792   1.678   5.189
 2071SOL    HW1 6327   2.768   1.660   5.094
 2071SOL    HW2 6328   2.822   1.772   5.199
 2072SOL     OW 6329   2.335   0.500   3.915
 2072SOL    HW1 6330   2.396   0.580   3.919
 2072SOL    HW2 6331   2.240   0.531   3.922
 2073SOL     OW 6332   3.209   1.059   4.958
 2073SOL    HW1 6333   3.233   0.996   4.884
 2073SOL    HW2 6334   3.119   1.099   4.940
 2074SOL     OW 6335   3.164   0.855   4.033
 2074SOL    HW1 6336   3.078   0.824   4.075
 2074SOL    HW2 6337   3.160   0.841   3.934
 2075SOL     OW 6338   3.621   1.747   4.878
 2075SOL    HW1 6339   3.682   1.777   4.805
 2075SOL    HW2 6340   3.583   1.658   4.856
 2076SOL     OW 6341   3.114   1.731   4.852
 2076SOL    HW1 6342   3.198   1.736   4.798
 2076SOL    HW2 6343   3.091   1.635   4.870
 2077SOL     OW 6344   1.945   1.258   4.746
 2077SOL    HW1 6345   1.940   1.257   4.846
 2077SOL    HW2 6346   1.862   1.217   4.708
 2078SOL     OW 6347   3.588   0.135   4.247
 2078SOL    HW1 6348   3.661   0.118   4.180
 2078SOL    HW2 6349   3.557   0.048   4.285
 2079SOL     OW 6350   3.250   1.573   4.201
 2079SOL    HW1 6351   3.317   1.585   4.127
 2079SOL    HW2 6352   3.210   1.662   4.224
 2080SOL     OW 6353   3.142   0.927   4.396
 2080SOL    HW1 6354   3.202   0.846   4.398
 2080SOL    HW2 6355   3.182   0.996   4.336
 2081SOL     OW 6356   2.534   1.616   3.878
 2081SOL    HW1 6357   2.543   1.626   3.779
 2081SOL    HW2 6358   2.494   1.527   3.899
 2082SOL     OW 6359   3.512   1.720   5.118
 2082SOL    HW1 6360   3.565   1.730   5.034
 2082SOL    HW2 6361   3.485   1.810   5.152
 2083SOL     OW 6362   3.703   0.175   4.687
 2083SOL    HW1 6363   3.742   0.090   4.651
 2083SOL    HW2 6364   3.605   0.177   4.668
 2084SOL     OW 6365   2.125   0.326   4.444
 2084SOL    HW1 6366   2.046   0.377   4.410
 2084SOL    HW2 6367   2.116   0.311   4.542
 2085SOL     OW 6368   3.056   1.612   3.755
 2085SOL    HW1 6369   3.062   1.519   3.792
 2085SOL    HW2 6370   2.997   1.612   3.675
 2086SOL     OW 6371   2.684   1.002   5.096
 2086SOL    HW1 6372   2.724   1.001   5.004
 2086SOL    HW2 6373   2.694   1.094   5.136
 2087SOL     OW 6374   2.778   0.910   4.015
 2087SOL    HW1 6375   2.841   0.948   3.947
 2087SOL    HW2 6376   2.818   0.827   4.054
 2088SOL     OW 6377   3.366   1.607   3.768
 2088SOL    HW1 6378   3.274   1.644   3.775
 2088SOL    HW2 6379   3.404   1.627   3.678
 2089SOL     OW 6380   2.901   1.098   4.420
 2089SOL    HW1 6381   2.831   1.051   4.474
 2089SOL    HW2 6382   2.960   1.030   4.377
 2090SOL     OW 6383   2.876   0.236   4.695
 2090SOL    HW1 6384   2.868   0.200   4.602
 2090SOL    HW2 6385   2.874   0.160   4.760
 2091SOL     OW 6386   2.452   1.487   4.215
 2091SOL    HW1 6387   2.494   1.429   4.145
 2091SOL    HW2 6388   2.408   1.566   4.171
 2092SOL     OW 6389   3.571   0.385   5.105
 2092SOL    HW1 6390   3.644   0.454   5.109
 2092SOL    HW2 6391   3.599   0.310   5.046
 2093SOL     OW 6392   2.117   1.348   4.014
 2093SOL    HW1 6393   2.021   1.349   3.987
 2093SOL    HW2 6394   2.129   1.401   4.098
 2094SOL     OW 6395   1.937   0.345   3.757
 2094SOL    HW1 6396   1.845   0.317   3.728
 2094SOL    HW2 6397   1.968   0.422   3.701
 2095SOL     OW 6398   1.934   0.166   4.042
 2095SOL    HW1 6399   1.917   0.249   3.988
 2095SOL    HW2 6400   2.024   0.129   4.020
 2096SOL     OW 6401   3.045   1.335   3.843
 2096SOL    HW1 6402   2.946   1.324   3.845
 2096SOL    HW2 6403   3.079   1.350   3.936
 2097SOL     OW 6404   3.355   1.767   4.683
 2097SOL    HW1 6405   3.388   1.831   4.614
 2097SOL    HW2 6406   3.421   1.761   4.758
 2098SOL     OW 6407   3.312   1.220   5.357
 2098SOL    HW1 6408   3.303   1.210   5.456
 2098SOL    HW2 6409   3.408   1.213   5.331
 2099SOL     OW 6410   3.536   0.883   4.978
 2099SOL    HW1 6411   3.509   0.794   4.941
 2099SOL    HW2 6412   3.537   0.951   4.905
 2100SOL     OW 6413   3.087   0.325   4.173
 2100SOL    HW1 6414   3.152   0.251   4.162
 2100SOL    HW2 6415   3.107   0.375   4.257
 2101SOL     OW 6416   2.456   0.745   4.376
 2101SOL    HW1 6417   2.506   0.830   4.357
 2101SOL    HW2 6418   2.368   0.747   4.328
 2102SOL     OW 6419   3.592   0.934   5.241
 2102SOL    HW1 6420   3.630   1.025   5.256
 2102SOL    HW2 6421   3.584   0.917   5.142
 2103SOL     OW 6422   2.721   1.374   3.740
 2103SOL    HW1 6423   2.675   1.389   3.828
 2103SOL    HW2 6424   2.765   1.459   3.710
 2104SOL     OW 6425   2.523   1.790   4.677
 2104SOL    HW1 6426   2.477   1.878   4.664
 2104SOL    HW2 6427   2.622   1.802   4.670
 2105SOL     OW 6428   2.721   0.956   4.585
 2105SOL    HW1 6429   2.775   0.887   4.633
 2105SOL    HW2 6430   2.689   1.025   4.651
 2106SOL     OW 6431   2.945   0.984   3.811
 2106SOL    HW1 6432   2.922   1.037   3.729
 2106SOL    HW2 6433   3.026   0.928   3.792
 2107SOL     OW 6434   3.723   1.569   4.575
 2107SOL    HW1 6435   3.652   1.557   4.505
 2107SOL    HW2 6436   3.724   1.490   4.635
 2108SOL     OW 6437   1.941   1.240   4.377
 2108SOL    HW1 6438   1.940   1.193   4.465
 2108SOL    HW2 6439   2.023   1.212   4.326
 2109SOL     OW 6440   3.686   0.192   4.951
 2109SOL    HW1 6441   3.682   0.102   4.995
 2109SOL    HW2 6442   3.689   0.181   4.852
 2110SOL     OW 6443   2.290   0.424   4.244
 2110SOL    HW1 6444   2.320   0.352   4.182
 2110SOL    HW2 6445   2.251   0.384   4.327
 2111SOL     OW 6446   3.567   1.487   4.828
 2111SOL    HW1 6447   3.474   1.462   4.801
 2111SOL    HW2 6448   3.593   1.437   4.910
 2112SOL     OW 6449   2.674   1.586   4.411
 2112SOL    HW1 6450   2.706   1.596   4.317
 2112SOL    HW2 6451   2.595   1.524   4.413
 2113SOL     OW 6452   3.286   0.214   4.836
 2113SOL    HW1 6453   3.338   0.149   4.891
 2113SOL    HW2 6454   3.237   0.277   4.897
 2114SOL     OW 6455   2.863   0.034   4.878
 2114SOL    HW1 6456   2.800  -0.038   4.847
 2114SOL    HW2 6457   2.956  -0.002   4.878
 2115SOL     OW 6458   2.632   1.330   4.025
 2115SOL    HW1 6459   2.586   1.243   4.042
 2115SOL    HW2 6460   2.723   1.327   4.066
 2116SOL     OW 6461   3.214   0.052   3.892
 2116SOL    HW1 6462   3.249   0.011   3.808
 2116SOL    HW2 6463   3.124   0.014   3.912
 2117SOL     OW 6464   3.162   0.453   4.415
 2117SOL    HW1 6465   3.103   0.533   4.419
 2117SOL    HW2 6466   3.177   0.418   4.508
 2118SOL     OW 6467   3.455   0.221   4.606
 2118SOL    HW1 6468   3.371   0.220   4.660
 2118SOL    HW2 6469   3.457   0.304   4.550
 2119SOL     OW 6470   1.901   1.077   4.024
 2119SOL    HW1 6471   2.000   1.066   4.015
 2119SOL    HW2 6472   1.861   0.991   4.056
 2120SOL     OW 6473   2.737   1.646   4.061
 2120SOL    HW1 6474   2.660   1.611   4.007
 2120SOL    HW2 6475   2.705   1.717   4.123
 2121SOL     OW 6476   2.092   2.490   0.113
 2121SOL    HW1 6477   1.999   2.488   0.150
 2121SOL    HW2 6478   2.093   2.451   0.021
 2122SOL     OW 6479   2.087   2.137   0.996
 2122SOL    HW1 6480   2.122   2.120   1.088
 2122SOL    HW2 6481   1.999   2.092   0.984
 2123SOL     OW 6482   1.881   2.230   0.647
 2123SOL    HW1 6483   1.799   2.273   0.686
 2123SOL    HW2 6484   1.853   2.157   0.584
 2124SOL     OW 6485   2.431   3.137   1.165
 2124SOL    HW1 6486   2.338   3.130   1.128
 2124SOL    HW2 6487   2.442   3.226   1.209
 2125SOL     OW 6488   3.417   3.373   0.703
 2125SOL    HW1 6489   3.360   3.357   0.784
 2125SOL    HW2 6490   3.358   3.383   0.623
 2126SOL     OW 6491   2.997   2.565   0.717
 2126SOL    HW1 6492   3.054   2.643   0.692
 2126SOL    HW2 6493   2.937   2.591   0.793
 2127SOL     OW 6494   3.617   2.469   0.231
 2127SOL    HW1 6495   3.605   2.456   0.132
 2127SOL    HW2 6496   3.587   2.388   0.280
 2128SOL     OW 6497   2.630   3.006   1.023
 2128SOL    HW1 6498   2.552   3.023   1.083
 2128SOL    HW2 6499   2.664   3.093   0.987
 2129SOL     OW 6500   2.712   2.660   1.823
 2129SOL    HW1 6501   2.708   2.736   1.888
 2129SOL    HW2 6502   2.734   2.696   1.732
 2130SOL     OW 6503   2.547   2.874   0.665
 2130SOL    HW1 6504   2.616   2.858   0.735
 2130SOL    HW2 6505   2.474   2.931   0.703
 2131SOL     OW 6506   2.548   3.023   1.803
 2131SOL    HW1 6507   2.608   3.102   1.817
 2131SOL    HW2 6508   2.462   3.054   1.762
 2132SOL     OW 6509   2.197   3.297   1.061
 2132SOL    HW1 6510   2.119   3.266   1.008
 2132SOL    HW2 6511   2.255   3.355   1.004
 2133SOL     OW 6512   3.322   3.367   1.339
 2133SOL    HW1 6513   3.346   3.461   1.365
 2133SOL    HW2 6514   3.306   3.313   1.421
 2134SOL     OW 6515   2.300   2.254   1.499
 2134SOL    HW1 6516   2.382   2.198   1.508
 2134SOL    HW2 6517   2.219   2.196   1.503
 2135SOL     OW 6518   3.465   2.309   0.737
 2135SOL    HW1 6519   3.391   2.355   0.687
 2135SOL    HW2 6520   3.516   2.377   0.790
 2136SOL     OW 6521   2.093   3.575   0.483
 2136SOL    HW1 6522   2.127   3.652   0.537
 2136SOL    HW2 6523   2.137   3.575   0.393
 2137SOL     OW 6524   2.989   3.203   1.690
 2137SOL    HW1 6525   3.036   3.203   1.778
 2137SOL    HW2 6526   2.941   3.116   1.679
 2138SOL     OW 6527   2.092   3.296   0.538
 2138SOL    HW1 6528   2.066   3.392   0.538
 2138SOL    HW2 6529   2.021   3.242   0.583
 2139SOL     OW 6530   2.102   2.953   0.886
 2139SOL    HW1 6531   2.116   2.869   0.938
 2139SOL    HW2 6532   2.047   3.017   0.941
 2140SOL     OW 6533   2.482   3.648   1.439
 2140SOL    HW1 6534   2.390   3.631   1.474
 2140SOL    HW2 6535   2.510   3.740   1.465
 2141SOL     OW 6536   2.468   2.826   0.123
 2141SOL    HW1 6537   2.475   2.910   0.069
 2141SOL    HW2 6538   2.514   2.839   0.211
 2142SOL     OW 6539   3.456   1.976   1.480
 2142SOL    HW1 6540   3.438   2.043   1.408
 2142SOL    HW2 6541   3.453   2.022   1.569
 2143SOL     OW 6542   1.984   2.505   0.563
 2143SOL    HW1 6543   1.939   2.417   0.580
 2143SOL    HW2 6544   1.983   2.559   0.647
 2144SOL     OW 6545   3.704   3.629   0.359
 2144SOL    HW1 6546   3.758   3.600   0.439
 2144SOL    HW2 6547   3.734   3.719   0.330
 2145SOL     OW 6548   1.889   3.458   0.117
 2145SOL    HW1 6549   1.870   3.362   0.138
 2145SOL    HW2 6550   1.856   3.516   0.192
 2146SOL     OW 6551   3.551   2.784   0.612
 2146SOL    HW1 6552   3.646   2.755   0.620
 2146SOL    HW2 6553   3.543   2.849   0.537
 2147SOL     OW 6554   3.503   2.970   0.432
 2147SOL    HW1 6555   3.589   2.972   0.380
 2147SOL    HW2 6556   3.517   3.017   0.520
 2148SOL     OW 6557   1.975   2.599   1.597
 2148SOL    HW1 6558   2.063   2.586   1.642
 2148SOL    HW2 6559   1.962   2.696   1.575
 2149SOL     OW 6560   2.475   3.227   0.726
 2149SOL    HW1 6561   2.426   3.140   0.735
 2149SOL    HW2 6562   2.452   3.270   0.639
 2150SOL     OW 6563   3.155   3.090   1.423
 2150SOL    HW1 6564   3.192   3.017   1.365
 2150SOL    HW2 6565   3.207   3.095   1.508
 2151SOL     OW 6566   2.671   1.866   0.502
 2151SOL    HW1 6567   2.711   1.957   0.493
 2151SOL    HW2 6568   2.571   1.874   0.508
 2152SOL     OW 6569   2.059   2.838   1.264
 2152SOL    HW1 6570   2.148   2.793   1.250
 2152SOL    HW2 6571   1.986   2.773   1.245
 2153SOL     OW 6572   3.387   2.861   0.190
 2153SOL    HW1 6573   3.324   2.785   0.203
 2153SOL    HW2 6574   3.435   2.879   0.276
 2154SOL     OW 6575   3.049   3.654   1.616
 2154SOL    HW1 6576   3.073   3.714   1.540
 2154SOL    HW2 6577   3.056   3.559   1.586
 2155SOL     OW 6578   2.179   2.113   1.801
 2155SOL    HW1 6579   2.250   2.184   1.807
 2155SOL    HW2 6580   2.091   2.152   1.829
 2156SOL     OW 6581   3.328   3.279   0.953
 2156SOL    HW1 6582   3.269   3.285   1.033
 2156SOL    HW2 6583   3.313   3.191   0.907
 2157SOL     OW 6584   3.529   3.576   0.572
 2157SOL    HW1 6585   3.488   3.553   0.484
 2157SOL    HW2 6586   3.511   3.502   0.637
 2158SOL     OW 6587   2.460   2.591   0.270
 2158SOL    HW1 6588   2.484   2.660   0.202
 2158SOL    HW2 6589   2.382   2.624   0.324
 2159SOL     OW 6590   3.143   2.207   0.944
 2159SOL    HW1 6591   3.057   2.157   0.931
 2159SOL    HW2 6592   3.205   2.153   1.000
 2160SOL     OW 6593   3.438   3.524   0.307
 2160SOL    HW1 6594   3.527   3.570   0.310
 2160SOL    HW2 6595   3.417   3.500   0.212
 2161SOL     OW 6596   2.669   2.467   1.465
 2161SOL    HW1 6597   2.622   2.464   1.554
 2161SOL    HW2 6598   2.618   2.412   1.399
 2162SOL     OW 6599   3.256   2.331   1.674
 2162SOL    HW1 6600   3.236   2.374   1.762
 2162SOL    HW2 6601   3.334   2.269   1.683
 2163SOL     OW 6602   2.835   2.752   1.572
 2163SOL    HW1 6603   2.881   2.668   1.543
 2163SOL    HW2 6604   2.779   2.786   1.497
 2164SOL     OW 6605   2.853   2.272   1.242
 2164SOL    HW1 6606   2.776   2.306   1.296
 2164SOL    HW2 6607   2.819   2.221   1.163
 2165SOL     OW 6608   2.903   2.563   0.429
 2165SOL    HW1 6609   2.929   2.559   0.525
 2165SOL    HW2 6610   2.818   2.512   0.415
 2166SOL     OW 6611   1.938   2.673   0.789
 2166SOL    HW1 6612   2.037   2.661   0.798
 2166SOL    HW2 6613   1.914   2.768   0.810
 2167SOL     OW 6614   1.992   3.683   1.571
 2167SOL    HW1 6615   1.982   3.668   1.670
 2167SOL    HW2 6616   1.906   3.719   1.535
 2168SOL     OW 6617   2.727   2.210   0.195
 2168SOL    HW1 6618   2.786   2.273   0.146
 2168SOL    HW2 6619   2.746   2.116   0.166
 2169SOL     OW 6620   3.581   2.447   1.831
 2169SOL    HW1 6621   3.555   2.536   1.795
 2169SOL    HW2 6622   3.579   2.379   1.758
 2170SOL     OW 6623   3.224   3.006   0.545
 2170SOL    HW1 6624   3.307   2.977   0.497
 2170SOL    HW2 6625   3.175   3.073   0.489
 2171SOL     OW 6626   2.412   2.058   0.885
 2171SOL    HW1 6627   2.407   2.053   0.985
 2171SOL    HW2 6628   2.414   2.154   0.856
 2172SOL     OW 6629   2.870   3.318   0.477
 2172SOL    HW1 6630   2.824   3.390   0.425
 2172SOL    HW2 6631   2.866   3.338   0.575
 2173SOL     OW 6632   2.213   3.663   0.853
 2173SOL    HW1 6633   2.263   3.577   0.859
 2173SOL    HW2 6634   2.278   3.740   0.850
 2174SOL     OW 6635   3.657   2.928   0.873
 2174SOL    HW1 6636   3.595   2.913   0.797
 2174SOL    HW2 6637   3.605   2.939   0.958
 2175SOL     OW 6638   3.089   3.412   1.506
 2175SOL    HW1 6639   3.095   3.335   1.570
 2175SOL    HW2 6640   3.037   3.386   1.426
 2176SOL     OW 6641   2.183   2.805   0.242
 2176SOL    HW1 6642   2.265   2.844   0.200
 2176SOL    HW2 6643   2.156   2.723   0.193
 2177SOL     OW 6644   3.320   2.597   0.728
 2177SOL    HW1 6645   3.315   2.532   0.803
 2177SOL    HW2 6646   3.400   2.656   0.741
 2178SOL     OW 6647   2.323   3.128   1.727
 2178SOL    HW1 6648   2.273   3.129   1.641
 2178SOL    HW2 6649   2.260   3.110   1.803
 2179SOL     OW 6650   2.973   3.638   0.237
 2179SOL    HW1 6651   2.913   3.576   0.287
 2179SOL    HW2 6652   3.004   3.594   0.152
 2180SOL     OW 6653   2.064   2.147   1.498
 2180SOL    HW1 6654   1.984   2.207   1.485
 2180SOL    HW2 6655   2.054   2.098   1.584
 2181SOL     OW 6656   3.494   3.239   0.081
 2181SOL    HW1 6657   3.462   3.333   0.071
 2181SOL    HW2 6658   3.418   3.176   0.069
 2182SOL     OW 6659   2.326   3.605   0.323
 2182SOL    HW1 6660   2.359   3.644   0.409
 2182SOL    HW2 6661   2.402   3.598   0.258
 2183SOL     OW 6662   3.262   1.969   0.426
 2183SOL    HW1 6663   3.238   1.932   0.336
 2183SOL    HW2 6664   3.361   1.985   0.430
 2184SOL     OW 6665   2.111   3.647   1.241
 2184SOL    HW1 6666   2.168   3.582   1.291
 2184SOL    HW2 6667   2.095   3.614   1.148
 2185SOL     OW 6668   2.802   3.560   0.904
 2185SOL    HW1 6669   2.882   3.503   0.925
 2185SOL    HW2 6670   2.753   3.520   0.827
 2186SOL     OW 6671   2.244   2.562   0.480
 2186SOL    HW1 6672   2.289   2.472   0.477
 2186SOL    HW2 6673   2.150   2.551   0.513
 2187SOL     OW 6674   3.409   2.084   1.729
 2187SOL    HW1 6675   3.404   2.121   1.821
 2187SOL    HW2 6676   3.337   2.015   1.717
 2188SOL     OW 6677   2.643   2.126   1.749
 2188SOL    HW1 6678   2.710   2.065   1.792
 2188SOL    HW2 6679   2.570   2.145   1.814
 2189SOL     OW 6680   2.750   3.376   1.195
 2189SOL    HW1 6681   2.727   3.351   1.101
 2189SOL    HW2 6682   2.811   3.307   1.234
 2190SOL     OW 6683   3.213   2.452   1.433
 2190SOL    HW1 6684   3.241   2.409   1.518
 2190SOL    HW2 6685   3.238   2.548   1.434
 2191SOL     OW 6686   2.665   3.264   0.924
 2191SOL    HW1 6687   2.755   3.278   0.882
 2191SOL    HW2 6688   2.594   3.266   0.853
 2192SOL     OW 6689   2.784   2.365   0.899
 2192SOL    HW1 6690   2.759   2.356   0.803
 2192SOL    HW2 6691   2.832   2.283   0.930
 2193SOL     OW 6692   2.401   1.926   0.512
 2193SOL    HW1 6693   2.320   1.927   0.570
 2193SOL    HW2 6694   2.404   2.009   0.457
 2194SOL     OW 6695   3.296   3.050   0.041
 2194SOL    HW1 6696   3.328   2.974   0.098
 2194SOL    HW2 6697   3.204   3.077   0.071
 2195SOL     OW 6698   2.159   1.897   0.171
 2195SOL    HW1 6699   2.208   1.981   0.150
 2195SOL    HW2 6700   2.221   1.832   0.216
 2196SOL     OW 6701   2.797   2.098   0.480
 2196SOL    HW1 6702   2.749   2.139   0.402
 2196SOL    HW2 6703   2.896   2.096   0.461
 2197SOL     OW 6704   2.938   2.545   1.464
 2197SOL    HW1 6705   2.858   2.484   1.467
 2197SOL    HW2 6706   3.019   2.492   1.440
 2198SOL     OW 6707   3.089   3.432   0.793
 2198SOL    HW1 6708   3.110   3.506   0.728
 2198SOL    HW2 6709   3.157   3.432   0.866
 2199SOL     OW 6710   2.321   3.014   0.741
 2199SOL    HW1 6711   2.250   2.987   0.806
 2199SOL    HW2 6712   2.295   2.986   0.648
 2200SOL     OW 6713   3.133   3.659   0.591
 2200SOL    HW1 6714   3.177   3.723   0.527
 2200SOL    HW2 6715   3.083   3.711   0.661
 2201SOL     OW 6716   2.894   2.411   0.016
 2201SOL    HW1 6717   2.853   2.493  -0.023
 2201SOL    HW2 6718   2.958   2.437   0.089
 2202SOL     OW 6719   1.940   2.418   1.386
 2202SOL    HW1 6720   2.032   2.417   1.345
 2202SOL    HW2 6721   1.934   2.492   1.453
 2203SOL     OW 6722   2.423   2.084   1.147
 2203SOL    HW1 6723   2.461   2.000   1.184
 2203SOL    HW2 6724   2.335   2.103   1.191
 2204SOL     OW 6725   2.728   2.316   0.642
 2204SOL    HW1 6726   2.696   2.388   0.580
 2204SOL    HW2 6727   2.752   2.235   0.589
 2205SOL     OW 6728   2.879   1.901   0.753
 2205SOL    HW1 6729   2.807   1.906   0.684
 2205SOL    HW2 6730   2.855   1.832   0.822
 2206SOL     OW 6731   3.291   3.035   0.867
 2206SOL    HW1 6732   3.236   2.951   0.860
 2206SOL    HW2 6733   3.317   3.064   0.775
 2207SOL     OW 6734   3.328   2.452   0.992
 2207SOL    HW1 6735   3.298   2.357   0.999
 2207SOL    HW2 6736   3.401   2.468   1.058
 2208SOL     OW 6737   3.719   2.695   0.377
 2208SOL    HW1 6738   3.761   2.631   0.441
 2208SOL    HW2 6739   3.681   2.644   0.299
 2209SOL     OW 6740   2.350   3.247   0.174
 2209SOL    HW1 6741   2.263   3.232   0.221
 2209SOL    HW2 6742   2.333   3.273   0.079
 2210SOL     OW 6743   3.526   3.142   0.657
 2210SOL    HW1 6744   3.625   3.150   0.671
 2210SOL    HW2 6745   3.481   3.226   0.688
 2211SOL     OW 6746   3.252   2.437   0.078
 2211SOL    HW1 6747   3.198   2.416   0.159
 2211SOL    HW2 6748   3.343   2.396   0.087
 2212SOL     OW 6749   2.389   2.118   0.328
 2212SOL    HW1 6750   2.416   2.059   0.253
 2212SOL    HW2 6751   2.389   2.213   0.297
 2213SOL     OW 6752   3.616   3.085   1.588
 2213SOL    HW1 6753   3.707   3.046   1.575
 2213SOL    HW2 6754   3.624   3.181   1.612
 2214SOL     OW 6755   2.926   3.209   1.340
 2214SOL    HW1 6756   2.846   3.186   1.395
 2214SOL    HW2 6757   3.009   3.183   1.389
 2215SOL     OW 6758   3.454   3.491   1.625
 2215SOL    HW1 6759   3.481   3.525   1.535
 2215SOL    HW2 6760   3.533   3.453   1.671
 2216SOL     OW 6761   2.973   3.057   1.100
 2216SOL    HW1 6762   2.933   3.101   1.181
 2216SOL    HW2 6763   2.932   3.094   1.017
 2217SOL     OW 6764   3.500   2.961   1.079
 2217SOL    HW1 6765   3.505   3.042   1.138
 2217SOL    HW2 6766   3.414   2.963   1.028
 2218SOL     OW 6767   2.777   1.951   1.402
 2218SOL    HW1 6768   2.802   1.931   1.307
 2218SOL    HW2 6769   2.849   2.007   1.444
 2219SOL     OW 6770   2.842   2.978   1.719
 2219SOL    HW1 6771   2.743   2.984   1.729
 2219SOL    HW2 6772   2.865   2.898   1.663
 2220SOL     OW 6773   2.567   2.912   0.368
 2220SOL    HW1 6774   2.553   2.919   0.467
 2220SOL    HW2 6775   2.651   2.861   0.350
 2221SOL     OW 6776   2.272   2.675   1.251
 2221SOL    HW1 6777   2.358   2.687   1.301
 2221SOL    HW2 6778   2.230   2.588   1.278
 2222SOL     OW 6779   3.136   2.248   1.262
 2222SOL    HW1 6780   3.157   2.322   1.326
 2222SOL    HW2 6781   3.047   2.265   1.219
 2223SOL     OW 6782   1.926   3.426   1.331
 2223SOL    HW1 6783   1.880   3.508   1.297
 2223SOL    HW2 6784   2.024   3.445   1.340
 2224SOL     OW 6785   2.229   2.962   0.501
 2224SOL    HW1 6786   2.222   3.045   0.445
 2224SOL    HW2 6787   2.233   2.882   0.441
 2225SOL     OW 6788   2.428   2.399   0.865
 2225SOL    HW1 6789   2.440   2.465   0.791
 2225SOL    HW2 6790   2.474   2.433   0.948
 2226SOL     OW 6791   3.114   3.210   0.388
 2226SOL    HW1 6792   3.164   3.287   0.428
 2226SOL    HW2 6793   3.019   3.212   0.420
 2227SOL     OW 6794   3.134   3.307   1.142
 2227SOL    HW1 6795   3.181   3.320   1.229
 2227SOL    HW2 6796   3.068   3.233   1.151
 2228SOL     OW 6797   3.444   2.501   0.472
 2228SOL    HW1 6798   3.413   2.562   0.545
 2228SOL    HW2 6799   3.494   2.553   0.403
 2229SOL     OW 6800   2.216   3.372   1.329
 2229SOL    HW1 6801   2.195   3.328   1.242
 2229SOL    HW2 6802   2.313   3.398   1.332
 2230SOL     OW 6803   2.264   2.613   1.598
 2230SOL    HW1 6804   2.332   2.668   1.551
 2230SOL    HW2 6805   2.304   2.525   1.625
 2231SOL     OW 6806   3.449   2.641   1.670
 2231SOL    HW1 6807   3.357   2.679   1.665
 2231SOL    HW2 6808   3.509   2.688   1.605
 2232SOL     OW 6809   2.875   1.967   1.770
 2232SOL    HW1 6810   2.881   2.052   1.718
 2232SOL    HW2 6811   2.907   1.891   1.713
 2233SOL     OW 6812   2.366   1.912   1.740
 2233SOL    HW1 6813   2.324   1.855   1.670
 2233SOL    HW2 6814   2.300   1.981   1.772
 2234SOL     OW 6815   2.435   2.732   1.029
 2234SOL    HW1 6816   2.479   2.821   1.020
 2234SOL    HW2 6817   2.372   2.732   1.106
 2235SOL     OW 6818   3.222   2.724   1.045
 2235SOL    HW1 6819   3.147   2.724   0.979
 2235SOL    HW2 6820   3.259   2.632   1.054
 2236SOL     OW 6821   3.071   2.387   0.275
 2236SOL    HW1 6822   3.084   2.303   0.329
 2236SOL    HW2 6823   3.042   2.461   0.335
 2237SOL     OW 6824   2.169   2.075   1.231
 2237SOL    HW1 6825   2.146   2.112   1.321
 2237SOL    HW2 6826   2.139   1.980   1.225
 2238SOL     OW 6827   1.899   3.172   1.282
 2238SOL    HW1 6828   1.952   3.123   1.350
 2238SOL    HW2 6829   1.921   3.270   1.287
 2239SOL     OW 6830   2.594   2.496   1.064
 2239SOL    HW1 6831   2.653   2.470   0.988
 2239SOL    HW2 6832   2.566   2.592   1.053
 2240SOL     OW 6833   3.590   2.797   1.854
 2240SOL    HW1 6834   3.544   2.790   1.765
 2240SOL    HW2 6835   3.528   2.841   1.920
 2241SOL     OW 6836   2.169   1.925   0.618
 2241SOL    HW1 6837   2.158   2.019   0.651
 2241SOL    HW2 6838   2.164   1.862   0.695
 2242SOL     OW 6839   3.484   2.229   0.374
 2242SOL    HW1 6840   3.486   2.153   0.438
 2242SOL    HW2 6841   3.436   2.306   0.414
 2243SOL     OW 6842   2.885   2.628   0.966
 2243SOL    HW1 6843   2.900   2.649   1.062
 2243SOL    HW2 6844   2.855   2.533   0.957
 2244SOL     OW 6845   2.842   3.435   1.700
 2244SOL    HW1 6846   2.822   3.479   1.612
 2244SOL    HW2 6847   2.881   3.344   1.684
 2245SOL     OW 6848   3.721   3.380   1.605
 2245SOL    HW1 6849   3.735   3.407   1.510
 2245SOL    HW2 6850   3.804   3.402   1.658
 2246SOL     OW 6851   2.212   2.760   1.804
 2246SOL    HW1 6852   2.288   2.804   1.852
 2246SOL    HW2 6853   2.247   2.713   1.722
 2247SOL     OW 6854   3.402   2.136   0.125
 2247SOL    HW1 6855   3.341   2.061   0.148
 2247SOL    HW2 6856   3.424   2.188   0.208
 2248SOL     OW 6857   3.165   2.700   0.042
 2248SOL    HW1 6858   3.199   2.607   0.057
 2248SOL    HW2 6859   3.183   2.727  -0.053
 2249SOL     OW 6860   2.930   3.195   0.849
 2249SOL    HW1 6861   2.937   3.111   0.794
 2249SOL    HW2 6862   2.992   3.264   0.813
 2250SOL     OW 6863   2.181   2.672   0.949
 2250SOL    HW1 6864   2.274   2.708   0.954
 2250SOL    HW2 6865   2.175   2.587   1.001
 2251SOL     OW 6866   2.201   2.371   1.006
 2251SOL    HW1 6867   2.149   2.288   0.989
 2251SOL    HW2 6868   2.278   2.376   0.942
 2252SOL     OW 6869   3.000   2.242   1.678
 2252SOL    HW1 6870   2.955   2.305   1.742
 2252SOL    HW2 6871   3.093   2.273   1.661
 2253SOL     OW 6872   3.022   2.069   1.477
 2253SOL    HW1 6873   3.022   2.133   1.554
 2253SOL    HW2 6874   3.050   2.117   1.394
 2254SOL     OW 6875   1.950   3.663   0.927
 2254SOL    HW1 6876   1.908   3.577   0.900
 2254SOL    HW2 6877   2.044   3.666   0.893
 2255SOL     OW 6878   2.366   3.430   0.910
 2255SOL    HW1 6879   2.432   3.504   0.919
 2255SOL    HW2 6880   2.410   3.351   0.868
 2256SOL     OW 6881   2.864   2.658   1.238
 2256SOL    HW1 6882   2.905   2.626   1.324
 2256SOL    HW2 6883   2.768   2.631   1.235
 2257SOL     OW 6884   1.902   2.406   1.114
 2257SOL    HW1 6885   1.987   2.373   1.073
 2257SOL    HW2 6886   1.915   2.421   1.212
 2258SOL     OW 6887   2.051   2.382   1.722
 2258SOL    HW1 6888   2.110   2.342   1.652
 2258SOL    HW2 6889   1.993   2.453   1.681
 2259SOL     OW 6890   3.231   2.812   1.660
 2259SOL    HW1 6891   3.270   2.901   1.680
 2259SOL    HW2 6892   3.241   2.792   1.563
 2260SOL     OW 6893   2.677   2.434   0.325
 2260SOL    HW1 6894   2.684   2.345   0.279
 2260SOL    HW2 6895   2.583   2.468   0.317
 2261SOL     OW 6896   3.519   2.466   1.206
 2261SOL    HW1 6897   3.481   2.397   1.268
 2261SOL    HW2 6898   3.601   2.430   1.162
 2262SOL     OW 6899   2.114   3.426   1.744
 2262SOL    HW1 6900   2.084   3.483   1.820
 2262SOL    HW2 6901   2.107   3.329   1.770
 2263SOL     OW 6902   2.533   2.326   1.269
 2263SOL    HW1 6903   2.499   2.237   1.239
 2263SOL    HW2 6904   2.559   2.380   1.189
 2264SOL     OW 6905   2.792   3.540   1.465
 2264SOL    HW1 6906   2.768   3.522   1.370
 2264SOL    HW2 6907   2.822   3.634   1.475
 2265SOL     OW 6908   2.335   2.362   0.191
 2265SOL    HW1 6909   2.396   2.442   0.195
 2265SOL    HW2 6910   2.240   2.393   0.198
 2266SOL     OW 6911   2.021   2.999   1.466
 2266SOL    HW1 6912   2.043   2.938   1.542
 2266SOL    HW2 6913   2.031   2.950   1.380
 2267SOL     OW 6914   3.209   2.921   1.234
 2267SOL    HW1 6915   3.233   2.858   1.160
 2267SOL    HW2 6916   3.119   2.961   1.216
 2268SOL     OW 6917   3.164   2.717   0.309
 2268SOL    HW1 6918   3.078   2.686   0.351
 2268SOL    HW2 6919   3.160   2.703   0.210
 2269SOL     OW 6920   3.621   3.609   1.154
 2269SOL    HW1 6921   3.682   3.639   1.081
 2269SOL    HW2 6922   3.583   3.520   1.132
 2270SOL     OW 6923   3.114   3.593   1.128
 2270SOL    HW1 6924   3.198   3.598   1.074
 2270SOL    HW2 6925   3.091   3.497   1.146
 2271SOL     OW 6926   1.945   3.120   1.022
 2271SOL    HW1 6927   1.940   3.119   1.122
 2271SOL    HW2 6928   1.862   3.079   0.984
 2272SOL     OW 6929   2.550   3.524   1.716
 2272SOL    HW1 6930   2.494   3.605   1.725
 2272SOL    HW2 6931   2.602   3.528   1.630
 2273SOL     OW 6932   2.765   1.948   0.133
 2273SOL    HW1 6933   2.816   1.949   0.047
 2273SOL    HW2 6934   2.821   1.906   0.204
 2274SOL     OW 6935   3.588   1.997   0.523
 2274SOL    HW1 6936   3.661   1.980   0.456
 2274SOL    HW2 6937   3.557   1.910   0.561
 2275SOL     OW 6938   3.250   3.435   0.477
 2275SOL    HW1 6939   3.317   3.447   0.403
 2275SOL    HW2 6940   3.210   3.524   0.500
 2276SOL     OW 6941   1.992   3.656   1.851
 2276SOL    HW1 6942   1.951   3.582   1.904
 2276SOL    HW2 6943   2.056   3.707   1.909
 2277SOL     OW 6944   3.142   2.789   0.672
 2277SOL    HW1 6945   3.202   2.708   0.674
 2277SOL    HW2 6946   3.182   2.858   0.612
 2278SOL     OW 6947   2.692   3.135   1.422
 2278SOL    HW1 6948   2.687   3.168   1.517
 2278SOL    HW2 6949   2.606   3.154   1.376
 2279SOL     OW 6950   2.534   3.478   0.154
 2279SOL    HW1 6951   2.543   3.488   0.055
 2279SOL    HW2 6952   2.494   3.389   0.175
 2280SOL     OW 6953   3.512   3.582   1.394
 2280SOL    HW1 6954   3.565   3.592   1.310
 2280SOL    HW2 6955   3.485   3.672   1.428
 2281SOL     OW 6956   3.703   2.037   0.963
 2281SOL    HW1 6957   3.742   1.952   0.927
 2281SOL    HW2 6958   3.605   2.039   0.944
 2282SOL     OW 6959   2.125   2.188   0.720
 2282SOL    HW1 6960   2.046   2.239   0.686
 2282SOL    HW2 6961   2.116   2.173   0.818
 2283SOL     OW 6962   3.056   3.474   0.031
 2283SOL    HW1 6963   3.062   3.381   0.068
 2283SOL    HW2 6964   2.997   3.474  -0.049
 2284SOL     OW 6965   2.684   2.864   1.372
 2284SOL    HW1 6966   2.724   2.863   1.280
 2284SOL    HW2 6967   2.694   2.956   1.412
 2285SOL     OW 6968   2.778   2.772   0.291
 2285SOL    HW1 6969   2.841   2.810   0.223
 2285SOL    HW2 6970   2.818   2.689   0.330
 2286SOL     OW 6971   3.366   3.469   0.044
 2286SOL    HW1 6972   3.274   3.506   0.051
 2286SOL    HW2 6973   3.404   3.489  -0.046
 2287SOL     OW 6974   2.234   3.150   1.490
 2287SOL    HW1 6975   2.221   3.243   1.456
 2287SOL    HW2 6976   2.150   3.098   1.477
 2288SOL     OW 6977   3.476   3.154   1.289
 2288SOL    HW1 6978   3.536   3.157   1.369
 2288SOL    HW2 6979   3.401   3.218   1.302
 2289SOL     OW 6980   2.901   2.960   0.696
 2289SOL    HW1 6981   2.831   2.913   0.750
 2289SOL    HW2 6982   2.960   2.892   0.653
 2290SOL     OW 6983   2.876   2.098   0.971
 2290SOL    HW1 6984   2.868   2.062   0.878
 2290SOL    HW2 6985   2.874   2.022   1.036
 2291SOL     OW 6986   2.452   3.349   0.491
 2291SOL    HW1 6987   2.494   3.291   0.421
 2291SOL    HW2 6988   2.408   3.428   0.447
 2292SOL     OW 6989   3.571   2.247   1.381
 2292SOL    HW1 6990   3.644   2.316   1.385
 2292SOL    HW2 6991   3.599   2.172   1.322
 2293SOL     OW 6992   2.117   3.210   0.290
 2293SOL    HW1 6993   2.021   3.211   0.263
 2293SOL    HW2 6994   2.129   3.263   0.374
 2294SOL     OW 6995   1.967   2.875   1.726
 2294SOL    HW1 6996   1.890   2.842   1.780
 2294SOL    HW2 6997   2.052   2.845   1.768
 2295SOL     OW 6998   2.534   2.065   1.489
 2295SOL    HW1 6999   2.624   2.049   1.449
 2295SOL    HW2 7000   2.542   2.070   1.588
 2296SOL     OW 7001   3.302   2.718   1.398
 2296SOL    HW1 7002   3.245   2.770   1.335
 2296SOL    HW2 7003   3.398   2.730   1.374
 2297SOL     OW 7004   1.934   2.028   0.318
 2297SOL    HW1 7005   1.917   2.111   0.264
 2297SOL    HW2 7006   2.024   1.991   0.296
 2298SOL     OW 7007   3.045   3.197   0.119
 2298SOL    HW1 7008   2.946   3.186   0.121
 2298SOL    HW2 7009   3.079   3.212   0.212
 2299SOL     OW 7010   2.475   2.704   1.431
 2299SOL    HW1 7011   2.531   2.785   1.414
 2299SOL    HW2 7012   2.534   2.624   1.434
 2300SOL     OW 7013   3.355   3.629   0.959
 2300SOL    HW1 7014   3.388   3.693   0.890
 2300SOL    HW2 7015   3.421   3.623   1.034
 2301SOL     OW 7016   2.578   2.427   1.708
 2301SOL    HW1 7017   2.597   2.492   1.782
 2301SOL    HW2 7018   2.638   2.347   1.717
 2302SOL     OW 7019   3.312   3.082   1.633
 2302SOL    HW1 7020   3.303   3.072   1.732
 2302SOL    HW2 7021   3.408   3.075   1.607
 2303SOL     OW 7022   2.252   3.603   1.560
 2303SOL    HW1 7023   2.161   3.644   1.558
 2303SOL    HW2 7024   2.245   3.509   1.592
 2304SOL     OW 7025   3.536   2.745   1.254
 2304SOL    HW1 7026   3.509   2.656   1.217
 2304SOL    HW2 7027   3.537   2.813   1.181
 2305SOL     OW 7028   3.087   2.187   0.449
 2305SOL    HW1 7029   3.152   2.113   0.438
 2305SOL    HW2 7030   3.107   2.237   0.533
 2306SOL     OW 7031   2.456   2.607   0.652
 2306SOL    HW1 7032   2.506   2.692   0.633
 2306SOL    HW2 7033   2.368   2.609   0.604
 2307SOL     OW 7034   3.639   2.204   1.642
 2307SOL    HW1 7035   3.622   2.235   1.548
 2307SOL    HW2 7036   3.555   2.167   1.680
 2308SOL     OW 7037   3.592   2.796   1.517
 2308SOL    HW1 7038   3.630   2.887   1.532
 2308SOL    HW2 7039   3.584   2.779   1.418
 2309SOL     OW 7040   2.721   3.236   0.016
 2309SOL    HW1 7041   2.675   3.251   0.104
 2309SOL    HW2 7042   2.765   3.321  -0.014
 2310SOL     OW 7043   2.523   3.652   0.953
 2310SOL    HW1 7044   2.477   3.740   0.940
 2310SOL    HW2 7045   2.622   3.664   0.946
 2311SOL     OW 7046   2.721   2.818   0.861
 2311SOL    HW1 7047   2.775   2.749   0.909
 2311SOL    HW2 7048   2.689   2.887   0.927
 2312SOL     OW 7049   2.945   2.846   0.087
 2312SOL    HW1 7050   2.922   2.899   0.005
 2312SOL    HW2 7051   3.026   2.790   0.068
 2313SOL     OW 7052   3.723   3.431   0.851
 2313SOL    HW1 7053   3.652   3.419   0.781
 2313SOL    HW2 7054   3.724   3.352   0.911
 2314SOL     OW 7055   2.083   3.176   1.844
 2314SOL    HW1 7056   2.018   3.103   1.823
 2314SOL    HW2 7057   2.087   3.190   1.942
 2315SOL     OW 7058   1.941   3.102   0.653
 2315SOL    HW1 7059   1.940   3.055   0.741
 2315SOL    HW2 7060   2.023   3.074   0.602
 2316SOL     OW 7061   2.534   3.253   1.624
 2316SOL    HW1 7062   2.456   3.203   1.662
 2316SOL    HW2 7063   2.531   3.348   1.655
 2317SOL     OW 7064   3.686   2.054   1.227
 2317SOL    HW1 7065   3.682   1.964   1.271
 2317SOL    HW2 7066   3.689   2.043   1.128
 2318SOL     OW 7067   2.290   2.286   0.520
 2318SOL    HW1 7068   2.320   2.214   0.458
 2318SOL    HW2 7069   2.251   2.246   0.603
 2319SOL     OW 7070   3.567   3.349   1.104
 2319SOL    HW1 7071   3.474   3.324   1.077
 2319SOL    HW2 7072   3.593   3.299   1.186
 2320SOL     OW 7073   2.179   2.409   1.280
 2320SOL    HW1 7074   2.217   2.350   1.352
 2320SOL    HW2 7075   2.219   2.383   1.192
 2321SOL     OW 7076   2.674   3.448   0.687
 2321SOL    HW1 7077   2.706   3.458   0.593
 2321SOL    HW2 7078   2.595   3.386   0.689
 2322SOL     OW 7079   3.286   2.076   1.112
 2322SOL    HW1 7080   3.338   2.011   1.167
 2322SOL    HW2 7081   3.237   2.139   1.173
 2323SOL     OW 7082   2.863   1.896   1.154
 2323SOL    HW1 7083   2.800   1.824   1.123
 2323SOL    HW2 7084   2.956   1.860   1.154
 2324SOL     OW 7085   2.632   3.192   0.301
 2324SOL    HW1 7086   2.586   3.105   0.318
 2324SOL    HW2 7087   2.723   3.189   0.342
 2325SOL     OW 7088   2.480   3.429   1.284
 2325SOL    HW1 7089   2.475   3.511   1.341
 2325SOL    HW2 7090   2.569   3.426   1.239
 2326SOL     OW 7091   3.214   1.914   0.168
 2326SOL    HW1 7092   3.249   1.873   0.084
 2326SOL    HW2 7093   3.124   1.876   0.188
 2327SOL     OW 7094   3.162   2.315   0.691
 2327SOL    HW1 7095   3.103   2.395   0.695
 2327SOL    HW2 7096   3.177   2.280   0.784
 2328SOL     OW 7097   3.455   2.083   0.882
 2328SOL    HW1 7098   3.371   2.082   0.936
 2328SOL    HW2 7099   3.457   2.166   0.826
 2329SOL     OW 7100   1.901   2.939   0.300
 2329SOL    HW1 7101   2.000   2.928   0.291
 2329SOL    HW2 7102   1.861   2.853   0.332
 2330SOL     OW 7103   2.737   3.508   0.337
 2330SOL    HW1 7104   2.660   3.473   0.283
 2330SOL    HW2 7105   2.705   3.579   0.399
 2331SOL     OW 7106   2.092   2.490   1.975
 2331SOL    HW1 7107   1.999   2.488   2.012
 2331SOL    HW2 7108   2.093   2.451   1.883
 2332SOL     OW 7109   2.087   2.137   2.858
 2332SOL    HW1 7110   2.122   2.120   2.950
 2332SOL    HW2 7111   1.999   2.092   2.846
 2333SOL     OW 7112   1.881   2.230   2.509
 2333SOL    HW1 7113   1.799   2.273   2.548
 2333SOL    HW2 7114   1.853   2.157   2.446
 2334SOL     OW 7115   2.431   3.137   3.027
 2334SOL    HW1 7116   2.338   3.130   2.990
 2334SOL    HW2 7117   2.442   3.226   3.071
 2335SOL     OW 7118   3.417   3.373   2.565
 2335SOL    HW1 7119   3.360   3.357   2.646
 2335SOL    HW2 7120   3.358   3.383   2.485
 2336SOL     OW 7121   3.617   2.469   2.093
 2336SOL    HW1 7122   3.605   2.456   1.994
 2336SOL    HW2 7123   3.587   2.388   2.142
 2337SOL     OW 7124   2.630   3.006   2.885
 2337SOL    HW1 7125   2.552   3.023   2.945
 2337SOL    HW2 7126   2.664   3.093   2.849
 2338SOL     OW 7127   2.712   2.660   3.685
 2338SOL    HW1 7128   2.708   2.736   3.750
 2338SOL    HW2 7129   2.734   2.696   3.594
 2339SOL     OW 7130   2.548   3.023   3.665
 2339SOL    HW1 7131   2.608   3.102   3.679
 2339SOL    HW2 7132   2.462   3.054   3.624
 2340SOL     OW 7133   2.197   3.297   2.923
 2340SOL    HW1 7134   2.119   3.266   2.870
 2340SOL    HW2 7135   2.255   3.355   2.866
 2341SOL     OW 7136   3.322   3.367   3.201
 2341SOL    HW1 7137   3.346   3.461   3.227
 2341SOL    HW2 7138   3.306   3.313   3.283
 2342SOL     OW 7139   2.300   2.254   3.361
 2342SOL    HW1 7140   2.382   2.198   3.370
 2342SOL    HW2 7141   2.219   2.196   3.365
 2343SOL     OW 7142   3.465   2.309   2.599
 2343SOL    HW1 7143   3.391   2.355   2.549
 2343SOL    HW2 7144   3.516   2.377   2.652
 2344SOL     OW 7145   2.093   3.575   2.345
 2344SOL    HW1 7146   2.127   3.652   2.399
 2344SOL    HW2 7147   2.137   3.575   2.255
 2345SOL     OW 7148   2.989   3.203   3.552
 2345SOL    HW1 7149   3.036   3.203   3.640
 2345SOL    HW2 7150   2.941   3.116   3.541
 2346SOL     OW 7151   2.092   3.296   2.400
 2346SOL    HW1 7152   2.066   3.392   2.400
 2346SOL    HW2 7153   2.021   3.242   2.445
 2347SOL     OW 7154   2.102   2.953   2.748
 2347SOL    HW1 7155   2.116   2.869   2.800
 2347SOL    HW2 7156   2.047   3.017   2.803
 2348SOL     OW 7157   2.482   3.648   3.301
 2348SOL    HW1 7158   2.390   3.631   3.336
 2348SOL    HW2 7159   2.510   3.740   3.327
 2349SOL     OW 7160   2.468   2.826   1.985
 2349SOL    HW1 7161   2.475   2.910   1.931
 2349SOL    HW2 7162   2.514   2.839   2.073
 2350SOL     OW 7163   3.456   1.976   3.342
 2350SOL    HW1 7164   3.438   2.043   3.270
 2350SOL    HW2 7165   3.453   2.022   3.431
 2351SOL     OW 7166   3.704   3.629   2.221
 2351SOL    HW1 7167   3.758   3.600   2.301
 2351SOL    HW2 7168   3.734   3.719   2.192
 2352SOL     OW 7169   1.889   3.458   1.979
 2352SOL    HW1 7170   1.870   3.362   2.000
 2352SOL    HW2 7171   1.856   3.516   2.054
 2353SOL     OW 7172   3.551   2.784   2.474
 2353SOL    HW1 7173   3.646   2.755   2.482
 2353SOL    HW2 7174   3.543   2.849   2.399
 2354SOL     OW 7175   3.503   2.970   2.294
 2354SOL    HW1 7176   3.589   2.972   2.242
 2354SOL    HW2 7177   3.517   3.017   2.382
 2355SOL     OW 7178   1.975   2.599   3.459
 2355SOL    HW1 7179   2.063   2.586   3.504
 2355SOL    HW2 7180   1.962   2.696   3.437
 2356SOL     OW 7181   2.475   3.227   2.588
 2356SOL    HW1 7182   2.426   3.140   2.597
 2356SOL    HW2 7183   2.452   3.270   2.501
 2357SOL     OW 7184   3.155   3.090   3.285
 2357SOL    HW1 7185   3.192   3.017   3.227
 2357SOL    HW2 7186   3.207   3.095   3.370
 2358SOL     OW 7187   2.671   1.866   2.364
 2358SOL    HW1 7188   2.711   1.957   2.355
 2358SOL    HW2 7189   2.571   1.874   2.370
 2359SOL     OW 7190   2.059   2.838   3.126
 2359SOL    HW1 7191   2.148   2.793   3.112
 2359SOL    HW2 7192   1.986   2.773   3.107
 2360SOL     OW 7193   3.387   2.861   2.052
 2360SOL    HW1 7194   3.324   2.785   2.065
 2360SOL    HW2 7195   3.435   2.879   2.138
 2361SOL     OW 7196   3.049   3.654   3.478
 2361SOL    HW1 7197   3.073   3.714   3.402
 2361SOL    HW2 7198   3.056   3.559   3.448
 2362SOL     OW 7199   2.179   2.113   3.663
 2362SOL    HW1 7200   2.250   2.184   3.669
 2362SOL    HW2 7201   2.091   2.152   3.691
 2363SOL     OW 7202   3.328   3.279   2.815
 2363SOL    HW1 7203   3.269   3.285   2.895
 2363SOL    HW2 7204   3.313   3.191   2.769
 2364SOL     OW 7205   3.529   3.576   2.434
 2364SOL    HW1 7206   3.488   3.553   2.346
 2364SOL    HW2 7207   3.511   3.502   2.499
 2365SOL     OW 7208   2.460   2.591   2.132
 2365SOL    HW1 7209   2.484   2.660   2.064
 2365SOL    HW2 7210   2.382   2.624   2.186
 2366SOL     OW 7211   3.143   2.207   2.806
 2366SOL    HW1 7212   3.057   2.157   2.793
 2366SOL    HW2 7213   3.205   2.153   2.862
 2367SOL     OW 7214   3.438   3.524   2.169
 2367SOL    HW1 7215   3.527   3.570   2.172
 2367SOL    HW2 7216   3.417   3.500   2.074
 2368SOL     OW 7217   2.669   2.467   3.327
 2368SOL    HW1 7218   2.622   2.464   3.416
 2368SOL    HW2 7219   2.618   2.412   3.261
 2369SOL     OW 7220   3.256   2.331   3.536
 2369SOL    HW1 7221   3.236   2.374   3.624
 2369SOL    HW2 7222   3.334   2.269   3.545
 2370SOL     OW 7223   2.835   2.752   3.434
 2370SOL    HW1 7224   2.881   2.668   3.405
 2370SOL    HW2 7225   2.779   2.786   3.359
 2371SOL     OW 7226   2.853   2.272   3.104
 2371SOL    HW1 7227   2.776   2.306   3.158
 2371SOL    HW2 7228   2.819   2.221   3.025
 2372SOL     OW 7229   2.903   2.563   2.291
 2372SOL    HW1 7230   2.929   2.559   2.387
 2372SOL    HW2 7231   2.818   2.512   2.277
 2373SOL     OW 7232   1.938   2.673   2.651
 2373SOL    HW1 7233   2.037   2.661   2.660
 2373SOL    HW2 7234   1.914   2.768   2.672
 2374SOL     OW 7235   1.992   3.683   3.433
 2374SOL    HW1 7236   1.982   3.668   3.532
 2374SOL    HW2 7237   1.906   3.719   3.397
 2375SOL     OW 7238   2.727   2.210   2.057
 2375SOL    HW1 7239   2.786   2.273   2.008
 2375SOL    HW2 7240   2.746   2.116   2.028
 2376SOL     OW 7241   3.581   2.447   3.693
 2376SOL    HW1 7242   3.555   2.536   3.657
 2376SOL    HW2 7243   3.579   2.379   3.620
 2377SOL     OW 7244   3.224   3.006   2.407
 2377SOL    HW1 7245   3.307   2.977   2.359
 2377SOL    HW2 7246   3.175   3.073   2.351
 2378SOL     OW 7247   2.412   2.058   2.747
 2378SOL    HW1 7248   2.407   2.053   2.847
 2378SOL    HW2 7249   2.414   2.154   2.718
 2379SOL     OW 7250   2.870   3.318   2.339
 2379SOL    HW1 7251   2.824   3.390   2.287
 2379SOL    HW2 7252   2.866   3.338   2.437
 2380SOL     OW 7253   2.213   3.663   2.715
 2380SOL    HW1 7254   2.263   3.577   2.721
 2380SOL    HW2 7255   2.278   3.740   2.712
 2381SOL     OW 7256   3.657   2.928   2.735
 2381SOL    HW1 7257   3.595   2.913   2.659
 2381SOL    HW2 7258   3.605   2.939   2.820
 2382SOL     OW 7259   3.089   3.412   3.368
 2382SOL    HW1 7260   3.095   3.335   3.432
 2382SOL    HW2 7261   3.037   3.386   3.288
 2383SOL     OW 7262   2.183   2.805   2.104
 2383SOL    HW1 7263   2.265   2.844   2.062
 2383SOL    HW2 7264   2.156   2.723   2.055
 2384SOL     OW 7265   3.320   2.597   2.590
 2384SOL    HW1 7266   3.315   2.532   2.665
 2384SOL    HW2 7267   3.400   2.656   2.603
 2385SOL     OW 7268   2.323   3.128   3.589
 2385SOL    HW1 7269   2.273   3.129   3.503
 2385SOL    HW2 7270   2.260   3.110   3.665
 2386SOL     OW 7271   2.973   3.638   2.099
 2386SOL    HW1 7272   2.913   3.576   2.149
 2386SOL    HW2 7273   3.004   3.594   2.014
 2387SOL     OW 7274   2.064   2.147   3.360
 2387SOL    HW1 7275   1.984   2.207   3.347
 2387SOL    HW2 7276   2.054   2.098   3.446
 2388SOL     OW 7277   3.494   3.239   1.943
 2388SOL    HW1 7278   3.462   3.333   1.933
 2388SOL    HW2 7279   3.418   3.176   1.931
 2389SOL     OW 7280   2.326   3.605   2.185
 2389SOL    HW1 7281   2.359   3.644   2.271
 2389SOL    HW2 7282   2.402   3.598   2.120
 2390SOL     OW 7283   3.262   1.969   2.288
 2390SOL    HW1 7284   3.238   1.932   2.198
 2390SOL    HW2 7285   3.361   1.985   2.292
 2391SOL     OW 7286   2.111   3.647   3.103
 2391SOL    HW1 7287   2.168   3.582   3.153
 2391SOL    HW2 7288   2.095   3.614   3.010
 2392SOL     OW 7289   2.802   3.560   2.766
 2392SOL    HW1 7290   2.882   3.503   2.787
 2392SOL    HW2 7291   2.753   3.520   2.689
 2393SOL     OW 7292   2.244   2.562   2.342
 2393SOL    HW1 7293   2.289   2.472   2.339
 2393SOL    HW2 7294   2.150   2.551   2.375
 2394SOL     OW 7295   3.409   2.084   3.591
 2394SOL    HW1 7296   3.404   2.121   3.683
 2394SOL    HW2 7297   3.337   2.015   3.579
 2395SOL     OW 7298   2.476   1.984   1.979
 2395SOL    HW1 7299   2.574   1.962   1.986
 2395SOL    HW2 7300   2.445   1.967   1.886
 2396SOL     OW 7301   2.643   2.126   3.611
 2396SOL    HW1 7302   2.710   2.065   3.654
 2396SOL    HW2 7303   2.570   2.145   3.676
 2397SOL     OW 7304   2.750   3.376   3.057
 2397SOL    HW1 7305   2.727   3.351   2.963
 2397SOL    HW2 7306   2.811   3.307   3.096
 2398SOL     OW 7307   3.213   2.452   3.295
 2398SOL    HW1 7308   3.241   2.409   3.380
 2398SOL    HW2 7309   3.238   2.548   3.296
 2399SOL     OW 7310   2.665   3.264   2.786
 2399SOL    HW1 7311   2.755   3.278   2.744
 2399SOL    HW2 7312   2.594   3.266   2.715
 2400SOL     OW 7313   2.401   1.926   2.374
 2400SOL    HW1 7314   2.320   1.927   2.432
 2400SOL    HW2 7315   2.404   2.009   2.319
 2401SOL     OW 7316   3.296   3.050   1.903
 2401SOL    HW1 7317   3.328   2.974   1.960
 2401SOL    HW2 7318   3.204   3.077   1.933
 2402SOL     OW 7319   2.159   1.897   2.033
 2402SOL    HW1 7320   2.208   1.981   2.012
 2402SOL    HW2 7321   2.221   1.832   2.078
 2403SOL     OW 7322   2.797   2.098   2.342
 2403SOL    HW1 7323   2.749   2.139   2.264
 2403SOL    HW2 7324   2.896   2.096   2.323
 2404SOL     OW 7325   2.938   2.545   3.326
 2404SOL    HW1 7326   2.858   2.484   3.329
 2404SOL    HW2 7327   3.019   2.492   3.302
 2405SOL     OW 7328   3.089   3.432   2.655
 2405SOL    HW1 7329   3.110   3.506   2.590
 2405SOL    HW2 7330   3.157   3.432   2.728
 2406SOL     OW 7331   2.321   3.014   2.603
 2406SOL    HW1 7332   2.250   2.987   2.668
 2406SOL    HW2 7333   2.295   2.986   2.510
 2407SOL     OW 7334   3.133   3.659   2.453
 2407SOL    HW1 7335   3.177   3.723   2.389
 2407SOL    HW2 7336   3.083   3.711   2.523
 2408SOL     OW 7337   2.894   2.411   1.878
 2408SOL    HW1 7338   2.853   2.493   1.839
 2408SOL    HW2 7339   2.958   2.437   1.951
 2409SOL     OW 7340   1.940   2.418   3.248
 2409SOL    HW1 7341   2.032   2.417   3.207
 2409SOL    HW2 7342   1.934   2.492   3.315
 2410SOL     OW 7343   2.423   2.084   3.009
 2410SOL    HW1 7344   2.461   2.000   3.046
 2410SOL    HW2 7345   2.335   2.103   3.053
 2411SOL     OW 7346   2.879   1.901   2.615
 2411SOL    HW1 7347   2.807   1.906   2.546
 2411SOL    HW2 7348   2.855   1.832   2.684
 2412SOL     OW 7349   3.291   3.035   2.729
 2412SOL    HW1 7350   3.236   2.951   2.722
 2412SOL    HW2 7351   3.317   3.064   2.637
 2413SOL     OW 7352   3.328   2.452   2.854
 2413SOL    HW1 7353   3.298   2.357   2.861
 2413SOL    HW2 7354   3.401   2.468   2.920
 2414SOL     OW 7355   3.719   2.695   2.239
 2414SOL    HW1 7356   3.761   2.631   2.303
 2414SOL    HW2 7357   3.681   2.644   2.161
 2415SOL     OW 7358   2.350   3.247   2.036
 2415SOL    HW1 7359   2.263   3.232   2.083
 2415SOL    HW2 7360   2.333   3.273   1.941
 2416SOL     OW 7361   3.526   3.142   2.519
 2416SOL    HW1 7362   3.625   3.150   2.533
 2416SOL    HW2 7363   3.481   3.226   2.550
 2417SOL     OW 7364   3.252   2.437   1.940
 2417SOL    HW1 7365   3.198   2.416   2.021
 2417SOL    HW2 7366   3.343   2.396   1.949
 2418SOL     OW 7367   2.389   2.118   2.190
 2418SOL    HW1 7368   2.416   2.059   2.115
 2418SOL    HW2 7369   2.389   2.213   2.159
 2419SOL     OW 7370   3.616   3.085   3.450
 2419SOL    HW1 7371   3.707   3.046   3.437
 2419SOL    HW2 7372   3.624   3.181   3.474
 2420SOL     OW 7373   2.926   3.209   3.202
 2420SOL    HW1 7374   2.846   3.186   3.257
 2420SOL    HW2 7375   3.009   3.183   3.251
 2421SOL     OW 7376   3.454   3.491   3.487
 2421SOL    HW1 7377   3.481   3.525   3.397
 2421SOL    HW2 7378   3.533   3.453   3.533
 2422SOL     OW 7379   2.973   3.057   2.962
 2422SOL    HW1 7380   2.933   3.101   3.043
 2422SOL    HW2 7381   2.932   3.094   2.879
 2423SOL     OW 7382   3.500   2.961   2.941
 2423SOL    HW1 7383   3.505   3.042   3.000
 2423SOL    HW2 7384   3.414   2.963   2.890
 2424SOL     OW 7385   2.777   1.951   3.264
 2424SOL    HW1 7386   2.802   1.931   3.169
 2424SOL    HW2 7387   2.849   2.007   3.306
 2425SOL     OW 7388   2.842   2.978   3.581
 2425SOL    HW1 7389   2.743   2.984   3.591
 2425SOL    HW2 7390   2.865   2.898   3.525
 2426SOL     OW 7391   2.272   2.675   3.113
 2426SOL    HW1 7392   2.358   2.687   3.163
 2426SOL    HW2 7393   2.230   2.588   3.140
 2427SOL     OW 7394   3.136   2.248   3.124
 2427SOL    HW1 7395   3.157   2.322   3.188
 2427SOL    HW2 7396   3.047   2.265   3.081
 2428SOL     OW 7397   1.926   3.426   3.193
 2428SOL    HW1 7398   1.880   3.508   3.159
 2428SOL    HW2 7399   2.024   3.445   3.202
 2429SOL     OW 7400   2.229   2.962   2.363
 2429SOL    HW1 7401   2.222   3.045   2.307
 2429SOL    HW2 7402   2.233   2.882   2.303
 2430SOL     OW 7403   3.114   3.210   2.250
 2430SOL    HW1 7404   3.164   3.287   2.290
 2430SOL    HW2 7405   3.019   3.212   2.282
 2431SOL     OW 7406   3.134   3.307   3.004
 2431SOL    HW1 7407   3.181   3.320   3.091
 2431SOL    HW2 7408   3.068   3.233   3.013
 2432SOL     OW 7409   3.444   2.501   2.334
 2432SOL    HW1 7410   3.413   2.562   2.407
 2432SOL    HW2 7411   3.494   2.553   2.265
 2433SOL     OW 7412   2.216   3.372   3.191
 2433SOL    HW1 7413   2.195   3.328   3.104
 2433SOL    HW2 7414   2.313   3.398   3.194
 2434SOL     OW 7415   2.264   2.613   3.460
 2434SOL    HW1 7416   2.332   2.668   3.413
 2434SOL    HW2 7417   2.304   2.525   3.487
 2435SOL     OW 7418   3.449   2.641   3.532
 2435SOL    HW1 7419   3.357   2.679   3.527
 2435SOL    HW2 7420   3.509   2.688   3.467
 2436SOL     OW 7421   2.875   1.967   3.632
 2436SOL    HW1 7422   2.881   2.052   3.580
 2436SOL    HW2 7423   2.907   1.891   3.575
 2437SOL     OW 7424   2.366   1.912   3.602
 2437SOL    HW1 7425   2.324   1.855   3.532
 2437SOL    HW2 7426   2.300   1.981   3.634
 2438SOL     OW 7427   2.435   2.732   2.891
 2438SOL    HW1 7428   2.479   2.821   2.882
 2438SOL    HW2 7429   2.372   2.732   2.968
 2439SOL     OW 7430   3.222   2.724   2.907
 2439SOL    HW1 7431   3.147   2.724   2.841
 2439SOL    HW2 7432   3.259   2.632   2.916
 2440SOL     OW 7433   3.071   2.387   2.137
 2440SOL    HW1 7434   3.084   2.303   2.191
 2440SOL    HW2 7435   3.042   2.461   2.197
 2441SOL     OW 7436   2.169   2.075   3.093
 2441SOL    HW1 7437   2.146   2.112   3.183
 2441SOL    HW2 7438   2.139   1.980   3.087
 2442SOL     OW 7439   1.899   3.172   3.144
 2442SOL    HW1 7440   1.952   3.123   3.212
 2442SOL    HW2 7441   1.921   3.270   3.149
 2443SOL     OW 7442   3.590   2.797   3.716
 2443SOL    HW1 7443   3.544   2.790   3.627
 2443SOL    HW2 7444   3.528   2.841   3.782
 2444SOL     OW 7445   2.169   1.925   2.480
 2444SOL    HW1 7446   2.158   2.019   2.513
 2444SOL    HW2 7447   2.164   1.862   2.557
 2445SOL     OW 7448   3.484   2.229   2.236
 2445SOL    HW1 7449   3.486   2.153   2.300
 2445SOL    HW2 7450   3.436   2.306   2.276
 2446SOL     OW 7451   2.885   2.628   2.828
 2446SOL    HW1 7452   2.900   2.649   2.924
 2446SOL    HW2 7453   2.855   2.533   2.819
 2447SOL     OW 7454   2.842   3.435   3.562
 2447SOL    HW1 7455   2.822   3.479   3.474
 2447SOL    HW2 7456   2.881   3.344   3.546
 2448SOL     OW 7457   3.721   3.380   3.467
 2448SOL    HW1 7458   3.735   3.407   3.372
 2448SOL    HW2 7459   3.804   3.402   3.520
 2449SOL     OW 7460   2.212   2.760   3.666
 2449SOL    HW1 7461   2.288   2.804   3.714
 2449SOL    HW2 7462   2.247   2.713   3.584
 2450SOL     OW 7463   3.402   2.136   1.987
 2450SOL    HW1 7464   3.341   2.061   2.010
 2450SOL    HW2 7465   3.424   2.188   2.070
 2451SOL     OW 7466   3.165   2.700   1.904
 2451SOL    HW1 7467   3.199   2.607   1.919
 2451SOL    HW2 7468   3.183   2.727   1.809
 2452SOL     OW 7469   2.930   3.195   2.711
 2452SOL    HW1 7470   2.937   3.111   2.656
 2452SOL    HW2 7471   2.992   3.264   2.675
 2453SOL     OW 7472   2.181   2.672   2.811
 2453SOL    HW1 7473   2.274   2.708   2.816
 2453SOL    HW2 7474   2.175   2.587   2.863
 2454SOL     OW 7475   2.201   2.371   2.868
 2454SOL    HW1 7476   2.149   2.288   2.851
 2454SOL    HW2 7477   2.278   2.376   2.804
 2455SOL     OW 7478   3.000   2.242   3.540
 2455SOL    HW1 7479   2.955   2.305   3.604
 2455SOL    HW2 7480   3.093   2.273   3.523
 2456SOL     OW 7481   3.022   2.069   3.339
 2456SOL    HW1 7482   3.022   2.133   3.416
 2456SOL    HW2 7483   3.050   2.117   3.256
 2457SOL     OW 7484   1.870   3.188   2.062
 2457SOL    HW1 7485   1.777   3.209   2.031
 2457SOL    HW2 7486   1.880   3.089   2.075
 2458SOL     OW 7487   1.950   3.663   2.789
 2458SOL    HW1 7488   1.908   3.577   2.762
 2458SOL    HW2 7489   2.044   3.666   2.755
 2459SOL     OW 7490   2.366   3.430   2.772
 2459SOL    HW1 7491   2.432   3.504   2.781
 2459SOL    HW2 7492   2.410   3.351   2.730
 2460SOL     OW 7493   2.864   2.658   3.100
 2460SOL    HW1 7494   2.905   2.626   3.186
 2460SOL    HW2 7495   2.768   2.631   3.097
 2461SOL     OW 7496   1.902   2.406   2.976
 2461SOL    HW1 7497   1.987   2.373   2.935
 2461SOL    HW2 7498   1.915   2.421   3.074
 2462SOL     OW 7499   2.051   2.382   3.584
 2462SOL    HW1 7500   2.110   2.342   3.514
 2462SOL    HW2 7501   1.993   2.453   3.543
 2463SOL     OW 7502   3.231   2.812   3.522
 2463SOL    HW1 7503   3.270   2.901   3.542
 2463SOL    HW2 7504   3.241   2.792   3.425
 2464SOL     OW 7505   2.677   2.434   2.187
 2464SOL    HW1 7506   2.684   2.345   2.141
 2464SOL    HW2 7507   2.583   2.468   2.179
 2465SOL     OW 7508   3.519   2.466   3.068
 2465SOL    HW1 7509   3.481   2.397   3.130
 2465SOL    HW2 7510   3.601   2.430   3.024
 2466SOL     OW 7511   2.114   3.426   3.606
 2466SOL    HW1 7512   2.084   3.483   3.682
 2466SOL    HW2 7513   2.107   3.329   3.632
 2467SOL     OW 7514   2.533   2.326   3.131
 2467SOL    HW1 7515   2.499   2.237   3.101
 2467SOL    HW2 7516   2.559   2.380   3.051
 2468SOL     OW 7517   2.792   3.540   3.327
 2468SOL    HW1 7518   2.768   3.522   3.232
 2468SOL    HW2 7519   2.822   3.634   3.337
 2469SOL     OW 7520   2.335   2.362   2.053
 2469SOL    HW1 7521   2.396   2.442   2.057
 2469SOL    HW2 7522   2.240   2.393   2.060
 2470SOL     OW 7523   2.021   2.999   3.328
 2470SOL    HW1 7524   2.043   2.938   3.404
 2470SOL    HW2 7525   2.031   2.950   3.242
 2471SOL     OW 7526   3.209   2.921   3.096
 2471SOL    HW1 7527   3.233   2.858   3.022
 2471SOL    HW2 7528   3.119   2.961   3.078
 2472SOL     OW 7529   3.164   2.717   2.171
 2472SOL    HW1 7530   3.078   2.686   2.213
 2472SOL    HW2 7531   3.160   2.703   2.072
 2473SOL     OW 7532   3.621   3.609   3.016
 2473SOL    HW1 7533   3.682   3.639   2.943
 2473SOL    HW2 7534   3.583   3.520   2.994
 2474SOL     OW 7535   3.114   3.593   2.990
 2474SOL    HW1 7536   3.198   3.598   2.936
 2474SOL    HW2 7537   3.091   3.497   3.008
 2475SOL     OW 7538   1.945   3.120   2.884
 2475SOL    HW1 7539   1.940   3.119   2.984
 2475SOL    HW2 7540   1.862   3.079   2.846
 2476SOL     OW 7541   2.550   3.524   3.578
 2476SOL    HW1 7542   2.494   3.605   3.587
 2476SOL    HW2 7543   2.602   3.528   3.492
 2477SOL     OW 7544   3.588   1.997   2.385
 2477SOL    HW1 7545   3.661   1.980   2.318
 2477SOL    HW2 7546   3.557   1.910   2.423
 2478SOL     OW 7547   3.250   3.435   2.339
 2478SOL    HW1 7548   3.317   3.447   2.265
 2478SOL    HW2 7549   3.210   3.524   2.362
 2479SOL     OW 7550   1.992   3.656   3.713
 2479SOL    HW1 7551   1.951   3.582   3.766
 2479SOL    HW2 7552   2.056   3.707   3.771
 2480SOL     OW 7553   3.142   2.789   2.534
 2480SOL    HW1 7554   3.202   2.708   2.536
 2480SOL    HW2 7555   3.182   2.858   2.474
 2481SOL     OW 7556   2.692   3.135   3.284
 2481SOL    HW1 7557   2.687   3.168   3.379
 2481SOL    HW2 7558   2.606   3.154   3.238
 2482SOL     OW 7559   2.534   3.478   2.016
 2482SOL    HW1 7560   2.543   3.488   1.917
 2482SOL    HW2 7561   2.494   3.389   2.037
 2483SOL     OW 7562   3.512   3.582   3.256
 2483SOL    HW1 7563   3.565   3.592   3.172
 2483SOL    HW2 7564   3.485   3.672   3.290
 2484SOL     OW 7565   3.703   2.037   2.825
 2484SOL    HW1 7566   3.742   1.952   2.789
 2484SOL    HW2 7567   3.605   2.039   2.806
 2485SOL     OW 7568   3.056   3.474   1.893
 2485SOL    HW1 7569   3.062   3.381   1.930
 2485SOL    HW2 7570   2.997   3.474   1.813
 2486SOL     OW 7571   2.684   2.864   3.234
 2486SOL    HW1 7572   2.724   2.863   3.142
 2486SOL    HW2 7573   2.694   2.956   3.274
 2487SOL     OW 7574   2.778   2.772   2.153
 2487SOL    HW1 7575   2.841   2.810   2.085
 2487SOL    HW2 7576   2.818   2.689   2.192
 2488SOL     OW 7577   3.366   3.469   1.906
 2488SOL    HW1 7578   3.274   3.506   1.913
 2488SOL    HW2 7579   3.404   3.489   1.816
 2489SOL     OW 7580   2.234   3.150   3.352
 2489SOL    HW1 7581   2.221   3.243   3.318
 2489SOL    HW2 7582   2.150   3.098   3.339
 2490SOL     OW 7583   3.476   3.154   3.151
 2490SOL    HW1 7584   3.536   3.157   3.231
 2490SOL    HW2 7585   3.401   3.218   3.164
 2491SOL     OW 7586   2.901   2.960   2.558
 2491SOL    HW1 7587   2.831   2.913   2.612
 2491SOL    HW2 7588   2.960   2.892   2.515
 2492SOL     OW 7589   2.876   2.098   2.833
 2492SOL    HW1 7590   2.868   2.062   2.740
 2492SOL    HW2 7591   2.874   2.022   2.898
 2493SOL     OW 7592   2.452   3.349   2.353
 2493SOL    HW1 7593   2.494   3.291   2.283
 2493SOL    HW2 7594   2.408   3.428   2.309
 2494SOL     OW 7595   3.571   2.247   3.243
 2494SOL    HW1 7596   3.644   2.316   3.247
 2494SOL    HW2 7597   3.599   2.172   3.184
 2495SOL     OW 7598   2.117   3.210   2.152
 2495SOL    HW1 7599   2.021   3.211   2.125
 2495SOL    HW2 7600   2.129   3.263   2.236
 2496SOL     OW 7601   1.967   2.875   3.588
 2496SOL    HW1 7602   1.890   2.842   3.642
 2496SOL    HW2 7603   2.052   2.845   3.630
 2497SOL     OW 7604   2.534   2.065   3.351
 2497SOL    HW1 7605   2.624   2.049   3.311
 2497SOL    HW2 7606   2.542   2.070   3.450
 2498SOL     OW 7607   1.937   2.207   1.895
 2498SOL    HW1 7608   1.845   2.179   1.866
 2498SOL    HW2 7609   1.968   2.284   1.839
 2499SOL     OW 7610   3.302   2.718   3.260
 2499SOL    HW1 7611   3.245   2.770   3.197
 2499SOL    HW2 7612   3.398   2.730   3.236
 2500SOL     OW 7613   1.934   2.028   2.180
 2500SOL    HW1 7614   1.917   2.111   2.126
 2500SOL    HW2 7615   2.024   1.991   2.158
 2501SOL     OW 7616   3.045   3.197   1.981
 2501SOL    HW1 7617   2.946   3.186   1.983
 2501SOL    HW2 7618   3.079   3.212   2.074
 2502SOL     OW 7619   2.475   2.704   3.293
 2502SOL    HW1 7620   2.531   2.785   3.276
 2502SOL    HW2 7621   2.534   2.624   3.296
 2503SOL     OW 7622   3.355   3.629   2.821
 2503SOL    HW1 7623   3.388   3.693   2.752
 2503SOL    HW2 7624   3.421   3.623   2.896
 2504SOL     OW 7625   2.578   2.427   3.570
 2504SOL    HW1 7626   2.597   2.492   3.644
 2504SOL    HW2 7627   2.638   2.347   3.579
 2505SOL     OW 7628   3.312   3.082   3.495
 2505SOL    HW1 7629   3.303   3.072   3.594
 2505SOL    HW2 7630   3.408   3.075   3.469
 2506SOL     OW 7631   2.252   3.603   3.422
 2506SOL    HW1 7632   2.161   3.644   3.420
 2506SOL    HW2 7633   2.245   3.509   3.454
 2507SOL     OW 7634   3.536   2.745   3.116
 2507SOL    HW1 7635   3.509   2.656   3.079
 2507SOL    HW2 7636   3.537   2.813   3.043
 2508SOL     OW 7637   3.087   2.187   2.311
 2508SOL    HW1 7638   3.152   2.113   2.300
 2508SOL    HW2 7639   3.107   2.237   2.395
 2509SOL     OW 7640   3.639   2.204   3.504
 2509SOL    HW1 7641   3.622   2.235   3.410
 2509SOL    HW2 7642   3.555   2.167   3.542
 2510SOL     OW 7643   3.592   2.796   3.379
 2510SOL    HW1 7644   3.630   2.887   3.394
 2510SOL    HW2 7645   3.584   2.779   3.280
 2511SOL     OW 7646   2.721   3.236   1.878
 2511SOL    HW1 7647   2.675   3.251   1.966
 2511SOL    HW2 7648   2.765   3.321   1.848
 2512SOL     OW 7649   2.523   3.652   2.815
 2512SOL    HW1 7650   2.477   3.740   2.802
 2512SOL    HW2 7651   2.622   3.664   2.808
 2513SOL     OW 7652   2.945   2.846   1.949
 2513SOL    HW1 7653   2.922   2.899   1.867
 2513SOL    HW2 7654   3.026   2.790   1.930
 2514SOL     OW 7655   3.723   3.431   2.713
 2514SOL    HW1 7656   3.652   3.419   2.643
 2514SOL    HW2 7657   3.724   3.352   2.773
 2515SOL     OW 7658   2.083   3.176   3.706
 2515SOL    HW1 7659   2.018   3.103   3.685
 2515SOL    HW2 7660   2.087   3.190   3.804
 2516SOL     OW 7661   1.941   3.102   2.515
 2516SOL    HW1 7662   1.940   3.055   2.603
 2516SOL    HW2 7663   2.023   3.074   2.464
 2517SOL     OW 7664   2.534   3.253   3.486
 2517SOL    HW1 7665   2.456   3.203   3.524
 2517SOL    HW2 7666   2.531   3.348   3.517
 2518SOL     OW 7667   3.686   2.054   3.089
 2518SOL    HW1 7668   3.682   1.964   3.133
 2518SOL    HW2 7669   3.689   2.043   2.990
 2519SOL     OW 7670   3.567   3.349   2.966
 2519SOL    HW1 7671   3.474   3.324   2.939
 2519SOL    HW2 7672   3.593   3.299   3.048
 2520SOL     OW 7673   2.179   2.409   3.142
 2520SOL    HW1 7674   2.217   2.350   3.214
 2520SOL    HW2 7675   2.219   2.383   3.054
 2521SOL     OW 7676   2.674   3.448   2.549
 2521SOL    HW1 7677   2.706   3.458   2.455
 2521SOL    HW2 7678   2.595   3.386   2.551
 2522SOL     OW 7679   3.286   2.076   2.974
 2522SOL    HW1 7680   3.338   2.011   3.029
 2522SOL    HW2 7681   3.237   2.139   3.035
 2523SOL     OW 7682   2.863   1.896   3.016
 2523SOL    HW1 7683   2.800   1.824   2.985
 2523SOL    HW2 7684   2.956   1.860   3.016
 2524SOL     OW 7685   2.632   3.192   2.163
 2524SOL    HW1 7686   2.586   3.105   2.180
 2524SOL    HW2 7687   2.723   3.189   2.204
 2525SOL     OW 7688   2.480   3.429   3.146
 2525SOL    HW1 7689   2.475   3.511   3.203
 2525SOL    HW2 7690   2.569   3.426   3.101
 2526SOL     OW 7691   3.214   1.914   2.030
 2526SOL    HW1 7692   3.249   1.873   1.946
 2526SOL    HW2 7693   3.124   1.876   2.050
 2527SOL     OW 7694   3.455   2.083   2.744
 2527SOL    HW1 7695   3.371   2.082   2.798
 2527SOL    HW2 7696   3.457   2.166   2.688
 2528SOL     OW 7697   1.901   2.939   2.162
 2528SOL    HW1 7698   2.000   2.928   2.153
 2528SOL    HW2 7699   1.861   2.853   2.194
 2529SOL     OW 7700   2.737   3.508   2.199
 2529SOL    HW1 7701   2.660   3.473   2.145
 2529SOL    HW2 7702   2.705   3.579   2.261
 2530SOL     OW 7703   2.092   2.490   3.837
 2530SOL    HW1 7704   1.999   2.488   3.874
 2530SOL    HW2 7705   2.093   2.451   3.745
 2531SOL     OW 7706   2.087   2.137   4.720
 2531SOL    HW1 7707   2.122   2.120   4.812
 2531SOL    HW2 7708   1.999   2.092   4.708
 2532SOL     OW 7709   1.881   2.230   4.371
 2532SOL    HW1 7710   1.799   2.273   4.410
 2532SOL    HW2 7711   1.853   2.157   4.308
 2533SOL     OW 7712   2.431   3.137   4.889
 2533SOL    HW1 7713   2.338   3.130   4.852
 2533SOL    HW2 7714   2.442   3.226   4.933
 2534SOL     OW 7715   3.417   3.373   4.427
 2534SOL    HW1 7716   3.360   3.357   4.508
 2534SOL    HW2 7717   3.358   3.383   4.347
 2535SOL     OW 7718   2.997   2.565   4.441
 2535SOL    HW1 7719   3.054   2.643   4.416
 2535SOL    HW2 7720   2.937   2.591   4.517
 2536SOL     OW 7721   3.617   2.469   3.955
 2536SOL    HW1 7722   3.605   2.456   3.856
 2536SOL    HW2 7723   3.587   2.388   4.004
 2537SOL     OW 7724   2.630   3.006   4.747
 2537SOL    HW1 7725   2.552   3.023   4.807
 2537SOL    HW2 7726   2.664   3.093   4.711
 2538SOL     OW 7727   2.547   2.874   4.389
 2538SOL    HW1 7728   2.616   2.858   4.459
 2538SOL    HW2 7729   2.474   2.931   4.427
 2539SOL     OW 7730   2.197   3.297   4.785
 2539SOL    HW1 7731   2.119   3.266   4.732
 2539SOL    HW2 7732   2.255   3.355   4.728
 2540SOL     OW 7733   3.465   2.309   4.461
 2540SOL    HW1 7734   3.391   2.355   4.411
 2540SOL    HW2 7735   3.516   2.377   4.514
 2541SOL     OW 7736   2.093   3.575   4.207
 2541SOL    HW1 7737   2.127   3.652   4.261
 2541SOL    HW2 7738   2.137   3.575   4.117
 2542SOL     OW 7739   2.092   3.296   4.262
 2542SOL    HW1 7740   2.066   3.392   4.262
 2542SOL    HW2 7741   2.021   3.242   4.307
 2543SOL     OW 7742   2.102   2.953   4.610
 2543SOL    HW1 7743   2.116   2.869   4.662
 2543SOL    HW2 7744   2.047   3.017   4.665
 2544SOL     OW 7745   2.482   3.648   5.163
 2544SOL    HW1 7746   2.390   3.631   5.198
 2544SOL    HW2 7747   2.510   3.740   5.189
 2545SOL     OW 7748   2.468   2.826   3.847
 2545SOL    HW1 7749   2.475   2.910   3.793
 2545SOL    HW2 7750   2.514   2.839   3.935
 2546SOL     OW 7751   1.984   2.505   4.287
 2546SOL    HW1 7752   1.939   2.417   4.304
 2546SOL    HW2 7753   1.983   2.559   4.371
 2547SOL     OW 7754   3.704   3.629   4.083
 2547SOL    HW1 7755   3.758   3.600   4.163
 2547SOL    HW2 7756   3.734   3.719   4.054
 2548SOL     OW 7757   1.889   3.458   3.841
 2548SOL    HW1 7758   1.870   3.362   3.862
 2548SOL    HW2 7759   1.856   3.516   3.916
 2549SOL     OW 7760   3.551   2.784   4.336
 2549SOL    HW1 7761   3.646   2.755   4.344
 2549SOL    HW2 7762   3.543   2.849   4.261
 2550SOL     OW 7763   3.503   2.970   4.156
 2550SOL    HW1 7764   3.589   2.972   4.104
 2550SOL    HW2 7765   3.517   3.017   4.244
 2551SOL     OW 7766   2.475   3.227   4.450
 2551SOL    HW1 7767   2.426   3.140   4.459
 2551SOL    HW2 7768   2.452   3.270   4.363
 2552SOL     OW 7769   2.671   1.866   4.226
 2552SOL    HW1 7770   2.711   1.957   4.217
 2552SOL    HW2 7771   2.571   1.874   4.232
 2553SOL     OW 7772   2.059   2.838   4.988
 2553SOL    HW1 7773   2.148   2.793   4.974
 2553SOL    HW2 7774   1.986   2.773   4.969
 2554SOL     OW 7775   3.387   2.861   3.914
 2554SOL    HW1 7776   3.324   2.785   3.927
 2554SOL    HW2 7777   3.435   2.879   4.000
 2555SOL     OW 7778   3.328   3.279   4.677
 2555SOL    HW1 7779   3.269   3.285   4.757
 2555SOL    HW2 7780   3.313   3.191   4.631
 2556SOL     OW 7781   3.529   3.576   4.296
 2556SOL    HW1 7782   3.488   3.553   4.208
 2556SOL    HW2 7783   3.511   3.502   4.361
 2557SOL     OW 7784   2.460   2.591   3.994
 2557SOL    HW1 7785   2.484   2.660   3.926
 2557SOL    HW2 7786   2.382   2.624   4.048
 2558SOL     OW 7787   3.143   2.207   4.668
 2558SOL    HW1 7788   3.057   2.157   4.655
 2558SOL    HW2 7789   3.205   2.153   4.724
 2559SOL     OW 7790   3.438   3.524   4.031
 2559SOL    HW1 7791   3.527   3.570   4.034
 2559SOL    HW2 7792   3.417   3.500   3.936
 2560SOL     OW 7793   2.853   2.272   4.966
 2560SOL    HW1 7794   2.776   2.306   5.020
 2560SOL    HW2 7795   2.819   2.221   4.887
 2561SOL     OW 7796   2.903   2.563   4.153
 2561SOL    HW1 7797   2.929   2.559   4.249
 2561SOL    HW2 7798   2.818   2.512   4.139
 2562SOL     OW 7799   1.938   2.673   4.513
 2562SOL    HW1 7800   2.037   2.661   4.522
 2562SOL    HW2 7801   1.914   2.768   4.534
 2563SOL     OW 7802   2.727   2.210   3.919
 2563SOL    HW1 7803   2.786   2.273   3.870
 2563SOL    HW2 7804   2.746   2.116   3.890
 2564SOL     OW 7805   3.224   3.006   4.269
 2564SOL    HW1 7806   3.307   2.977   4.221
 2564SOL    HW2 7807   3.175   3.073   4.213
 2565SOL     OW 7808   2.412   2.058   4.609
 2565SOL    HW1 7809   2.407   2.053   4.709
 2565SOL    HW2 7810   2.414   2.154   4.580
 2566SOL     OW 7811   2.870   3.318   4.201
 2566SOL    HW1 7812   2.824   3.390   4.149
 2566SOL    HW2 7813   2.866   3.338   4.299
 2567SOL     OW 7814   2.213   3.663   4.577
 2567SOL    HW1 7815   2.263   3.577   4.583
 2567SOL    HW2 7816   2.278   3.740   4.574
 2568SOL     OW 7817   3.657   2.928   4.597
 2568SOL    HW1 7818   3.595   2.913   4.521
 2568SOL    HW2 7819   3.605   2.939   4.682
 2569SOL     OW 7820   2.183   2.805   3.966
 2569SOL    HW1 7821   2.265   2.844   3.924
 2569SOL    HW2 7822   2.156   2.723   3.917
 2570SOL     OW 7823   3.320   2.597   4.452
 2570SOL    HW1 7824   3.315   2.532   4.527
 2570SOL    HW2 7825   3.400   2.656   4.465
 2571SOL     OW 7826   2.973   3.638   3.961
 2571SOL    HW1 7827   2.913   3.576   4.011
 2571SOL    HW2 7828   3.004   3.594   3.876
 2572SOL     OW 7829   3.494   3.239   3.805
 2572SOL    HW1 7830   3.462   3.333   3.795
 2572SOL    HW2 7831   3.418   3.176   3.793
 2573SOL     OW 7832   2.326   3.605   4.047
 2573SOL    HW1 7833   2.359   3.644   4.133
 2573SOL    HW2 7834   2.402   3.598   3.982
 2574SOL     OW 7835   3.262   1.969   4.150
 2574SOL    HW1 7836   3.238   1.932   4.060
 2574SOL    HW2 7837   3.361   1.985   4.154
 2575SOL     OW 7838   2.111   3.647   4.965
 2575SOL    HW1 7839   2.168   3.582   5.015
 2575SOL    HW2 7840   2.095   3.614   4.872
 2576SOL     OW 7841   2.802   3.560   4.628
 2576SOL    HW1 7842   2.882   3.503   4.649
 2576SOL    HW2 7843   2.753   3.520   4.551
 2577SOL     OW 7844   2.244   2.562   4.204
 2577SOL    HW1 7845   2.289   2.472   4.201
 2577SOL    HW2 7846   2.150   2.551   4.237
 2578SOL     OW 7847   2.476   1.984   3.841
 2578SOL    HW1 7848   2.574   1.962   3.848
 2578SOL    HW2 7849   2.445   1.967   3.748
 2579SOL     OW 7850   2.665   3.264   4.648
 2579SOL    HW1 7851   2.755   3.278   4.606
 2579SOL    HW2 7852   2.594   3.266   4.577
 2580SOL     OW 7853   2.784   2.365   4.623
 2580SOL    HW1 7854   2.759   2.356   4.527
 2580SOL    HW2 7855   2.832   2.283   4.654
 2581SOL     OW 7856   2.401   1.926   4.236
 2581SOL    HW1 7857   2.320   1.927   4.294
 2581SOL    HW2 7858   2.404   2.009   4.181
 2582SOL     OW 7859   3.296   3.050   3.765
 2582SOL    HW1 7860   3.328   2.974   3.822
 2582SOL    HW2 7861   3.204   3.077   3.795
 2583SOL     OW 7862   2.159   1.897   3.895
 2583SOL    HW1 7863   2.208   1.981   3.874
 2583SOL    HW2 7864   2.221   1.832   3.940
 2584SOL     OW 7865   2.797   2.098   4.204
 2584SOL    HW1 7866   2.749   2.139   4.126
 2584SOL    HW2 7867   2.896   2.096   4.185
 2585SOL     OW 7868   3.089   3.432   4.517
 2585SOL    HW1 7869   3.110   3.506   4.452
 2585SOL    HW2 7870   3.157   3.432   4.590
 2586SOL     OW 7871   2.321   3.014   4.465
 2586SOL    HW1 7872   2.250   2.987   4.530
 2586SOL    HW2 7873   2.295   2.986   4.372
 2587SOL     OW 7874   3.133   3.659   4.315
 2587SOL    HW1 7875   3.177   3.723   4.251
 2587SOL    HW2 7876   3.083   3.711   4.385
 2588SOL     OW 7877   2.894   2.411   3.740
 2588SOL    HW1 7878   2.853   2.493   3.701
 2588SOL    HW2 7879   2.958   2.437   3.813
 2589SOL     OW 7880   2.423   2.084   4.871
 2589SOL    HW1 7881   2.461   2.000   4.908
 2589SOL    HW2 7882   2.335   2.103   4.915
 2590SOL     OW 7883   2.728   2.316   4.366
 2590SOL    HW1 7884   2.696   2.388   4.304
 2590SOL    HW2 7885   2.752   2.235   4.313
 2591SOL     OW 7886   2.879   1.901   4.477
 2591SOL    HW1 7887   2.807   1.906   4.408
 2591SOL    HW2 7888   2.855   1.832   4.546
 2592SOL     OW 7889   3.291   3.035   4.591
 2592SOL    HW1 7890   3.236   2.951   4.584
 2592SOL    HW2 7891   3.317   3.064   4.499
 2593SOL     OW 7892   3.328   2.452   4.716
 2593SOL    HW1 7893   3.298   2.357   4.723
 2593SOL    HW2 7894   3.401   2.468   4.782
 2594SOL     OW 7895   3.719   2.695   4.101
 2594SOL    HW1 7896   3.761   2.631   4.165
 2594SOL    HW2 7897   3.681   2.644   4.023
 2595SOL     OW 7898   2.350   3.247   3.898
 2595SOL    HW1 7899   2.263   3.232   3.945
 2595SOL    HW2 7900   2.333   3.273   3.803
 2596SOL     OW 7901   3.526   3.142   4.381
 2596SOL    HW1 7902   3.625   3.150   4.395
 2596SOL    HW2 7903   3.481   3.226   4.412
 2597SOL     OW 7904   3.252   2.437   3.802
 2597SOL    HW1 7905   3.198   2.416   3.883
 2597SOL    HW2 7906   3.343   2.396   3.811
 2598SOL     OW 7907   2.389   2.118   4.052
 2598SOL    HW1 7908   2.416   2.059   3.977
 2598SOL    HW2 7909   2.389   2.213   4.021
 2599SOL     OW 7910   2.973   3.057   4.824
 2599SOL    HW1 7911   2.933   3.101   4.905
 2599SOL    HW2 7912   2.932   3.094   4.741
 2600SOL     OW 7913   3.500   2.961   4.803
 2600SOL    HW1 7914   3.505   3.042   4.862
 2600SOL    HW2 7915   3.414   2.963   4.752
 2601SOL     OW 7916   2.567   2.912   4.092
 2601SOL    HW1 7917   2.553   2.919   4.191
 2601SOL    HW2 7918   2.651   2.861   4.074
 2602SOL     OW 7919   2.272   2.675   4.975
 2602SOL    HW1 7920   2.358   2.687   5.025
 2602SOL    HW2 7921   2.230   2.588   5.002
 2603SOL     OW 7922   3.136   2.248   4.986
 2603SOL    HW1 7923   3.157   2.322   5.050
 2603SOL    HW2 7924   3.047   2.265   4.943
 2604SOL     OW 7925   2.229   2.962   4.225
 2604SOL    HW1 7926   2.222   3.045   4.169
 2604SOL    HW2 7927   2.233   2.882   4.165
 2605SOL     OW 7928   2.428   2.399   4.589
 2605SOL    HW1 7929   2.440   2.465   4.515
 2605SOL    HW2 7930   2.474   2.433   4.672
 2606SOL     OW 7931   3.114   3.210   4.112
 2606SOL    HW1 7932   3.164   3.287   4.152
 2606SOL    HW2 7933   3.019   3.212   4.144
 2607SOL     OW 7934   3.134   3.307   4.866
 2607SOL    HW1 7935   3.181   3.320   4.953
 2607SOL    HW2 7936   3.068   3.233   4.875
 2608SOL     OW 7937   3.444   2.501   4.196
 2608SOL    HW1 7938   3.413   2.562   4.269
 2608SOL    HW2 7939   3.494   2.553   4.127
 2609SOL     OW 7940   2.216   3.372   5.053
 2609SOL    HW1 7941   2.195   3.328   4.966
 2609SOL    HW2 7942   2.313   3.398   5.056
 2610SOL     OW 7943   2.435   2.732   4.753
 2610SOL    HW1 7944   2.479   2.821   4.744
 2610SOL    HW2 7945   2.372   2.732   4.830
 2611SOL     OW 7946   3.222   2.724   4.769
 2611SOL    HW1 7947   3.147   2.724   4.703
 2611SOL    HW2 7948   3.259   2.632   4.778
 2612SOL     OW 7949   3.071   2.387   3.999
 2612SOL    HW1 7950   3.084   2.303   4.053
 2612SOL    HW2 7951   3.042   2.461   4.059
 2613SOL     OW 7952   2.169   2.075   4.955
 2613SOL    HW1 7953   2.146   2.112   5.045
 2613SOL    HW2 7954   2.139   1.980   4.949
 2614SOL     OW 7955   1.899   3.172   5.006
 2614SOL    HW1 7956   1.952   3.123   5.074
 2614SOL    HW2 7957   1.921   3.270   5.011
 2615SOL     OW 7958   2.594   2.496   4.788
 2615SOL    HW1 7959   2.653   2.470   4.712
 2615SOL    HW2 7960   2.566   2.592   4.777
 2616SOL     OW 7961   2.169   1.925   4.342
 2616SOL    HW1 7962   2.158   2.019   4.375
 2616SOL    HW2 7963   2.164   1.862   4.419
 2617SOL     OW 7964   3.484   2.229   4.098
 2617SOL    HW1 7965   3.486   2.153   4.162
 2617SOL    HW2 7966   3.436   2.306   4.138
 2618SOL     OW 7967   2.885   2.628   4.690
 2618SOL    HW1 7968   2.900   2.649   4.786
 2618SOL    HW2 7969   2.855   2.533   4.681
 2619SOL     OW 7970   3.402   2.136   3.849
 2619SOL    HW1 7971   3.341   2.061   3.872
 2619SOL    HW2 7972   3.424   2.188   3.932
 2620SOL     OW 7973   3.165   2.700   3.766
 2620SOL    HW1 7974   3.199   2.607   3.781
 2620SOL    HW2 7975   3.183   2.727   3.671
 2621SOL     OW 7976   2.930   3.195   4.573
 2621SOL    HW1 7977   2.937   3.111   4.518
 2621SOL    HW2 7978   2.992   3.264   4.537
 2622SOL     OW 7979   2.181   2.672   4.673
 2622SOL    HW1 7980   2.274   2.708   4.678
 2622SOL    HW2 7981   2.175   2.587   4.725
 2623SOL     OW 7982   2.201   2.371   4.730
 2623SOL    HW1 7983   2.149   2.288   4.713
 2623SOL    HW2 7984   2.278   2.376   4.666
 2624SOL     OW 7985   3.022   2.069   5.201
 2624SOL    HW1 7986   3.022   2.133   5.278
 2624SOL    HW2 7987   3.050   2.117   5.118
 2625SOL     OW 7988   1.870   3.188   3.924
 2625SOL    HW1 7989   1.777   3.209   3.893
 2625SOL    HW2 7990   1.880   3.089   3.937
 2626SOL     OW 7991   1.950   3.663   4.651
 2626SOL    HW1 7992   1.908   3.577   4.624
 2626SOL    HW2 7993   2.044   3.666   4.617
 2627SOL     OW 7994   2.366   3.430   4.634
 2627SOL    HW1 7995   2.432   3.504   4.643
 2627SOL    HW2 7996   2.410   3.351   4.592
 2628SOL     OW 7997   2.864   2.658   4.962
 2628SOL    HW1 7998   2.905   2.626   5.048
 2628SOL    HW2 7999   2.768   2.631   4.959
 2629SOL     OW 8000   1.902   2.406   4.838
 2629SOL    HW1 8001   1.987   2.373   4.797
 2629SOL    HW2 8002   1.915   2.421   4.936
 2630SOL     OW 8003   2.677   2.434   4.049
 2630SOL    HW1 8004   2.684   2.345   4.003
 2630SOL    HW2 8005   2.583   2.468   4.041
 2631SOL     OW 8006   3.519   2.466   4.930
 2631SOL    HW1 8007   3.481   2.397   4.992
 2631SOL    HW2 8008   3.601   2.430   4.886
 2632SOL     OW 8009   2.533   2.326   4.993
 2632SOL    HW1 8010   2.499   2.237   4.963
 2632SOL    HW2 8011   2.559   2.380   4.913
 2633SOL     OW 8012   2.792   3.540   5.189
 2633SOL    HW1 8013   2.768   3.522   5.094
 2633SOL    HW2 8014   2.822   3.634   5.199
 2634SOL     OW 8015   2.335   2.362   3.915
 2634SOL    HW1 8016   2.396   2.442   3.919
 2634SOL    HW2 8017   2.240   2.393   3.922
 2635SOL     OW 8018   3.209   2.921   4.958
 2635SOL    HW1 8019   3.233   2.858   4.884
 2635SOL    HW2 8020   3.119   2.961   4.940
 2636SOL     OW 8021   3.164   2.717   4.033
 2636SOL    HW1 8022   3.078   2.686   4.075
 2636SOL    HW2 8023   3.160   2.703   3.934
 2637SOL     OW 8024   3.621   3.609   4.878
 2637SOL    HW1 8025   3.682   3.639   4.805
 2637SOL    HW2 8026   3.583   3.520   4.856
 2638SOL     OW 8027   3.114   3.593   4.852
 2638SOL    HW1 8028   3.198   3.598   4.798
 2638SOL    HW2 8029   3.091   3.497   4.870
 2639SOL     OW 8030   1.945   3.120   4.746
 2639SOL    HW1 8031   1.940   3.119   4.846
 2639SOL    HW2 8032   1.862   3.079   4.708
 2640SOL     OW 8033   3.588   1.997   4.247
 2640SOL    HW1 8034   3.661   1.980   4.180
 2640SOL    HW2 8035   3.557   1.910   4.285
 2641SOL     OW 8036   3.250   3.435   4.201
 2641SOL    HW1 8037   3.317   3.447   4.127
 2641SOL    HW2 8038   3.210   3.524   4.224
 2642SOL     OW 8039   3.142   2.789   4.396
 2642SOL    HW1 8040   3.202   2.708   4.398
 2642SOL    HW2 8041   3.182   2.858   4.336
 2643SOL     OW 8042   2.534   3.478   3.878
 2643SOL    HW1 8043   2.543   3.488   3.779
 2643SOL    HW2 8044   2.494   3.389   3.899
 2644SOL     OW 8045   3.512   3.582   5.118
 2644SOL    HW1 8046   3.565   3.592   5.034
 2644SOL    HW2 8047   3.485   3.672   5.152
 2645SOL     OW 8048   3.703   2.037   4.687
 2645SOL    HW1 8049   3.742   1.952   4.651
 2645SOL    HW2 8050   3.605   2.039   4.668
 2646SOL     OW 8051   2.125   2.188   4.444
 2646SOL    HW1 8052   2.046   2.239   4.410
 2646SOL    HW2 8053   2.116   2.173   4.542
 2647SOL     OW 8054   3.056   3.474   3.755
 2647SOL    HW1 8055   3.062   3.381   3.792
 2647SOL    HW2 8056   2.997   3.474   3.675
 2648SOL     OW 8057   2.684   2.864   5.096
 2648SOL    HW1 8058   2.724   2.863   5.004
 2648SOL    HW2 8059   2.694   2.956   5.136
 2649SOL     OW 8060   2.778   2.772   4.015
 2649SOL    HW1 8061   2.841   2.810   3.947
 2649SOL    HW2 8062   2.818   2.689   4.054
 2650SOL     OW 8063   3.366   3.469   3.768
 2650SOL    HW1 8064   3.274   3.506   3.775
 2650SOL    HW2 8065   3.404   3.489   3.678
 2651SOL     OW 8066   2.901   2.960   4.420
 2651SOL    HW1 8067   2.831   2.913   4.474
 2651SOL    HW2 8068   2.960   2.892   4.377
 2652SOL     OW 8069   2.876   2.098   4.695
 2652SOL    HW1 8070   2.868   2.062   4.602
 2652SOL    HW2 8071   2.874   2.022   4.760
 2653SOL     OW 8072   2.452   3.349   4.215
 2653SOL    HW1 8073   2.494   3.291   4.145
 2653SOL    HW2 8074   2.408   3.428   4.171
 2654SOL     OW 8075   3.571   2.247   5.105
 2654SOL    HW1 8076   3.644   2.316   5.109
 2654SOL    HW2 8077   3.599   2.172   5.046
 2655SOL     OW 8078   2.117   3.210   4.014
 2655SOL    HW1 8079   2.021   3.211   3.987
 2655SOL    HW2 8080   2.129   3.263   4.098
 2656SOL     OW 8081   1.937   2.207   3.757
 2656SOL    HW1 8082   1.845   2.179   3.728
 2656SOL    HW2 8083   1.968   2.284   3.701
 2657SOL     OW 8084   1.934   2.028   4.042
 2657SOL    HW1 8085   1.917   2.111   3.988
 2657SOL    HW2 8086   2.024   1.991   4.020
 2658SOL     OW 8087   3.045   3.197   3.843
 2658SOL    HW1 8088   2.946   3.186   3.845
 2658SOL    HW2 8089   3.079   3.212   3.936
 2659SOL     OW 8090   3.355   3.629   4.683
 2659SOL    HW1 8091   3.388   3.693   4.614
 2659SOL    HW2 8092   3.421   3.623   4.758
 2660SOL     OW 8093   3.312   3.082   5.357
 2660SOL    HW1 8094   3.303   3.072   5.456
 2660SOL    HW2 8095   3.408   3.075   5.331
 2661SOL     OW 8096   3.536   2.745   4.978
 2661SOL    HW1 8097   3.509   2.656   4.941
 2661SOL    HW2 8098   3.537   2.813   4.905
 2662SOL     OW 8099   3.087   2.187   4.173
 2662SOL    HW1 8100   3.152   2.113   4.162
 2662SOL    HW2 8101   3.107   2.237   4.257
 2663SOL     OW 8102   2.456   2.607   4.376
 2663SOL    HW1 8103   2.506   2.692   4.357
 2663SOL    HW2 8104   2.368   2.609   4.328
 2664SOL     OW 8105   3.592   2.796   5.241
 2664SOL    HW1 8106   3.630   2.887   5.256
 2664SOL    HW2 8107   3.584   2.779   5.142
 2665SOL     OW 8108   2.721   3.236   3.740
 2665SOL    HW1 8109   2.675   3.251   3.828
 2665SOL    HW2 8110   2.765   3.321   3.710
 2666SOL     OW 8111   2.523   3.652   4.677
 2666SOL    HW1 8112   2.477   3.740   4.664
 2666SOL    HW2 8113   2.622   3.664   4.670
 2667SOL     OW 8114   2.721   2.818   4.585
 2667SOL    HW1 8115   2.775   2.749   4.633
 2667SOL    HW2 8116   2.689   2.887   4.651
 2668SOL     OW 8117   2.945   2.846   3.811
 2668SOL    HW1 8118   2.922   2.899   3.729
 2668SOL    HW2 8119   3.026   2.790   3.792
 2669SOL     OW 8120   3.723   3.431   4.575
 2669SOL    HW1 8121   3.652   3.419   4.505
 2669SOL    HW2 8122   3.724   3.352   4.635
 2670SOL     OW 8123   1.941   3.102   4.377
 2670SOL    HW1 8124   1.940   3.055   4.465
 2670SOL    HW2 8125   2.023   3.074   4.326
 2671SOL     OW 8126   3.686   2.054   4.951
 2671SOL    HW1 8127   3.682   1.964   4.995
 2671SOL    HW2 8128   3.689   2.043   4.852
 2672SOL     OW 8129   2.290   2.286   4.244
 2672SOL    HW1 8130   2.320   2.214   4.182
 2672SOL    HW2 8131   2.251   2.246   4.327
 2673SOL     OW 8132   3.567   3.349   4.828
 2673SOL    HW1 8133   3.474   3.324   4.801
 2673SOL    HW2 8134   3.593   3.299   4.910
 2674SOL     OW 8135   2.674   3.448   4.411
 2674SOL    HW1 8136   2.706   3.458   4.317
 2674SOL    HW2 8137   2.595   3.386   4.413
 2675SOL     OW 8138   3.286   2.076   4.836
 2675SOL    HW1 8139   3.338   2.011   4.891
 2675SOL    HW2 8140   3.237   2.139   4.897
 2676SOL     OW 8141   2.863   1.896   4.878
 2676SOL    HW1 8142   2.800   1.824   4.847
 2676SOL    HW2 8143   2.956   1.860   4.878
 2677SOL     OW 8144   2.632   3.192   4.025
 2677SOL    HW1 8145   2.586   3.105   4.042
 2677SOL    HW2 8146   2.723   3.189   4.066
 2678SOL     OW 8147   3.214   1.914   3.892
 2678SOL    HW1 8148   3.249   1.873   3.808
 2678SOL    HW2 8149   3.124   1.876   3.912
 2679SOL     OW 8150   3.162   2.315   4.415
 2679SOL    HW1 8151   3.103   2.395   4.419
 2679SOL    HW2 8152   3.177   2.280   4.508
 2680SOL     OW 8153   3.455   2.083   4.606
 2680SOL    HW1 8154   3.371   2.082   4.660
 2680SOL    HW2 8155   3.457   2.166   4.550
 2681SOL     OW 8156   1.901   2.939   4.024
 2681SOL    HW1 8157   2.000   2.928   4.015
 2681SOL    HW2 8158   1.861   2.853   4.056
 2682SOL     OW 8159   2.737   3.508   4.061
 2682SOL    HW1 8160   2.660   3.473   4.007
 2682SOL    HW2 8161   2.705   3.579   4.123
 2683SOL     OW 8162   2.092   4.352   0.113
 2683SOL    HW1 8163   1.999   4.350   0.150
 2683SOL    HW2 8164   2.093   4.313   0.021
 2684SOL     OW 8165   2.087   3.999   0.996
 2684SOL    HW1 8166   2.122   3.982   1.088
 2684SOL    HW2 8167   1.999   3.954   0.984
 2685SOL     OW 8168   1.881   4.092   0.647
 2685SOL    HW1 8169   1.799   4.135   0.686
 2685SOL    HW2 8170   1.853   4.019   0.584
 2686SOL     OW 8171   2.431   4.999   1.165
 2686SOL    HW1 8172   2.338   4.992   1.128
 2686SOL    HW2 8173   2.442   5.088   1.209
 2687SOL     OW 8174   3.417   5.235   0.703
 2687SOL    HW1 8175   3.360   5.219   0.784
 2687SOL    HW2 8176   3.358   5.245   0.623
 2688SOL     OW 8177   2.997   4.427   0.717
 2688SOL    HW1 8178   3.054   4.505   0.692
 2688SOL    HW2 8179   2.937   4.453   0.793
 2689SOL     OW 8180   3.617   4.331   0.231
 2689SOL    HW1 8181   3.605   4.318   0.132
 2689SOL    HW2 8182   3.587   4.250   0.280
 2690SOL     OW 8183   2.630   4.868   1.023
 2690SOL    HW1 8184   2.552   4.885   1.083
 2690SOL    HW2 8185   2.664   4.955   0.987
 2691SOL     OW 8186   2.712   4.522   1.823
 2691SOL    HW1 8187   2.708   4.598   1.888
 2691SOL    HW2 8188   2.734   4.558   1.732
 2692SOL     OW 8189   2.547   4.736   0.665
 2692SOL    HW1 8190   2.616   4.720   0.735
 2692SOL    HW2 8191   2.474   4.793   0.703
 2693SOL     OW 8192   2.548   4.885   1.803
 2693SOL    HW1 8193   2.608   4.964   1.817
 2693SOL    HW2 8194   2.462   4.916   1.762
 2694SOL     OW 8195   2.197   5.159   1.061
 2694SOL    HW1 8196   2.119   5.128   1.008
 2694SOL    HW2 8197   2.255   5.217   1.004
 2695SOL     OW 8198   2.300   4.116   1.499
 2695SOL    HW1 8199   2.382   4.060   1.508
 2695SOL    HW2 8200   2.219   4.058   1.503
 2696SOL     OW 8201   3.465   4.171   0.737
 2696SOL    HW1 8202   3.391   4.217   0.687
 2696SOL    HW2 8203   3.516   4.239   0.790
 2697SOL     OW 8204   2.102   4.815   0.886
 2697SOL    HW1 8205   2.116   4.731   0.938
 2697SOL    HW2 8206   2.047   4.879   0.941
 2698SOL     OW 8207   2.468   4.688   0.123
 2698SOL    HW1 8208   2.475   4.772   0.069
 2698SOL    HW2 8209   2.514   4.701   0.211
 2699SOL     OW 8210   3.456   3.838   1.480
 2699SOL    HW1 8211   3.438   3.905   1.408
 2699SOL    HW2 8212   3.453   3.884   1.569
 2700SOL     OW 8213   1.984   4.367   0.563
 2700SOL    HW1 8214   1.939   4.279   0.580
 2700SOL    HW2 8215   1.983   4.421   0.647
 2701SOL     OW 8216   3.551   4.646   0.612
 2701SOL    HW1 8217   3.646   4.617   0.620
 2701SOL    HW2 8218   3.543   4.711   0.537
 2702SOL     OW 8219   3.503   4.832   0.432
 2702SOL    HW1 8220   3.589   4.834   0.380
 2702SOL    HW2 8221   3.517   4.879   0.520
 2703SOL     OW 8222   1.975   4.461   1.597
 2703SOL    HW1 8223   2.063   4.448   1.642
 2703SOL    HW2 8224   1.962   4.558   1.575
 2704SOL     OW 8225   3.155   4.952   1.423
 2704SOL    HW1 8226   3.192   4.879   1.365
 2704SOL    HW2 8227   3.207   4.957   1.508
 2705SOL     OW 8228   2.671   3.728   0.502
 2705SOL    HW1 8229   2.711   3.819   0.493
 2705SOL    HW2 8230   2.571   3.736   0.508
 2706SOL     OW 8231   2.059   4.700   1.264
 2706SOL    HW1 8232   2.148   4.655   1.250
 2706SOL    HW2 8233   1.986   4.635   1.245
 2707SOL     OW 8234   3.387   4.723   0.190
 2707SOL    HW1 8235   3.324   4.647   0.203
 2707SOL    HW2 8236   3.435   4.741   0.276
 2708SOL     OW 8237   2.179   3.975   1.801
 2708SOL    HW1 8238   2.250   4.046   1.807
 2708SOL    HW2 8239   2.091   4.014   1.829
 2709SOL     OW 8240   3.328   5.141   0.953
 2709SOL    HW1 8241   3.269   5.147   1.033
 2709SOL    HW2 8242   3.313   5.053   0.907
 2710SOL     OW 8243   2.460   4.453   0.270
 2710SOL    HW1 8244   2.484   4.522   0.202
 2710SOL    HW2 8245   2.382   4.486   0.324
 2711SOL     OW 8246   3.143   4.069   0.944
 2711SOL    HW1 8247   3.057   4.019   0.931
 2711SOL    HW2 8248   3.205   4.015   1.000
 2712SOL     OW 8249   2.669   4.329   1.465
 2712SOL    HW1 8250   2.622   4.326   1.554
 2712SOL    HW2 8251   2.618   4.274   1.399
 2713SOL     OW 8252   3.256   4.193   1.674
 2713SOL    HW1 8253   3.236   4.236   1.762
 2713SOL    HW2 8254   3.334   4.131   1.683
 2714SOL     OW 8255   2.835   4.614   1.572
 2714SOL    HW1 8256   2.881   4.530   1.543
 2714SOL    HW2 8257   2.779   4.648   1.497
 2715SOL     OW 8258   2.853   4.134   1.242
 2715SOL    HW1 8259   2.776   4.168   1.296
 2715SOL    HW2 8260   2.819   4.083   1.163
 2716SOL     OW 8261   2.903   4.425   0.429
 2716SOL    HW1 8262   2.929   4.421   0.525
 2716SOL    HW2 8263   2.818   4.374   0.415
 2717SOL     OW 8264   1.938   4.535   0.789
 2717SOL    HW1 8265   2.037   4.523   0.798
 2717SOL    HW2 8266   1.914   4.630   0.810
 2718SOL     OW 8267   2.727   4.072   0.195
 2718SOL    HW1 8268   2.786   4.135   0.146
 2718SOL    HW2 8269   2.746   3.978   0.166
 2719SOL     OW 8270   3.581   4.309   1.831
 2719SOL    HW1 8271   3.555   4.398   1.795
 2719SOL    HW2 8272   3.579   4.241   1.758
 2720SOL     OW 8273   3.224   4.868   0.545
 2720SOL    HW1 8274   3.307   4.839   0.497
 2720SOL    HW2 8275   3.175   4.935   0.489
 2721SOL     OW 8276   2.412   3.920   0.885
 2721SOL    HW1 8277   2.407   3.915   0.985
 2721SOL    HW2 8278   2.414   4.016   0.856
 2722SOL     OW 8279   3.657   4.790   0.873
 2722SOL    HW1 8280   3.595   4.775   0.797
 2722SOL    HW2 8281   3.605   4.801   0.958
 2723SOL     OW 8282   2.183   4.667   0.242
 2723SOL    HW1 8283   2.265   4.706   0.200
 2723SOL    HW2 8284   2.156   4.585   0.193
 2724SOL     OW 8285   3.320   4.459   0.728
 2724SOL    HW1 8286   3.315   4.394   0.803
 2724SOL    HW2 8287   3.400   4.518   0.741
 2725SOL     OW 8288   2.064   4.009   1.498
 2725SOL    HW1 8289   1.984   4.069   1.485
 2725SOL    HW2 8290   2.054   3.960   1.584
 2726SOL     OW 8291   3.494   5.101   0.081
 2726SOL    HW1 8292   3.462   5.195   0.071
 2726SOL    HW2 8293   3.418   5.038   0.069
 2727SOL     OW 8294   3.262   3.831   0.426
 2727SOL    HW1 8295   3.238   3.794   0.336
 2727SOL    HW2 8296   3.361   3.847   0.430
 2728SOL     OW 8297   2.244   4.424   0.480
 2728SOL    HW1 8298   2.289   4.334   0.477
 2728SOL    HW2 8299   2.150   4.413   0.513
 2729SOL     OW 8300   3.409   3.946   1.729
 2729SOL    HW1 8301   3.404   3.983   1.821
 2729SOL    HW2 8302   3.337   3.877   1.717
 2730SOL     OW 8303   2.643   3.988   1.749
 2730SOL    HW1 8304   2.710   3.927   1.792
 2730SOL    HW2 8305   2.570   4.007   1.814
 2731SOL     OW 8306   3.213   4.314   1.433
 2731SOL    HW1 8307   3.241   4.271   1.518
 2731SOL    HW2 8308   3.238   4.410   1.434
 2732SOL     OW 8309   2.665   5.126   0.924
 2732SOL    HW1 8310   2.755   5.140   0.882
 2732SOL    HW2 8311   2.594   5.128   0.853
 2733SOL     OW 8312   2.784   4.227   0.899
 2733SOL    HW1 8313   2.759   4.218   0.803
 2733SOL    HW2 8314   2.832   4.145   0.930
 2734SOL     OW 8315   2.401   3.788   0.512
 2734SOL    HW1 8316   2.320   3.789   0.570
 2734SOL    HW2 8317   2.404   3.871   0.457
 2735SOL     OW 8318   3.296   4.912   0.041
 2735SOL    HW1 8319   3.328   4.836   0.098
 2735SOL    HW2 8320   3.204   4.939   0.071
 2736SOL     OW 8321   2.159   3.759   0.171
 2736SOL    HW1 8322   2.208   3.843   0.150
 2736SOL    HW2 8323   2.221   3.694   0.216
 2737SOL     OW 8324   2.797   3.960   0.480
 2737SOL    HW1 8325   2.749   4.001   0.402
 2737SOL    HW2 8326   2.896   3.958   0.461
 2738SOL     OW 8327   2.938   4.407   1.464
 2738SOL    HW1 8328   2.858   4.346   1.467
 2738SOL    HW2 8329   3.019   4.354   1.440
 2739SOL     OW 8330   3.089   5.294   0.793
 2739SOL    HW1 8331   3.110   5.368   0.728
 2739SOL    HW2 8332   3.157   5.294   0.866
 2740SOL     OW 8333   2.321   4.876   0.741
 2740SOL    HW1 8334   2.250   4.849   0.806
 2740SOL    HW2 8335   2.295   4.848   0.648
 2741SOL     OW 8336   2.894   4.273   0.016
 2741SOL    HW1 8337   2.853   4.355  -0.023
 2741SOL    HW2 8338   2.958   4.299   0.089
 2742SOL     OW 8339   1.940   4.280   1.386
 2742SOL    HW1 8340   2.032   4.279   1.345
 2742SOL    HW2 8341   1.934   4.354   1.453
 2743SOL     OW 8342   2.423   3.946   1.147
 2743SOL    HW1 8343   2.461   3.862   1.184
 2743SOL    HW2 8344   2.335   3.965   1.191
 2744SOL     OW 8345   2.728   4.178   0.642
 2744SOL    HW1 8346   2.696   4.250   0.580
 2744SOL    HW2 8347   2.752   4.097   0.589
 2745SOL     OW 8348   2.879   3.763   0.753
 2745SOL    HW1 8349   2.807   3.768   0.684
 2745SOL    HW2 8350   2.855   3.694   0.822
 2746SOL     OW 8351   3.291   4.897   0.867
 2746SOL    HW1 8352   3.236   4.813   0.860
 2746SOL    HW2 8353   3.317   4.926   0.775
 2747SOL     OW 8354   3.328   4.314   0.992
 2747SOL    HW1 8355   3.298   4.219   0.999
 2747SOL    HW2 8356   3.401   4.330   1.058
 2748SOL     OW 8357   3.719   4.557   0.377
 2748SOL    HW1 8358   3.761   4.493   0.441
 2748SOL    HW2 8359   3.681   4.506   0.299
 2749SOL     OW 8360   3.526   5.004   0.657
 2749SOL    HW1 8361   3.625   5.012   0.671
 2749SOL    HW2 8362   3.481   5.088   0.688
 2750SOL     OW 8363   3.252   4.299   0.078
 2750SOL    HW1 8364   3.198   4.278   0.159
 2750SOL    HW2 8365   3.343   4.258   0.087
 2751SOL     OW 8366   2.389   3.980   0.328
 2751SOL    HW1 8367   2.416   3.921   0.253
 2751SOL    HW2 8368   2.389   4.075   0.297
 2752SOL     OW 8369   3.616   4.947   1.588
 2752SOL    HW1 8370   3.707   4.908   1.575
 2752SOL    HW2 8371   3.624   5.043   1.612
 2753SOL     OW 8372   3.500   4.823   1.079
 2753SOL    HW1 8373   3.505   4.904   1.138
 2753SOL    HW2 8374   3.414   4.825   1.028
 2754SOL     OW 8375   2.777   3.813   1.402
 2754SOL    HW1 8376   2.802   3.793   1.307
 2754SOL    HW2 8377   2.849   3.869   1.444
 2755SOL     OW 8378   2.842   4.840   1.719
 2755SOL    HW1 8379   2.743   4.846   1.729
 2755SOL    HW2 8380   2.865   4.760   1.663
 2756SOL     OW 8381   2.567   4.774   0.368
 2756SOL    HW1 8382   2.553   4.781   0.467
 2756SOL    HW2 8383   2.651   4.723   0.350
 2757SOL     OW 8384   2.272   4.537   1.251
 2757SOL    HW1 8385   2.358   4.549   1.301
 2757SOL    HW2 8386   2.230   4.450   1.278
 2758SOL     OW 8387   3.136   4.110   1.262
 2758SOL    HW1 8388   3.157   4.184   1.326
 2758SOL    HW2 8389   3.047   4.127   1.219
 2759SOL     OW 8390   2.229   4.824   0.501
 2759SOL    HW1 8391   2.222   4.907   0.445
 2759SOL    HW2 8392   2.233   4.744   0.441
 2760SOL     OW 8393   2.428   4.261   0.865
 2760SOL    HW1 8394   2.440   4.327   0.791
 2760SOL    HW2 8395   2.474   4.295   0.948
 2761SOL     OW 8396   3.444   4.363   0.472
 2761SOL    HW1 8397   3.413   4.424   0.545
 2761SOL    HW2 8398   3.494   4.415   0.403
 2762SOL     OW 8399   2.264   4.475   1.598
 2762SOL    HW1 8400   2.332   4.530   1.551
 2762SOL    HW2 8401   2.304   4.387   1.625
 2763SOL     OW 8402   3.449   4.503   1.670
 2763SOL    HW1 8403   3.357   4.541   1.665
 2763SOL    HW2 8404   3.509   4.550   1.605
 2764SOL     OW 8405   2.875   3.829   1.770
 2764SOL    HW1 8406   2.881   3.914   1.718
 2764SOL    HW2 8407   2.907   3.753   1.713
 2765SOL     OW 8408   2.366   3.774   1.740
 2765SOL    HW1 8409   2.324   3.717   1.670
 2765SOL    HW2 8410   2.300   3.843   1.772
 2766SOL     OW 8411   2.435   4.594   1.029
 2766SOL    HW1 8412   2.479   4.683   1.020
 2766SOL    HW2 8413   2.372   4.594   1.106
 2767SOL     OW 8414   3.222   4.586   1.045
 2767SOL    HW1 8415   3.147   4.586   0.979
 2767SOL    HW2 8416   3.259   4.494   1.054
 2768SOL     OW 8417   3.071   4.249   0.275
 2768SOL    HW1 8418   3.084   4.165   0.329
 2768SOL    HW2 8419   3.042   4.323   0.335
 2769SOL     OW 8420   2.169   3.937   1.231
 2769SOL    HW1 8421   2.146   3.974   1.321
 2769SOL    HW2 8422   2.139   3.842   1.225
 2770SOL     OW 8423   2.594   4.358   1.064
 2770SOL    HW1 8424   2.653   4.332   0.988
 2770SOL    HW2 8425   2.566   4.454   1.053
 2771SOL     OW 8426   3.590   4.659   1.854
 2771SOL    HW1 8427   3.544   4.652   1.765
 2771SOL    HW2 8428   3.528   4.703   1.920
 2772SOL     OW 8429   2.169   3.787   0.618
 2772SOL    HW1 8430   2.158   3.881   0.651
 2772SOL    HW2 8431   2.164   3.724   0.695
 2773SOL     OW 8432   3.484   4.091   0.374
 2773SOL    HW1 8433   3.486   4.015   0.438
 2773SOL    HW2 8434   3.436   4.168   0.414
 2774SOL     OW 8435   2.885   4.490   0.966
 2774SOL    HW1 8436   2.900   4.511   1.062
 2774SOL    HW2 8437   2.855   4.395   0.957
 2775SOL     OW 8438   3.721   5.242   1.605
 2775SOL    HW1 8439   3.735   5.269   1.510
 2775SOL    HW2 8440   3.804   5.264   1.658
 2776SOL     OW 8441   2.212   4.622   1.804
 2776SOL    HW1 8442   2.288   4.666   1.852
 2776SOL    HW2 8443   2.247   4.575   1.722
 2777SOL     OW 8444   3.402   3.998   0.125
 2777SOL    HW1 8445   3.341   3.923   0.148
 2777SOL    HW2 8446   3.424   4.050   0.208
 2778SOL     OW 8447   3.165   4.562   0.042
 2778SOL    HW1 8448   3.199   4.469   0.057
 2778SOL    HW2 8449   3.183   4.589  -0.053
 2779SOL     OW 8450   2.181   4.534   0.949
 2779SOL    HW1 8451   2.274   4.570   0.954
 2779SOL    HW2 8452   2.175   4.449   1.001
 2780SOL     OW 8453   2.201   4.233   1.006
 2780SOL    HW1 8454   2.149   4.150   0.989
 2780SOL    HW2 8455   2.278   4.238   0.942
 2781SOL     OW 8456   3.000   4.104   1.678
 2781SOL    HW1 8457   2.955   4.167   1.742
 2781SOL    HW2 8458   3.093   4.135   1.661
 2782SOL     OW 8459   3.022   3.931   1.477
 2782SOL    HW1 8460   3.022   3.995   1.554
 2782SOL    HW2 8461   3.050   3.979   1.394
 2783SOL     OW 8462   2.864   4.520   1.238
 2783SOL    HW1 8463   2.905   4.488   1.324
 2783SOL    HW2 8464   2.768   4.493   1.235
 2784SOL     OW 8465   1.902   4.268   1.114
 2784SOL    HW1 8466   1.987   4.235   1.073
 2784SOL    HW2 8467   1.915   4.283   1.212
 2785SOL     OW 8468   2.051   4.244   1.722
 2785SOL    HW1 8469   2.110   4.204   1.652
 2785SOL    HW2 8470   1.993   4.315   1.681
 2786SOL     OW 8471   3.231   4.674   1.660
 2786SOL    HW1 8472   3.270   4.763   1.680
 2786SOL    HW2 8473   3.241   4.654   1.563
 2787SOL     OW 8474   2.677   4.296   0.325
 2787SOL    HW1 8475   2.684   4.207   0.279
 2787SOL    HW2 8476   2.583   4.330   0.317
 2788SOL     OW 8477   3.519   4.328   1.206
 2788SOL    HW1 8478   3.481   4.259   1.268
 2788SOL    HW2 8479   3.601   4.292   1.162
 2789SOL     OW 8480   2.533   4.188   1.269
 2789SOL    HW1 8481   2.499   4.099   1.239
 2789SOL    HW2 8482   2.559   4.242   1.189
 2790SOL     OW 8483   2.335   4.224   0.191
 2790SOL    HW1 8484   2.396   4.304   0.195
 2790SOL    HW2 8485   2.240   4.255   0.198
 2791SOL     OW 8486   2.021   4.861   1.466
 2791SOL    HW1 8487   2.043   4.800   1.542
 2791SOL    HW2 8488   2.031   4.812   1.380
 2792SOL     OW 8489   3.209   4.783   1.234
 2792SOL    HW1 8490   3.233   4.720   1.160
 2792SOL    HW2 8491   3.119   4.823   1.216
 2793SOL     OW 8492   3.164   4.579   0.309
 2793SOL    HW1 8493   3.078   4.548   0.351
 2793SOL    HW2 8494   3.160   4.565   0.210
 2794SOL     OW 8495   1.945   4.982   1.022
 2794SOL    HW1 8496   1.940   4.981   1.122
 2794SOL    HW2 8497   1.862   4.941   0.984
 2795SOL     OW 8498   2.765   3.810   0.133
 2795SOL    HW1 8499   2.816   3.811   0.047
 2795SOL    HW2 8500   2.821   3.768   0.204
 2796SOL     OW 8501   3.588   3.859   0.523
 2796SOL    HW1 8502   3.661   3.842   0.456
 2796SOL    HW2 8503   3.557   3.772   0.561
 2797SOL     OW 8504   3.142   4.651   0.672
 2797SOL    HW1 8505   3.202   4.570   0.674
 2797SOL    HW2 8506   3.182   4.720   0.612
 2798SOL     OW 8507   2.692   4.997   1.422
 2798SOL    HW1 8508   2.687   5.030   1.517
 2798SOL    HW2 8509   2.606   5.016   1.376
 2799SOL     OW 8510   3.703   3.899   0.963
 2799SOL    HW1 8511   3.742   3.814   0.927
 2799SOL    HW2 8512   3.605   3.901   0.944
 2800SOL     OW 8513   2.125   4.050   0.720
 2800SOL    HW1 8514   2.046   4.101   0.686
 2800SOL    HW2 8515   2.116   4.035   0.818
 2801SOL     OW 8516   2.684   4.726   1.372
 2801SOL    HW1 8517   2.724   4.725   1.280
 2801SOL    HW2 8518   2.694   4.818   1.412
 2802SOL     OW 8519   2.778   4.634   0.291
 2802SOL    HW1 8520   2.841   4.672   0.223
 2802SOL    HW2 8521   2.818   4.551   0.330
 2803SOL     OW 8522   2.234   5.012   1.490
 2803SOL    HW1 8523   2.221   5.105   1.456
 2803SOL    HW2 8524   2.150   4.960   1.477
 2804SOL     OW 8525   3.476   5.016   1.289
 2804SOL    HW1 8526   3.536   5.019   1.369
 2804SOL    HW2 8527   3.401   5.080   1.302
 2805SOL     OW 8528   2.901   4.822   0.696
 2805SOL    HW1 8529   2.831   4.775   0.750
 2805SOL    HW2 8530   2.960   4.754   0.653
 2806SOL     OW 8531   2.876   3.960   0.971
 2806SOL    HW1 8532   2.868   3.924   0.878
 2806SOL    HW2 8533   2.874   3.884   1.036
 2807SOL     OW 8534   3.571   4.109   1.381
 2807SOL    HW1 8535   3.644   4.178   1.385
 2807SOL    HW2 8536   3.599   4.034   1.322
 2808SOL     OW 8537   1.967   4.737   1.726
 2808SOL    HW1 8538   1.890   4.704   1.780
 2808SOL    HW2 8539   2.052   4.707   1.768
 2809SOL     OW 8540   2.534   3.927   1.489
 2809SOL    HW1 8541   2.624   3.911   1.449
 2809SOL    HW2 8542   2.542   3.932   1.588
 2810SOL     OW 8543   3.302   4.580   1.398
 2810SOL    HW1 8544   3.245   4.632   1.335
 2810SOL    HW2 8545   3.398   4.592   1.374
 2811SOL     OW 8546   1.934   3.890   0.318
 2811SOL    HW1 8547   1.917   3.973   0.264
 2811SOL    HW2 8548   2.024   3.853   0.296
 2812SOL     OW 8549   2.475   4.566   1.431
 2812SOL    HW1 8550   2.531   4.647   1.414
 2812SOL    HW2 8551   2.534   4.486   1.434
 2813SOL     OW 8552   2.578   4.289   1.708
 2813SOL    HW1 8553   2.597   4.354   1.782
 2813SOL    HW2 8554   2.638   4.209   1.717
 2814SOL     OW 8555   3.312   4.944   1.633
 2814SOL    HW1 8556   3.303   4.934   1.732
 2814SOL    HW2 8557   3.408   4.937   1.607
 2815SOL     OW 8558   3.536   4.607   1.254
 2815SOL    HW1 8559   3.509   4.518   1.217
 2815SOL    HW2 8560   3.537   4.675   1.181
 2816SOL     OW 8561   3.087   4.049   0.449
 2816SOL    HW1 8562   3.152   3.975   0.438
 2816SOL    HW2 8563   3.107   4.099   0.533
 2817SOL     OW 8564   2.456   4.469   0.652
 2817SOL    HW1 8565   2.506   4.554   0.633
 2817SOL    HW2 8566   2.368   4.471   0.604
 2818SOL     OW 8567   3.639   4.066   1.642
 2818SOL    HW1 8568   3.622   4.097   1.548
 2818SOL    HW2 8569   3.555   4.029   1.680
 2819SOL     OW 8570   3.592   4.658   1.517
 2819SOL    HW1 8571   3.630   4.749   1.532
 2819SOL    HW2 8572   3.584   4.641   1.418
 2820SOL     OW 8573   2.721   4.680   0.861
 2820SOL    HW1 8574   2.775   4.611   0.909
 2820SOL    HW2 8575   2.689   4.749   0.927
 2821SOL     OW 8576   2.945   4.708   0.087
 2821SOL    HW1 8577   2.922   4.761   0.005
 2821SOL    HW2 8578   3.026   4.652   0.068
 2822SOL     OW 8579   1.941   4.964   0.653
 2822SOL    HW1 8580   1.940   4.917   0.741
 2822SOL    HW2 8581   2.023   4.936   0.602
 2823SOL     OW 8582   3.686   3.916   1.227
 2823SOL    HW1 8583   3.682   3.826   1.271
 2823SOL    HW2 8584   3.689   3.905   1.128
 2824SOL     OW 8585   2.290   4.148   0.520
 2824SOL    HW1 8586   2.320   4.076   0.458
 2824SOL    HW2 8587   2.251   4.108   0.603
 2825SOL     OW 8588   2.179   4.271   1.280
 2825SOL    HW1 8589   2.217   4.212   1.352
 2825SOL    HW2 8590   2.219   4.245   1.192
 2826SOL     OW 8591   3.286   3.938   1.112
 2826SOL    HW1 8592   3.338   3.873   1.167
 2826SOL    HW2 8593   3.237   4.001   1.173
 2827SOL     OW 8594   2.863   3.758   1.154
 2827SOL    HW1 8595   2.800   3.686   1.123
 2827SOL    HW2 8596   2.956   3.722   1.154
 2828SOL     OW 8597   2.632   5.054   0.301
 2828SOL    HW1 8598   2.586   4.967   0.318
 2828SOL    HW2 8599   2.723   5.051   0.342
 2829SOL     OW 8600   3.214   3.776   0.168
 2829SOL    HW1 8601   3.249   3.735   0.084
 2829SOL    HW2 8602   3.124   3.738   0.188
 2830SOL     OW 8603   3.162   4.177   0.691
 2830SOL    HW1 8604   3.103   4.257   0.695
 2830SOL    HW2 8605   3.177   4.142   0.784
 2831SOL     OW 8606   3.455   3.945   0.882
 2831SOL    HW1 8607   3.371   3.944   0.936
 2831SOL    HW2 8608   3.457   4.028   0.826
 2832SOL     OW 8609   1.901   4.801   0.300
 2832SOL    HW1 8610   2.000   4.790   0.291
 2832SOL    HW2 8611   1.861   4.715   0.332
 2833SOL     OW 8612   2.092   4.352   1.975
 2833SOL    HW1 8613   1.999   4.350   2.012
 2833SOL    HW2 8614   2.093   4.313   1.883
 2834SOL     OW 8615   2.087   3.999   2.858
 2834SOL    HW1 8616   2.122   3.982   2.950
 2834SOL    HW2 8617   1.999   3.954   2.846
 2835SOL     OW 8618   2.431   4.999   3.027
 2835SOL    HW1 8619   2.338   4.992   2.990
 2835SOL    HW2 8620   2.442   5.088   3.071
 2836SOL     OW 8621   3.417   5.235   2.565
 2836SOL    HW1 8622   3.360   5.219   2.646
 2836SOL    HW2 8623   3.358   5.245   2.485
 2837SOL     OW 8624   2.997   4.427   2.579
 2837SOL    HW1 8625   3.054   4.505   2.554
 2837SOL    HW2 8626   2.937   4.453   2.655
 2838SOL     OW 8627   3.617   4.331   2.093
 2838SOL    HW1 8628   3.605   4.318   1.994
 2838SOL    HW2 8629   3.587   4.250   2.142
 2839SOL     OW 8630   2.630   4.868   2.885
 2839SOL    HW1 8631   2.552   4.885   2.945
 2839SOL    HW2 8632   2.664   4.955   2.849
 2840SOL     OW 8633   2.712   4.522   3.685
 2840SOL    HW1 8634   2.708   4.598   3.750
 2840SOL    HW2 8635   2.734   4.558   3.594
 2841SOL     OW 8636   2.547   4.736   2.527
 2841SOL    HW1 8637   2.616   4.720   2.597
 2841SOL    HW2 8638   2.474   4.793   2.565
 2842SOL     OW 8639   2.548   4.885   3.665
 2842SOL    HW1 8640   2.608   4.964   3.679
 2842SOL    HW2 8641   2.462   4.916   3.624
 2843SOL     OW 8642   2.197   5.159   2.923
 2843SOL    HW1 8643   2.119   5.128   2.870
 2843SOL    HW2 8644   2.255   5.217   2.866
 2844SOL     OW 8645   3.465   4.171   2.599
 2844SOL    HW1 8646   3.391   4.217   2.549
 2844SOL    HW2 8647   3.516   4.239   2.652
 2845SOL     OW 8648   2.102   4.815   2.748
 2845SOL    HW1 8649   2.116   4.731   2.800
 2845SOL    HW2 8650   2.047   4.879   2.803
 2846SOL     OW 8651   2.468   4.688   1.985
 2846SOL    HW1 8652   2.475   4.772   1.931
 2846SOL    HW2 8653   2.514   4.701   2.073
 2847SOL     OW 8654   3.456   3.838   3.342
 2847SOL    HW1 8655   3.438   3.905   3.270
 2847SOL    HW2 8656   3.453   3.884   3.431
 2848SOL     OW 8657   1.984   4.367   2.425
 2848SOL    HW1 8658   1.939   4.279   2.442
 2848SOL    HW2 8659   1.983   4.421   2.509
 2849SOL     OW 8660   3.551   4.646   2.474
 2849SOL    HW1 8661   3.646   4.617   2.482
 2849SOL    HW2 8662   3.543   4.711   2.399
 2850SOL     OW 8663   3.503   4.832   2.294
 2850SOL    HW1 8664   3.589   4.834   2.242
 2850SOL    HW2 8665   3.517   4.879   2.382
 2851SOL     OW 8666   1.975   4.461   3.459
 2851SOL    HW1 8667   2.063   4.448   3.504
 2851SOL    HW2 8668   1.962   4.558   3.437
 2852SOL     OW 8669   3.155   4.952   3.285
 2852SOL    HW1 8670   3.192   4.879   3.227
 2852SOL    HW2 8671   3.207   4.957   3.370
 2853SOL     OW 8672   2.671   3.728   2.364
 2853SOL    HW1 8673   2.711   3.819   2.355
 2853SOL    HW2 8674   2.571   3.736   2.370
 2854SOL     OW 8675   2.059   4.700   3.126
 2854SOL    HW1 8676   2.148   4.655   3.112
 2854SOL    HW2 8677   1.986   4.635   3.107
 2855SOL     OW 8678   3.387   4.723   2.052
 2855SOL    HW1 8679   3.324   4.647   2.065
 2855SOL    HW2 8680   3.435   4.741   2.138
 2856SOL     OW 8681   2.179   3.975   3.663
 2856SOL    HW1 8682   2.250   4.046   3.669
 2856SOL    HW2 8683   2.091   4.014   3.691
 2857SOL     OW 8684   3.328   5.141   2.815
 2857SOL    HW1 8685   3.269   5.147   2.895
 2857SOL    HW2 8686   3.313   5.053   2.769
 2858SOL     OW 8687   2.460   4.453   2.132
 2858SOL    HW1 8688   2.484   4.522   2.064
 2858SOL    HW2 8689   2.382   4.486   2.186
 2859SOL     OW 8690   3.143   4.069   2.806
 2859SOL    HW1 8691   3.057   4.019   2.793
 2859SOL    HW2 8692   3.205   4.015   2.862
 2860SOL     OW 8693   2.669   4.329   3.327
 2860SOL    HW1 8694   2.622   4.326   3.416
 2860SOL    HW2 8695   2.618   4.274   3.261
 2861SOL     OW 8696   3.256   4.193   3.536
 2861SOL    HW1 8697   3.236   4.236   3.624
 2861SOL    HW2 8698   3.334   4.131   3.545
 2862SOL     OW 8699   2.835   4.614   3.434
 2862SOL    HW1 8700   2.881   4.530   3.405
 2862SOL    HW2 8701   2.779   4.648   3.359
 2863SOL     OW 8702   2.853   4.134   3.104
 2863SOL    HW1 8703   2.776   4.168   3.158
 2863SOL    HW2 8704   2.819   4.083   3.025
 2864SOL     OW 8705   2.903   4.425   2.291
 2864SOL    HW1 8706   2.929   4.421   2.387
 2864SOL    HW2 8707   2.818   4.374   2.277
 2865SOL     OW 8708   2.727   4.072   2.057
 2865SOL    HW1 8709   2.786   4.135   2.008
 2865SOL    HW2 8710   2.746   3.978   2.028
 2866SOL     OW 8711   3.581   4.309   3.693
 2866SOL    HW1 8712   3.555   4.398   3.657
 2866SOL    HW2 8713   3.579   4.241   3.620
 2867SOL     OW 8714   3.224   4.868   2.407
 2867SOL    HW1 8715   3.307   4.839   2.359
 2867SOL    HW2 8716   3.175   4.935   2.351
 2868SOL     OW 8717   2.412   3.920   2.747
 2868SOL    HW1 8718   2.407   3.915   2.847
 2868SOL    HW2 8719   2.414   4.016   2.718
 2869SOL     OW 8720   3.657   4.790   2.735
 2869SOL    HW1 8721   3.595   4.775   2.659
 2869SOL    HW2 8722   3.605   4.801   2.820
 2870SOL     OW 8723   2.183   4.667   2.104
 2870SOL    HW1 8724   2.265   4.706   2.062
 2870SOL    HW2 8725   2.156   4.585   2.055
 2871SOL     OW 8726   3.320   4.459   2.590
 2871SOL    HW1 8727   3.315   4.394   2.665
 2871SOL    HW2 8728   3.400   4.518   2.603
 2872SOL     OW 8729   3.494   5.101   1.943
 2872SOL    HW1 8730   3.462   5.195   1.933
 2872SOL    HW2 8731   3.418   5.038   1.931
 2873SOL     OW 8732   3.262   3.831   2.288
 2873SOL    HW1 8733   3.238   3.794   2.198
 2873SOL    HW2 8734   3.361   3.847   2.292
 2874SOL     OW 8735   2.244   4.424   2.342
 2874SOL    HW1 8736   2.289   4.334   2.339
 2874SOL    HW2 8737   2.150   4.413   2.375
 2875SOL     OW 8738   3.409   3.946   3.591
 2875SOL    HW1 8739   3.404   3.983   3.683
 2875SOL    HW2 8740   3.337   3.877   3.579
 2876SOL     OW 8741   2.476   3.846   1.979
 2876SOL    HW1 8742   2.574   3.824   1.986
 2876SOL    HW2 8743   2.445   3.829   1.886
 2877SOL     OW 8744   2.643   3.988   3.611
 2877SOL    HW1 8745   2.710   3.927   3.654
 2877SOL    HW2 8746   2.570   4.007   3.676
 2878SOL     OW 8747   3.213   4.314   3.295
 2878SOL    HW1 8748   3.241   4.271   3.380
 2878SOL    HW2 8749   3.238   4.410   3.296
 2879SOL     OW 8750   2.665   5.126   2.786
 2879SOL    HW1 8751   2.755   5.140   2.744
 2879SOL    HW2 8752   2.594   5.128   2.715
 2880SOL     OW 8753   2.784   4.227   2.761
 2880SOL    HW1 8754   2.759   4.218   2.665
 2880SOL    HW2 8755   2.832   4.145   2.792
 2881SOL     OW 8756   2.401   3.788   2.374
 2881SOL    HW1 8757   2.320   3.789   2.432
 2881SOL    HW2 8758   2.404   3.871   2.319
 2882SOL     OW 8759   3.296   4.912   1.903
 2882SOL    HW1 8760   3.328   4.836   1.960
 2882SOL    HW2 8761   3.204   4.939   1.933
 2883SOL     OW 8762   2.159   3.759   2.033
 2883SOL    HW1 8763   2.208   3.843   2.012
 2883SOL    HW2 8764   2.221   3.694   2.078
 2884SOL     OW 8765   2.797   3.960   2.342
 2884SOL    HW1 8766   2.749   4.001   2.264
 2884SOL    HW2 8767   2.896   3.958   2.323
 2885SOL     OW 8768   2.938   4.407   3.326
 2885SOL    HW1 8769   2.858   4.346   3.329
 2885SOL    HW2 8770   3.019   4.354   3.302
 2886SOL     OW 8771   3.089   5.294   2.655
 2886SOL    HW1 8772   3.110   5.368   2.590
 2886SOL    HW2 8773   3.157   5.294   2.728
 2887SOL     OW 8774   2.321   4.876   2.603
 2887SOL    HW1 8775   2.250   4.849   2.668
 2887SOL    HW2 8776   2.295   4.848   2.510
 2888SOL     OW 8777   2.894   4.273   1.878
 2888SOL    HW1 8778   2.853   4.355   1.839
 2888SOL    HW2 8779   2.958   4.299   1.951
 2889SOL     OW 8780   2.423   3.946   3.009
 2889SOL    HW1 8781   2.461   3.862   3.046
 2889SOL    HW2 8782   2.335   3.965   3.053
 2890SOL     OW 8783   2.728   4.178   2.504
 2890SOL    HW1 8784   2.696   4.250   2.442
 2890SOL    HW2 8785   2.752   4.097   2.451
 2891SOL     OW 8786   2.879   3.763   2.615
 2891SOL    HW1 8787   2.807   3.768   2.546
 2891SOL    HW2 8788   2.855   3.694   2.684
 2892SOL     OW 8789   3.291   4.897   2.729
 2892SOL    HW1 8790   3.236   4.813   2.722
 2892SOL    HW2 8791   3.317   4.926   2.637
 2893SOL     OW 8792   3.328   4.314   2.854
 2893SOL    HW1 8793   3.298   4.219   2.861
 2893SOL    HW2 8794   3.401   4.330   2.920
 2894SOL     OW 8795   3.719   4.557   2.239
 2894SOL    HW1 8796   3.761   4.493   2.303
 2894SOL    HW2 8797   3.681   4.506   2.161
 2895SOL     OW 8798   3.526   5.004   2.519
 2895SOL    HW1 8799   3.625   5.012   2.533
 2895SOL    HW2 8800   3.481   5.088   2.550
 2896SOL     OW 8801   3.252   4.299   1.940
 2896SOL    HW1 8802   3.198   4.278   2.021
 2896SOL    HW2 8803   3.343   4.258   1.949
 2897SOL     OW 8804   2.389   3.980   2.190
 2897SOL    HW1 8805   2.416   3.921   2.115
 2897SOL    HW2 8806   2.389   4.075   2.159
 2898SOL     OW 8807   3.616   4.947   3.450
 2898SOL    HW1 8808   3.707   4.908   3.437
 2898SOL    HW2 8809   3.624   5.043   3.474
 2899SOL     OW 8810   3.500   4.823   2.941
 2899SOL    HW1 8811   3.505   4.904   3.000
 2899SOL    HW2 8812   3.414   4.825   2.890
 2900SOL     OW 8813   2.777   3.813   3.264
 2900SOL    HW1 8814   2.802   3.793   3.169
 2900SOL    HW2 8815   2.849   3.869   3.306
 2901SOL     OW 8816   2.842   4.840   3.581
 2901SOL    HW1 8817   2.743   4.846   3.591
 2901SOL    HW2 8818   2.865   4.760   3.525
 2902SOL     OW 8819   2.567   4.774   2.230
 2902SOL    HW1 8820   2.553   4.781   2.329
 2902SOL    HW2 8821   2.651   4.723   2.212
 2903SOL     OW 8822   2.272   4.537   3.113
 2903SOL    HW1 8823   2.358   4.549   3.163
 2903SOL    HW2 8824   2.230   4.450   3.140
 2904SOL     OW 8825   3.136   4.110   3.124
 2904SOL    HW1 8826   3.157   4.184   3.188
 2904SOL    HW2 8827   3.047   4.127   3.081
 2905SOL     OW 8828   2.229   4.824   2.363
 2905SOL    HW1 8829   2.222   4.907   2.307
 2905SOL    HW2 8830   2.233   4.744   2.303
 2906SOL     OW 8831   2.428   4.261   2.727
 2906SOL    HW1 8832   2.440   4.327   2.653
 2906SOL    HW2 8833   2.474   4.295   2.810
 2907SOL     OW 8834   3.444   4.363   2.334
 2907SOL    HW1 8835   3.413   4.424   2.407
 2907SOL    HW2 8836   3.494   4.415   2.265
 2908SOL     OW 8837   2.264   4.475   3.460
 2908SOL    HW1 8838   2.332   4.530   3.413
 2908SOL    HW2 8839   2.304   4.387   3.487
 2909SOL     OW 8840   3.449   4.503   3.532
 2909SOL    HW1 8841   3.357   4.541   3.527
 2909SOL    HW2 8842   3.509   4.550   3.467
 2910SOL     OW 8843   2.875   3.829   3.632
 2910SOL    HW1 8844   2.881   3.914   3.580
 2910SOL    HW2 8845   2.907   3.753   3.575
 2911SOL     OW 8846   2.366   3.774   3.602
 2911SOL    HW1 8847   2.324   3.717   3.532
 2911SOL    HW2 8848   2.300   3.843   3.634
 2912SOL     OW 8849   2.435   4.594   2.891
 2912SOL    HW1 8850   2.479   4.683   2.882
 2912SOL    HW2 8851   2.372   4.594   2.968
 2913SOL     OW 8852   3.222   4.586   2.907
 2913SOL    HW1 8853   3.147   4.586   2.841
 2913SOL    HW2 8854   3.259   4.494   2.916
 2914SOL     OW 8855   3.071   4.249   2.137
 2914SOL    HW1 8856   3.084   4.165   2.191
 2914SOL    HW2 8857   3.042   4.323   2.197
 2915SOL     OW 8858   2.169   3.937   3.093
 2915SOL    HW1 8859   2.146   3.974   3.183
 2915SOL    HW2 8860   2.139   3.842   3.087
 2916SOL     OW 8861   2.594   4.358   2.926
 2916SOL    HW1 8862   2.653   4.332   2.850
 2916SOL    HW2 8863   2.566   4.454   2.915
 2917SOL     OW 8864   3.590   4.659   3.716
 2917SOL    HW1 8865   3.544   4.652   3.627
 2917SOL    HW2 8866   3.528   4.703   3.782
 2918SOL     OW 8867   2.169   3.787   2.480
 2918SOL    HW1 8868   2.158   3.881   2.513
 2918SOL    HW2 8869   2.164   3.724   2.557
 2919SOL     OW 8870   3.484   4.091   2.236
 2919SOL    HW1 8871   3.486   4.015   2.300
 2919SOL    HW2 8872   3.436   4.168   2.276
 2920SOL     OW 8873   2.885   4.490   2.828
 2920SOL    HW1 8874   2.900   4.511   2.924
 2920SOL    HW2 8875   2.855   4.395   2.819
 2921SOL     OW 8876   3.721   5.242   3.467
 2921SOL    HW1 8877   3.735   5.269   3.372
 2921SOL    HW2 8878   3.804   5.264   3.520
 2922SOL     OW 8879   2.212   4.622   3.666
 2922SOL    HW1 8880   2.288   4.666   3.714
 2922SOL    HW2 8881   2.247   4.575   3.584
 2923SOL     OW 8882   3.402   3.998   1.987
 2923SOL    HW1 8883   3.341   3.923   2.010
 2923SOL    HW2 8884   3.424   4.050   2.070
 2924SOL     OW 8885   3.165   4.562   1.904
 2924SOL    HW1 8886   3.199   4.469   1.919
 2924SOL    HW2 8887   3.183   4.589   1.809
 2925SOL     OW 8888   2.181   4.534   2.811
 2925SOL    HW1 8889   2.274   4.570   2.816
 2925SOL    HW2 8890   2.175   4.449   2.863
 2926SOL     OW 8891   3.000   4.104   3.540
 2926SOL    HW1 8892   2.955   4.167   3.604
 2926SOL    HW2 8893   3.093   4.135   3.523
 2927SOL     OW 8894   3.022   3.931   3.339
 2927SOL    HW1 8895   3.022   3.995   3.416
 2927SOL    HW2 8896   3.050   3.979   3.256
 2928SOL     OW 8897   1.870   5.050   2.062
 2928SOL    HW1 8898   1.777   5.071   2.031
 2928SOL    HW2 8899   1.880   4.951   2.075
 2929SOL     OW 8900   2.864   4.520   3.100
 2929SOL    HW1 8901   2.905   4.488   3.186
 2929SOL    HW2 8902   2.768   4.493   3.097
 2930SOL     OW 8903   2.051   4.244   3.584
 2930SOL    HW1 8904   2.110   4.204   3.514
 2930SOL    HW2 8905   1.993   4.315   3.543
 2931SOL     OW 8906   3.231   4.674   3.522
 2931SOL    HW1 8907   3.270   4.763   3.542
 2931SOL    HW2 8908   3.241   4.654   3.425
 2932SOL     OW 8909   2.677   4.296   2.187
 2932SOL    HW1 8910   2.684   4.207   2.141
 2932SOL    HW2 8911   2.583   4.330   2.179
 2933SOL     OW 8912   3.519   4.328   3.068
 2933SOL    HW1 8913   3.481   4.259   3.130
 2933SOL    HW2 8914   3.601   4.292   3.024
 2934SOL     OW 8915   2.533   4.188   3.131
 2934SOL    HW1 8916   2.499   4.099   3.101
 2934SOL    HW2 8917   2.559   4.242   3.051
 2935SOL     OW 8918   2.335   4.224   2.053
 2935SOL    HW1 8919   2.396   4.304   2.057
 2935SOL    HW2 8920   2.240   4.255   2.060
 2936SOL     OW 8921   2.021   4.861   3.328
 2936SOL    HW1 8922   2.043   4.800   3.404
 2936SOL    HW2 8923   2.031   4.812   3.242
 2937SOL     OW 8924   3.209   4.783   3.096
 2937SOL    HW1 8925   3.233   4.720   3.022
 2937SOL    HW2 8926   3.119   4.823   3.078
 2938SOL     OW 8927   3.164   4.579   2.171
 2938SOL    HW1 8928   3.078   4.548   2.213
 2938SOL    HW2 8929   3.160   4.565   2.072
 2939SOL     OW 8930   1.945   4.982   2.884
 2939SOL    HW1 8931   1.940   4.981   2.984
 2939SOL    HW2 8932   1.862   4.941   2.846
 2940SOL     OW 8933   3.588   3.859   2.385
 2940SOL    HW1 8934   3.661   3.842   2.318
 2940SOL    HW2 8935   3.557   3.772   2.423
 2941SOL     OW 8936   3.142   4.651   2.534
 2941SOL    HW1 8937   3.202   4.570   2.536
 2941SOL    HW2 8938   3.182   4.720   2.474
 2942SOL     OW 8939   2.692   4.997   3.284
 2942SOL    HW1 8940   2.687   5.030   3.379
 2942SOL    HW2 8941   2.606   5.016   3.238
 2943SOL     OW 8942   3.703   3.899   2.825
 2943SOL    HW1 8943   3.742   3.814   2.789
 2943SOL    HW2 8944   3.605   3.901   2.806
 2944SOL     OW 8945   3.056   5.336   1.893
 2944SOL    HW1 8946   3.062   5.243   1.930
 2944SOL    HW2 8947   2.997   5.336   1.813
 2945SOL     OW 8948   2.684   4.726   3.234
 2945SOL    HW1 8949   2.724   4.725   3.142
 2945SOL    HW2 8950   2.694   4.818   3.274
 2946SOL     OW 8951   2.778   4.634   2.153
 2946SOL    HW1 8952   2.841   4.672   2.085
 2946SOL    HW2 8953   2.818   4.551   2.192
 2947SOL     OW 8954   2.234   5.012   3.352
 2947SOL    HW1 8955   2.221   5.105   3.318
 2947SOL    HW2 8956   2.150   4.960   3.339
 2948SOL     OW 8957   3.476   5.016   3.151
 2948SOL    HW1 8958   3.536   5.019   3.231
 2948SOL    HW2 8959   3.401   5.080   3.164
 2949SOL     OW 8960   2.901   4.822   2.558
 2949SOL    HW1 8961   2.831   4.775   2.612
 2949SOL    HW2 8962   2.960   4.754   2.515
 2950SOL     OW 8963   2.876   3.960   2.833
 2950SOL    HW1 8964   2.868   3.924   2.740
 2950SOL    HW2 8965   2.874   3.884   2.898
 2951SOL     OW 8966   3.571   4.109   3.243
 2951SOL    HW1 8967   3.644   4.178   3.247
 2951SOL    HW2 8968   3.599   4.034   3.184
 2952SOL     OW 8969   1.967   4.737   3.588
 2952SOL    HW1 8970   1.890   4.704   3.642
 2952SOL    HW2 8971   2.052   4.707   3.630
 2953SOL     OW 8972   2.534   3.927   3.351
 2953SOL    HW1 8973   2.624   3.911   3.311
 2953SOL    HW2 8974   2.542   3.932   3.450
 2954SOL     OW 8975   1.937   4.069   1.895
 2954SOL    HW1 8976   1.845   4.041   1.866
 2954SOL    HW2 8977   1.968   4.146   1.839
 2955SOL     OW 8978   3.302   4.580   3.260
 2955SOL    HW1 8979   3.245   4.632   3.197
 2955SOL    HW2 8980   3.398   4.592   3.236
 2956SOL     OW 8981   1.934   3.890   2.180
 2956SOL    HW1 8982   1.917   3.973   2.126
 2956SOL    HW2 8983   2.024   3.853   2.158
 2957SOL     OW 8984   2.475   4.566   3.293
 2957SOL    HW1 8985   2.531   4.647   3.276
 2957SOL    HW2 8986   2.534   4.486   3.296
 2958SOL     OW 8987   2.578   4.289   3.570
 2958SOL    HW1 8988   2.597   4.354   3.644
 2958SOL    HW2 8989   2.638   4.209   3.579
 2959SOL     OW 8990   3.312   4.944   3.495
 2959SOL    HW1 8991   3.303   4.934   3.594
 2959SOL    HW2 8992   3.408   4.937   3.469
 2960SOL     OW 8993   3.536   4.607   3.116
 2960SOL    HW1 8994   3.509   4.518   3.079
 2960SOL    HW2 8995   3.537   4.675   3.043
 2961SOL     OW 8996   3.087   4.049   2.311
 2961SOL    HW1 8997   3.152   3.975   2.300
 2961SOL    HW2 8998   3.107   4.099   2.395
 2962SOL     OW 8999   2.456   4.469   2.514
 2962SOL    HW1 9000   2.506   4.554   2.495
 2962SOL    HW2 9001   2.368   4.471   2.466
 2963SOL     OW 9002   3.639   4.066   3.504
 2963SOL    HW1 9003   3.622   4.097   3.410
 2963SOL    HW2 9004   3.555   4.029   3.542
 2964SOL     OW 9005   3.592   4.658   3.379
 2964SOL    HW1 9006   3.630   4.749   3.394
 2964SOL    HW2 9007   3.584   4.641   3.280
 2965SOL     OW 9008   2.721   4.680   2.723
 2965SOL    HW1 9009   2.775   4.611   2.771
 2965SOL    HW2 9010   2.689   4.749   2.789
 2966SOL     OW 9011   2.945   4.708   1.949
 2966SOL    HW1 9012   2.922   4.761   1.867
 2966SOL    HW2 9013   3.026   4.652   1.930
 2967SOL     OW 9014   1.941   4.964   2.515
 2967SOL    HW1 9015   1.940   4.917   2.603
 2967SOL    HW2 9016   2.023   4.936   2.464
 2968SOL     OW 9017   3.686   3.916   3.089
 2968SOL    HW1 9018   3.682   3.826   3.133
 2968SOL    HW2 9019   3.689   3.905   2.990
 2969SOL     OW 9020   3.286   3.938   2.974
 2969SOL    HW1 9021   3.338   3.873   3.029
 2969SOL    HW2 9022   3.237   4.001   3.035
 2970SOL     OW 9023   2.863   3.758   3.016
 2970SOL    HW1 9024   2.800   3.686   2.985
 2970SOL    HW2 9025   2.956   3.722   3.016
 2971SOL     OW 9026   2.632   5.054   2.163
 2971SOL    HW1 9027   2.586   4.967   2.180
 2971SOL    HW2 9028   2.723   5.051   2.204
 2972SOL     OW 9029   3.214   3.776   2.030
 2972SOL    HW1 9030   3.249   3.735   1.946
 2972SOL    HW2 9031   3.124   3.738   2.050
 2973SOL     OW 9032   3.162   4.177   2.553
 2973SOL    HW1 9033   3.103   4.257   2.557
 2973SOL    HW2 9034   3.177   4.142   2.646
 2974SOL     OW 9035   3.455   3.945   2.744
 2974SOL    HW1 9036   3.371   3.944   2.798
 2974SOL    HW2 9037   3.457   4.028   2.688
 2975SOL     OW 9038   1.901   4.801   2.162
 2975SOL    HW1 9039   2.000   4.790   2.153
 2975SOL    HW2 9040   1.861   4.715   2.194
 2976SOL     OW 9041   2.092   4.352   3.837
 2976SOL    HW1 9042   1.999   4.350   3.874
 2976SOL    HW2 9043   2.093   4.313   3.745
 2977SOL     OW 9044   2.087   3.999   4.720
 2977SOL    HW1 9045   2.122   3.982   4.812
 2977SOL    HW2 9046   1.999   3.954   4.708
 2978SOL     OW 9047   1.881   4.092   4.371
 2978SOL    HW1 9048   1.799   4.135   4.410
 2978SOL    HW2 9049   1.853   4.019   4.308
 2979SOL     OW 9050   2.431   4.999   4.889
 2979SOL    HW1 9051   2.338   4.992   4.852
 2979SOL    HW2 9052   2.442   5.088   4.933
 2980SOL     OW 9053   3.417   5.235   4.427
 2980SOL    HW1 9054   3.360   5.219   4.508
 2980SOL    HW2 9055   3.358   5.245   4.347
 2981SOL     OW 9056   2.997   4.427   4.441
 2981SOL    HW1 9057   3.054   4.505   4.416
 2981SOL    HW2 9058   2.937   4.453   4.517
 2982SOL     OW 9059   3.617   4.331   3.955
 2982SOL    HW1 9060   3.605   4.318   3.856
 2982SOL    HW2 9061   3.587   4.250   4.004
 2983SOL     OW 9062   2.630   4.868   4.747
 2983SOL    HW1 9063   2.552   4.885   4.807
 2983SOL    HW2 9064   2.664   4.955   4.711
 2984SOL     OW 9065   2.547   4.736   4.389
 2984SOL    HW1 9066   2.616   4.720   4.459
 2984SOL    HW2 9067   2.474   4.793   4.427
 2985SOL     OW 9068   2.197   5.159   4.785
 2985SOL    HW1 9069   2.119   5.128   4.732
 2985SOL    HW2 9070   2.255   5.217   4.728
 2986SOL     OW 9071   3.465   4.171   4.461
 2986SOL    HW1 9072   3.391   4.217   4.411
 2986SOL    HW2 9073   3.516   4.239   4.514
 2987SOL     OW 9074   2.102   4.815   4.610
 2987SOL    HW1 9075   2.116   4.731   4.662
 2987SOL    HW2 9076   2.047   4.879   4.665
 2988SOL     OW 9077   2.468   4.688   3.847
 2988SOL    HW1 9078   2.475   4.772   3.793
 2988SOL    HW2 9079   2.514   4.701   3.935
 2989SOL     OW 9080   1.984   4.367   4.287
 2989SOL    HW1 9081   1.939   4.279   4.304
 2989SOL    HW2 9082   1.983   4.421   4.371
 2990SOL     OW 9083   3.551   4.646   4.336
 2990SOL    HW1 9084   3.646   4.617   4.344
 2990SOL    HW2 9085   3.543   4.711   4.261
 2991SOL     OW 9086   3.503   4.832   4.156
 2991SOL    HW1 9087   3.589   4.834   4.104
 2991SOL    HW2 9088   3.517   4.879   4.244
 2992SOL     OW 9089   2.671   3.728   4.226
 2992SOL    HW1 9090   2.711   3.819   4.217
 2992SOL    HW2 9091   2.571   3.736   4.232
 2993SOL     OW 9092   2.059   4.700   4.988
 2993SOL    HW1 9093   2.148   4.655   4.974
 2993SOL    HW2 9094   1.986   4.635   4.969
 2994SOL     OW 9095   3.387   4.723   3.914
 2994SOL    HW1 9096   3.324   4.647   3.927
 2994SOL    HW2 9097   3.435   4.741   4.000
 2995SOL     OW 9098   3.328   5.141   4.677
 2995SOL    HW1 9099   3.269   5.147   4.757
 2995SOL    HW2 9100   3.313   5.053   4.631
 2996SOL     OW 9101   2.460   4.453   3.994
 2996SOL    HW1 9102   2.484   4.522   3.926
 2996SOL    HW2 9103   2.382   4.486   4.048
 2997SOL     OW 9104   3.143   4.069   4.668
 2997SOL    HW1 9105   3.057   4.019   4.655
 2997SOL    HW2 9106   3.205   4.015   4.724
 2998SOL     OW 9107   2.853   4.134   4.966
 2998SOL    HW1 9108   2.776   4.168   5.020
 2998SOL    HW2 9109   2.819   4.083   4.887
 2999SOL     OW 9110   2.903   4.425   4.153
 2999SOL    HW1 9111   2.929   4.421   4.249
 2999SOL    HW2 9112   2.818   4.374   4.139
 3000SOL     OW 9113   1.938   4.535   4.513
 3000SOL    HW1 9114   2.037   4.523   4.522
 3000SOL    HW2 9115   1.914   4.630   4.534
 3001SOL     OW 9116   2.727   4.072   3.919
 3001SOL    HW1 9117   2.786   4.135   3.870
 3001SOL    HW2 9118   2.746   3.978   3.890
 3002SOL     OW 9119   3.224   4.868   4.269
 3002SOL    HW1 9120   3.307   4.839   4.221
 3002SOL    HW2 9121   3.175   4.935   4.213
 3003SOL     OW 9122   2.412   3.920   4.609
 3003SOL    HW1 9123   2.407   3.915   4.709
 3003SOL    HW2 9124   2.414   4.016   4.580
 3004SOL     OW 9125   3.657   4.790   4.597
 3004SOL    HW1 9126   3.595   4.775   4.521
 3004SOL    HW2 9127   3.605   4.801   4.682
 3005SOL     OW 9128   2.183   4.667   3.966
 3005SOL    HW1 9129   2.265   4.706   3.924
 3005SOL    HW2 9130   2.156   4.585   3.917
 3006SOL     OW 9131   3.320   4.459   4.452
 3006SOL    HW1 9132   3.315   4.394   4.527
 3006SOL    HW2 9133   3.400   4.518   4.465
 3007SOL     OW 9134   3.494   5.101   3.805
 3007SOL    HW1 9135   3.462   5.195   3.795
 3007SOL    HW2 9136   3.418   5.038   3.793
 3008SOL     OW 9137   3.262   3.831   4.150
 3008SOL    HW1 9138   3.238   3.794   4.060
 3008SOL    HW2 9139   3.361   3.847   4.154
 3009SOL     OW 9140   2.244   4.424   4.204
 3009SOL    HW1 9141   2.289   4.334   4.201
 3009SOL    HW2 9142   2.150   4.413   4.237
 3010SOL     OW 9143   2.476   3.846   3.841
 3010SOL    HW1 9144   2.574   3.824   3.848
 3010SOL    HW2 9145   2.445   3.829   3.748
 3011SOL     OW 9146   2.665   5.126   4.648
 3011SOL    HW1 9147   2.755   5.140   4.606
 3011SOL    HW2 9148   2.594   5.128   4.577
 3012SOL     OW 9149   2.784   4.227   4.623
 3012SOL    HW1 9150   2.759   4.218   4.527
 3012SOL    HW2 9151   2.832   4.145   4.654
 3013SOL     OW 9152   2.401   3.788   4.236
 3013SOL    HW1 9153   2.320   3.789   4.294
 3013SOL    HW2 9154   2.404   3.871   4.181
 3014SOL     OW 9155   3.296   4.912   3.765
 3014SOL    HW1 9156   3.328   4.836   3.822
 3014SOL    HW2 9157   3.204   4.939   3.795
 3015SOL     OW 9158   2.159   3.759   3.895
 3015SOL    HW1 9159   2.208   3.843   3.874
 3015SOL    HW2 9160   2.221   3.694   3.940
 3016SOL     OW 9161   2.797   3.960   4.204
 3016SOL    HW1 9162   2.749   4.001   4.126
 3016SOL    HW2 9163   2.896   3.958   4.185
 3017SOL     OW 9164   3.089   5.294   4.517
 3017SOL    HW1 9165   3.110   5.368   4.452
 3017SOL    HW2 9166   3.157   5.294   4.590
 3018SOL     OW 9167   2.321   4.876   4.465
 3018SOL    HW1 9168   2.250   4.849   4.530
 3018SOL    HW2 9169   2.295   4.848   4.372
 3019SOL     OW 9170   2.894   4.273   3.740
 3019SOL    HW1 9171   2.853   4.355   3.701
 3019SOL    HW2 9172   2.958   4.299   3.813
 3020SOL     OW 9173   2.423   3.946   4.871
 3020SOL    HW1 9174   2.461   3.862   4.908
 3020SOL    HW2 9175   2.335   3.965   4.915
 3021SOL     OW 9176   2.728   4.178   4.366
 3021SOL    HW1 9177   2.696   4.250   4.304
 3021SOL    HW2 9178   2.752   4.097   4.313
 3022SOL     OW 9179   2.879   3.763   4.477
 3022SOL    HW1 9180   2.807   3.768   4.408
 3022SOL    HW2 9181   2.855   3.694   4.546
 3023SOL     OW 9182   3.291   4.897   4.591
 3023SOL    HW1 9183   3.236   4.813   4.584
 3023SOL    HW2 9184   3.317   4.926   4.499
 3024SOL     OW 9185   3.328   4.314   4.716
 3024SOL    HW1 9186   3.298   4.219   4.723
 3024SOL    HW2 9187   3.401   4.330   4.782
 3025SOL     OW 9188   3.719   4.557   4.101
 3025SOL    HW1 9189   3.761   4.493   4.165
 3025SOL    HW2 9190   3.681   4.506   4.023
 3026SOL     OW 9191   3.526   5.004   4.381
 3026SOL    HW1 9192   3.625   5.012   4.395
 3026SOL    HW2 9193   3.481   5.088   4.412
 3027SOL     OW 9194   3.252   4.299   3.802
 3027SOL    HW1 9195   3.198   4.278   3.883
 3027SOL    HW2 9196   3.343   4.258   3.811
 3028SOL     OW 9197   2.389   3.980   4.052
 3028SOL    HW1 9198   2.416   3.921   3.977
 3028SOL    HW2 9199   2.389   4.075   4.021
 3029SOL     OW 9200   3.500   4.823   4.803
 3029SOL    HW1 9201   3.505   4.904   4.862
 3029SOL    HW2 9202   3.414   4.825   4.752
 3030SOL     OW 9203   2.567   4.774   4.092
 3030SOL    HW1 9204   2.553   4.781   4.191
 3030SOL    HW2 9205   2.651   4.723   4.074
 3031SOL     OW 9206   2.272   4.537   4.975
 3031SOL    HW1 9207   2.358   4.549   5.025
 3031SOL    HW2 9208   2.230   4.450   5.002
 3032SOL     OW 9209   3.136   4.110   4.986
 3032SOL    HW1 9210   3.157   4.184   5.050
 3032SOL    HW2 9211   3.047   4.127   4.943
 3033SOL     OW 9212   2.229   4.824   4.225
 3033SOL    HW1 9213   2.222   4.907   4.169
 3033SOL    HW2 9214   2.233   4.744   4.165
 3034SOL     OW 9215   2.428   4.261   4.589
 3034SOL    HW1 9216   2.440   4.327   4.515
 3034SOL    HW2 9217   2.474   4.295   4.672
 3035SOL     OW 9218   3.444   4.363   4.196
 3035SOL    HW1 9219   3.413   4.424   4.269
 3035SOL    HW2 9220   3.494   4.415   4.127
 3036SOL     OW 9221   2.435   4.594   4.753
 3036SOL    HW1 9222   2.479   4.683   4.744
 3036SOL    HW2 9223   2.372   4.594   4.830
 3037SOL     OW 9224   3.222   4.586   4.769
 3037SOL    HW1 9225   3.147   4.586   4.703
 3037SOL    HW2 9226   3.259   4.494   4.778
 3038SOL     OW 9227   3.071   4.249   3.999
 3038SOL    HW1 9228   3.084   4.165   4.053
 3038SOL    HW2 9229   3.042   4.323   4.059
 3039SOL     OW 9230   2.169   3.937   4.955
 3039SOL    HW1 9231   2.146   3.974   5.045
 3039SOL    HW2 9232   2.139   3.842   4.949
 3040SOL     OW 9233   2.594   4.358   4.788
 3040SOL    HW1 9234   2.653   4.332   4.712
 3040SOL    HW2 9235   2.566   4.454   4.777
 3041SOL     OW 9236   2.169   3.787   4.342
 3041SOL    HW1 9237   2.158   3.881   4.375
 3041SOL    HW2 9238   2.164   3.724   4.419
 3042SOL     OW 9239   3.484   4.091   4.098
 3042SOL    HW1 9240   3.486   4.015   4.162
 3042SOL    HW2 9241   3.436   4.168   4.138
 3043SOL     OW 9242   2.885   4.490   4.690
 3043SOL    HW1 9243   2.900   4.511   4.786
 3043SOL    HW2 9244   2.855   4.395   4.681
 3044SOL     OW 9245   3.402   3.998   3.849
 3044SOL    HW1 9246   3.341   3.923   3.872
 3044SOL    HW2 9247   3.424   4.050   3.932
 3045SOL     OW 9248   3.165   4.562   3.766
 3045SOL    HW1 9249   3.199   4.469   3.781
 3045SOL    HW2 9250   3.183   4.589   3.671
 3046SOL     OW 9251   2.181   4.534   4.673
 3046SOL    HW1 9252   2.274   4.570   4.678
 3046SOL    HW2 9253   2.175   4.449   4.725
 3047SOL     OW 9254   2.201   4.233   4.730
 3047SOL    HW1 9255   2.149   4.150   4.713
 3047SOL    HW2 9256   2.278   4.238   4.666
 3048SOL     OW 9257   3.022   3.931   5.201
 3048SOL    HW1 9258   3.022   3.995   5.278
 3048SOL    HW2 9259   3.050   3.979   5.118
 3049SOL     OW 9260   1.870   5.050   3.924
 3049SOL    HW1 9261   1.777   5.071   3.893
 3049SOL    HW2 9262   1.880   4.951   3.937
 3050SOL     OW 9263   2.864   4.520   4.962
 3050SOL    HW1 9264   2.905   4.488   5.048
 3050SOL    HW2 9265   2.768   4.493   4.959
 3051SOL     OW 9266   1.902   4.268   4.838
 3051SOL    HW1 9267   1.987   4.235   4.797
 3051SOL    HW2 9268   1.915   4.283   4.936
 3052SOL     OW 9269   2.677   4.296   4.049
 3052SOL    HW1 9270   2.684   4.207   4.003
 3052SOL    HW2 9271   2.583   4.330   4.041
 3053SOL     OW 9272   3.519   4.328   4.930
 3053SOL    HW1 9273   3.481   4.259   4.992
 3053SOL    HW2 9274   3.601   4.292   4.886
 3054SOL     OW 9275   2.533   4.188   4.993
 3054SOL    HW1 9276   2.499   4.099   4.963
 3054SOL    HW2 9277   2.559   4.242   4.913
 3055SOL     OW 9278   2.335   4.224   3.915
 3055SOL    HW1 9279   2.396   4.304   3.919
 3055SOL    HW2 9280   2.240   4.255   3.922
 3056SOL     OW 9281   3.209   4.783   4.958
 3056SOL    HW1 9282   3.233   4.720   4.884
 3056SOL    HW2 9283   3.119   4.823   4.940
 3057SOL     OW 9284   3.164   4.579   4.033
 3057SOL    HW1 9285   3.078   4.548   4.075
 3057SOL    HW2 9286   3.160   4.565   3.934
 3058SOL     OW 9287   1.945   4.982   4.746
 3058SOL    HW1 9288   1.940   4.981   4.846
 3058SOL    HW2 9289   1.862   4.941   4.708
 3059SOL     OW 9290   3.588   3.859   4.247
 3059SOL    HW1 9291   3.661   3.842   4.180
 3059SOL    HW2 9292   3.557   3.772   4.285
 3060SOL     OW 9293   3.142   4.651   4.396
 3060SOL    HW1 9294   3.202   4.570   4.398
 3060SOL    HW2 9295   3.182   4.720   4.336
 3061SOL     OW 9296   2.692   4.997   5.146
 3061SOL    HW1 9297   2.687   5.030   5.241
 3061SOL    HW2 9298   2.606   5.016   5.100
 3062SOL     OW 9299   3.703   3.899   4.687
 3062SOL    HW1 9300   3.742   3.814   4.651
 3062SOL    HW2 9301   3.605   3.901   4.668
 3063SOL     OW 9302   2.125   4.050   4.444
 3063SOL    HW1 9303   2.046   4.101   4.410
 3063SOL    HW2 9304   2.116   4.035   4.542
 3064SOL     OW 9305   3.056   5.336   3.755
 3064SOL    HW1 9306   3.062   5.243   3.792
 3064SOL    HW2 9307   2.997   5.336   3.675
 3065SOL     OW 9308   2.684   4.726   5.096
 3065SOL    HW1 9309   2.724   4.725   5.004
 3065SOL    HW2 9310   2.694   4.818   5.136
 3066SOL     OW 9311   2.778   4.634   4.015
 3066SOL    HW1 9312   2.841   4.672   3.947
 3066SOL    HW2 9313   2.818   4.551   4.054
 3067SOL     OW 9314   2.901   4.822   4.420
 3067SOL    HW1 9315   2.831   4.775   4.474
 3067SOL    HW2 9316   2.960   4.754   4.377
 3068SOL     OW 9317   2.876   3.960   4.695
 3068SOL    HW1 9318   2.868   3.924   4.602
 3068SOL    HW2 9319   2.874   3.884   4.760
 3069SOL     OW 9320   3.571   4.109   5.105
 3069SOL    HW1 9321   3.644   4.178   5.109
 3069SOL    HW2 9322   3.599   4.034   5.046
 3070SOL     OW 9323   1.937   4.069   3.757
 3070SOL    HW1 9324   1.845   4.041   3.728
 3070SOL    HW2 9325   1.968   4.146   3.701
 3071SOL     OW 9326   1.934   3.890   4.042
 3071SOL    HW1 9327   1.917   3.973   3.988
 3071SOL    HW2 9328   2.024   3.853   4.020
 3072SOL     OW 9329   3.312   4.944   5.357
 3072SOL    HW1 9330   3.303   4.934   5.456
 3072SOL    HW2 9331   3.408   4.937   5.331
 3073SOL     OW 9332   3.536   4.607   4.978
 3073SOL    HW1 9333   3.509   4.518   4.941
 3073SOL    HW2 9334   3.537   4.675   4.905
 3074SOL     OW 9335   3.087   4.049   4.173
 3074SOL    HW1 9336   3.152   3.975   4.162
 3074SOL    HW2 9337   3.107   4.099   4.257
 3075SOL     OW 9338   2.456   4.469   4.376
 3075SOL    HW1 9339   2.506   4.554   4.357
 3075SOL    HW2 9340   2.368   4.471   4.328
 3076SOL     OW 9341   3.592   4.658   5.241
 3076SOL    HW1 9342   3.630   4.749   5.256
 3076SOL    HW2 9343   3.584   4.641   5.142
 3077SOL     OW 9344   2.721   4.680   4.585
 3077SOL    HW1 9345   2.775   4.611   4.633
 3077SOL    HW2 9346   2.689   4.749   4.651
 3078SOL     OW 9347   2.945   4.708   3.811
 3078SOL    HW1 9348   2.922   4.761   3.729
 3078SOL    HW2 9349   3.026   4.652   3.792
 3079SOL     OW 9350   1.941   4.964   4.377
 3079SOL    HW1 9351   1.940   4.917   4.465
 3079SOL    HW2 9352   2.023   4.936   4.326
 3080SOL     OW 9353   3.686   3.916   4.951
 3080SOL    HW1 9354   3.682   3.826   4.995
 3080SOL    HW2 9355   3.689   3.905   4.852
 3081SOL     OW 9356   2.290   4.148   4.244
 3081SOL    HW1 9357   2.320   4.076   4.182
 3081SOL    HW2 9358   2.251   4.108   4.327
 3082SOL     OW 9359   3.286   3.938   4.836
 3082SOL    HW1 9360   3.338   3.873   4.891
 3082SOL    HW2 9361   3.237   4.001   4.897
 3083SOL     OW 9362   2.863   3.758   4.878
 3083SOL    HW1 9363   2.800   3.686   4.847
 3083SOL    HW2 9364   2.956   3.722   4.878
 3084SOL     OW 9365   2.632   5.054   4.025
 3084SOL    HW1 9366   2.586   4.967   4.042
 3084SOL    HW2 9367   2.723   5.051   4.066
 3085SOL     OW 9368   3.214   3.776   3.892
 3085SOL    HW1 9369   3.249   3.735   3.808
 3085SOL    HW2 9370   3.124   3.738   3.912
 3086SOL     OW 9371   3.162   4.177   4.415
 3086SOL    HW1 9372   3.103   4.257   4.419
 3086SOL    HW2 9373   3.177   4.142   4.508
 3087SOL     OW 9374   3.455   3.945   4.606
 3087SOL    HW1 9375   3.371   3.944   4.660
 3087SOL    HW2 9376   3.457   4.028   4.550
 3088SOL     OW 9377   1.901   4.801   4.024
 3088SOL    HW1 9378   2.000   4.790   4.015
 3088SOL    HW2 9379   1.861   4.715   4.056
 3089SOL     OW 9380   3.954   0.628   0.113
 3089SOL    HW1 9381   3.861   0.626   0.150
 3089SOL    HW2 9382   3.955   0.589   0.021
 3090SOL     OW 9383   3.949   0.275   0.996
 3090SOL    HW1 9384   3.984   0.258   1.088
 3090SOL    HW2 9385   3.861   0.230   0.984
 3091SOL     OW 9386   3.743   0.368   0.647
 3091SOL    HW1 9387   3.661   0.411   0.686
 3091SOL    HW2 9388   3.715   0.295   0.584
 3092SOL     OW 9389   4.293   1.275   1.165
 3092SOL    HW1 9390   4.200   1.268   1.128
 3092SOL    HW2 9391   4.304   1.364   1.209
 3093SOL     OW 9392   4.859   0.703   0.717
 3093SOL    HW1 9393   4.916   0.781   0.692
 3093SOL    HW2 9394   4.799   0.729   0.793
 3094SOL     OW 9395   4.492   1.144   1.023
 3094SOL    HW1 9396   4.414   1.161   1.083
 3094SOL    HW2 9397   4.526   1.231   0.987
 3095SOL     OW 9398   4.574   0.798   1.823
 3095SOL    HW1 9399   4.570   0.874   1.888
 3095SOL    HW2 9400   4.596   0.834   1.732
 3096SOL     OW 9401   4.409   1.012   0.665
 3096SOL    HW1 9402   4.478   0.996   0.735
 3096SOL    HW2 9403   4.336   1.069   0.703
 3097SOL     OW 9404   4.410   1.161   1.803
 3097SOL    HW1 9405   4.470   1.240   1.817
 3097SOL    HW2 9406   4.324   1.192   1.762
 3098SOL     OW 9407   4.059   1.435   1.061
 3098SOL    HW1 9408   3.981   1.404   1.008
 3098SOL    HW2 9409   4.117   1.493   1.004
 3099SOL     OW 9410   4.162   0.392   1.499
 3099SOL    HW1 9411   4.244   0.336   1.508
 3099SOL    HW2 9412   4.081   0.334   1.503
 3100SOL     OW 9413   3.955   1.713   0.483
 3100SOL    HW1 9414   3.989   1.790   0.537
 3100SOL    HW2 9415   3.999   1.713   0.393
 3101SOL     OW 9416   4.851   1.341   1.690
 3101SOL    HW1 9417   4.898   1.341   1.778
 3101SOL    HW2 9418   4.803   1.254   1.679
 3102SOL     OW 9419   3.954   1.434   0.538
 3102SOL    HW1 9420   3.928   1.530   0.538
 3102SOL    HW2 9421   3.883   1.380   0.583
 3103SOL     OW 9422   3.964   1.091   0.886
 3103SOL    HW1 9423   3.978   1.007   0.938
 3103SOL    HW2 9424   3.909   1.155   0.941
 3104SOL     OW 9425   4.344   1.786   1.439
 3104SOL    HW1 9426   4.252   1.769   1.474
 3104SOL    HW2 9427   4.372   1.878   1.465
 3105SOL     OW 9428   4.330   0.964   0.123
 3105SOL    HW1 9429   4.337   1.048   0.069
 3105SOL    HW2 9430   4.376   0.977   0.211
 3106SOL     OW 9431   3.846   0.643   0.563
 3106SOL    HW1 9432   3.801   0.555   0.580
 3106SOL    HW2 9433   3.845   0.697   0.647
 3107SOL     OW 9434   3.751   1.596   0.117
 3107SOL    HW1 9435   3.732   1.500   0.138
 3107SOL    HW2 9436   3.718   1.654   0.192
 3108SOL     OW 9437   3.837   0.737   1.597
 3108SOL    HW1 9438   3.925   0.724   1.642
 3108SOL    HW2 9439   3.824   0.834   1.575
 3109SOL     OW 9440   4.337   1.365   0.726
 3109SOL    HW1 9441   4.288   1.278   0.735
 3109SOL    HW2 9442   4.314   1.408   0.639
 3110SOL     OW 9443   5.017   1.228   1.423
 3110SOL    HW1 9444   5.054   1.155   1.365
 3110SOL    HW2 9445   5.069   1.233   1.508
 3111SOL     OW 9446   4.533   0.004   0.502
 3111SOL    HW1 9447   4.573   0.095   0.493
 3111SOL    HW2 9448   4.433   0.012   0.508
 3112SOL     OW 9449   3.921   0.976   1.264
 3112SOL    HW1 9450   4.010   0.931   1.250
 3112SOL    HW2 9451   3.848   0.911   1.245
 3113SOL     OW 9452   4.911   1.792   1.616
 3113SOL    HW1 9453   4.935   1.852   1.540
 3113SOL    HW2 9454   4.918   1.697   1.586
 3114SOL     OW 9455   4.041   0.251   1.801
 3114SOL    HW1 9456   4.112   0.322   1.807
 3114SOL    HW2 9457   3.953   0.290   1.829
 3115SOL     OW 9458   4.322   0.729   0.270
 3115SOL    HW1 9459   4.346   0.798   0.202
 3115SOL    HW2 9460   4.244   0.762   0.324
 3116SOL     OW 9461   5.005   0.345   0.944
 3116SOL    HW1 9462   4.919   0.295   0.931
 3116SOL    HW2 9463   5.067   0.291   1.000
 3117SOL     OW 9464   4.531   0.605   1.465
 3117SOL    HW1 9465   4.484   0.602   1.554
 3117SOL    HW2 9466   4.480   0.550   1.399
 3118SOL     OW 9467   4.697   0.890   1.572
 3118SOL    HW1 9468   4.743   0.806   1.543
 3118SOL    HW2 9469   4.641   0.924   1.497
 3119SOL     OW 9470   4.715   0.410   1.242
 3119SOL    HW1 9471   4.638   0.444   1.296
 3119SOL    HW2 9472   4.681   0.359   1.163
 3120SOL     OW 9473   4.765   0.701   0.429
 3120SOL    HW1 9474   4.791   0.697   0.525
 3120SOL    HW2 9475   4.680   0.650   0.415
 3121SOL     OW 9476   3.800   0.811   0.789
 3121SOL    HW1 9477   3.899   0.799   0.798
 3121SOL    HW2 9478   3.776   0.906   0.810
 3122SOL     OW 9479   3.854   1.821   1.571
 3122SOL    HW1 9480   3.844   1.806   1.670
 3122SOL    HW2 9481   3.768   1.857   1.535
 3123SOL     OW 9482   4.589   0.348   0.195
 3123SOL    HW1 9483   4.648   0.411   0.146
 3123SOL    HW2 9484   4.608   0.254   0.166
 3124SOL     OW 9485   4.274   0.196   0.885
 3124SOL    HW1 9486   4.269   0.191   0.985
 3124SOL    HW2 9487   4.276   0.292   0.856
 3125SOL     OW 9488   4.732   1.456   0.477
 3125SOL    HW1 9489   4.686   1.528   0.425
 3125SOL    HW2 9490   4.728   1.476   0.575
 3126SOL     OW 9491   4.075   1.801   0.853
 3126SOL    HW1 9492   4.125   1.715   0.859
 3126SOL    HW2 9493   4.140   1.878   0.850
 3127SOL     OW 9494   4.951   1.550   1.506
 3127SOL    HW1 9495   4.957   1.473   1.570
 3127SOL    HW2 9496   4.899   1.524   1.426
 3128SOL     OW 9497   4.045   0.943   0.242
 3128SOL    HW1 9498   4.127   0.982   0.200
 3128SOL    HW2 9499   4.018   0.861   0.193
 3129SOL     OW 9500   4.185   1.266   1.727
 3129SOL    HW1 9501   4.135   1.267   1.641
 3129SOL    HW2 9502   4.122   1.248   1.803
 3130SOL     OW 9503   4.835   1.776   0.237
 3130SOL    HW1 9504   4.775   1.714   0.287
 3130SOL    HW2 9505   4.866   1.732   0.152
 3131SOL     OW 9506   3.926   0.285   1.498
 3131SOL    HW1 9507   3.846   0.345   1.485
 3131SOL    HW2 9508   3.916   0.236   1.584
 3132SOL     OW 9509   5.356   1.377   0.081
 3132SOL    HW1 9510   5.324   1.471   0.071
 3132SOL    HW2 9511   5.280   1.314   0.069
 3133SOL     OW 9512   4.188   1.743   0.323
 3133SOL    HW1 9513   4.221   1.782   0.409
 3133SOL    HW2 9514   4.264   1.736   0.258
 3134SOL     OW 9515   3.973   1.785   1.241
 3134SOL    HW1 9516   4.030   1.720   1.291
 3134SOL    HW2 9517   3.957   1.752   1.148
 3135SOL     OW 9518   4.664   1.698   0.904
 3135SOL    HW1 9519   4.744   1.641   0.925
 3135SOL    HW2 9520   4.615   1.658   0.827
 3136SOL     OW 9521   4.106   0.700   0.480
 3136SOL    HW1 9522   4.151   0.610   0.477
 3136SOL    HW2 9523   4.012   0.689   0.513
 3137SOL     OW 9524   4.338   0.122   0.117
 3137SOL    HW1 9525   4.436   0.100   0.124
 3137SOL    HW2 9526   4.307   0.105   0.024
 3138SOL     OW 9527   4.505   0.264   1.749
 3138SOL    HW1 9528   4.572   0.203   1.792
 3138SOL    HW2 9529   4.432   0.283   1.814
 3139SOL     OW 9530   4.612   1.514   1.195
 3139SOL    HW1 9531   4.589   1.489   1.101
 3139SOL    HW2 9532   4.673   1.445   1.234
 3140SOL     OW 9533   4.527   1.402   0.924
 3140SOL    HW1 9534   4.617   1.416   0.882
 3140SOL    HW2 9535   4.456   1.404   0.853
 3141SOL     OW 9536   4.646   0.503   0.899
 3141SOL    HW1 9537   4.621   0.494   0.803
 3141SOL    HW2 9538   4.694   0.421   0.930
 3142SOL     OW 9539   4.263   0.064   0.512
 3142SOL    HW1 9540   4.182   0.065   0.570
 3142SOL    HW2 9541   4.266   0.147   0.457
 3143SOL     OW 9542   4.021   0.035   0.171
 3143SOL    HW1 9543   4.070   0.119   0.150
 3143SOL    HW2 9544   4.083  -0.030   0.216
 3144SOL     OW 9545   4.659   0.236   0.480
 3144SOL    HW1 9546   4.611   0.277   0.402
 3144SOL    HW2 9547   4.758   0.234   0.461
 3145SOL     OW 9548   4.800   0.683   1.464
 3145SOL    HW1 9549   4.720   0.622   1.467
 3145SOL    HW2 9550   4.881   0.630   1.440
 3146SOL     OW 9551   4.951   1.570   0.793
 3146SOL    HW1 9552   4.972   1.644   0.728
 3146SOL    HW2 9553   5.019   1.570   0.866
 3147SOL     OW 9554   4.183   1.152   0.741
 3147SOL    HW1 9555   4.112   1.125   0.806
 3147SOL    HW2 9556   4.157   1.124   0.648
 3148SOL     OW 9557   4.995   1.797   0.591
 3148SOL    HW1 9558   5.039   1.861   0.527
 3148SOL    HW2 9559   4.945   1.849   0.661
 3149SOL     OW 9560   4.756   0.549   0.016
 3149SOL    HW1 9561   4.715   0.631  -0.023
 3149SOL    HW2 9562   4.820   0.575   0.089
 3150SOL     OW 9563   3.802   0.556   1.386
 3150SOL    HW1 9564   3.894   0.555   1.345
 3150SOL    HW2 9565   3.796   0.630   1.453
 3151SOL     OW 9566   4.285   0.222   1.147
 3151SOL    HW1 9567   4.323   0.138   1.184
 3151SOL    HW2 9568   4.197   0.241   1.191
 3152SOL     OW 9569   4.590   0.454   0.642
 3152SOL    HW1 9570   4.558   0.526   0.580
 3152SOL    HW2 9571   4.614   0.373   0.589
 3153SOL     OW 9572   4.741   0.039   0.753
 3153SOL    HW1 9573   4.669   0.044   0.684
 3153SOL    HW2 9574   4.717  -0.030   0.822
 3154SOL     OW 9575   4.212   1.385   0.174
 3154SOL    HW1 9576   4.125   1.370   0.221
 3154SOL    HW2 9577   4.195   1.411   0.079
 3155SOL     OW 9578   5.388   1.280   0.657
 3155SOL    HW1 9579   5.487   1.288   0.671
 3155SOL    HW2 9580   5.343   1.364   0.688
 3156SOL     OW 9581   4.251   0.256   0.328
 3156SOL    HW1 9582   4.278   0.197   0.253
 3156SOL    HW2 9583   4.251   0.351   0.297
 3157SOL     OW 9584   4.788   1.347   1.340
 3157SOL    HW1 9585   4.708   1.324   1.395
 3157SOL    HW2 9586   4.871   1.321   1.389
 3158SOL     OW 9587   4.835   1.195   1.100
 3158SOL    HW1 9588   4.795   1.239   1.181
 3158SOL    HW2 9589   4.794   1.232   1.017
 3159SOL     OW 9590   4.639   0.089   1.402
 3159SOL    HW1 9591   4.664   0.069   1.307
 3159SOL    HW2 9592   4.711   0.145   1.444
 3160SOL     OW 9593   4.704   1.116   1.719
 3160SOL    HW1 9594   4.605   1.122   1.729
 3160SOL    HW2 9595   4.727   1.036   1.663
 3161SOL     OW 9596   4.429   1.050   0.368
 3161SOL    HW1 9597   4.415   1.057   0.467
 3161SOL    HW2 9598   4.513   0.999   0.350
 3162SOL     OW 9599   4.134   0.813   1.251
 3162SOL    HW1 9600   4.220   0.825   1.301
 3162SOL    HW2 9601   4.092   0.726   1.278
 3163SOL     OW 9602   4.998   0.386   1.262
 3163SOL    HW1 9603   5.019   0.460   1.326
 3163SOL    HW2 9604   4.909   0.403   1.219
 3164SOL     OW 9605   3.788   1.564   1.331
 3164SOL    HW1 9606   3.742   1.646   1.297
 3164SOL    HW2 9607   3.886   1.583   1.340
 3165SOL     OW 9608   4.091   1.100   0.501
 3165SOL    HW1 9609   4.084   1.183   0.445
 3165SOL    HW2 9610   4.095   1.020   0.441
 3166SOL     OW 9611   4.290   0.537   0.865
 3166SOL    HW1 9612   4.302   0.603   0.791
 3166SOL    HW2 9613   4.336   0.571   0.948
 3167SOL     OW 9614   4.976   1.348   0.388
 3167SOL    HW1 9615   5.026   1.425   0.428
 3167SOL    HW2 9616   4.881   1.350   0.420
 3168SOL     OW 9617   4.078   1.510   1.329
 3168SOL    HW1 9618   4.057   1.466   1.242
 3168SOL    HW2 9619   4.175   1.536   1.332
 3169SOL     OW 9620   4.126   0.751   1.598
 3169SOL    HW1 9621   4.194   0.806   1.551
 3169SOL    HW2 9622   4.166   0.663   1.625
 3170SOL     OW 9623   4.737   0.105   1.770
 3170SOL    HW1 9624   4.743   0.190   1.718
 3170SOL    HW2 9625   4.769   0.029   1.713
 3171SOL     OW 9626   4.228   0.050   1.740
 3171SOL    HW1 9627   4.186  -0.007   1.670
 3171SOL    HW2 9628   4.162   0.119   1.772
 3172SOL     OW 9629   4.297   0.870   1.029
 3172SOL    HW1 9630   4.341   0.959   1.020
 3172SOL    HW2 9631   4.234   0.870   1.106
 3173SOL     OW 9632   5.084   0.862   1.045
 3173SOL    HW1 9633   5.009   0.862   0.979
 3173SOL    HW2 9634   5.121   0.770   1.054
 3174SOL     OW 9635   4.933   0.525   0.275
 3174SOL    HW1 9636   4.946   0.441   0.329
 3174SOL    HW2 9637   4.904   0.599   0.335
 3175SOL     OW 9638   4.031   0.213   1.231
 3175SOL    HW1 9639   4.008   0.250   1.321
 3175SOL    HW2 9640   4.001   0.118   1.225
 3176SOL     OW 9641   3.761   1.310   1.282
 3176SOL    HW1 9642   3.814   1.261   1.350
 3176SOL    HW2 9643   3.783   1.408   1.287
 3177SOL     OW 9644   4.456   0.634   1.064
 3177SOL    HW1 9645   4.515   0.608   0.988
 3177SOL    HW2 9646   4.428   0.730   1.053
 3178SOL     OW 9647   4.031   0.063   0.618
 3178SOL    HW1 9648   4.020   0.157   0.651
 3178SOL    HW2 9649   4.026   0.000   0.695
 3179SOL     OW 9650   5.346   0.367   0.374
 3179SOL    HW1 9651   5.348   0.291   0.438
 3179SOL    HW2 9652   5.298   0.444   0.414
 3180SOL     OW 9653   4.747   0.766   0.966
 3180SOL    HW1 9654   4.762   0.787   1.062
 3180SOL    HW2 9655   4.717   0.671   0.957
 3181SOL     OW 9656   4.704   1.573   1.700
 3181SOL    HW1 9657   4.684   1.617   1.612
 3181SOL    HW2 9658   4.743   1.482   1.684
 3182SOL     OW 9659   4.074   0.898   1.804
 3182SOL    HW1 9660   4.150   0.942   1.852
 3182SOL    HW2 9661   4.109   0.851   1.722
 3183SOL     OW 9662   5.027   0.838   0.042
 3183SOL    HW1 9663   5.061   0.745   0.057
 3183SOL    HW2 9664   5.045   0.865  -0.053
 3184SOL     OW 9665   4.792   1.333   0.849
 3184SOL    HW1 9666   4.799   1.249   0.794
 3184SOL    HW2 9667   4.854   1.402   0.813
 3185SOL     OW 9668   4.043   0.810   0.949
 3185SOL    HW1 9669   4.136   0.846   0.954
 3185SOL    HW2 9670   4.037   0.725   1.001
 3186SOL     OW 9671   4.063   0.509   1.006
 3186SOL    HW1 9672   4.011   0.426   0.989
 3186SOL    HW2 9673   4.140   0.514   0.942
 3187SOL     OW 9674   4.862   0.380   1.678
 3187SOL    HW1 9675   4.817   0.443   1.742
 3187SOL    HW2 9676   4.955   0.411   1.661
 3188SOL     OW 9677   4.884   0.207   1.477
 3188SOL    HW1 9678   4.884   0.271   1.554
 3188SOL    HW2 9679   4.912   0.255   1.394
 3189SOL     OW 9680   3.812   1.801   0.927
 3189SOL    HW1 9681   3.770   1.715   0.900
 3189SOL    HW2 9682   3.906   1.804   0.893
 3190SOL     OW 9683   4.228   1.568   0.910
 3190SOL    HW1 9684   4.294   1.642   0.919
 3190SOL    HW2 9685   4.272   1.489   0.868
 3191SOL     OW 9686   4.726   0.796   1.238
 3191SOL    HW1 9687   4.767   0.764   1.324
 3191SOL    HW2 9688   4.630   0.769   1.235
 3192SOL     OW 9689   3.764   0.544   1.114
 3192SOL    HW1 9690   3.849   0.511   1.073
 3192SOL    HW2 9691   3.777   0.559   1.212
 3193SOL     OW 9692   3.913   0.520   1.722
 3193SOL    HW1 9693   3.972   0.480   1.652
 3193SOL    HW2 9694   3.855   0.591   1.681
 3194SOL     OW 9695   4.539   0.572   0.325
 3194SOL    HW1 9696   4.546   0.483   0.279
 3194SOL    HW2 9697   4.445   0.606   0.317
 3195SOL     OW 9698   3.976   1.564   1.744
 3195SOL    HW1 9699   3.946   1.621   1.820
 3195SOL    HW2 9700   3.969   1.467   1.770
 3196SOL     OW 9701   4.395   0.464   1.269
 3196SOL    HW1 9702   4.361   0.375   1.239
 3196SOL    HW2 9703   4.421   0.518   1.189
 3197SOL     OW 9704   4.654   1.678   1.465
 3197SOL    HW1 9705   4.630   1.660   1.370
 3197SOL    HW2 9706   4.684   1.772   1.475
 3198SOL     OW 9707   4.197   0.500   0.191
 3198SOL    HW1 9708   4.258   0.580   0.195
 3198SOL    HW2 9709   4.102   0.531   0.198
 3199SOL     OW 9710   3.883   1.137   1.466
 3199SOL    HW1 9711   3.905   1.076   1.542
 3199SOL    HW2 9712   3.893   1.088   1.380
 3200SOL     OW 9713   5.071   1.059   1.234
 3200SOL    HW1 9714   5.095   0.996   1.160
 3200SOL    HW2 9715   4.981   1.099   1.216
 3201SOL     OW 9716   4.976   1.731   1.128
 3201SOL    HW1 9717   5.060   1.736   1.074
 3201SOL    HW2 9718   4.953   1.635   1.146
 3202SOL     OW 9719   3.807   1.258   1.022
 3202SOL    HW1 9720   3.802   1.257   1.122
 3202SOL    HW2 9721   3.724   1.217   0.984
 3203SOL     OW 9722   4.412   1.662   1.716
 3203SOL    HW1 9723   4.356   1.743   1.725
 3203SOL    HW2 9724   4.464   1.666   1.630
 3204SOL     OW 9725   4.627   0.086   0.133
 3204SOL    HW1 9726   4.678   0.087   0.047
 3204SOL    HW2 9727   4.683   0.044   0.204
 3205SOL     OW 9728   5.112   1.573   0.477
 3205SOL    HW1 9729   5.179   1.585   0.403
 3205SOL    HW2 9730   5.072   1.662   0.500
 3206SOL     OW 9731   3.854   1.794   1.851
 3206SOL    HW1 9732   3.813   1.720   1.904
 3206SOL    HW2 9733   3.918   1.845   1.909
 3207SOL     OW 9734   5.004   0.927   0.672
 3207SOL    HW1 9735   5.064   0.846   0.674
 3207SOL    HW2 9736   5.044   0.996   0.612
 3208SOL     OW 9737   4.554   1.273   1.422
 3208SOL    HW1 9738   4.549   1.306   1.517
 3208SOL    HW2 9739   4.468   1.292   1.376
 3209SOL     OW 9740   4.396   1.616   0.154
 3209SOL    HW1 9741   4.405   1.626   0.055
 3209SOL    HW2 9742   4.356   1.527   0.175
 3210SOL     OW 9743   3.987   0.326   0.720
 3210SOL    HW1 9744   3.908   0.377   0.686
 3210SOL    HW2 9745   3.978   0.311   0.818
 3211SOL     OW 9746   4.918   1.612   0.031
 3211SOL    HW1 9747   4.924   1.519   0.068
 3211SOL    HW2 9748   4.859   1.612  -0.049
 3212SOL     OW 9749   4.546   1.002   1.372
 3212SOL    HW1 9750   4.586   1.001   1.280
 3212SOL    HW2 9751   4.556   1.094   1.412
 3213SOL     OW 9752   4.640   0.910   0.291
 3213SOL    HW1 9753   4.703   0.948   0.223
 3213SOL    HW2 9754   4.680   0.827   0.330
 3214SOL     OW 9755   4.096   1.288   1.490
 3214SOL    HW1 9756   4.083   1.381   1.456
 3214SOL    HW2 9757   4.012   1.236   1.477
 3215SOL     OW 9758   4.763   1.098   0.696
 3215SOL    HW1 9759   4.693   1.051   0.750
 3215SOL    HW2 9760   4.822   1.030   0.653
 3216SOL     OW 9761   4.738   0.236   0.971
 3216SOL    HW1 9762   4.730   0.200   0.878
 3216SOL    HW2 9763   4.736   0.160   1.036
 3217SOL     OW 9764   4.314   1.487   0.491
 3217SOL    HW1 9765   4.356   1.429   0.421
 3217SOL    HW2 9766   4.270   1.566   0.447
 3218SOL     OW 9767   3.979   1.348   0.290
 3218SOL    HW1 9768   3.883   1.349   0.263
 3218SOL    HW2 9769   3.991   1.401   0.374
 3219SOL     OW 9770   3.829   1.013   1.726
 3219SOL    HW1 9771   3.752   0.980   1.780
 3219SOL    HW2 9772   3.914   0.983   1.768
 3220SOL     OW 9773   4.396   0.203   1.489
 3220SOL    HW1 9774   4.486   0.187   1.449
 3220SOL    HW2 9775   4.404   0.208   1.588
 3221SOL     OW 9776   5.164   0.856   1.398
 3221SOL    HW1 9777   5.107   0.908   1.335
 3221SOL    HW2 9778   5.260   0.868   1.374
 3222SOL     OW 9779   3.796   0.166   0.318
 3222SOL    HW1 9780   3.779   0.249   0.264
 3222SOL    HW2 9781   3.886   0.129   0.296
 3223SOL     OW 9782   4.337   0.842   1.431
 3223SOL    HW1 9783   4.393   0.923   1.414
 3223SOL    HW2 9784   4.396   0.762   1.434
 3224SOL     OW 9785   4.440   0.565   1.708
 3224SOL    HW1 9786   4.459   0.630   1.782
 3224SOL    HW2 9787   4.500   0.485   1.717
 3225SOL     OW 9788   4.114   1.741   1.560
 3225SOL    HW1 9789   4.023   1.782   1.558
 3225SOL    HW2 9790   4.107   1.647   1.592
 3226SOL     OW 9791   4.949   0.325   0.449
 3226SOL    HW1 9792   5.014   0.251   0.438
 3226SOL    HW2 9793   4.969   0.375   0.533
 3227SOL     OW 9794   4.318   0.745   0.652
 3227SOL    HW1 9795   4.368   0.830   0.633
 3227SOL    HW2 9796   4.230   0.747   0.604
 3228SOL     OW 9797   4.583   1.374   0.016
 3228SOL    HW1 9798   4.537   1.389   0.104
 3228SOL    HW2 9799   4.627   1.459  -0.014
 3229SOL     OW 9800   4.385   1.790   0.953
 3229SOL    HW1 9801   4.339   1.878   0.940
 3229SOL    HW2 9802   4.484   1.802   0.946
 3230SOL     OW 9803   4.583   0.956   0.861
 3230SOL    HW1 9804   4.637   0.887   0.909
 3230SOL    HW2 9805   4.551   1.025   0.927
 3231SOL     OW 9806   4.807   0.984   0.087
 3231SOL    HW1 9807   4.784   1.037   0.005
 3231SOL    HW2 9808   4.888   0.928   0.068
 3232SOL     OW 9809   3.945   1.314   1.844
 3232SOL    HW1 9810   3.880   1.241   1.823
 3232SOL    HW2 9811   3.949   1.328   1.942
 3233SOL     OW 9812   3.803   1.240   0.653
 3233SOL    HW1 9813   3.802   1.193   0.741
 3233SOL    HW2 9814   3.885   1.212   0.602
 3234SOL     OW 9815   4.396   1.391   1.624
 3234SOL    HW1 9816   4.318   1.341   1.662
 3234SOL    HW2 9817   4.393   1.486   1.655
 3235SOL     OW 9818   4.152   0.424   0.520
 3235SOL    HW1 9819   4.182   0.352   0.458
 3235SOL    HW2 9820   4.113   0.384   0.603
 3236SOL     OW 9821   4.041   0.547   1.280
 3236SOL    HW1 9822   4.079   0.488   1.352
 3236SOL    HW2 9823   4.081   0.521   1.192
 3237SOL     OW 9824   4.536   1.586   0.687
 3237SOL    HW1 9825   4.568   1.596   0.593
 3237SOL    HW2 9826   4.457   1.524   0.689
 3238SOL     OW 9827   4.725   0.034   1.154
 3238SOL    HW1 9828   4.662  -0.038   1.123
 3238SOL    HW2 9829   4.818  -0.002   1.154
 3239SOL     OW 9830   4.494   1.330   0.301
 3239SOL    HW1 9831   4.448   1.243   0.318
 3239SOL    HW2 9832   4.585   1.327   0.342
 3240SOL     OW 9833   4.342   1.567   1.284
 3240SOL    HW1 9834   4.337   1.649   1.341
 3240SOL    HW2 9835   4.431   1.564   1.239
 3241SOL     OW 9836   3.763   1.077   0.300
 3241SOL    HW1 9837   3.862   1.066   0.291
 3241SOL    HW2 9838   3.723   0.991   0.332
 3242SOL     OW 9839   4.599   1.646   0.337
 3242SOL    HW1 9840   4.522   1.611   0.283
 3242SOL    HW2 9841   4.567   1.717   0.399
 3243SOL     OW 9842   3.954   0.628   1.975
 3243SOL    HW1 9843   3.861   0.626   2.012
 3243SOL    HW2 9844   3.955   0.589   1.883
 3244SOL     OW 9845   3.949   0.275   2.858
 3244SOL    HW1 9846   3.984   0.258   2.950
 3244SOL    HW2 9847   3.861   0.230   2.846
 3245SOL     OW 9848   3.743   0.368   2.509
 3245SOL    HW1 9849   3.661   0.411   2.548
 3245SOL    HW2 9850   3.715   0.295   2.446
 3246SOL     OW 9851   4.293   1.275   3.027
 3246SOL    HW1 9852   4.200   1.268   2.990
 3246SOL    HW2 9853   4.304   1.364   3.071
 3247SOL     OW 9854   4.859   0.703   2.579
 3247SOL    HW1 9855   4.916   0.781   2.554
 3247SOL    HW2 9856   4.799   0.729   2.655
 3248SOL     OW 9857   4.492   1.144   2.885
 3248SOL    HW1 9858   4.414   1.161   2.945
 3248SOL    HW2 9859   4.526   1.231   2.849
 3249SOL     OW 9860   4.574   0.798   3.685
 3249SOL    HW1 9861   4.570   0.874   3.750
 3249SOL    HW2 9862   4.596   0.834   3.594
 3250SOL     OW 9863   4.409   1.012   2.527
 3250SOL    HW1 9864   4.478   0.996   2.597
 3250SOL    HW2 9865   4.336   1.069   2.565
 3251SOL     OW 9866   4.410   1.161   3.665
 3251SOL    HW1 9867   4.470   1.240   3.679
 3251SOL    HW2 9868   4.324   1.192   3.624
 3252SOL     OW 9869   4.059   1.435   2.923
 3252SOL    HW1 9870   3.981   1.404   2.870
 3252SOL    HW2 9871   4.117   1.493   2.866
 3253SOL     OW 9872   4.162   0.392   3.361
 3253SOL    HW1 9873   4.244   0.336   3.370
 3253SOL    HW2 9874   4.081   0.334   3.365
 3254SOL     OW 9875   3.955   1.713   2.345
 3254SOL    HW1 9876   3.989   1.790   2.399
 3254SOL    HW2 9877   3.999   1.713   2.255
 3255SOL     OW 9878   4.851   1.341   3.552
 3255SOL    HW1 9879   4.898   1.341   3.640
 3255SOL    HW2 9880   4.803   1.254   3.541
 3256SOL     OW 9881   3.954   1.434   2.400
 3256SOL    HW1 9882   3.928   1.530   2.400
 3256SOL    HW2 9883   3.883   1.380   2.445
 3257SOL     OW 9884   3.964   1.091   2.748
 3257SOL    HW1 9885   3.978   1.007   2.800
 3257SOL    HW2 9886   3.909   1.155   2.803
 3258SOL     OW 9887   4.344   1.786   3.301
 3258SOL    HW1 9888   4.252   1.769   3.336
 3258SOL    HW2 9889   4.372   1.878   3.327
 3259SOL     OW 9890   4.330   0.964   1.985
 3259SOL    HW1 9891   4.337   1.048   1.931
 3259SOL    HW2 9892   4.376   0.977   2.073
 3260SOL     OW 9893   3.846   0.643   2.425
 3260SOL    HW1 9894   3.801   0.555   2.442
 3260SOL    HW2 9895   3.845   0.697   2.509
 3261SOL     OW 9896   3.751   1.596   1.979
 3261SOL    HW1 9897   3.732   1.500   2.000
 3261SOL    HW2 9898   3.718   1.654   2.054
 3262SOL     OW 9899   3.837   0.737   3.459
 3262SOL    HW1 9900   3.925   0.724   3.504
 3262SOL    HW2 9901   3.824   0.834   3.437
 3263SOL     OW 9902   4.337   1.365   2.588
 3263SOL    HW1 9903   4.288   1.278   2.597
 3263SOL    HW2 9904   4.314   1.408   2.501
 3264SOL     OW 9905   5.017   1.228   3.285
 3264SOL    HW1 9906   5.054   1.155   3.227
 3264SOL    HW2 9907   5.069   1.233   3.370
 3265SOL     OW 9908   4.533   0.004   2.364
 3265SOL    HW1 9909   4.573   0.095   2.355
 3265SOL    HW2 9910   4.433   0.012   2.370
 3266SOL     OW 9911   3.921   0.976   3.126
 3266SOL    HW1 9912   4.010   0.931   3.112
 3266SOL    HW2 9913   3.848   0.911   3.107
 3267SOL     OW 9914   4.911   1.792   3.478
 3267SOL    HW1 9915   4.935   1.852   3.402
 3267SOL    HW2 9916   4.918   1.697   3.448
 3268SOL     OW 9917   4.041   0.251   3.663
 3268SOL    HW1 9918   4.112   0.322   3.669
 3268SOL    HW2 9919   3.953   0.290   3.691
 3269SOL     OW 9920   4.322   0.729   2.132
 3269SOL    HW1 9921   4.346   0.798   2.064
 3269SOL    HW2 9922   4.244   0.762   2.186
 3270SOL     OW 9923   5.005   0.345   2.806
 3270SOL    HW1 9924   4.919   0.295   2.793
 3270SOL    HW2 9925   5.067   0.291   2.862
 3271SOL     OW 9926   4.531   0.605   3.327
 3271SOL    HW1 9927   4.484   0.602   3.416
 3271SOL    HW2 9928   4.480   0.550   3.261
 3272SOL     OW 9929   4.697   0.890   3.434
 3272SOL    HW1 9930   4.743   0.806   3.405
 3272SOL    HW2 9931   4.641   0.924   3.359
 3273SOL     OW 9932   4.715   0.410   3.104
 3273SOL    HW1 9933   4.638   0.444   3.158
 3273SOL    HW2 9934   4.681   0.359   3.025
 3274SOL     OW 9935   4.765   0.701   2.291
 3274SOL    HW1 9936   4.791   0.697   2.387
 3274SOL    HW2 9937   4.680   0.650   2.277
 3275SOL     OW 9938   3.800   0.811   2.651
 3275SOL    HW1 9939   3.899   0.799   2.660
 3275SOL    HW2 9940   3.776   0.906   2.672
 3276SOL     OW 9941   3.854   1.821   3.433
 3276SOL    HW1 9942   3.844   1.806   3.532
 3276SOL    HW2 9943   3.768   1.857   3.397
 3277SOL     OW 9944   4.589   0.348   2.057
 3277SOL    HW1 9945   4.648   0.411   2.008
 3277SOL    HW2 9946   4.608   0.254   2.028
 3278SOL     OW 9947   4.274   0.196   2.747
 3278SOL    HW1 9948   4.269   0.191   2.847
 3278SOL    HW2 9949   4.276   0.292   2.718
 3279SOL     OW 9950   4.732   1.456   2.339
 3279SOL    HW1 9951   4.686   1.528   2.287
 3279SOL    HW2 9952   4.728   1.476   2.437
 3280SOL     OW 9953   4.075   1.801   2.715
 3280SOL    HW1 9954   4.125   1.715   2.721
 3280SOL    HW2 9955   4.140   1.878   2.712
 3281SOL     OW 9956   4.951   1.550   3.368
 3281SOL    HW1 9957   4.957   1.473   3.432
 3281SOL    HW2 9958   4.899   1.524   3.288
 3282SOL     OW 9959   4.045   0.943   2.104
 3282SOL    HW1 9960   4.127   0.982   2.062
 3282SOL    HW2 9961   4.018   0.861   2.055
 3283SOL     OW 9962   4.185   1.266   3.589
 3283SOL    HW1 9963   4.135   1.267   3.503
 3283SOL    HW2 9964   4.122   1.248   3.665
 3284SOL     OW 9965   4.835   1.776   2.099
 3284SOL    HW1 9966   4.775   1.714   2.149
 3284SOL    HW2 9967   4.866   1.732   2.014
 3285SOL     OW 9968   3.926   0.285   3.360
 3285SOL    HW1 9969   3.846   0.345   3.347
 3285SOL    HW2 9970   3.916   0.236   3.446
 3286SOL     OW 9971   4.188   1.743   2.185
 3286SOL    HW1 9972   4.221   1.782   2.271
 3286SOL    HW2 9973   4.264   1.736   2.120
 3287SOL     OW 9974   3.973   1.785   3.103
 3287SOL    HW1 9975   4.030   1.720   3.153
 3287SOL    HW2 9976   3.957   1.752   3.010
 3288SOL     OW 9977   4.664   1.698   2.766
 3288SOL    HW1 9978   4.744   1.641   2.787
 3288SOL    HW2 9979   4.615   1.658   2.689
 3289SOL     OW 9980   4.106   0.700   2.342
 3289SOL    HW1 9981   4.151   0.610   2.339
 3289SOL    HW2 9982   4.012   0.689   2.375
 3290SOL     OW 9983   4.338   0.122   1.979
 3290SOL    HW1 9984   4.436   0.100   1.986
 3290SOL    HW2 9985   4.307   0.105   1.886
 3291SOL     OW 9986   4.505   0.264   3.611
 3291SOL    HW1 9987   4.572   0.203   3.654
 3291SOL    HW2 9988   4.432   0.283   3.676
 3292SOL     OW 9989   4.612   1.514   3.057
 3292SOL    HW1 9990   4.589   1.489   2.963
 3292SOL    HW2 9991   4.673   1.445   3.096
 3293SOL     OW 9992   4.527   1.402   2.786
 3293SOL    HW1 9993   4.617   1.416   2.744
 3293SOL    HW2 9994   4.456   1.404   2.715
 3294SOL     OW 9995   4.646   0.503   2.761
 3294SOL    HW1 9996   4.621   0.494   2.665
 3294SOL    HW2 9997   4.694   0.421   2.792
 3295SOL     OW 9998   4.263   0.064   2.374
 3295SOL    HW1 9999   4.182   0.065   2.432
 3295SOL    HW210000   4.266   0.147   2.319
 3296SOL     OW10001   4.021   0.035   2.033
 3296SOL    HW110002   4.070   0.119   2.012
 3296SOL    HW210003   4.083  -0.030   2.078
 3297SOL     OW10004   4.659   0.236   2.342
 3297SOL    HW110005   4.611   0.277   2.264
 3297SOL    HW210006   4.758   0.234   2.323
 3298SOL     OW10007   4.800   0.683   3.326
 3298SOL    HW110008   4.720   0.622   3.329
 3298SOL    HW210009   4.881   0.630   3.302
 3299SOL     OW10010   4.951   1.570   2.655
 3299SOL    HW110011   4.972   1.644   2.590
 3299SOL    HW210012   5.019   1.570   2.728
 3300SOL     OW10013   4.183   1.152   2.603
 3300SOL    HW110014   4.112   1.125   2.668
 3300SOL    HW210015   4.157   1.124   2.510
 3301SOL     OW10016   4.995   1.797   2.453
 3301SOL    HW110017   5.039   1.861   2.389
 3301SOL    HW210018   4.945   1.849   2.523
 3302SOL     OW10019   4.756   0.549   1.878
 3302SOL    HW110020   4.715   0.631   1.839
 3302SOL    HW210021   4.820   0.575   1.951
 3303SOL     OW10022   3.802   0.556   3.248
 3303SOL    HW110023   3.894   0.555   3.207
 3303SOL    HW210024   3.796   0.630   3.315
 3304SOL     OW10025   4.285   0.222   3.009
 3304SOL    HW110026   4.323   0.138   3.046
 3304SOL    HW210027   4.197   0.241   3.053
 3305SOL     OW10028   4.590   0.454   2.504
 3305SOL    HW110029   4.558   0.526   2.442
 3305SOL    HW210030   4.614   0.373   2.451
 3306SOL     OW10031   4.741   0.039   2.615
 3306SOL    HW110032   4.669   0.044   2.546
 3306SOL    HW210033   4.717  -0.030   2.684
 3307SOL     OW10034   4.212   1.385   2.036
 3307SOL    HW110035   4.125   1.370   2.083
 3307SOL    HW210036   4.195   1.411   1.941
 3308SOL     OW10037   5.388   1.280   2.519
 3308SOL    HW110038   5.487   1.288   2.533
 3308SOL    HW210039   5.343   1.364   2.550
 3309SOL     OW10040   4.251   0.256   2.190
 3309SOL    HW110041   4.278   0.197   2.115
 3309SOL    HW210042   4.251   0.351   2.159
 3310SOL     OW10043   4.788   1.347   3.202
 3310SOL    HW110044   4.708   1.324   3.257
 3310SOL    HW210045   4.871   1.321   3.251
 3311SOL     OW10046   4.835   1.195   2.962
 3311SOL    HW110047   4.795   1.239   3.043
 3311SOL    HW210048   4.794   1.232   2.879
 3312SOL     OW10049   4.639   0.089   3.264
 3312SOL    HW110050   4.664   0.069   3.169
 3312SOL    HW210051   4.711   0.145   3.306
 3313SOL     OW10052   4.704   1.116   3.581
 3313SOL    HW110053   4.605   1.122   3.591
 3313SOL    HW210054   4.727   1.036   3.525
 3314SOL     OW10055   4.429   1.050   2.230
 3314SOL    HW110056   4.415   1.057   2.329
 3314SOL    HW210057   4.513   0.999   2.212
 3315SOL     OW10058   4.134   0.813   3.113
 3315SOL    HW110059   4.220   0.825   3.163
 3315SOL    HW210060   4.092   0.726   3.140
 3316SOL     OW10061   4.998   0.386   3.124
 3316SOL    HW110062   5.019   0.460   3.188
 3316SOL    HW210063   4.909   0.403   3.081
 3317SOL     OW10064   3.788   1.564   3.193
 3317SOL    HW110065   3.742   1.646   3.159
 3317SOL    HW210066   3.886   1.583   3.202
 3318SOL     OW10067   4.091   1.100   2.363
 3318SOL    HW110068   4.084   1.183   2.307
 3318SOL    HW210069   4.095   1.020   2.303
 3319SOL     OW10070   4.290   0.537   2.727
 3319SOL    HW110071   4.302   0.603   2.653
 3319SOL    HW210072   4.336   0.571   2.810
 3320SOL     OW10073   4.976   1.348   2.250
 3320SOL    HW110074   5.026   1.425   2.290
 3320SOL    HW210075   4.881   1.350   2.282
 3321SOL     OW10076   4.078   1.510   3.191
 3321SOL    HW110077   4.057   1.466   3.104
 3321SOL    HW210078   4.175   1.536   3.194
 3322SOL     OW10079   4.126   0.751   3.460
 3322SOL    HW110080   4.194   0.806   3.413
 3322SOL    HW210081   4.166   0.663   3.487
 3323SOL     OW10082   4.737   0.105   3.632
 3323SOL    HW110083   4.743   0.190   3.580
 3323SOL    HW210084   4.769   0.029   3.575
 3324SOL     OW10085   4.228   0.050   3.602
 3324SOL    HW110086   4.186  -0.007   3.532
 3324SOL    HW210087   4.162   0.119   3.634
 3325SOL     OW10088   4.297   0.870   2.891
 3325SOL    HW110089   4.341   0.959   2.882
 3325SOL    HW210090   4.234   0.870   2.968
 3326SOL     OW10091   5.084   0.862   2.907
 3326SOL    HW110092   5.009   0.862   2.841
 3326SOL    HW210093   5.121   0.770   2.916
 3327SOL     OW10094   4.933   0.525   2.137
 3327SOL    HW110095   4.946   0.441   2.191
 3327SOL    HW210096   4.904   0.599   2.197
 3328SOL     OW10097   4.031   0.213   3.093
 3328SOL    HW110098   4.008   0.250   3.183
 3328SOL    HW210099   4.001   0.118   3.087
 3329SOL     OW10100   3.761   1.310   3.144
 3329SOL    HW110101   3.814   1.261   3.212
 3329SOL    HW210102   3.783   1.408   3.149
 3330SOL     OW10103   4.456   0.634   2.926
 3330SOL    HW110104   4.515   0.608   2.850
 3330SOL    HW210105   4.428   0.730   2.915
 3331SOL     OW10106   4.031   0.063   2.480
 3331SOL    HW110107   4.020   0.157   2.513
 3331SOL    HW210108   4.026   0.000   2.557
 3332SOL     OW10109   5.346   0.367   2.236
 3332SOL    HW110110   5.348   0.291   2.300
 3332SOL    HW210111   5.298   0.444   2.276
 3333SOL     OW10112   4.747   0.766   2.828
 3333SOL    HW110113   4.762   0.787   2.924
 3333SOL    HW210114   4.717   0.671   2.819
 3334SOL     OW10115   4.704   1.573   3.562
 3334SOL    HW110116   4.684   1.617   3.474
 3334SOL    HW210117   4.743   1.482   3.546
 3335SOL     OW10118   4.074   0.898   3.666
 3335SOL    HW110119   4.150   0.942   3.714
 3335SOL    HW210120   4.109   0.851   3.584
 3336SOL     OW10121   5.027   0.838   1.904
 3336SOL    HW110122   5.061   0.745   1.919
 3336SOL    HW210123   5.045   0.865   1.809
 3337SOL     OW10124   4.792   1.333   2.711
 3337SOL    HW110125   4.799   1.249   2.656
 3337SOL    HW210126   4.854   1.402   2.675
 3338SOL     OW10127   4.043   0.810   2.811
 3338SOL    HW110128   4.136   0.846   2.816
 3338SOL    HW210129   4.037   0.725   2.863
 3339SOL     OW10130   4.063   0.509   2.868
 3339SOL    HW110131   4.011   0.426   2.851
 3339SOL    HW210132   4.140   0.514   2.804
 3340SOL     OW10133   4.862   0.380   3.540
 3340SOL    HW110134   4.817   0.443   3.604
 3340SOL    HW210135   4.955   0.411   3.523
 3341SOL     OW10136   4.884   0.207   3.339
 3341SOL    HW110137   4.884   0.271   3.416
 3341SOL    HW210138   4.912   0.255   3.256
 3342SOL     OW10139   3.732   1.326   2.062
 3342SOL    HW110140   3.639   1.347   2.031
 3342SOL    HW210141   3.742   1.227   2.075
 3343SOL     OW10142   3.812   1.801   2.789
 3343SOL    HW110143   3.770   1.715   2.762
 3343SOL    HW210144   3.906   1.804   2.755
 3344SOL     OW10145   4.228   1.568   2.772
 3344SOL    HW110146   4.294   1.642   2.781
 3344SOL    HW210147   4.272   1.489   2.730
 3345SOL     OW10148   4.726   0.796   3.100
 3345SOL    HW110149   4.767   0.764   3.186
 3345SOL    HW210150   4.630   0.769   3.097
 3346SOL     OW10151   3.764   0.544   2.976
 3346SOL    HW110152   3.849   0.511   2.935
 3346SOL    HW210153   3.777   0.559   3.074
 3347SOL     OW10154   3.913   0.520   3.584
 3347SOL    HW110155   3.972   0.480   3.514
 3347SOL    HW210156   3.855   0.591   3.543
 3348SOL     OW10157   4.539   0.572   2.187
 3348SOL    HW110158   4.546   0.483   2.141
 3348SOL    HW210159   4.445   0.606   2.179
 3349SOL     OW10160   3.976   1.564   3.606
 3349SOL    HW110161   3.946   1.621   3.682
 3349SOL    HW210162   3.969   1.467   3.632
 3350SOL     OW10163   4.395   0.464   3.131
 3350SOL    HW110164   4.361   0.375   3.101
 3350SOL    HW210165   4.421   0.518   3.051
 3351SOL     OW10166   4.654   1.678   3.327
 3351SOL    HW110167   4.630   1.660   3.232
 3351SOL    HW210168   4.684   1.772   3.337
 3352SOL     OW10169   4.197   0.500   2.053
 3352SOL    HW110170   4.258   0.580   2.057
 3352SOL    HW210171   4.102   0.531   2.060
 3353SOL     OW10172   3.883   1.137   3.328
 3353SOL    HW110173   3.905   1.076   3.404
 3353SOL    HW210174   3.893   1.088   3.242
 3354SOL     OW10175   5.071   1.059   3.096
 3354SOL    HW110176   5.095   0.996   3.022
 3354SOL    HW210177   4.981   1.099   3.078
 3355SOL     OW10178   4.976   1.731   2.990
 3355SOL    HW110179   5.060   1.736   2.936
 3355SOL    HW210180   4.953   1.635   3.008
 3356SOL     OW10181   3.807   1.258   2.884
 3356SOL    HW110182   3.802   1.257   2.984
 3356SOL    HW210183   3.724   1.217   2.846
 3357SOL     OW10184   4.412   1.662   3.578
 3357SOL    HW110185   4.356   1.743   3.587
 3357SOL    HW210186   4.464   1.666   3.492
 3358SOL     OW10187   5.112   1.573   2.339
 3358SOL    HW110188   5.179   1.585   2.265
 3358SOL    HW210189   5.072   1.662   2.362
 3359SOL     OW10190   3.854   1.794   3.713
 3359SOL    HW110191   3.813   1.720   3.766
 3359SOL    HW210192   3.918   1.845   3.771
 3360SOL     OW10193   5.004   0.927   2.534
 3360SOL    HW110194   5.064   0.846   2.536
 3360SOL    HW210195   5.044   0.996   2.474
 3361SOL     OW10196   4.554   1.273   3.284
 3361SOL    HW110197   4.549   1.306   3.379
 3361SOL    HW210198   4.468   1.292   3.238
 3362SOL     OW10199   4.396   1.616   2.016
 3362SOL    HW110200   4.405   1.626   1.917
 3362SOL    HW210201   4.356   1.527   2.037
 3363SOL     OW10202   3.987   0.326   2.582
 3363SOL    HW110203   3.908   0.377   2.548
 3363SOL    HW210204   3.978   0.311   2.680
 3364SOL     OW10205   4.918   1.612   1.893
 3364SOL    HW110206   4.924   1.519   1.930
 3364SOL    HW210207   4.859   1.612   1.813
 3365SOL     OW10208   4.546   1.002   3.234
 3365SOL    HW110209   4.586   1.001   3.142
 3365SOL    HW210210   4.556   1.094   3.274
 3366SOL     OW10211   4.640   0.910   2.153
 3366SOL    HW110212   4.703   0.948   2.085
 3366SOL    HW210213   4.680   0.827   2.192
 3367SOL     OW10214   4.096   1.288   3.352
 3367SOL    HW110215   4.083   1.381   3.318
 3367SOL    HW210216   4.012   1.236   3.339
 3368SOL     OW10217   4.763   1.098   2.558
 3368SOL    HW110218   4.693   1.051   2.612
 3368SOL    HW210219   4.822   1.030   2.515
 3369SOL     OW10220   4.738   0.236   2.833
 3369SOL    HW110221   4.730   0.200   2.740
 3369SOL    HW210222   4.736   0.160   2.898
 3370SOL     OW10223   4.314   1.487   2.353
 3370SOL    HW110224   4.356   1.429   2.283
 3370SOL    HW210225   4.270   1.566   2.309
 3371SOL     OW10226   3.979   1.348   2.152
 3371SOL    HW110227   3.883   1.349   2.125
 3371SOL    HW210228   3.991   1.401   2.236
 3372SOL     OW10229   3.829   1.013   3.588
 3372SOL    HW110230   3.752   0.980   3.642
 3372SOL    HW210231   3.914   0.983   3.630
 3373SOL     OW10232   4.396   0.203   3.351
 3373SOL    HW110233   4.486   0.187   3.311
 3373SOL    HW210234   4.404   0.208   3.450
 3374SOL     OW10235   3.799   0.345   1.895
 3374SOL    HW110236   3.707   0.317   1.866
 3374SOL    HW210237   3.830   0.422   1.839
 3375SOL     OW10238   5.164   0.856   3.260
 3375SOL    HW110239   5.107   0.908   3.197
 3375SOL    HW210240   5.260   0.868   3.236
 3376SOL     OW10241   3.796   0.166   2.180
 3376SOL    HW110242   3.779   0.249   2.126
 3376SOL    HW210243   3.886   0.129   2.158
 3377SOL     OW10244   4.337   0.842   3.293
 3377SOL    HW110245   4.393   0.923   3.276
 3377SOL    HW210246   4.396   0.762   3.296
 3378SOL     OW10247   4.440   0.565   3.570
 3378SOL    HW110248   4.459   0.630   3.644
 3378SOL    HW210249   4.500   0.485   3.579
 3379SOL     OW10250   4.114   1.741   3.422
 3379SOL    HW110251   4.023   1.782   3.420
 3379SOL    HW210252   4.107   1.647   3.454
 3380SOL     OW10253   4.949   0.325   2.311
 3380SOL    HW110254   5.014   0.251   2.300
 3380SOL    HW210255   4.969   0.375   2.395
 3381SOL     OW10256   4.318   0.745   2.514
 3381SOL    HW110257   4.368   0.830   2.495
 3381SOL    HW210258   4.230   0.747   2.466
 3382SOL     OW10259   4.583   1.374   1.878
 3382SOL    HW110260   4.537   1.389   1.966
 3382SOL    HW210261   4.627   1.459   1.848
 3383SOL     OW10262   4.385   1.790   2.815
 3383SOL    HW110263   4.339   1.878   2.802
 3383SOL    HW210264   4.484   1.802   2.808
 3384SOL     OW10265   4.583   0.956   2.723
 3384SOL    HW110266   4.637   0.887   2.771
 3384SOL    HW210267   4.551   1.025   2.789
 3385SOL     OW10268   4.807   0.984   1.949
 3385SOL    HW110269   4.784   1.037   1.867
 3385SOL    HW210270   4.888   0.928   1.930
 3386SOL     OW10271   3.945   1.314   3.706
 3386SOL    HW110272   3.880   1.241   3.685
 3386SOL    HW210273   3.949   1.328   3.804
 3387SOL     OW10274   3.803   1.240   2.515
 3387SOL    HW110275   3.802   1.193   2.603
 3387SOL    HW210276   3.885   1.212   2.464
 3388SOL     OW10277   4.396   1.391   3.486
 3388SOL    HW110278   4.318   1.341   3.524
 3388SOL    HW210279   4.393   1.486   3.517
 3389SOL     OW10280   4.152   0.424   2.382
 3389SOL    HW110281   4.182   0.352   2.320
 3389SOL    HW210282   4.113   0.384   2.465
 3390SOL     OW10283   4.041   0.547   3.142
 3390SOL    HW110284   4.079   0.488   3.214
 3390SOL    HW210285   4.081   0.521   3.054
 3391SOL     OW10286   4.536   1.586   2.549
 3391SOL    HW110287   4.568   1.596   2.455
 3391SOL    HW210288   4.457   1.524   2.551
 3392SOL     OW10289   4.725   0.034   3.016
 3392SOL    HW110290   4.662  -0.038   2.985
 3392SOL    HW210291   4.818  -0.002   3.016
 3393SOL     OW10292   4.494   1.330   2.163
 3393SOL    HW110293   4.448   1.243   2.180
 3393SOL    HW210294   4.585   1.327   2.204
 3394SOL     OW10295   4.342   1.567   3.146
 3394SOL    HW110296   4.337   1.649   3.203
 3394SOL    HW210297   4.431   1.564   3.101
 3395SOL     OW10298   3.763   1.077   2.162
 3395SOL    HW110299   3.862   1.066   2.153
 3395SOL    HW210300   3.723   0.991   2.194
 3396SOL     OW10301   4.599   1.646   2.199
 3396SOL    HW110302   4.522   1.611   2.145
 3396SOL    HW210303   4.567   1.717   2.261
 3397SOL     OW10304   3.954   0.628   3.837
 3397SOL    HW110305   3.861   0.626   3.874
 3397SOL    HW210306   3.955   0.589   3.745
 3398SOL     OW10307   3.949   0.275   4.720
 3398SOL    HW110308   3.984   0.258   4.812
 3398SOL    HW210309   3.861   0.230   4.708
 3399SOL     OW10310   3.743   0.368   4.371
 3399SOL    HW110311   3.661   0.411   4.410
 3399SOL    HW210312   3.715   0.295   4.308
 3400SOL     OW10313   4.293   1.275   4.889
 3400SOL    HW110314   4.200   1.268   4.852
 3400SOL    HW210315   4.304   1.364   4.933
 3401SOL     OW10316   4.859   0.703   4.441
 3401SOL    HW110317   4.916   0.781   4.416
 3401SOL    HW210318   4.799   0.729   4.517
 3402SOL     OW10319   4.492   1.144   4.747
 3402SOL    HW110320   4.414   1.161   4.807
 3402SOL    HW210321   4.526   1.231   4.711
 3403SOL     OW10322   4.409   1.012   4.389
 3403SOL    HW110323   4.478   0.996   4.459
 3403SOL    HW210324   4.336   1.069   4.427
 3404SOL     OW10325   4.059   1.435   4.785
 3404SOL    HW110326   3.981   1.404   4.732
 3404SOL    HW210327   4.117   1.493   4.728
 3405SOL     OW10328   3.955   1.713   4.207
 3405SOL    HW110329   3.989   1.790   4.261
 3405SOL    HW210330   3.999   1.713   4.117
 3406SOL     OW10331   3.954   1.434   4.262
 3406SOL    HW110332   3.928   1.530   4.262
 3406SOL    HW210333   3.883   1.380   4.307
 3407SOL     OW10334   3.964   1.091   4.610
 3407SOL    HW110335   3.978   1.007   4.662
 3407SOL    HW210336   3.909   1.155   4.665
 3408SOL     OW10337   4.344   1.786   5.163
 3408SOL    HW110338   4.252   1.769   5.198
 3408SOL    HW210339   4.372   1.878   5.189
 3409SOL     OW10340   4.330   0.964   3.847
 3409SOL    HW110341   4.337   1.048   3.793
 3409SOL    HW210342   4.376   0.977   3.935
 3410SOL     OW10343   3.846   0.643   4.287
 3410SOL    HW110344   3.801   0.555   4.304
 3410SOL    HW210345   3.845   0.697   4.371
 3411SOL     OW10346   3.751   1.596   3.841
 3411SOL    HW110347   3.732   1.500   3.862
 3411SOL    HW210348   3.718   1.654   3.916
 3412SOL     OW10349   4.337   1.365   4.450
 3412SOL    HW110350   4.288   1.278   4.459
 3412SOL    HW210351   4.314   1.408   4.363
 3413SOL     OW10352   4.533   0.004   4.226
 3413SOL    HW110353   4.573   0.095   4.217
 3413SOL    HW210354   4.433   0.012   4.232
 3414SOL     OW10355   3.921   0.976   4.988
 3414SOL    HW110356   4.010   0.931   4.974
 3414SOL    HW210357   3.848   0.911   4.969
 3415SOL     OW10358   4.322   0.729   3.994
 3415SOL    HW110359   4.346   0.798   3.926
 3415SOL    HW210360   4.244   0.762   4.048
 3416SOL     OW10361   5.005   0.345   4.668
 3416SOL    HW110362   4.919   0.295   4.655
 3416SOL    HW210363   5.067   0.291   4.724
 3417SOL     OW10364   4.715   0.410   4.966
 3417SOL    HW110365   4.638   0.444   5.020
 3417SOL    HW210366   4.681   0.359   4.887
 3418SOL     OW10367   4.765   0.701   4.153
 3418SOL    HW110368   4.791   0.697   4.249
 3418SOL    HW210369   4.680   0.650   4.139
 3419SOL     OW10370   3.800   0.811   4.513
 3419SOL    HW110371   3.899   0.799   4.522
 3419SOL    HW210372   3.776   0.906   4.534
 3420SOL     OW10373   4.589   0.348   3.919
 3420SOL    HW110374   4.648   0.411   3.870
 3420SOL    HW210375   4.608   0.254   3.890
 3421SOL     OW10376   4.274   0.196   4.609
 3421SOL    HW110377   4.269   0.191   4.709
 3421SOL    HW210378   4.276   0.292   4.580
 3422SOL     OW10379   4.732   1.456   4.201
 3422SOL    HW110380   4.686   1.528   4.149
 3422SOL    HW210381   4.728   1.476   4.299
 3423SOL     OW10382   4.075   1.801   4.577
 3423SOL    HW110383   4.125   1.715   4.583
 3423SOL    HW210384   4.140   1.878   4.574
 3424SOL     OW10385   4.045   0.943   3.966
 3424SOL    HW110386   4.127   0.982   3.924
 3424SOL    HW210387   4.018   0.861   3.917
 3425SOL     OW10388   4.835   1.776   3.961
 3425SOL    HW110389   4.775   1.714   4.011
 3425SOL    HW210390   4.866   1.732   3.876
 3426SOL     OW10391   4.188   1.743   4.047
 3426SOL    HW110392   4.221   1.782   4.133
 3426SOL    HW210393   4.264   1.736   3.982
 3427SOL     OW10394   3.973   1.785   4.965
 3427SOL    HW110395   4.030   1.720   5.015
 3427SOL    HW210396   3.957   1.752   4.872
 3428SOL     OW10397   4.664   1.698   4.628
 3428SOL    HW110398   4.744   1.641   4.649
 3428SOL    HW210399   4.615   1.658   4.551
 3429SOL     OW10400   4.106   0.700   4.204
 3429SOL    HW110401   4.151   0.610   4.201
 3429SOL    HW210402   4.012   0.689   4.237
 3430SOL     OW10403   4.338   0.122   3.841
 3430SOL    HW110404   4.436   0.100   3.848
 3430SOL    HW210405   4.307   0.105   3.748
 3431SOL     OW10406   4.527   1.402   4.648
 3431SOL    HW110407   4.617   1.416   4.606
 3431SOL    HW210408   4.456   1.404   4.577
 3432SOL     OW10409   4.646   0.503   4.623
 3432SOL    HW110410   4.621   0.494   4.527
 3432SOL    HW210411   4.694   0.421   4.654
 3433SOL     OW10412   4.263   0.064   4.236
 3433SOL    HW110413   4.182   0.065   4.294
 3433SOL    HW210414   4.266   0.147   4.181
 3434SOL     OW10415   4.021   0.035   3.895
 3434SOL    HW110416   4.070   0.119   3.874
 3434SOL    HW210417   4.083  -0.030   3.940
 3435SOL     OW10418   4.659   0.236   4.204
 3435SOL    HW110419   4.611   0.277   4.126
 3435SOL    HW210420   4.758   0.234   4.185
 3436SOL     OW10421   4.951   1.570   4.517
 3436SOL    HW110422   4.972   1.644   4.452
 3436SOL    HW210423   5.019   1.570   4.590
 3437SOL     OW10424   4.183   1.152   4.465
 3437SOL    HW110425   4.112   1.125   4.530
 3437SOL    HW210426   4.157   1.124   4.372
 3438SOL     OW10427   4.995   1.797   4.315
 3438SOL    HW110428   5.039   1.861   4.251
 3438SOL    HW210429   4.945   1.849   4.385
 3439SOL     OW10430   4.756   0.549   3.740
 3439SOL    HW110431   4.715   0.631   3.701
 3439SOL    HW210432   4.820   0.575   3.813
 3440SOL     OW10433   4.285   0.222   4.871
 3440SOL    HW110434   4.323   0.138   4.908
 3440SOL    HW210435   4.197   0.241   4.915
 3441SOL     OW10436   4.590   0.454   4.366
 3441SOL    HW110437   4.558   0.526   4.304
 3441SOL    HW210438   4.614   0.373   4.313
 3442SOL     OW10439   4.741   0.039   4.477
 3442SOL    HW110440   4.669   0.044   4.408
 3442SOL    HW210441   4.717  -0.030   4.546
 3443SOL     OW10442   4.212   1.385   3.898
 3443SOL    HW110443   4.125   1.370   3.945
 3443SOL    HW210444   4.195   1.411   3.803
 3444SOL     OW10445   5.388   1.280   4.381
 3444SOL    HW110446   5.487   1.288   4.395
 3444SOL    HW210447   5.343   1.364   4.412
 3445SOL     OW10448   4.251   0.256   4.052
 3445SOL    HW110449   4.278   0.197   3.977
 3445SOL    HW210450   4.251   0.351   4.021
 3446SOL     OW10451   5.316   1.629   5.349
 3446SOL    HW110452   5.343   1.663   5.259
 3446SOL    HW210453   5.395   1.591   5.395
 3447SOL     OW10454   4.835   1.195   4.824
 3447SOL    HW110455   4.795   1.239   4.905
 3447SOL    HW210456   4.794   1.232   4.741
 3448SOL     OW10457   4.429   1.050   4.092
 3448SOL    HW110458   4.415   1.057   4.191
 3448SOL    HW210459   4.513   0.999   4.074
 3449SOL     OW10460   4.134   0.813   4.975
 3449SOL    HW110461   4.220   0.825   5.025
 3449SOL    HW210462   4.092   0.726   5.002
 3450SOL     OW10463   4.091   1.100   4.225
 3450SOL    HW110464   4.084   1.183   4.169
 3450SOL    HW210465   4.095   1.020   4.165
 3451SOL     OW10466   4.290   0.537   4.589
 3451SOL    HW110467   4.302   0.603   4.515
 3451SOL    HW210468   4.336   0.571   4.672
 3452SOL     OW10469   4.976   1.348   4.112
 3452SOL    HW110470   5.026   1.425   4.152
 3452SOL    HW210471   4.881   1.350   4.144
 3453SOL     OW10472   4.078   1.510   5.053
 3453SOL    HW110473   4.057   1.466   4.966
 3453SOL    HW210474   4.175   1.536   5.056
 3454SOL     OW10475   4.297   0.870   4.753
 3454SOL    HW110476   4.341   0.959   4.744
 3454SOL    HW210477   4.234   0.870   4.830
 3455SOL     OW10478   5.084   0.862   4.769
 3455SOL    HW110479   5.009   0.862   4.703
 3455SOL    HW210480   5.121   0.770   4.778
 3456SOL     OW10481   4.933   0.525   3.999
 3456SOL    HW110482   4.946   0.441   4.053
 3456SOL    HW210483   4.904   0.599   4.059
 3457SOL     OW10484   4.031   0.213   4.955
 3457SOL    HW110485   4.008   0.250   5.045
 3457SOL    HW210486   4.001   0.118   4.949
 3458SOL     OW10487   3.761   1.310   5.006
 3458SOL    HW110488   3.814   1.261   5.074
 3458SOL    HW210489   3.783   1.408   5.011
 3459SOL     OW10490   4.456   0.634   4.788
 3459SOL    HW110491   4.515   0.608   4.712
 3459SOL    HW210492   4.428   0.730   4.777
 3460SOL     OW10493   4.031   0.063   4.342
 3460SOL    HW110494   4.020   0.157   4.375
 3460SOL    HW210495   4.026   0.000   4.419
 3461SOL     OW10496   5.346   0.367   4.098
 3461SOL    HW110497   5.348   0.291   4.162
 3461SOL    HW210498   5.298   0.444   4.138
 3462SOL     OW10499   4.747   0.766   4.690
 3462SOL    HW110500   4.762   0.787   4.786
 3462SOL    HW210501   4.717   0.671   4.681
 3463SOL     OW10502   5.027   0.838   3.766
 3463SOL    HW110503   5.061   0.745   3.781
 3463SOL    HW210504   5.045   0.865   3.671
 3464SOL     OW10505   4.792   1.333   4.573
 3464SOL    HW110506   4.799   1.249   4.518
 3464SOL    HW210507   4.854   1.402   4.537
 3465SOL     OW10508   4.043   0.810   4.673
 3465SOL    HW110509   4.136   0.846   4.678
 3465SOL    HW210510   4.037   0.725   4.725
 3466SOL     OW10511   4.063   0.509   4.730
 3466SOL    HW110512   4.011   0.426   4.713
 3466SOL    HW210513   4.140   0.514   4.666
 3467SOL     OW10514   4.884   0.207   5.201
 3467SOL    HW110515   4.884   0.271   5.278
 3467SOL    HW210516   4.912   0.255   5.118
 3468SOL     OW10517   3.732   1.326   3.924
 3468SOL    HW110518   3.639   1.347   3.893
 3468SOL    HW210519   3.742   1.227   3.937
 3469SOL     OW10520   3.812   1.801   4.651
 3469SOL    HW110521   3.770   1.715   4.624
 3469SOL    HW210522   3.906   1.804   4.617
 3470SOL     OW10523   4.228   1.568   4.634
 3470SOL    HW110524   4.294   1.642   4.643
 3470SOL    HW210525   4.272   1.489   4.592
 3471SOL     OW10526   4.726   0.796   4.962
 3471SOL    HW110527   4.767   0.764   5.048
 3471SOL    HW210528   4.630   0.769   4.959
 3472SOL     OW10529   3.764   0.544   4.838
 3472SOL    HW110530   3.849   0.511   4.797
 3472SOL    HW210531   3.777   0.559   4.936
 3473SOL     OW10532   4.539   0.572   4.049
 3473SOL    HW110533   4.546   0.483   4.003
 3473SOL    HW210534   4.445   0.606   4.041
 3474SOL     OW10535   4.395   0.464   4.993
 3474SOL    HW110536   4.361   0.375   4.963
 3474SOL    HW210537   4.421   0.518   4.913
 3475SOL     OW10538   4.654   1.678   5.189
 3475SOL    HW110539   4.630   1.660   5.094
 3475SOL    HW210540   4.684   1.772   5.199
 3476SOL     OW10541   4.197   0.500   3.915
 3476SOL    HW110542   4.258   0.580   3.919
 3476SOL    HW210543   4.102   0.531   3.922
 3477SOL     OW10544   5.071   1.059   4.958
 3477SOL    HW110545   5.095   0.996   4.884
 3477SOL    HW210546   4.981   1.099   4.940
 3478SOL     OW10547   4.976   1.731   4.852
 3478SOL    HW110548   5.060   1.736   4.798
 3478SOL    HW210549   4.953   1.635   4.870
 3479SOL     OW10550   3.807   1.258   4.746
 3479SOL    HW110551   3.802   1.257   4.846
 3479SOL    HW210552   3.724   1.217   4.708
 3480SOL     OW10553   5.112   1.573   4.201
 3480SOL    HW110554   5.179   1.585   4.127
 3480SOL    HW210555   5.072   1.662   4.224
 3481SOL     OW10556   5.004   0.927   4.396
 3481SOL    HW110557   5.064   0.846   4.398
 3481SOL    HW210558   5.044   0.996   4.336
 3482SOL     OW10559   4.396   1.616   3.878
 3482SOL    HW110560   4.405   1.626   3.779
 3482SOL    HW210561   4.356   1.527   3.899
 3483SOL     OW10562   3.987   0.326   4.444
 3483SOL    HW110563   3.908   0.377   4.410
 3483SOL    HW210564   3.978   0.311   4.542
 3484SOL     OW10565   4.918   1.612   3.755
 3484SOL    HW110566   4.924   1.519   3.792
 3484SOL    HW210567   4.859   1.612   3.675
 3485SOL     OW10568   4.546   1.002   5.096
 3485SOL    HW110569   4.586   1.001   5.004
 3485SOL    HW210570   4.556   1.094   5.136
 3486SOL     OW10571   4.640   0.910   4.015
 3486SOL    HW110572   4.703   0.948   3.947
 3486SOL    HW210573   4.680   0.827   4.054
 3487SOL     OW10574   4.763   1.098   4.420
 3487SOL    HW110575   4.693   1.051   4.474
 3487SOL    HW210576   4.822   1.030   4.377
 3488SOL     OW10577   4.738   0.236   4.695
 3488SOL    HW110578   4.730   0.200   4.602
 3488SOL    HW210579   4.736   0.160   4.760
 3489SOL     OW10580   4.314   1.487   4.215
 3489SOL    HW110581   4.356   1.429   4.145
 3489SOL    HW210582   4.270   1.566   4.171
 3490SOL     OW10583   3.979   1.348   4.014
 3490SOL    HW110584   3.883   1.349   3.987
 3490SOL    HW210585   3.991   1.401   4.098
 3491SOL     OW10586   3.799   0.345   3.757
 3491SOL    HW110587   3.707   0.317   3.728
 3491SOL    HW210588   3.830   0.422   3.701
 3492SOL     OW10589   3.796   0.166   4.042
 3492SOL    HW110590   3.779   0.249   3.988
 3492SOL    HW210591   3.886   0.129   4.020
 3493SOL     OW10592   4.949   0.325   4.173
 3493SOL    HW110593   5.014   0.251   4.162
 3493SOL    HW210594   4.969   0.375   4.257
 3494SOL     OW10595   4.318   0.745   4.376
 3494SOL    HW110596   4.368   0.830   4.357
 3494SOL    HW210597   4.230   0.747   4.328
 3495SOL     OW10598   4.583   1.374   3.740
 3495SOL    HW110599   4.537   1.389   3.828
 3495SOL    HW210600   4.627   1.459   3.710
 3496SOL     OW10601   4.385   1.790   4.677
 3496SOL    HW110602   4.339   1.878   4.664
 3496SOL    HW210603   4.484   1.802   4.670
 3497SOL     OW10604   4.583   0.956   4.585
 3497SOL    HW110605   4.637   0.887   4.633
 3497SOL    HW210606   4.551   1.025   4.651
 3498SOL     OW10607   4.807   0.984   3.811
 3498SOL    HW110608   4.784   1.037   3.729
 3498SOL    HW210609   4.888   0.928   3.792
 3499SOL     OW10610   3.803   1.240   4.377
 3499SOL    HW110611   3.802   1.193   4.465
 3499SOL    HW210612   3.885   1.212   4.326
 3500SOL     OW10613   4.152   0.424   4.244
 3500SOL    HW110614   4.182   0.352   4.182
 3500SOL    HW210615   4.113   0.384   4.327
 3501SOL     OW10616   4.536   1.586   4.411
 3501SOL    HW110617   4.568   1.596   4.317
 3501SOL    HW210618   4.457   1.524   4.413
 3502SOL     OW10619   4.725   0.034   4.878
 3502SOL    HW110620   4.662  -0.038   4.847
 3502SOL    HW210621   4.818  -0.002   4.878
 3503SOL     OW10622   4.494   1.330   4.025
 3503SOL    HW110623   4.448   1.243   4.042
 3503SOL    HW210624   4.585   1.327   4.066
 3504SOL     OW10625   3.763   1.077   4.024
 3504SOL    HW110626   3.862   1.066   4.015
 3504SOL    HW210627   3.723   0.991   4.056
 3505SOL     OW10628   4.599   1.646   4.061
 3505SOL    HW110629   4.522   1.611   4.007
 3505SOL    HW210630   4.567   1.717   4.123
 3506SOL     OW10631   3.954   2.490   0.113
 3506SOL    HW110632   3.861   2.488   0.150
 3506SOL    HW210633   3.955   2.451   0.021
 3507SOL     OW10634   3.949   2.137   0.996
 3507SOL    HW110635   3.984   2.120   1.088
 3507SOL    HW210636   3.861   2.092   0.984
 3508SOL     OW10637   3.743   2.230   0.647
 3508SOL    HW110638   3.661   2.273   0.686
 3508SOL    HW210639   3.715   2.157   0.584
 3509SOL     OW10640   4.293   3.137   1.165
 3509SOL    HW110641   4.200   3.130   1.128
 3509SOL    HW210642   4.304   3.226   1.209
 3510SOL     OW10643   4.859   2.565   0.717
 3510SOL    HW110644   4.916   2.643   0.692
 3510SOL    HW210645   4.799   2.591   0.793
 3511SOL     OW10646   4.492   3.006   1.023
 3511SOL    HW110647   4.414   3.023   1.083
 3511SOL    HW210648   4.526   3.093   0.987
 3512SOL     OW10649   4.574   2.660   1.823
 3512SOL    HW110650   4.570   2.736   1.888
 3512SOL    HW210651   4.596   2.696   1.732
 3513SOL     OW10652   4.409   2.874   0.665
 3513SOL    HW110653   4.478   2.858   0.735
 3513SOL    HW210654   4.336   2.931   0.703
 3514SOL     OW10655   4.410   3.023   1.803
 3514SOL    HW110656   4.470   3.102   1.817
 3514SOL    HW210657   4.324   3.054   1.762
 3515SOL     OW10658   4.059   3.297   1.061
 3515SOL    HW110659   3.981   3.266   1.008
 3515SOL    HW210660   4.117   3.355   1.004
 3516SOL     OW10661   4.162   2.254   1.499
 3516SOL    HW110662   4.244   2.198   1.508
 3516SOL    HW210663   4.081   2.196   1.503
 3517SOL     OW10664   3.955   3.575   0.483
 3517SOL    HW110665   3.989   3.652   0.537
 3517SOL    HW210666   3.999   3.575   0.393
 3518SOL     OW10667   4.851   3.203   1.690
 3518SOL    HW110668   4.898   3.203   1.778
 3518SOL    HW210669   4.803   3.116   1.679
 3519SOL     OW10670   3.954   3.296   0.538
 3519SOL    HW110671   3.928   3.392   0.538
 3519SOL    HW210672   3.883   3.242   0.583
 3520SOL     OW10673   3.964   2.953   0.886
 3520SOL    HW110674   3.978   2.869   0.938
 3520SOL    HW210675   3.909   3.017   0.941
 3521SOL     OW10676   4.344   3.648   1.439
 3521SOL    HW110677   4.252   3.631   1.474
 3521SOL    HW210678   4.372   3.740   1.465
 3522SOL     OW10679   4.330   2.826   0.123
 3522SOL    HW110680   4.337   2.910   0.069
 3522SOL    HW210681   4.376   2.839   0.211
 3523SOL     OW10682   3.846   2.505   0.563
 3523SOL    HW110683   3.801   2.417   0.580
 3523SOL    HW210684   3.845   2.559   0.647
 3524SOL     OW10685   3.751   3.458   0.117
 3524SOL    HW110686   3.732   3.362   0.138
 3524SOL    HW210687   3.718   3.516   0.192
 3525SOL     OW10688   3.837   2.599   1.597
 3525SOL    HW110689   3.925   2.586   1.642
 3525SOL    HW210690   3.824   2.696   1.575
 3526SOL     OW10691   4.337   3.227   0.726
 3526SOL    HW110692   4.288   3.140   0.735
 3526SOL    HW210693   4.314   3.270   0.639
 3527SOL     OW10694   5.017   3.090   1.423
 3527SOL    HW110695   5.054   3.017   1.365
 3527SOL    HW210696   5.069   3.095   1.508
 3528SOL     OW10697   4.533   1.866   0.502
 3528SOL    HW110698   4.573   1.957   0.493
 3528SOL    HW210699   4.433   1.874   0.508
 3529SOL     OW10700   3.921   2.838   1.264
 3529SOL    HW110701   4.010   2.793   1.250
 3529SOL    HW210702   3.848   2.773   1.245
 3530SOL     OW10703   4.911   3.654   1.616
 3530SOL    HW110704   4.935   3.714   1.540
 3530SOL    HW210705   4.918   3.559   1.586
 3531SOL     OW10706   4.041   2.113   1.801
 3531SOL    HW110707   4.112   2.184   1.807
 3531SOL    HW210708   3.953   2.152   1.829
 3532SOL     OW10709   4.322   2.591   0.270
 3532SOL    HW110710   4.346   2.660   0.202
 3532SOL    HW210711   4.244   2.624   0.324
 3533SOL     OW10712   5.005   2.207   0.944
 3533SOL    HW110713   4.919   2.157   0.931
 3533SOL    HW210714   5.067   2.153   1.000
 3534SOL     OW10715   4.531   2.467   1.465
 3534SOL    HW110716   4.484   2.464   1.554
 3534SOL    HW210717   4.480   2.412   1.399
 3535SOL     OW10718   4.697   2.752   1.572
 3535SOL    HW110719   4.743   2.668   1.543
 3535SOL    HW210720   4.641   2.786   1.497
 3536SOL     OW10721   4.715   2.272   1.242
 3536SOL    HW110722   4.638   2.306   1.296
 3536SOL    HW210723   4.681   2.221   1.163
 3537SOL     OW10724   4.765   2.563   0.429
 3537SOL    HW110725   4.791   2.559   0.525
 3537SOL    HW210726   4.680   2.512   0.415
 3538SOL     OW10727   3.800   2.673   0.789
 3538SOL    HW110728   3.899   2.661   0.798
 3538SOL    HW210729   3.776   2.768   0.810
 3539SOL     OW10730   3.854   3.683   1.571
 3539SOL    HW110731   3.844   3.668   1.670
 3539SOL    HW210732   3.768   3.719   1.535
 3540SOL     OW10733   4.589   2.210   0.195
 3540SOL    HW110734   4.648   2.273   0.146
 3540SOL    HW210735   4.608   2.116   0.166
 3541SOL     OW10736   4.274   2.058   0.885
 3541SOL    HW110737   4.269   2.053   0.985
 3541SOL    HW210738   4.276   2.154   0.856
 3542SOL     OW10739   4.732   3.318   0.477
 3542SOL    HW110740   4.686   3.390   0.425
 3542SOL    HW210741   4.728   3.338   0.575
 3543SOL     OW10742   4.075   3.663   0.853
 3543SOL    HW110743   4.125   3.577   0.859
 3543SOL    HW210744   4.140   3.740   0.850
 3544SOL     OW10745   4.951   3.412   1.506
 3544SOL    HW110746   4.957   3.335   1.570
 3544SOL    HW210747   4.899   3.386   1.426
 3545SOL     OW10748   4.045   2.805   0.242
 3545SOL    HW110749   4.127   2.844   0.200
 3545SOL    HW210750   4.018   2.723   0.193
 3546SOL     OW10751   4.185   3.128   1.727
 3546SOL    HW110752   4.135   3.129   1.641
 3546SOL    HW210753   4.122   3.110   1.803
 3547SOL     OW10754   4.835   3.638   0.237
 3547SOL    HW110755   4.775   3.576   0.287
 3547SOL    HW210756   4.866   3.594   0.152
 3548SOL     OW10757   3.926   2.147   1.498
 3548SOL    HW110758   3.846   2.207   1.485
 3548SOL    HW210759   3.916   2.098   1.584
 3549SOL     OW10760   5.356   3.239   0.081
 3549SOL    HW110761   5.324   3.333   0.071
 3549SOL    HW210762   5.280   3.176   0.069
 3550SOL     OW10763   4.188   3.605   0.323
 3550SOL    HW110764   4.221   3.644   0.409
 3550SOL    HW210765   4.264   3.598   0.258
 3551SOL     OW10766   3.973   3.647   1.241
 3551SOL    HW110767   4.030   3.582   1.291
 3551SOL    HW210768   3.957   3.614   1.148
 3552SOL     OW10769   4.664   3.560   0.904
 3552SOL    HW110770   4.744   3.503   0.925
 3552SOL    HW210771   4.615   3.520   0.827
 3553SOL     OW10772   4.106   2.562   0.480
 3553SOL    HW110773   4.151   2.472   0.477
 3553SOL    HW210774   4.012   2.551   0.513
 3554SOL     OW10775   4.505   2.126   1.749
 3554SOL    HW110776   4.572   2.065   1.792
 3554SOL    HW210777   4.432   2.145   1.814
 3555SOL     OW10778   4.612   3.376   1.195
 3555SOL    HW110779   4.589   3.351   1.101
 3555SOL    HW210780   4.673   3.307   1.234
 3556SOL     OW10781   4.527   3.264   0.924
 3556SOL    HW110782   4.617   3.278   0.882
 3556SOL    HW210783   4.456   3.266   0.853
 3557SOL     OW10784   4.646   2.365   0.899
 3557SOL    HW110785   4.621   2.356   0.803
 3557SOL    HW210786   4.694   2.283   0.930
 3558SOL     OW10787   4.263   1.926   0.512
 3558SOL    HW110788   4.182   1.927   0.570
 3558SOL    HW210789   4.266   2.009   0.457
 3559SOL     OW10790   4.021   1.897   0.171
 3559SOL    HW110791   4.070   1.981   0.150
 3559SOL    HW210792   4.083   1.832   0.216
 3560SOL     OW10793   4.659   2.098   0.480
 3560SOL    HW110794   4.611   2.139   0.402
 3560SOL    HW210795   4.758   2.096   0.461
 3561SOL     OW10796   4.800   2.545   1.464
 3561SOL    HW110797   4.720   2.484   1.467
 3561SOL    HW210798   4.881   2.492   1.440
 3562SOL     OW10799   4.951   3.432   0.793
 3562SOL    HW110800   4.972   3.506   0.728
 3562SOL    HW210801   5.019   3.432   0.866
 3563SOL     OW10802   4.183   3.014   0.741
 3563SOL    HW110803   4.112   2.987   0.806
 3563SOL    HW210804   4.157   2.986   0.648
 3564SOL     OW10805   4.995   3.659   0.591
 3564SOL    HW110806   5.039   3.723   0.527
 3564SOL    HW210807   4.945   3.711   0.661
 3565SOL     OW10808   4.756   2.411   0.016
 3565SOL    HW110809   4.715   2.493  -0.023
 3565SOL    HW210810   4.820   2.437   0.089
 3566SOL     OW10811   3.802   2.418   1.386
 3566SOL    HW110812   3.894   2.417   1.345
 3566SOL    HW210813   3.796   2.492   1.453
 3567SOL     OW10814   4.285   2.084   1.147
 3567SOL    HW110815   4.323   2.000   1.184
 3567SOL    HW210816   4.197   2.103   1.191
 3568SOL     OW10817   4.590   2.316   0.642
 3568SOL    HW110818   4.558   2.388   0.580
 3568SOL    HW210819   4.614   2.235   0.589
 3569SOL     OW10820   4.741   1.901   0.753
 3569SOL    HW110821   4.669   1.906   0.684
 3569SOL    HW210822   4.717   1.832   0.822
 3570SOL     OW10823   4.212   3.247   0.174
 3570SOL    HW110824   4.125   3.232   0.221
 3570SOL    HW210825   4.195   3.273   0.079
 3571SOL     OW10826   5.388   3.142   0.657
 3571SOL    HW110827   5.487   3.150   0.671
 3571SOL    HW210828   5.343   3.226   0.688
 3572SOL     OW10829   4.251   2.118   0.328
 3572SOL    HW110830   4.278   2.059   0.253
 3572SOL    HW210831   4.251   2.213   0.297
 3573SOL     OW10832   4.788   3.209   1.340
 3573SOL    HW110833   4.708   3.186   1.395
 3573SOL    HW210834   4.871   3.183   1.389
 3574SOL     OW10835   4.835   3.057   1.100
 3574SOL    HW110836   4.795   3.101   1.181
 3574SOL    HW210837   4.794   3.094   1.017
 3575SOL     OW10838   4.639   1.951   1.402
 3575SOL    HW110839   4.664   1.931   1.307
 3575SOL    HW210840   4.711   2.007   1.444
 3576SOL     OW10841   4.704   2.978   1.719
 3576SOL    HW110842   4.605   2.984   1.729
 3576SOL    HW210843   4.727   2.898   1.663
 3577SOL     OW10844   4.429   2.912   0.368
 3577SOL    HW110845   4.415   2.919   0.467
 3577SOL    HW210846   4.513   2.861   0.350
 3578SOL     OW10847   4.134   2.675   1.251
 3578SOL    HW110848   4.220   2.687   1.301
 3578SOL    HW210849   4.092   2.588   1.278
 3579SOL     OW10850   4.998   2.248   1.262
 3579SOL    HW110851   5.019   2.322   1.326
 3579SOL    HW210852   4.909   2.265   1.219
 3580SOL     OW10853   3.788   3.426   1.331
 3580SOL    HW110854   3.742   3.508   1.297
 3580SOL    HW210855   3.886   3.445   1.340
 3581SOL     OW10856   4.091   2.962   0.501
 3581SOL    HW110857   4.084   3.045   0.445
 3581SOL    HW210858   4.095   2.882   0.441
 3582SOL     OW10859   4.290   2.399   0.865
 3582SOL    HW110860   4.302   2.465   0.791
 3582SOL    HW210861   4.336   2.433   0.948
 3583SOL     OW10862   4.976   3.210   0.388
 3583SOL    HW110863   5.026   3.287   0.428
 3583SOL    HW210864   4.881   3.212   0.420
 3584SOL     OW10865   4.078   3.372   1.329
 3584SOL    HW110866   4.057   3.328   1.242
 3584SOL    HW210867   4.175   3.398   1.332
 3585SOL     OW10868   4.126   2.613   1.598
 3585SOL    HW110869   4.194   2.668   1.551
 3585SOL    HW210870   4.166   2.525   1.625
 3586SOL     OW10871   4.737   1.967   1.770
 3586SOL    HW110872   4.743   2.052   1.718
 3586SOL    HW210873   4.769   1.891   1.713
 3587SOL     OW10874   4.228   1.912   1.740
 3587SOL    HW110875   4.186   1.855   1.670
 3587SOL    HW210876   4.162   1.981   1.772
 3588SOL     OW10877   4.297   2.732   1.029
 3588SOL    HW110878   4.341   2.821   1.020
 3588SOL    HW210879   4.234   2.732   1.106
 3589SOL     OW10880   5.084   2.724   1.045
 3589SOL    HW110881   5.009   2.724   0.979
 3589SOL    HW210882   5.121   2.632   1.054
 3590SOL     OW10883   4.933   2.387   0.275
 3590SOL    HW110884   4.946   2.303   0.329
 3590SOL    HW210885   4.904   2.461   0.335
 3591SOL     OW10886   4.031   2.075   1.231
 3591SOL    HW110887   4.008   2.112   1.321
 3591SOL    HW210888   4.001   1.980   1.225
 3592SOL     OW10889   3.761   3.172   1.282
 3592SOL    HW110890   3.814   3.123   1.350
 3592SOL    HW210891   3.783   3.270   1.287
 3593SOL     OW10892   4.456   2.496   1.064
 3593SOL    HW110893   4.515   2.470   0.988
 3593SOL    HW210894   4.428   2.592   1.053
 3594SOL     OW10895   4.031   1.925   0.618
 3594SOL    HW110896   4.020   2.019   0.651
 3594SOL    HW210897   4.026   1.862   0.695
 3595SOL     OW10898   5.346   2.229   0.374
 3595SOL    HW110899   5.348   2.153   0.438
 3595SOL    HW210900   5.298   2.306   0.414
 3596SOL     OW10901   4.747   2.628   0.966
 3596SOL    HW110902   4.762   2.649   1.062
 3596SOL    HW210903   4.717   2.533   0.957
 3597SOL     OW10904   4.704   3.435   1.700
 3597SOL    HW110905   4.684   3.479   1.612
 3597SOL    HW210906   4.743   3.344   1.684
 3598SOL     OW10907   4.074   2.760   1.804
 3598SOL    HW110908   4.150   2.804   1.852
 3598SOL    HW210909   4.109   2.713   1.722
 3599SOL     OW10910   5.027   2.700   0.042
 3599SOL    HW110911   5.061   2.607   0.057
 3599SOL    HW210912   5.045   2.727  -0.053
 3600SOL     OW10913   4.792   3.195   0.849
 3600SOL    HW110914   4.799   3.111   0.794
 3600SOL    HW210915   4.854   3.264   0.813
 3601SOL     OW10916   4.043   2.672   0.949
 3601SOL    HW110917   4.136   2.708   0.954
 3601SOL    HW210918   4.037   2.587   1.001
 3602SOL     OW10919   4.063   2.371   1.006
 3602SOL    HW110920   4.011   2.288   0.989
 3602SOL    HW210921   4.140   2.376   0.942
 3603SOL     OW10922   4.862   2.242   1.678
 3603SOL    HW110923   4.817   2.305   1.742
 3603SOL    HW210924   4.955   2.273   1.661
 3604SOL     OW10925   4.884   2.069   1.477
 3604SOL    HW110926   4.884   2.133   1.554
 3604SOL    HW210927   4.912   2.117   1.394
 3605SOL     OW10928   3.812   3.663   0.927
 3605SOL    HW110929   3.770   3.577   0.900
 3605SOL    HW210930   3.906   3.666   0.893
 3606SOL     OW10931   4.228   3.430   0.910
 3606SOL    HW110932   4.294   3.504   0.919
 3606SOL    HW210933   4.272   3.351   0.868
 3607SOL     OW10934   4.726   2.658   1.238
 3607SOL    HW110935   4.767   2.626   1.324
 3607SOL    HW210936   4.630   2.631   1.235
 3608SOL     OW10937   3.764   2.406   1.114
 3608SOL    HW110938   3.849   2.373   1.073
 3608SOL    HW210939   3.777   2.421   1.212
 3609SOL     OW10940   3.913   2.382   1.722
 3609SOL    HW110941   3.972   2.342   1.652
 3609SOL    HW210942   3.855   2.453   1.681
 3610SOL     OW10943   4.539   2.434   0.325
 3610SOL    HW110944   4.546   2.345   0.279
 3610SOL    HW210945   4.445   2.468   0.317
 3611SOL     OW10946   3.976   3.426   1.744
 3611SOL    HW110947   3.946   3.483   1.820
 3611SOL    HW210948   3.969   3.329   1.770
 3612SOL     OW10949   4.395   2.326   1.269
 3612SOL    HW110950   4.361   2.237   1.239
 3612SOL    HW210951   4.421   2.380   1.189
 3613SOL     OW10952   4.654   3.540   1.465
 3613SOL    HW110953   4.630   3.522   1.370
 3613SOL    HW210954   4.684   3.634   1.475
 3614SOL     OW10955   4.197   2.362   0.191
 3614SOL    HW110956   4.258   2.442   0.195
 3614SOL    HW210957   4.102   2.393   0.198
 3615SOL     OW10958   3.883   2.999   1.466
 3615SOL    HW110959   3.905   2.938   1.542
 3615SOL    HW210960   3.893   2.950   1.380
 3616SOL     OW10961   5.071   2.921   1.234
 3616SOL    HW110962   5.095   2.858   1.160
 3616SOL    HW210963   4.981   2.961   1.216
 3617SOL     OW10964   4.976   3.593   1.128
 3617SOL    HW110965   5.060   3.598   1.074
 3617SOL    HW210966   4.953   3.497   1.146
 3618SOL     OW10967   3.807   3.120   1.022
 3618SOL    HW110968   3.802   3.119   1.122
 3618SOL    HW210969   3.724   3.079   0.984
 3619SOL     OW10970   4.412   3.524   1.716
 3619SOL    HW110971   4.356   3.605   1.725
 3619SOL    HW210972   4.464   3.528   1.630
 3620SOL     OW10973   4.627   1.948   0.133
 3620SOL    HW110974   4.678   1.949   0.047
 3620SOL    HW210975   4.683   1.906   0.204
 3621SOL     OW10976   5.112   3.435   0.477
 3621SOL    HW110977   5.179   3.447   0.403
 3621SOL    HW210978   5.072   3.524   0.500
 3622SOL     OW10979   3.854   3.656   1.851
 3622SOL    HW110980   3.813   3.582   1.904
 3622SOL    HW210981   3.918   3.707   1.909
 3623SOL     OW10982   5.004   2.789   0.672
 3623SOL    HW110983   5.064   2.708   0.674
 3623SOL    HW210984   5.044   2.858   0.612
 3624SOL     OW10985   4.554   3.135   1.422
 3624SOL    HW110986   4.549   3.168   1.517
 3624SOL    HW210987   4.468   3.154   1.376
 3625SOL     OW10988   4.396   3.478   0.154
 3625SOL    HW110989   4.405   3.488   0.055
 3625SOL    HW210990   4.356   3.389   0.175
 3626SOL     OW10991   3.987   2.188   0.720
 3626SOL    HW110992   3.908   2.239   0.686
 3626SOL    HW210993   3.978   2.173   0.818
 3627SOL     OW10994   4.918   3.474   0.031
 3627SOL    HW110995   4.924   3.381   0.068
 3627SOL    HW210996   4.859   3.474  -0.049
 3628SOL     OW10997   4.546   2.864   1.372
 3628SOL    HW110998   4.586   2.863   1.280
 3628SOL    HW210999   4.556   2.956   1.412
 3629SOL     OW11000   4.640   2.772   0.291
 3629SOL    HW111001   4.703   2.810   0.223
 3629SOL    HW211002   4.680   2.689   0.330
 3630SOL     OW11003   4.096   3.150   1.490
 3630SOL    HW111004   4.083   3.243   1.456
 3630SOL    HW211005   4.012   3.098   1.477
 3631SOL     OW11006   4.763   2.960   0.696
 3631SOL    HW111007   4.693   2.913   0.750
 3631SOL    HW211008   4.822   2.892   0.653
 3632SOL     OW11009   4.738   2.098   0.971
 3632SOL    HW111010   4.730   2.062   0.878
 3632SOL    HW211011   4.736   2.022   1.036
 3633SOL     OW11012   4.314   3.349   0.491
 3633SOL    HW111013   4.356   3.291   0.421
 3633SOL    HW211014   4.270   3.428   0.447
 3634SOL     OW11015   3.979   3.210   0.290
 3634SOL    HW111016   3.883   3.211   0.263
 3634SOL    HW211017   3.991   3.263   0.374
 3635SOL     OW11018   3.829   2.875   1.726
 3635SOL    HW111019   3.752   2.842   1.780
 3635SOL    HW211020   3.914   2.845   1.768
 3636SOL     OW11021   4.396   2.065   1.489
 3636SOL    HW111022   4.486   2.049   1.449
 3636SOL    HW211023   4.404   2.070   1.588
 3637SOL     OW11024   5.164   2.718   1.398
 3637SOL    HW111025   5.107   2.770   1.335
 3637SOL    HW211026   5.260   2.730   1.374
 3638SOL     OW11027   3.796   2.028   0.318
 3638SOL    HW111028   3.779   2.111   0.264
 3638SOL    HW211029   3.886   1.991   0.296
 3639SOL     OW11030   4.337   2.704   1.431
 3639SOL    HW111031   4.393   2.785   1.414
 3639SOL    HW211032   4.396   2.624   1.434
 3640SOL     OW11033   4.440   2.427   1.708
 3640SOL    HW111034   4.459   2.492   1.782
 3640SOL    HW211035   4.500   2.347   1.717
 3641SOL     OW11036   4.114   3.603   1.560
 3641SOL    HW111037   4.023   3.644   1.558
 3641SOL    HW211038   4.107   3.509   1.592
 3642SOL     OW11039   4.949   2.187   0.449
 3642SOL    HW111040   5.014   2.113   0.438
 3642SOL    HW211041   4.969   2.237   0.533
 3643SOL     OW11042   4.318   2.607   0.652
 3643SOL    HW111043   4.368   2.692   0.633
 3643SOL    HW211044   4.230   2.609   0.604
 3644SOL     OW11045   4.583   3.236   0.016
 3644SOL    HW111046   4.537   3.251   0.104
 3644SOL    HW211047   4.627   3.321  -0.014
 3645SOL     OW11048   4.385   3.652   0.953
 3645SOL    HW111049   4.339   3.740   0.940
 3645SOL    HW211050   4.484   3.664   0.946
 3646SOL     OW11051   4.583   2.818   0.861
 3646SOL    HW111052   4.637   2.749   0.909
 3646SOL    HW211053   4.551   2.887   0.927
 3647SOL     OW11054   4.807   2.846   0.087
 3647SOL    HW111055   4.784   2.899   0.005
 3647SOL    HW211056   4.888   2.790   0.068
 3648SOL     OW11057   3.945   3.176   1.844
 3648SOL    HW111058   3.880   3.103   1.823
 3648SOL    HW211059   3.949   3.190   1.942
 3649SOL     OW11060   3.803   3.102   0.653
 3649SOL    HW111061   3.802   3.055   0.741
 3649SOL    HW211062   3.885   3.074   0.602
 3650SOL     OW11063   4.396   3.253   1.624
 3650SOL    HW111064   4.318   3.203   1.662
 3650SOL    HW211065   4.393   3.348   1.655
 3651SOL     OW11066   4.152   2.286   0.520
 3651SOL    HW111067   4.182   2.214   0.458
 3651SOL    HW211068   4.113   2.246   0.603
 3652SOL     OW11069   4.041   2.409   1.280
 3652SOL    HW111070   4.079   2.350   1.352
 3652SOL    HW211071   4.081   2.383   1.192
 3653SOL     OW11072   4.536   3.448   0.687
 3653SOL    HW111073   4.568   3.458   0.593
 3653SOL    HW211074   4.457   3.386   0.689
 3654SOL     OW11075   4.725   1.896   1.154
 3654SOL    HW111076   4.662   1.824   1.123
 3654SOL    HW211077   4.818   1.860   1.154
 3655SOL     OW11078   4.494   3.192   0.301
 3655SOL    HW111079   4.448   3.105   0.318
 3655SOL    HW211080   4.585   3.189   0.342
 3656SOL     OW11081   4.342   3.429   1.284
 3656SOL    HW111082   4.337   3.511   1.341
 3656SOL    HW211083   4.431   3.426   1.239
 3657SOL     OW11084   3.763   2.939   0.300
 3657SOL    HW111085   3.862   2.928   0.291
 3657SOL    HW211086   3.723   2.853   0.332
 3658SOL     OW11087   4.599   3.508   0.337
 3658SOL    HW111088   4.522   3.473   0.283
 3658SOL    HW211089   4.567   3.579   0.399
 3659SOL     OW11090   3.954   2.490   1.975
 3659SOL    HW111091   3.861   2.488   2.012
 3659SOL    HW211092   3.955   2.451   1.883
 3660SOL     OW11093   3.949   2.137   2.858
 3660SOL    HW111094   3.984   2.120   2.950
 3660SOL    HW211095   3.861   2.092   2.846
 3661SOL     OW11096   3.743   2.230   2.509
 3661SOL    HW111097   3.661   2.273   2.548
 3661SOL    HW211098   3.715   2.157   2.446
 3662SOL     OW11099   4.293   3.137   3.027
 3662SOL    HW111100   4.200   3.130   2.990
 3662SOL    HW211101   4.304   3.226   3.071
 3663SOL     OW11102   4.859   2.565   2.579
 3663SOL    HW111103   4.916   2.643   2.554
 3663SOL    HW211104   4.799   2.591   2.655
 3664SOL     OW11105   4.492   3.006   2.885
 3664SOL    HW111106   4.414   3.023   2.945
 3664SOL    HW211107   4.526   3.093   2.849
 3665SOL     OW11108   4.574   2.660   3.685
 3665SOL    HW111109   4.570   2.736   3.750
 3665SOL    HW211110   4.596   2.696   3.594
 3666SOL     OW11111   4.409   2.874   2.527
 3666SOL    HW111112   4.478   2.858   2.597
 3666SOL    HW211113   4.336   2.931   2.565
 3667SOL     OW11114   4.410   3.023   3.665
 3667SOL    HW111115   4.470   3.102   3.679
 3667SOL    HW211116   4.324   3.054   3.624
 3668SOL     OW11117   4.059   3.297   2.923
 3668SOL    HW111118   3.981   3.266   2.870
 3668SOL    HW211119   4.117   3.355   2.866
 3669SOL     OW11120   4.162   2.254   3.361
 3669SOL    HW111121   4.244   2.198   3.370
 3669SOL    HW211122   4.081   2.196   3.365
 3670SOL     OW11123   3.955   3.575   2.345
 3670SOL    HW111124   3.989   3.652   2.399
 3670SOL    HW211125   3.999   3.575   2.255
 3671SOL     OW11126   4.851   3.203   3.552
 3671SOL    HW111127   4.898   3.203   3.640
 3671SOL    HW211128   4.803   3.116   3.541
 3672SOL     OW11129   3.954   3.296   2.400
 3672SOL    HW111130   3.928   3.392   2.400
 3672SOL    HW211131   3.883   3.242   2.445
 3673SOL     OW11132   3.964   2.953   2.748
 3673SOL    HW111133   3.978   2.869   2.800
 3673SOL    HW211134   3.909   3.017   2.803
 3674SOL     OW11135   4.344   3.648   3.301
 3674SOL    HW111136   4.252   3.631   3.336
 3674SOL    HW211137   4.372   3.740   3.327
 3675SOL     OW11138   4.330   2.826   1.985
 3675SOL    HW111139   4.337   2.910   1.931
 3675SOL    HW211140   4.376   2.839   2.073
 3676SOL     OW11141   3.846   2.505   2.425
 3676SOL    HW111142   3.801   2.417   2.442
 3676SOL    HW211143   3.845   2.559   2.509
 3677SOL     OW11144   3.751   3.458   1.979
 3677SOL    HW111145   3.732   3.362   2.000
 3677SOL    HW211146   3.718   3.516   2.054
 3678SOL     OW11147   3.837   2.599   3.459
 3678SOL    HW111148   3.925   2.586   3.504
 3678SOL    HW211149   3.824   2.696   3.437
 3679SOL     OW11150   4.337   3.227   2.588
 3679SOL    HW111151   4.288   3.140   2.597
 3679SOL    HW211152   4.314   3.270   2.501
 3680SOL     OW11153   5.017   3.090   3.285
 3680SOL    HW111154   5.054   3.017   3.227
 3680SOL    HW211155   5.069   3.095   3.370
 3681SOL     OW11156   4.533   1.866   2.364
 3681SOL    HW111157   4.573   1.957   2.355
 3681SOL    HW211158   4.433   1.874   2.370
 3682SOL     OW11159   3.921   2.838   3.126
 3682SOL    HW111160   4.010   2.793   3.112
 3682SOL    HW211161   3.848   2.773   3.107
 3683SOL     OW11162   4.911   3.654   3.478
 3683SOL    HW111163   4.935   3.714   3.402
 3683SOL    HW211164   4.918   3.559   3.448
 3684SOL     OW11165   4.041   2.113   3.663
 3684SOL    HW111166   4.112   2.184   3.669
 3684SOL    HW211167   3.953   2.152   3.691
 3685SOL     OW11168   4.322   2.591   2.132
 3685SOL    HW111169   4.346   2.660   2.064
 3685SOL    HW211170   4.244   2.624   2.186
 3686SOL     OW11171   5.005   2.207   2.806
 3686SOL    HW111172   4.919   2.157   2.793
 3686SOL    HW211173   5.067   2.153   2.862
 3687SOL     OW11174   4.531   2.467   3.327
 3687SOL    HW111175   4.484   2.464   3.416
 3687SOL    HW211176   4.480   2.412   3.261
 3688SOL     OW11177   4.697   2.752   3.434
 3688SOL    HW111178   4.743   2.668   3.405
 3688SOL    HW211179   4.641   2.786   3.359
 3689SOL     OW11180   4.715   2.272   3.104
 3689SOL    HW111181   4.638   2.306   3.158
 3689SOL    HW211182   4.681   2.221   3.025
 3690SOL     OW11183   4.765   2.563   2.291
 3690SOL    HW111184   4.791   2.559   2.387
 3690SOL    HW211185   4.680   2.512   2.277
 3691SOL     OW11186   3.800   2.673   2.651
 3691SOL    HW111187   3.899   2.661   2.660
 3691SOL    HW211188   3.776   2.768   2.672
 3692SOL     OW11189   3.854   3.683   3.433
 3692SOL    HW111190   3.844   3.668   3.532
 3692SOL    HW211191   3.768   3.719   3.397
 3693SOL     OW11192   4.589   2.210   2.057
 3693SOL    HW111193   4.648   2.273   2.008
 3693SOL    HW211194   4.608   2.116   2.028
 3694SOL     OW11195   4.274   2.058   2.747
 3694SOL    HW111196   4.269   2.053   2.847
 3694SOL    HW211197   4.276   2.154   2.718
 3695SOL     OW11198   4.732   3.318   2.339
 3695SOL    HW111199   4.686   3.390   2.287
 3695SOL    HW211200   4.728   3.338   2.437
 3696SOL     OW11201   4.075   3.663   2.715
 3696SOL    HW111202   4.125   3.577   2.721
 3696SOL    HW211203   4.140   3.740   2.712
 3697SOL     OW11204   4.951   3.412   3.368
 3697SOL    HW111205   4.957   3.335   3.432
 3697SOL    HW211206   4.899   3.386   3.288
 3698SOL     OW11207   4.045   2.805   2.104
 3698SOL    HW111208   4.127   2.844   2.062
 3698SOL    HW211209   4.018   2.723   2.055
 3699SOL     OW11210   4.185   3.128   3.589
 3699SOL    HW111211   4.135   3.129   3.503
 3699SOL    HW211212   4.122   3.110   3.665
 3700SOL     OW11213   4.835   3.638   2.099
 3700SOL    HW111214   4.775   3.576   2.149
 3700SOL    HW211215   4.866   3.594   2.014
 3701SOL     OW11216   3.926   2.147   3.360
 3701SOL    HW111217   3.846   2.207   3.347
 3701SOL    HW211218   3.916   2.098   3.446
 3702SOL     OW11219   4.188   3.605   2.185
 3702SOL    HW111220   4.221   3.644   2.271
 3702SOL    HW211221   4.264   3.598   2.120
 3703SOL     OW11222   3.973   3.647   3.103
 3703SOL    HW111223   4.030   3.582   3.153
 3703SOL    HW211224   3.957   3.614   3.010
 3704SOL     OW11225   4.664   3.560   2.766
 3704SOL    HW111226   4.744   3.503   2.787
 3704SOL    HW211227   4.615   3.520   2.689
 3705SOL     OW11228   4.106   2.562   2.342
 3705SOL    HW111229   4.151   2.472   2.339
 3705SOL    HW211230   4.012   2.551   2.375
 3706SOL     OW11231   4.338   1.984   1.979
 3706SOL    HW111232   4.436   1.962   1.986
 3706SOL    HW211233   4.307   1.967   1.886
 3707SOL     OW11234   4.505   2.126   3.611
 3707SOL    HW111235   4.572   2.065   3.654
 3707SOL    HW211236   4.432   2.145   3.676
 3708SOL     OW11237   4.612   3.376   3.057
 3708SOL    HW111238   4.589   3.351   2.963
 3708SOL    HW211239   4.673   3.307   3.096
 3709SOL     OW11240   4.527   3.264   2.786
 3709SOL    HW111241   4.617   3.278   2.744
 3709SOL    HW211242   4.456   3.266   2.715
 3710SOL     OW11243   4.646   2.365   2.761
 3710SOL    HW111244   4.621   2.356   2.665
 3710SOL    HW211245   4.694   2.283   2.792
 3711SOL     OW11246   4.263   1.926   2.374
 3711SOL    HW111247   4.182   1.927   2.432
 3711SOL    HW211248   4.266   2.009   2.319
 3712SOL     OW11249   4.021   1.897   2.033
 3712SOL    HW111250   4.070   1.981   2.012
 3712SOL    HW211251   4.083   1.832   2.078
 3713SOL     OW11252   4.659   2.098   2.342
 3713SOL    HW111253   4.611   2.139   2.264
 3713SOL    HW211254   4.758   2.096   2.323
 3714SOL     OW11255   4.800   2.545   3.326
 3714SOL    HW111256   4.720   2.484   3.329
 3714SOL    HW211257   4.881   2.492   3.302
 3715SOL     OW11258   4.951   3.432   2.655
 3715SOL    HW111259   4.972   3.506   2.590
 3715SOL    HW211260   5.019   3.432   2.728
 3716SOL     OW11261   4.183   3.014   2.603
 3716SOL    HW111262   4.112   2.987   2.668
 3716SOL    HW211263   4.157   2.986   2.510
 3717SOL     OW11264   4.995   3.659   2.453
 3717SOL    HW111265   5.039   3.723   2.389
 3717SOL    HW211266   4.945   3.711   2.523
 3718SOL     OW11267   4.756   2.411   1.878
 3718SOL    HW111268   4.715   2.493   1.839
 3718SOL    HW211269   4.820   2.437   1.951
 3719SOL     OW11270   3.802   2.418   3.248
 3719SOL    HW111271   3.894   2.417   3.207
 3719SOL    HW211272   3.796   2.492   3.315
 3720SOL     OW11273   4.285   2.084   3.009
 3720SOL    HW111274   4.323   2.000   3.046
 3720SOL    HW211275   4.197   2.103   3.053
 3721SOL     OW11276   4.590   2.316   2.504
 3721SOL    HW111277   4.558   2.388   2.442
 3721SOL    HW211278   4.614   2.235   2.451
 3722SOL     OW11279   4.741   1.901   2.615
 3722SOL    HW111280   4.669   1.906   2.546
 3722SOL    HW211281   4.717   1.832   2.684
 3723SOL     OW11282   4.212   3.247   2.036
 3723SOL    HW111283   4.125   3.232   2.083
 3723SOL    HW211284   4.195   3.273   1.941
 3724SOL     OW11285   5.388   3.142   2.519
 3724SOL    HW111286   5.487   3.150   2.533
 3724SOL    HW211287   5.343   3.226   2.550
 3725SOL     OW11288   4.251   2.118   2.190
 3725SOL    HW111289   4.278   2.059   2.115
 3725SOL    HW211290   4.251   2.213   2.159
 3726SOL     OW11291   4.788   3.209   3.202
 3726SOL    HW111292   4.708   3.186   3.257
 3726SOL    HW211293   4.871   3.183   3.251
 3727SOL     OW11294   4.835   3.057   2.962
 3727SOL    HW111295   4.795   3.101   3.043
 3727SOL    HW211296   4.794   3.094   2.879
 3728SOL     OW11297   4.639   1.951   3.264
 3728SOL    HW111298   4.664   1.931   3.169
 3728SOL    HW211299   4.711   2.007   3.306
 3729SOL     OW11300   4.704   2.978   3.581
 3729SOL    HW111301   4.605   2.984   3.591
 3729SOL    HW211302   4.727   2.898   3.525
 3730SOL     OW11303   4.429   2.912   2.230
 3730SOL    HW111304   4.415   2.919   2.329
 3730SOL    HW211305   4.513   2.861   2.212
 3731SOL     OW11306   4.134   2.675   3.113
 3731SOL    HW111307   4.220   2.687   3.163
 3731SOL    HW211308   4.092   2.588   3.140
 3732SOL     OW11309   4.998   2.248   3.124
 3732SOL    HW111310   5.019   2.322   3.188
 3732SOL    HW211311   4.909   2.265   3.081
 3733SOL     OW11312   3.788   3.426   3.193
 3733SOL    HW111313   3.742   3.508   3.159
 3733SOL    HW211314   3.886   3.445   3.202
 3734SOL     OW11315   4.091   2.962   2.363
 3734SOL    HW111316   4.084   3.045   2.307
 3734SOL    HW211317   4.095   2.882   2.303
 3735SOL     OW11318   4.290   2.399   2.727
 3735SOL    HW111319   4.302   2.465   2.653
 3735SOL    HW211320   4.336   2.433   2.810
 3736SOL     OW11321   4.976   3.210   2.250
 3736SOL    HW111322   5.026   3.287   2.290
 3736SOL    HW211323   4.881   3.212   2.282
 3737SOL     OW11324   4.078   3.372   3.191
 3737SOL    HW111325   4.057   3.328   3.104
 3737SOL    HW211326   4.175   3.398   3.194
 3738SOL     OW11327   4.126   2.613   3.460
 3738SOL    HW111328   4.194   2.668   3.413
 3738SOL    HW211329   4.166   2.525   3.487
 3739SOL     OW11330   4.737   1.967   3.632
 3739SOL    HW111331   4.743   2.052   3.580
 3739SOL    HW211332   4.769   1.891   3.575
 3740SOL     OW11333   4.228   1.912   3.602
 3740SOL    HW111334   4.186   1.855   3.532
 3740SOL    HW211335   4.162   1.981   3.634
 3741SOL     OW11336   4.297   2.732   2.891
 3741SOL    HW111337   4.341   2.821   2.882
 3741SOL    HW211338   4.234   2.732   2.968
 3742SOL     OW11339   5.084   2.724   2.907
 3742SOL    HW111340   5.009   2.724   2.841
 3742SOL    HW211341   5.121   2.632   2.916
 3743SOL     OW11342   4.933   2.387   2.137
 3743SOL    HW111343   4.946   2.303   2.191
 3743SOL    HW211344   4.904   2.461   2.197
 3744SOL     OW11345   4.031   2.075   3.093
 3744SOL    HW111346   4.008   2.112   3.183
 3744SOL    HW211347   4.001   1.980   3.087
 3745SOL     OW11348   3.761   3.172   3.144
 3745SOL    HW111349   3.814   3.123   3.212
 3745SOL    HW211350   3.783   3.270   3.149
 3746SOL     OW11351   4.456   2.496   2.926
 3746SOL    HW111352   4.515   2.470   2.850
 3746SOL    HW211353   4.428   2.592   2.915
 3747SOL     OW11354   4.031   1.925   2.480
 3747SOL    HW111355   4.020   2.019   2.513
 3747SOL    HW211356   4.026   1.862   2.557
 3748SOL     OW11357   5.346   2.229   2.236
 3748SOL    HW111358   5.348   2.153   2.300
 3748SOL    HW211359   5.298   2.306   2.276
 3749SOL     OW11360   4.747   2.628   2.828
 3749SOL    HW111361   4.762   2.649   2.924
 3749SOL    HW211362   4.717   2.533   2.819
 3750SOL     OW11363   4.704   3.435   3.562
 3750SOL    HW111364   4.684   3.479   3.474
 3750SOL    HW211365   4.743   3.344   3.546
 3751SOL     OW11366   4.074   2.760   3.666
 3751SOL    HW111367   4.150   2.804   3.714
 3751SOL    HW211368   4.109   2.713   3.584
 3752SOL     OW11369   5.027   2.700   1.904
 3752SOL    HW111370   5.061   2.607   1.919
 3752SOL    HW211371   5.045   2.727   1.809
 3753SOL     OW11372   4.792   3.195   2.711
 3753SOL    HW111373   4.799   3.111   2.656
 3753SOL    HW211374   4.854   3.264   2.675
 3754SOL     OW11375   4.043   2.672   2.811
 3754SOL    HW111376   4.136   2.708   2.816
 3754SOL    HW211377   4.037   2.587   2.863
 3755SOL     OW11378   4.063   2.371   2.868
 3755SOL    HW111379   4.011   2.288   2.851
 3755SOL    HW211380   4.140   2.376   2.804
 3756SOL     OW11381   4.862   2.242   3.540
 3756SOL    HW111382   4.817   2.305   3.604
 3756SOL    HW211383   4.955   2.273   3.523
 3757SOL     OW11384   4.884   2.069   3.339
 3757SOL    HW111385   4.884   2.133   3.416
 3757SOL    HW211386   4.912   2.117   3.256
 3758SOL     OW11387   3.732   3.188   2.062
 3758SOL    HW111388   3.639   3.209   2.031
 3758SOL    HW211389   3.742   3.089   2.075
 3759SOL     OW11390   3.812   3.663   2.789
 3759SOL    HW111391   3.770   3.577   2.762
 3759SOL    HW211392   3.906   3.666   2.755
 3760SOL     OW11393   4.228   3.430   2.772
 3760SOL    HW111394   4.294   3.504   2.781
 3760SOL    HW211395   4.272   3.351   2.730
 3761SOL     OW11396   4.726   2.658   3.100
 3761SOL    HW111397   4.767   2.626   3.186
 3761SOL    HW211398   4.630   2.631   3.097
 3762SOL     OW11399   3.764   2.406   2.976
 3762SOL    HW111400   3.849   2.373   2.935
 3762SOL    HW211401   3.777   2.421   3.074
 3763SOL     OW11402   3.913   2.382   3.584
 3763SOL    HW111403   3.972   2.342   3.514
 3763SOL    HW211404   3.855   2.453   3.543
 3764SOL     OW11405   4.539   2.434   2.187
 3764SOL    HW111406   4.546   2.345   2.141
 3764SOL    HW211407   4.445   2.468   2.179
 3765SOL     OW11408   3.976   3.426   3.606
 3765SOL    HW111409   3.946   3.483   3.682
 3765SOL    HW211410   3.969   3.329   3.632
 3766SOL     OW11411   4.395   2.326   3.131
 3766SOL    HW111412   4.361   2.237   3.101
 3766SOL    HW211413   4.421   2.380   3.051
 3767SOL     OW11414   4.654   3.540   3.327
 3767SOL    HW111415   4.630   3.522   3.232
 3767SOL    HW211416   4.684   3.634   3.337
 3768SOL     OW11417   4.197   2.362   2.053
 3768SOL    HW111418   4.258   2.442   2.057
 3768SOL    HW211419   4.102   2.393   2.060
 3769SOL     OW11420   3.883   2.999   3.328
 3769SOL    HW111421   3.905   2.938   3.404
 3769SOL    HW211422   3.893   2.950   3.242
 3770SOL     OW11423   5.071   2.921   3.096
 3770SOL    HW111424   5.095   2.858   3.022
 3770SOL    HW211425   4.981   2.961   3.078
 3771SOL     OW11426   4.976   3.593   2.990
 3771SOL    HW111427   5.060   3.598   2.936
 3771SOL    HW211428   4.953   3.497   3.008
 3772SOL     OW11429   3.807   3.120   2.884
 3772SOL    HW111430   3.802   3.119   2.984
 3772SOL    HW211431   3.724   3.079   2.846
 3773SOL     OW11432   4.412   3.524   3.578
 3773SOL    HW111433   4.356   3.605   3.587
 3773SOL    HW211434   4.464   3.528   3.492
 3774SOL     OW11435   5.112   3.435   2.339
 3774SOL    HW111436   5.179   3.447   2.265
 3774SOL    HW211437   5.072   3.524   2.362
 3775SOL     OW11438   3.854   3.656   3.713
 3775SOL    HW111439   3.813   3.582   3.766
 3775SOL    HW211440   3.918   3.707   3.771
 3776SOL     OW11441   5.004   2.789   2.534
 3776SOL    HW111442   5.064   2.708   2.536
 3776SOL    HW211443   5.044   2.858   2.474
 3777SOL     OW11444   4.554   3.135   3.284
 3777SOL    HW111445   4.549   3.168   3.379
 3777SOL    HW211446   4.468   3.154   3.238
 3778SOL     OW11447   4.396   3.478   2.016
 3778SOL    HW111448   4.405   3.488   1.917
 3778SOL    HW211449   4.356   3.389   2.037
 3779SOL     OW11450   3.987   2.188   2.582
 3779SOL    HW111451   3.908   2.239   2.548
 3779SOL    HW211452   3.978   2.173   2.680
 3780SOL     OW11453   4.918   3.474   1.893
 3780SOL    HW111454   4.924   3.381   1.930
 3780SOL    HW211455   4.859   3.474   1.813
 3781SOL     OW11456   4.546   2.864   3.234
 3781SOL    HW111457   4.586   2.863   3.142
 3781SOL    HW211458   4.556   2.956   3.274
 3782SOL     OW11459   4.640   2.772   2.153
 3782SOL    HW111460   4.703   2.810   2.085
 3782SOL    HW211461   4.680   2.689   2.192
 3783SOL     OW11462   4.096   3.150   3.352
 3783SOL    HW111463   4.083   3.243   3.318
 3783SOL    HW211464   4.012   3.098   3.339
 3784SOL     OW11465   4.763   2.960   2.558
 3784SOL    HW111466   4.693   2.913   2.612
 3784SOL    HW211467   4.822   2.892   2.515
 3785SOL     OW11468   4.738   2.098   2.833
 3785SOL    HW111469   4.730   2.062   2.740
 3785SOL    HW211470   4.736   2.022   2.898
 3786SOL     OW11471   4.314   3.349   2.353
 3786SOL    HW111472   4.356   3.291   2.283
 3786SOL    HW211473   4.270   3.428   2.309
 3787SOL     OW11474   3.979   3.210   2.152
 3787SOL    HW111475   3.883   3.211   2.125
 3787SOL    HW211476   3.991   3.263   2.236
 3788SOL     OW11477   3.829   2.875   3.588
 3788SOL    HW111478   3.752   2.842   3.642
 3788SOL    HW211479   3.914   2.845   3.630
 3789SOL     OW11480   4.396   2.065   3.351
 3789SOL    HW111481   4.486   2.049   3.311
 3789SOL    HW211482   4.404   2.070   3.450
 3790SOL     OW11483   3.799   2.207   1.895
 3790SOL    HW111484   3.707   2.179   1.866
 3790SOL    HW211485   3.830   2.284   1.839
 3791SOL     OW11486   5.164   2.718   3.260
 3791SOL    HW111487   5.107   2.770   3.197
 3791SOL    HW211488   5.260   2.730   3.236
 3792SOL     OW11489   3.796   2.028   2.180
 3792SOL    HW111490   3.779   2.111   2.126
 3792SOL    HW211491   3.886   1.991   2.158
 3793SOL     OW11492   4.337   2.704   3.293
 3793SOL    HW111493   4.393   2.785   3.276
 3793SOL    HW211494   4.396   2.624   3.296
 3794SOL     OW11495   4.440   2.427   3.570
 3794SOL    HW111496   4.459   2.492   3.644
 3794SOL    HW211497   4.500   2.347   3.579
 3795SOL     OW11498   4.114   3.603   3.422
 3795SOL    HW111499   4.023   3.644   3.420
 3795SOL    HW211500   4.107   3.509   3.454
 3796SOL     OW11501   4.949   2.187   2.311
 3796SOL    HW111502   5.014   2.113   2.300
 3796SOL    HW211503   4.969   2.237   2.395
 3797SOL     OW11504   4.318   2.607   2.514
 3797SOL    HW111505   4.368   2.692   2.495
 3797SOL    HW211506   4.230   2.609   2.466
 3798SOL     OW11507   4.583   3.236   1.878
 3798SOL    HW111508   4.537   3.251   1.966
 3798SOL    HW211509   4.627   3.321   1.848
 3799SOL     OW11510   4.385   3.652   2.815
 3799SOL    HW111511   4.339   3.740   2.802
 3799SOL    HW211512   4.484   3.664   2.808
 3800SOL     OW11513   4.583   2.818   2.723
 3800SOL    HW111514   4.637   2.749   2.771
 3800SOL    HW211515   4.551   2.887   2.789
 3801SOL     OW11516   4.807   2.846   1.949
 3801SOL    HW111517   4.784   2.899   1.867
 3801SOL    HW211518   4.888   2.790   1.930
 3802SOL     OW11519   3.945   3.176   3.706
 3802SOL    HW111520   3.880   3.103   3.685
 3802SOL    HW211521   3.949   3.190   3.804
 3803SOL     OW11522   3.803   3.102   2.515
 3803SOL    HW111523   3.802   3.055   2.603
 3803SOL    HW211524   3.885   3.074   2.464
 3804SOL     OW11525   4.396   3.253   3.486
 3804SOL    HW111526   4.318   3.203   3.524
 3804SOL    HW211527   4.393   3.348   3.517
 3805SOL     OW11528   4.152   2.286   2.382
 3805SOL    HW111529   4.182   2.214   2.320
 3805SOL    HW211530   4.113   2.246   2.465
 3806SOL     OW11531   4.041   2.409   3.142
 3806SOL    HW111532   4.079   2.350   3.214
 3806SOL    HW211533   4.081   2.383   3.054
 3807SOL     OW11534   4.536   3.448   2.549
 3807SOL    HW111535   4.568   3.458   2.455
 3807SOL    HW211536   4.457   3.386   2.551
 3808SOL     OW11537   4.725   1.896   3.016
 3808SOL    HW111538   4.662   1.824   2.985
 3808SOL    HW211539   4.818   1.860   3.016
 3809SOL     OW11540   4.494   3.192   2.163
 3809SOL    HW111541   4.448   3.105   2.180
 3809SOL    HW211542   4.585   3.189   2.204
 3810SOL     OW11543   4.342   3.429   3.146
 3810SOL    HW111544   4.337   3.511   3.203
 3810SOL    HW211545   4.431   3.426   3.101
 3811SOL     OW11546   5.076   1.914   2.030
 3811SOL    HW111547   5.111   1.873   1.946
 3811SOL    HW211548   4.986   1.876   2.050
 3812SOL     OW11549   3.763   2.939   2.162
 3812SOL    HW111550   3.862   2.928   2.153
 3812SOL    HW211551   3.723   2.853   2.194
 3813SOL     OW11552   4.599   3.508   2.199
 3813SOL    HW111553   4.522   3.473   2.145
 3813SOL    HW211554   4.567   3.579   2.261
 3814SOL     OW11555   3.954   2.490   3.837
 3814SOL    HW111556   3.861   2.488   3.874
 3814SOL    HW211557   3.955   2.451   3.745
 3815SOL     OW11558   3.949   2.137   4.720
 3815SOL    HW111559   3.984   2.120   4.812
 3815SOL    HW211560   3.861   2.092   4.708
 3816SOL     OW11561   3.743   2.230   4.371
 3816SOL    HW111562   3.661   2.273   4.410
 3816SOL    HW211563   3.715   2.157   4.308
 3817SOL     OW11564   4.293   3.137   4.889
 3817SOL    HW111565   4.200   3.130   4.852
 3817SOL    HW211566   4.304   3.226   4.933
 3818SOL     OW11567   4.859   2.565   4.441
 3818SOL    HW111568   4.916   2.643   4.416
 3818SOL    HW211569   4.799   2.591   4.517
 3819SOL     OW11570   4.492   3.006   4.747
 3819SOL    HW111571   4.414   3.023   4.807
 3819SOL    HW211572   4.526   3.093   4.711
 3820SOL     OW11573   4.409   2.874   4.389
 3820SOL    HW111574   4.478   2.858   4.459
 3820SOL    HW211575   4.336   2.931   4.427
 3821SOL     OW11576   4.059   3.297   4.785
 3821SOL    HW111577   3.981   3.266   4.732
 3821SOL    HW211578   4.117   3.355   4.728
 3822SOL     OW11579   3.955   3.575   4.207
 3822SOL    HW111580   3.989   3.652   4.261
 3822SOL    HW211581   3.999   3.575   4.117
 3823SOL     OW11582   3.954   3.296   4.262
 3823SOL    HW111583   3.928   3.392   4.262
 3823SOL    HW211584   3.883   3.242   4.307
 3824SOL     OW11585   3.964   2.953   4.610
 3824SOL    HW111586   3.978   2.869   4.662
 3824SOL    HW211587   3.909   3.017   4.665
 3825SOL     OW11588   4.344   3.648   5.163
 3825SOL    HW111589   4.252   3.631   5.198
 3825SOL    HW211590   4.372   3.740   5.189
 3826SOL     OW11591   4.330   2.826   3.847
 3826SOL    HW111592   4.337   2.910   3.793
 3826SOL    HW211593   4.376   2.839   3.935
 3827SOL     OW11594   3.846   2.505   4.287
 3827SOL    HW111595   3.801   2.417   4.304
 3827SOL    HW211596   3.845   2.559   4.371
 3828SOL     OW11597   3.751   3.458   3.841
 3828SOL    HW111598   3.732   3.362   3.862
 3828SOL    HW211599   3.718   3.516   3.916
 3829SOL     OW11600   4.337   3.227   4.450
 3829SOL    HW111601   4.288   3.140   4.459
 3829SOL    HW211602   4.314   3.270   4.363
 3830SOL     OW11603   4.533   1.866   4.226
 3830SOL    HW111604   4.573   1.957   4.217
 3830SOL    HW211605   4.433   1.874   4.232
 3831SOL     OW11606   3.921   2.838   4.988
 3831SOL    HW111607   4.010   2.793   4.974
 3831SOL    HW211608   3.848   2.773   4.969
 3832SOL     OW11609   4.322   2.591   3.994
 3832SOL    HW111610   4.346   2.660   3.926
 3832SOL    HW211611   4.244   2.624   4.048
 3833SOL     OW11612   5.005   2.207   4.668
 3833SOL    HW111613   4.919   2.157   4.655
 3833SOL    HW211614   5.067   2.153   4.724
 3834SOL     OW11615   4.715   2.272   4.966
 3834SOL    HW111616   4.638   2.306   5.020
 3834SOL    HW211617   4.681   2.221   4.887
 3835SOL     OW11618   4.765   2.563   4.153
 3835SOL    HW111619   4.791   2.559   4.249
 3835SOL    HW211620   4.680   2.512   4.139
 3836SOL     OW11621   3.800   2.673   4.513
 3836SOL    HW111622   3.899   2.661   4.522
 3836SOL    HW211623   3.776   2.768   4.534
 3837SOL     OW11624   4.589   2.210   3.919
 3837SOL    HW111625   4.648   2.273   3.870
 3837SOL    HW211626   4.608   2.116   3.890
 3838SOL     OW11627   4.274   2.058   4.609
 3838SOL    HW111628   4.269   2.053   4.709
 3838SOL    HW211629   4.276   2.154   4.580
 3839SOL     OW11630   4.732   3.318   4.201
 3839SOL    HW111631   4.686   3.390   4.149
 3839SOL    HW211632   4.728   3.338   4.299
 3840SOL     OW11633   4.075   3.663   4.577
 3840SOL    HW111634   4.125   3.577   4.583
 3840SOL    HW211635   4.140   3.740   4.574
 3841SOL     OW11636   4.045   2.805   3.966
 3841SOL    HW111637   4.127   2.844   3.924
 3841SOL    HW211638   4.018   2.723   3.917
 3842SOL     OW11639   4.835   3.638   3.961
 3842SOL    HW111640   4.775   3.576   4.011
 3842SOL    HW211641   4.866   3.594   3.876
 3843SOL     OW11642   4.188   3.605   4.047
 3843SOL    HW111643   4.221   3.644   4.133
 3843SOL    HW211644   4.264   3.598   3.982
 3844SOL     OW11645   3.973   3.647   4.965
 3844SOL    HW111646   4.030   3.582   5.015
 3844SOL    HW211647   3.957   3.614   4.872
 3845SOL     OW11648   4.664   3.560   4.628
 3845SOL    HW111649   4.744   3.503   4.649
 3845SOL    HW211650   4.615   3.520   4.551
 3846SOL     OW11651   4.106   2.562   4.204
 3846SOL    HW111652   4.151   2.472   4.201
 3846SOL    HW211653   4.012   2.551   4.237
 3847SOL     OW11654   4.338   1.984   3.841
 3847SOL    HW111655   4.436   1.962   3.848
 3847SOL    HW211656   4.307   1.967   3.748
 3848SOL     OW11657   4.527   3.264   4.648
 3848SOL    HW111658   4.617   3.278   4.606
 3848SOL    HW211659   4.456   3.266   4.577
 3849SOL     OW11660   4.646   2.365   4.623
 3849SOL    HW111661   4.621   2.356   4.527
 3849SOL    HW211662   4.694   2.283   4.654
 3850SOL     OW11663   4.263   1.926   4.236
 3850SOL    HW111664   4.182   1.927   4.294
 3850SOL    HW211665   4.266   2.009   4.181
 3851SOL     OW11666   4.021   1.897   3.895
 3851SOL    HW111667   4.070   1.981   3.874
 3851SOL    HW211668   4.083   1.832   3.940
 3852SOL     OW11669   4.659   2.098   4.204
 3852SOL    HW111670   4.611   2.139   4.126
 3852SOL    HW211671   4.758   2.096   4.185
 3853SOL     OW11672   4.951   3.432   4.517
 3853SOL    HW111673   4.972   3.506   4.452
 3853SOL    HW211674   5.019   3.432   4.590
 3854SOL     OW11675   4.183   3.014   4.465
 3854SOL    HW111676   4.112   2.987   4.530
 3854SOL    HW211677   4.157   2.986   4.372
 3855SOL     OW11678   4.995   3.659   4.315
 3855SOL    HW111679   5.039   3.723   4.251
 3855SOL    HW211680   4.945   3.711   4.385
 3856SOL     OW11681   4.756   2.411   3.740
 3856SOL    HW111682   4.715   2.493   3.701
 3856SOL    HW211683   4.820   2.437   3.813
 3857SOL     OW11684   4.285   2.084   4.871
 3857SOL    HW111685   4.323   2.000   4.908
 3857SOL    HW211686   4.197   2.103   4.915
 3858SOL     OW11687   4.590   2.316   4.366
 3858SOL    HW111688   4.558   2.388   4.304
 3858SOL    HW211689   4.614   2.235   4.313
 3859SOL     OW11690   4.741   1.901   4.477
 3859SOL    HW111691   4.669   1.906   4.408
 3859SOL    HW211692   4.717   1.832   4.546
 3860SOL     OW11693   4.212   3.247   3.898
 3860SOL    HW111694   4.125   3.232   3.945
 3860SOL    HW211695   4.195   3.273   3.803
 3861SOL     OW11696   5.388   3.142   4.381
 3861SOL    HW111697   5.487   3.150   4.395
 3861SOL    HW211698   5.343   3.226   4.412
 3862SOL     OW11699   4.251   2.118   4.052
 3862SOL    HW111700   4.278   2.059   3.977
 3862SOL    HW211701   4.251   2.213   4.021
 3863SOL     OW11702   5.316   3.491   5.349
 3863SOL    HW111703   5.343   3.525   5.259
 3863SOL    HW211704   5.395   3.453   5.395
 3864SOL     OW11705   4.835   3.057   4.824
 3864SOL    HW111706   4.795   3.101   4.905
 3864SOL    HW211707   4.794   3.094   4.741
 3865SOL     OW11708   4.429   2.912   4.092
 3865SOL    HW111709   4.415   2.919   4.191
 3865SOL    HW211710   4.513   2.861   4.074
 3866SOL     OW11711   4.134   2.675   4.975
 3866SOL    HW111712   4.220   2.687   5.025
 3866SOL    HW211713   4.092   2.588   5.002
 3867SOL     OW11714   4.091   2.962   4.225
 3867SOL    HW111715   4.084   3.045   4.169
 3867SOL    HW211716   4.095   2.882   4.165
 3868SOL     OW11717   4.290   2.399   4.589
 3868SOL    HW111718   4.302   2.465   4.515
 3868SOL    HW211719   4.336   2.433   4.672
 3869SOL     OW11720   4.976   3.210   4.112
 3869SOL    HW111721   5.026   3.287   4.152
 3869SOL    HW211722   4.881   3.212   4.144
 3870SOL     OW11723   4.078   3.372   5.053
 3870SOL    HW111724   4.057   3.328   4.966
 3870SOL    HW211725   4.175   3.398   5.056
 3871SOL     OW11726   4.297   2.732   4.753
 3871SOL    HW111727   4.341   2.821   4.744
 3871SOL    HW211728   4.234   2.732   4.830
 3872SOL     OW11729   5.084   2.724   4.769
 3872SOL    HW111730   5.009   2.724   4.703
 3872SOL    HW211731   5.121   2.632   4.778
 3873SOL     OW11732   4.933   2.387   3.999
 3873SOL    HW111733   4.946   2.303   4.053
 3873SOL    HW211734   4.904   2.461   4.059
 3874SOL     OW11735   4.031   2.075   4.955
 3874SOL    HW111736   4.008   2.112   5.045
 3874SOL    HW211737   4.001   1.980   4.949
 3875SOL     OW11738   3.761   3.172   5.006
 3875SOL    HW111739   3.814   3.123   5.074
 3875SOL    HW211740   3.783   3.270   5.011
 3876SOL     OW11741   4.456   2.496   4.788
 3876SOL    HW111742   4.515   2.470   4.712
 3876SOL    HW211743   4.428   2.592   4.777
 3877SOL     OW11744   4.031   1.925   4.342
 3877SOL    HW111745   4.020   2.019   4.375
 3877SOL    HW211746   4.026   1.862   4.419
 3878SOL     OW11747   5.346   2.229   4.098
 3878SOL    HW111748   5.348   2.153   4.162
 3878SOL    HW211749   5.298   2.306   4.138
 3879SOL     OW11750   4.747   2.628   4.690
 3879SOL    HW111751   4.762   2.649   4.786
 3879SOL    HW211752   4.717   2.533   4.681
 3880SOL     OW11753   5.027   2.700   3.766
 3880SOL    HW111754   5.061   2.607   3.781
 3880SOL    HW211755   5.045   2.727   3.671
 3881SOL     OW11756   4.792   3.195   4.573
 3881SOL    HW111757   4.799   3.111   4.518
 3881SOL    HW211758   4.854   3.264   4.537
 3882SOL     OW11759   4.043   2.672   4.673
 3882SOL    HW111760   4.136   2.708   4.678
 3882SOL    HW211761   4.037   2.587   4.725
 3883SOL     OW11762   4.063   2.371   4.730
 3883SOL    HW111763   4.011   2.288   4.713
 3883SOL    HW211764   4.140   2.376   4.666
 3884SOL     OW11765   4.884   2.069   5.201
 3884SOL    HW111766   4.884   2.133   5.278
 3884SOL    HW211767   4.912   2.117   5.118
 3885SOL     OW11768   3.732   3.188   3.924
 3885SOL    HW111769   3.639   3.209   3.893
 3885SOL    HW211770   3.742   3.089   3.937
 3886SOL     OW11771   3.812   3.663   4.651
 3886SOL    HW111772   3.770   3.577   4.624
 3886SOL    HW211773   3.906   3.666   4.617
 3887SOL     OW11774   4.228   3.430   4.634
 3887SOL    HW111775   4.294   3.504   4.643
 3887SOL    HW211776   4.272   3.351   4.592
 3888SOL     OW11777   4.726   2.658   4.962
 3888SOL    HW111778   4.767   2.626   5.048
 3888SOL    HW211779   4.630   2.631   4.959
 3889SOL     OW11780   3.764   2.406   4.838
 3889SOL    HW111781   3.849   2.373   4.797
 3889SOL    HW211782   3.777   2.421   4.936
 3890SOL     OW11783   4.539   2.434   4.049
 3890SOL    HW111784   4.546   2.345   4.003
 3890SOL    HW211785   4.445   2.468   4.041
 3891SOL     OW11786   4.395   2.326   4.993
 3891SOL    HW111787   4.361   2.237   4.963
 3891SOL    HW211788   4.421   2.380   4.913
 3892SOL     OW11789   4.654   3.540   5.189
 3892SOL    HW111790   4.630   3.522   5.094
 3892SOL    HW211791   4.684   3.634   5.199
 3893SOL     OW11792   4.197   2.362   3.915
 3893SOL    HW111793   4.258   2.442   3.919
 3893SOL    HW211794   4.102   2.393   3.922
 3894SOL     OW11795   5.071   2.921   4.958
 3894SOL    HW111796   5.095   2.858   4.884
 3894SOL    HW211797   4.981   2.961   4.940
 3895SOL     OW11798   4.976   3.593   4.852
 3895SOL    HW111799   5.060   3.598   4.798
 3895SOL    HW211800   4.953   3.497   4.870
 3896SOL     OW11801   3.807   3.120   4.746
 3896SOL    HW111802   3.802   3.119   4.846
 3896SOL    HW211803   3.724   3.079   4.708
 3897SOL     OW11804   5.112   3.435   4.201
 3897SOL    HW111805   5.179   3.447   4.127
 3897SOL    HW211806   5.072   3.524   4.224
 3898SOL     OW11807   5.004   2.789   4.396
 3898SOL    HW111808   5.064   2.708   4.398
 3898SOL    HW211809   5.044   2.858   4.336
 3899SOL     OW11810   4.396   3.478   3.878
 3899SOL    HW111811   4.405   3.488   3.779
 3899SOL    HW211812   4.356   3.389   3.899
 3900SOL     OW11813   3.987   2.188   4.444
 3900SOL    HW111814   3.908   2.239   4.410
 3900SOL    HW211815   3.978   2.173   4.542
 3901SOL     OW11816   4.918   3.474   3.755
 3901SOL    HW111817   4.924   3.381   3.792
 3901SOL    HW211818   4.859   3.474   3.675
 3902SOL     OW11819   4.546   2.864   5.096
 3902SOL    HW111820   4.586   2.863   5.004
 3902SOL    HW211821   4.556   2.956   5.136
 3903SOL     OW11822   4.640   2.772   4.015
 3903SOL    HW111823   4.703   2.810   3.947
 3903SOL    HW211824   4.680   2.689   4.054
 3904SOL     OW11825   4.763   2.960   4.420
 3904SOL    HW111826   4.693   2.913   4.474
 3904SOL    HW211827   4.822   2.892   4.377
 3905SOL     OW11828   4.738   2.098   4.695
 3905SOL    HW111829   4.730   2.062   4.602
 3905SOL    HW211830   4.736   2.022   4.760
 3906SOL     OW11831   4.314   3.349   4.215
 3906SOL    HW111832   4.356   3.291   4.145
 3906SOL    HW211833   4.270   3.428   4.171
 3907SOL     OW11834   3.979   3.210   4.014
 3907SOL    HW111835   3.883   3.211   3.987
 3907SOL    HW211836   3.991   3.263   4.098
 3908SOL     OW11837   3.799   2.207   3.757
 3908SOL    HW111838   3.707   2.179   3.728
 3908SOL    HW211839   3.830   2.284   3.701
 3909SOL     OW11840   3.796   2.028   4.042
 3909SOL    HW111841   3.779   2.111   3.988
 3909SOL    HW211842   3.886   1.991   4.020
 3910SOL     OW11843   4.949   2.187   4.173
 3910SOL    HW111844   5.014   2.113   4.162
 3910SOL    HW211845   4.969   2.237   4.257
 3911SOL     OW11846   4.318   2.607   4.376
 3911SOL    HW111847   4.368   2.692   4.357
 3911SOL    HW211848   4.230   2.609   4.328
 3912SOL     OW11849   4.583   3.236   3.740
 3912SOL    HW111850   4.537   3.251   3.828
 3912SOL    HW211851   4.627   3.321   3.710
 3913SOL     OW11852   4.385   3.652   4.677
 3913SOL    HW111853   4.339   3.740   4.664
 3913SOL    HW211854   4.484   3.664   4.670
 3914SOL     OW11855   4.583   2.818   4.585
 3914SOL    HW111856   4.637   2.749   4.633
 3914SOL    HW211857   4.551   2.887   4.651
 3915SOL     OW11858   4.807   2.846   3.811
 3915SOL    HW111859   4.784   2.899   3.729
 3915SOL    HW211860   4.888   2.790   3.792
 3916SOL     OW11861   3.803   3.102   4.377
 3916SOL    HW111862   3.802   3.055   4.465
 3916SOL    HW211863   3.885   3.074   4.326
 3917SOL     OW11864   4.152   2.286   4.244
 3917SOL    HW111865   4.182   2.214   4.182
 3917SOL    HW211866   4.113   2.246   4.327
 3918SOL     OW11867   4.536   3.448   4.411
 3918SOL    HW111868   4.568   3.458   4.317
 3918SOL    HW211869   4.457   3.386   4.413
 3919SOL     OW11870   4.725   1.896   4.878
 3919SOL    HW111871   4.662   1.824   4.847
 3919SOL    HW211872   4.818   1.860   4.878
 3920SOL     OW11873   4.494   3.192   4.025
 3920SOL    HW111874   4.448   3.105   4.042
 3920SOL    HW211875   4.585   3.189   4.066
 3921SOL     OW11876   5.076   1.914   3.892
 3921SOL    HW111877   5.111   1.873   3.808
 3921SOL    HW211878   4.986   1.876   3.912
 3922SOL     OW11879   3.763   2.939   4.024
 3922SOL    HW111880   3.862   2.928   4.015
 3922SOL    HW211881   3.723   2.853   4.056
 3923SOL     OW11882   4.599   3.508   4.061
 3923SOL    HW111883   4.522   3.473   4.007
 3923SOL    HW211884   4.567   3.579   4.123
 3924SOL     OW11885   3.954   4.352   0.113
 3924SOL    HW111886   3.861   4.350   0.150
 3924SOL    HW211887   3.955   4.313   0.021
 3925SOL     OW11888   3.949   3.999   0.996
 3925SOL    HW111889   3.984   3.982   1.088
 3925SOL    HW211890   3.861   3.954   0.984
 3926SOL     OW11891   3.743   4.092   0.647
 3926SOL    HW111892   3.661   4.135   0.686
 3926SOL    HW211893   3.715   4.019   0.584
 3927SOL     OW11894   4.293   4.999   1.165
 3927SOL    HW111895   4.200   4.992   1.128
 3927SOL    HW211896   4.304   5.088   1.209
 3928SOL     OW11897   4.859   4.427   0.717
 3928SOL    HW111898   4.916   4.505   0.692
 3928SOL    HW211899   4.799   4.453   0.793
 3929SOL     OW11900   4.492   4.868   1.023
 3929SOL    HW111901   4.414   4.885   1.083
 3929SOL    HW211902   4.526   4.955   0.987
 3930SOL     OW11903   4.574   4.522   1.823
 3930SOL    HW111904   4.570   4.598   1.888
 3930SOL    HW211905   4.596   4.558   1.732
 3931SOL     OW11906   4.409   4.736   0.665
 3931SOL    HW111907   4.478   4.720   0.735
 3931SOL    HW211908   4.336   4.793   0.703
 3932SOL     OW11909   4.410   4.885   1.803
 3932SOL    HW111910   4.470   4.964   1.817
 3932SOL    HW211911   4.324   4.916   1.762
 3933SOL     OW11912   4.059   5.159   1.061
 3933SOL    HW111913   3.981   5.128   1.008
 3933SOL    HW211914   4.117   5.217   1.004
 3934SOL     OW11915   4.162   4.116   1.499
 3934SOL    HW111916   4.244   4.060   1.508
 3934SOL    HW211917   4.081   4.058   1.503
 3935SOL     OW11918   3.964   4.815   0.886
 3935SOL    HW111919   3.978   4.731   0.938
 3935SOL    HW211920   3.909   4.879   0.941
 3936SOL     OW11921   4.330   4.688   0.123
 3936SOL    HW111922   4.337   4.772   0.069
 3936SOL    HW211923   4.376   4.701   0.211
 3937SOL     OW11924   3.846   4.367   0.563
 3937SOL    HW111925   3.801   4.279   0.580
 3937SOL    HW211926   3.845   4.421   0.647
 3938SOL     OW11927   3.837   4.461   1.597
 3938SOL    HW111928   3.925   4.448   1.642
 3938SOL    HW211929   3.824   4.558   1.575
 3939SOL     OW11930   5.017   4.952   1.423
 3939SOL    HW111931   5.054   4.879   1.365
 3939SOL    HW211932   5.069   4.957   1.508
 3940SOL     OW11933   4.533   3.728   0.502
 3940SOL    HW111934   4.573   3.819   0.493
 3940SOL    HW211935   4.433   3.736   0.508
 3941SOL     OW11936   3.921   4.700   1.264
 3941SOL    HW111937   4.010   4.655   1.250
 3941SOL    HW211938   3.848   4.635   1.245
 3942SOL     OW11939   4.041   3.975   1.801
 3942SOL    HW111940   4.112   4.046   1.807
 3942SOL    HW211941   3.953   4.014   1.829
 3943SOL     OW11942   4.322   4.453   0.270
 3943SOL    HW111943   4.346   4.522   0.202
 3943SOL    HW211944   4.244   4.486   0.324
 3944SOL     OW11945   5.005   4.069   0.944
 3944SOL    HW111946   4.919   4.019   0.931
 3944SOL    HW211947   5.067   4.015   1.000
 3945SOL     OW11948   4.531   4.329   1.465
 3945SOL    HW111949   4.484   4.326   1.554
 3945SOL    HW211950   4.480   4.274   1.399
 3946SOL     OW11951   4.697   4.614   1.572
 3946SOL    HW111952   4.743   4.530   1.543
 3946SOL    HW211953   4.641   4.648   1.497
 3947SOL     OW11954   4.715   4.134   1.242
 3947SOL    HW111955   4.638   4.168   1.296
 3947SOL    HW211956   4.681   4.083   1.163
 3948SOL     OW11957   4.765   4.425   0.429
 3948SOL    HW111958   4.791   4.421   0.525
 3948SOL    HW211959   4.680   4.374   0.415
 3949SOL     OW11960   3.800   4.535   0.789
 3949SOL    HW111961   3.899   4.523   0.798
 3949SOL    HW211962   3.776   4.630   0.810
 3950SOL     OW11963   4.589   4.072   0.195
 3950SOL    HW111964   4.648   4.135   0.146
 3950SOL    HW211965   4.608   3.978   0.166
 3951SOL     OW11966   4.274   3.920   0.885
 3951SOL    HW111967   4.269   3.915   0.985
 3951SOL    HW211968   4.276   4.016   0.856
 3952SOL     OW11969   4.045   4.667   0.242
 3952SOL    HW111970   4.127   4.706   0.200
 3952SOL    HW211971   4.018   4.585   0.193
 3953SOL     OW11972   3.926   4.009   1.498
 3953SOL    HW111973   3.846   4.069   1.485
 3953SOL    HW211974   3.916   3.960   1.584
 3954SOL     OW11975   4.106   4.424   0.480
 3954SOL    HW111976   4.151   4.334   0.477
 3954SOL    HW211977   4.012   4.413   0.513
 3955SOL     OW11978   4.505   3.988   1.749
 3955SOL    HW111979   4.572   3.927   1.792
 3955SOL    HW211980   4.432   4.007   1.814
 3956SOL     OW11981   4.527   5.126   0.924
 3956SOL    HW111982   4.617   5.140   0.882
 3956SOL    HW211983   4.456   5.128   0.853
 3957SOL     OW11984   4.646   4.227   0.899
 3957SOL    HW111985   4.621   4.218   0.803
 3957SOL    HW211986   4.694   4.145   0.930
 3958SOL     OW11987   4.263   3.788   0.512
 3958SOL    HW111988   4.182   3.789   0.570
 3958SOL    HW211989   4.266   3.871   0.457
 3959SOL     OW11990   4.021   3.759   0.171
 3959SOL    HW111991   4.070   3.843   0.150
 3959SOL    HW211992   4.083   3.694   0.216
 3960SOL     OW11993   4.659   3.960   0.480
 3960SOL    HW111994   4.611   4.001   0.402
 3960SOL    HW211995   4.758   3.958   0.461
 3961SOL     OW11996   4.800   4.407   1.464
 3961SOL    HW111997   4.720   4.346   1.467
 3961SOL    HW211998   4.881   4.354   1.440
 3962SOL     OW11999   4.951   5.294   0.793
 3962SOL    HW112000   4.972   5.368   0.728
 3962SOL    HW212001   5.019   5.294   0.866
 3963SOL     OW12002   4.183   4.876   0.741
 3963SOL    HW112003   4.112   4.849   0.806
 3963SOL    HW212004   4.157   4.848   0.648
 3964SOL     OW12005   4.756   4.273   0.016
 3964SOL    HW112006   4.715   4.355  -0.023
 3964SOL    HW212007   4.820   4.299   0.089
 3965SOL     OW12008   3.802   4.280   1.386
 3965SOL    HW112009   3.894   4.279   1.345
 3965SOL    HW212010   3.796   4.354   1.453
 3966SOL     OW12011   4.285   3.946   1.147
 3966SOL    HW112012   4.323   3.862   1.184
 3966SOL    HW212013   4.197   3.965   1.191
 3967SOL     OW12014   4.590   4.178   0.642
 3967SOL    HW112015   4.558   4.250   0.580
 3967SOL    HW212016   4.614   4.097   0.589
 3968SOL     OW12017   4.741   3.763   0.753
 3968SOL    HW112018   4.669   3.768   0.684
 3968SOL    HW212019   4.717   3.694   0.822
 3969SOL     OW12020   4.251   3.980   0.328
 3969SOL    HW112021   4.278   3.921   0.253
 3969SOL    HW212022   4.251   4.075   0.297
 3970SOL     OW12023   4.639   3.813   1.402
 3970SOL    HW112024   4.664   3.793   1.307
 3970SOL    HW212025   4.711   3.869   1.444
 3971SOL     OW12026   4.704   4.840   1.719
 3971SOL    HW112027   4.605   4.846   1.729
 3971SOL    HW212028   4.727   4.760   1.663
 3972SOL     OW12029   4.429   4.774   0.368
 3972SOL    HW112030   4.415   4.781   0.467
 3972SOL    HW212031   4.513   4.723   0.350
 3973SOL     OW12032   4.134   4.537   1.251
 3973SOL    HW112033   4.220   4.549   1.301
 3973SOL    HW212034   4.092   4.450   1.278
 3974SOL     OW12035   4.998   4.110   1.262
 3974SOL    HW112036   5.019   4.184   1.326
 3974SOL    HW212037   4.909   4.127   1.219
 3975SOL     OW12038   4.091   4.824   0.501
 3975SOL    HW112039   4.084   4.907   0.445
 3975SOL    HW212040   4.095   4.744   0.441
 3976SOL     OW12041   4.290   4.261   0.865
 3976SOL    HW112042   4.302   4.327   0.791
 3976SOL    HW212043   4.336   4.295   0.948
 3977SOL     OW12044   4.976   5.072   0.388
 3977SOL    HW112045   5.026   5.149   0.428
 3977SOL    HW212046   4.881   5.074   0.420
 3978SOL     OW12047   4.126   4.475   1.598
 3978SOL    HW112048   4.194   4.530   1.551
 3978SOL    HW212049   4.166   4.387   1.625
 3979SOL     OW12050   4.737   3.829   1.770
 3979SOL    HW112051   4.743   3.914   1.718
 3979SOL    HW212052   4.769   3.753   1.713
 3980SOL     OW12053   4.228   3.774   1.740
 3980SOL    HW112054   4.186   3.717   1.670
 3980SOL    HW212055   4.162   3.843   1.772
 3981SOL     OW12056   4.297   4.594   1.029
 3981SOL    HW112057   4.341   4.683   1.020
 3981SOL    HW212058   4.234   4.594   1.106
 3982SOL     OW12059   5.084   4.586   1.045
 3982SOL    HW112060   5.009   4.586   0.979
 3982SOL    HW212061   5.121   4.494   1.054
 3983SOL     OW12062   4.933   4.249   0.275
 3983SOL    HW112063   4.946   4.165   0.329
 3983SOL    HW212064   4.904   4.323   0.335
 3984SOL     OW12065   4.031   3.937   1.231
 3984SOL    HW112066   4.008   3.974   1.321
 3984SOL    HW212067   4.001   3.842   1.225
 3985SOL     OW12068   4.456   4.358   1.064
 3985SOL    HW112069   4.515   4.332   0.988
 3985SOL    HW212070   4.428   4.454   1.053
 3986SOL     OW12071   4.031   3.787   0.618
 3986SOL    HW112072   4.020   3.881   0.651
 3986SOL    HW212073   4.026   3.724   0.695
 3987SOL     OW12074   5.346   4.091   0.374
 3987SOL    HW112075   5.348   4.015   0.438
 3987SOL    HW212076   5.298   4.168   0.414
 3988SOL     OW12077   4.747   4.490   0.966
 3988SOL    HW112078   4.762   4.511   1.062
 3988SOL    HW212079   4.717   4.395   0.957
 3989SOL     OW12080   4.074   4.622   1.804
 3989SOL    HW112081   4.150   4.666   1.852
 3989SOL    HW212082   4.109   4.575   1.722
 3990SOL     OW12083   5.027   4.562   0.042
 3990SOL    HW112084   5.061   4.469   0.057
 3990SOL    HW212085   5.045   4.589  -0.053
 3991SOL     OW12086   4.043   4.534   0.949
 3991SOL    HW112087   4.136   4.570   0.954
 3991SOL    HW212088   4.037   4.449   1.001
 3992SOL     OW12089   4.063   4.233   1.006
 3992SOL    HW112090   4.011   4.150   0.989
 3992SOL    HW212091   4.140   4.238   0.942
 3993SOL     OW12092   4.862   4.104   1.678
 3993SOL    HW112093   4.817   4.167   1.742
 3993SOL    HW212094   4.955   4.135   1.661
 3994SOL     OW12095   4.884   3.931   1.477
 3994SOL    HW112096   4.884   3.995   1.554
 3994SOL    HW212097   4.912   3.979   1.394
 3995SOL     OW12098   4.726   4.520   1.238
 3995SOL    HW112099   4.767   4.488   1.324
 3995SOL    HW212100   4.630   4.493   1.235
 3996SOL     OW12101   3.764   4.268   1.114
 3996SOL    HW112102   3.849   4.235   1.073
 3996SOL    HW212103   3.777   4.283   1.212
 3997SOL     OW12104   3.913   4.244   1.722
 3997SOL    HW112105   3.972   4.204   1.652
 3997SOL    HW212106   3.855   4.315   1.681
 3998SOL     OW12107   4.539   4.296   0.325
 3998SOL    HW112108   4.546   4.207   0.279
 3998SOL    HW212109   4.445   4.330   0.317
 3999SOL     OW12110   4.395   4.188   1.269
 3999SOL    HW112111   4.361   4.099   1.239
 3999SOL    HW212112   4.421   4.242   1.189
 4000SOL     OW12113   4.197   4.224   0.191
 4000SOL    HW112114   4.258   4.304   0.195
 4000SOL    HW212115   4.102   4.255   0.198
 4001SOL     OW12116   3.883   4.861   1.466
 4001SOL    HW112117   3.905   4.800   1.542
 4001SOL    HW212118   3.893   4.812   1.380
 4002SOL     OW12119   5.071   4.783   1.234
 4002SOL    HW112120   5.095   4.720   1.160
 4002SOL    HW212121   4.981   4.823   1.216
 4003SOL     OW12122   3.807   4.982   1.022
 4003SOL    HW112123   3.802   4.981   1.122
 4003SOL    HW212124   3.724   4.941   0.984
 4004SOL     OW12125   4.627   3.810   0.133
 4004SOL    HW112126   4.678   3.811   0.047
 4004SOL    HW212127   4.683   3.768   0.204
 4005SOL     OW12128   5.004   4.651   0.672
 4005SOL    HW112129   5.064   4.570   0.674
 4005SOL    HW212130   5.044   4.720   0.612
 4006SOL     OW12131   4.554   4.997   1.422
 4006SOL    HW112132   4.549   5.030   1.517
 4006SOL    HW212133   4.468   5.016   1.376
 4007SOL     OW12134   3.987   4.050   0.720
 4007SOL    HW112135   3.908   4.101   0.686
 4007SOL    HW212136   3.978   4.035   0.818
 4008SOL     OW12137   4.546   4.726   1.372
 4008SOL    HW112138   4.586   4.725   1.280
 4008SOL    HW212139   4.556   4.818   1.412
 4009SOL     OW12140   4.640   4.634   0.291
 4009SOL    HW112141   4.703   4.672   0.223
 4009SOL    HW212142   4.680   4.551   0.330
 4010SOL     OW12143   4.096   5.012   1.490
 4010SOL    HW112144   4.083   5.105   1.456
 4010SOL    HW212145   4.012   4.960   1.477
 4011SOL     OW12146   4.763   4.822   0.696
 4011SOL    HW112147   4.693   4.775   0.750
 4011SOL    HW212148   4.822   4.754   0.653
 4012SOL     OW12149   4.738   3.960   0.971
 4012SOL    HW112150   4.730   3.924   0.878
 4012SOL    HW212151   4.736   3.884   1.036
 4013SOL     OW12152   3.829   4.737   1.726
 4013SOL    HW112153   3.752   4.704   1.780
 4013SOL    HW212154   3.914   4.707   1.768
 4014SOL     OW12155   4.396   3.927   1.489
 4014SOL    HW112156   4.486   3.911   1.449
 4014SOL    HW212157   4.404   3.932   1.588
 4015SOL     OW12158   5.164   4.580   1.398
 4015SOL    HW112159   5.107   4.632   1.335
 4015SOL    HW212160   5.260   4.592   1.374
 4016SOL     OW12161   3.796   3.890   0.318
 4016SOL    HW112162   3.779   3.973   0.264
 4016SOL    HW212163   3.886   3.853   0.296
 4017SOL     OW12164   4.337   4.566   1.431
 4017SOL    HW112165   4.393   4.647   1.414
 4017SOL    HW212166   4.396   4.486   1.434
 4018SOL     OW12167   4.440   4.289   1.708
 4018SOL    HW112168   4.459   4.354   1.782
 4018SOL    HW212169   4.500   4.209   1.717
 4019SOL     OW12170   5.174   4.944   1.633
 4019SOL    HW112171   5.165   4.934   1.732
 4019SOL    HW212172   5.270   4.937   1.607
 4020SOL     OW12173   4.949   4.049   0.449
 4020SOL    HW112174   5.014   3.975   0.438
 4020SOL    HW212175   4.969   4.099   0.533
 4021SOL     OW12176   4.318   4.469   0.652
 4021SOL    HW112177   4.368   4.554   0.633
 4021SOL    HW212178   4.230   4.471   0.604
 4022SOL     OW12179   4.583   4.680   0.861
 4022SOL    HW112180   4.637   4.611   0.909
 4022SOL    HW212181   4.551   4.749   0.927
 4023SOL     OW12182   4.807   4.708   0.087
 4023SOL    HW112183   4.784   4.761   0.005
 4023SOL    HW212184   4.888   4.652   0.068
 4024SOL     OW12185   3.803   4.964   0.653
 4024SOL    HW112186   3.802   4.917   0.741
 4024SOL    HW212187   3.885   4.936   0.602
 4025SOL     OW12188   4.152   4.148   0.520
 4025SOL    HW112189   4.182   4.076   0.458
 4025SOL    HW212190   4.113   4.108   0.603
 4026SOL     OW12191   4.041   4.271   1.280
 4026SOL    HW112192   4.079   4.212   1.352
 4026SOL    HW212193   4.081   4.245   1.192
 4027SOL     OW12194   4.725   3.758   1.154
 4027SOL    HW112195   4.662   3.686   1.123
 4027SOL    HW212196   4.818   3.722   1.154
 4028SOL     OW12197   4.494   5.054   0.301
 4028SOL    HW112198   4.448   4.967   0.318
 4028SOL    HW212199   4.585   5.051   0.342
 4029SOL     OW12200   3.763   4.801   0.300
 4029SOL    HW112201   3.862   4.790   0.291
 4029SOL    HW212202   3.723   4.715   0.332
 4030SOL     OW12203   3.954   4.352   1.975
 4030SOL    HW112204   3.861   4.350   2.012
 4030SOL    HW212205   3.955   4.313   1.883
 4031SOL     OW12206   3.949   3.999   2.858
 4031SOL    HW112207   3.984   3.982   2.950
 4031SOL    HW212208   3.861   3.954   2.846
 4032SOL     OW12209   3.743   4.092   2.509
 4032SOL    HW112210   3.661   4.135   2.548
 4032SOL    HW212211   3.715   4.019   2.446
 4033SOL     OW12212   4.293   4.999   3.027
 4033SOL    HW112213   4.200   4.992   2.990
 4033SOL    HW212214   4.304   5.088   3.071
 4034SOL     OW12215   4.859   4.427   2.579
 4034SOL    HW112216   4.916   4.505   2.554
 4034SOL    HW212217   4.799   4.453   2.655
 4035SOL     OW12218   4.492   4.868   2.885
 4035SOL    HW112219   4.414   4.885   2.945
 4035SOL    HW212220   4.526   4.955   2.849
 4036SOL     OW12221   4.574   4.522   3.685
 4036SOL    HW112222   4.570   4.598   3.750
 4036SOL    HW212223   4.596   4.558   3.594
 4037SOL     OW12224   4.409   4.736   2.527
 4037SOL    HW112225   4.478   4.720   2.597
 4037SOL    HW212226   4.336   4.793   2.565
 4038SOL     OW12227   4.410   4.885   3.665
 4038SOL    HW112228   4.470   4.964   3.679
 4038SOL    HW212229   4.324   4.916   3.624
 4039SOL     OW12230   4.059   5.159   2.923
 4039SOL    HW112231   3.981   5.128   2.870
 4039SOL    HW212232   4.117   5.217   2.866
 4040SOL     OW12233   4.162   4.116   3.361
 4040SOL    HW112234   4.244   4.060   3.370
 4040SOL    HW212235   4.081   4.058   3.365
 4041SOL     OW12236   3.964   4.815   2.748
 4041SOL    HW112237   3.978   4.731   2.800
 4041SOL    HW212238   3.909   4.879   2.803
 4042SOL     OW12239   4.330   4.688   1.985
 4042SOL    HW112240   4.337   4.772   1.931
 4042SOL    HW212241   4.376   4.701   2.073
 4043SOL     OW12242   3.846   4.367   2.425
 4043SOL    HW112243   3.801   4.279   2.442
 4043SOL    HW212244   3.845   4.421   2.509
 4044SOL     OW12245   3.837   4.461   3.459
 4044SOL    HW112246   3.925   4.448   3.504
 4044SOL    HW212247   3.824   4.558   3.437
 4045SOL     OW12248   5.017   4.952   3.285
 4045SOL    HW112249   5.054   4.879   3.227
 4045SOL    HW212250   5.069   4.957   3.370
 4046SOL     OW12251   4.533   3.728   2.364
 4046SOL    HW112252   4.573   3.819   2.355
 4046SOL    HW212253   4.433   3.736   2.370
 4047SOL     OW12254   3.921   4.700   3.126
 4047SOL    HW112255   4.010   4.655   3.112
 4047SOL    HW212256   3.848   4.635   3.107
 4048SOL     OW12257   4.041   3.975   3.663
 4048SOL    HW112258   4.112   4.046   3.669
 4048SOL    HW212259   3.953   4.014   3.691
 4049SOL     OW12260   4.322   4.453   2.132
 4049SOL    HW112261   4.346   4.522   2.064
 4049SOL    HW212262   4.244   4.486   2.186
 4050SOL     OW12263   5.005   4.069   2.806
 4050SOL    HW112264   4.919   4.019   2.793
 4050SOL    HW212265   5.067   4.015   2.862
 4051SOL     OW12266   4.531   4.329   3.327
 4051SOL    HW112267   4.484   4.326   3.416
 4051SOL    HW212268   4.480   4.274   3.261
 4052SOL     OW12269   4.697   4.614   3.434
 4052SOL    HW112270   4.743   4.530   3.405
 4052SOL    HW212271   4.641   4.648   3.359
 4053SOL     OW12272   4.715   4.134   3.104
 4053SOL    HW112273   4.638   4.168   3.158
 4053SOL    HW212274   4.681   4.083   3.025
 4054SOL     OW12275   4.765   4.425   2.291
 4054SOL    HW112276   4.791   4.421   2.387
 4054SOL    HW212277   4.680   4.374   2.277
 4055SOL     OW12278   3.800   4.535   2.651
 4055SOL    HW112279   3.899   4.523   2.660
 4055SOL    HW212280   3.776   4.630   2.672
 4056SOL     OW12281   4.589   4.072   2.057
 4056SOL    HW112282   4.648   4.135   2.008
 4056SOL    HW212283   4.608   3.978   2.028
 4057SOL     OW12284   4.274   3.920   2.747
 4057SOL    HW112285   4.269   3.915   2.847
 4057SOL    HW212286   4.276   4.016   2.718
 4058SOL     OW12287   4.045   4.667   2.104
 4058SOL    HW112288   4.127   4.706   2.062
 4058SOL    HW212289   4.018   4.585   2.055
 4059SOL     OW12290   3.926   4.009   3.360
 4059SOL    HW112291   3.846   4.069   3.347
 4059SOL    HW212292   3.916   3.960   3.446
 4060SOL     OW12293   4.106   4.424   2.342
 4060SOL    HW112294   4.151   4.334   2.339
 4060SOL    HW212295   4.012   4.413   2.375
 4061SOL     OW12296   4.338   3.846   1.979
 4061SOL    HW112297   4.436   3.824   1.986
 4061SOL    HW212298   4.307   3.829   1.886
 4062SOL     OW12299   4.505   3.988   3.611
 4062SOL    HW112300   4.572   3.927   3.654
 4062SOL    HW212301   4.432   4.007   3.676
 4063SOL     OW12302   4.527   5.126   2.786
 4063SOL    HW112303   4.617   5.140   2.744
 4063SOL    HW212304   4.456   5.128   2.715
 4064SOL     OW12305   4.646   4.227   2.761
 4064SOL    HW112306   4.621   4.218   2.665
 4064SOL    HW212307   4.694   4.145   2.792
 4065SOL     OW12308   4.263   3.788   2.374
 4065SOL    HW112309   4.182   3.789   2.432
 4065SOL    HW212310   4.266   3.871   2.319
 4066SOL     OW12311   5.158   4.912   1.903
 4066SOL    HW112312   5.190   4.836   1.960
 4066SOL    HW212313   5.066   4.939   1.933
 4067SOL     OW12314   4.021   3.759   2.033
 4067SOL    HW112315   4.070   3.843   2.012
 4067SOL    HW212316   4.083   3.694   2.078
 4068SOL     OW12317   4.659   3.960   2.342
 4068SOL    HW112318   4.611   4.001   2.264
 4068SOL    HW212319   4.758   3.958   2.323
 4069SOL     OW12320   4.800   4.407   3.326
 4069SOL    HW112321   4.720   4.346   3.329
 4069SOL    HW212322   4.881   4.354   3.302
 4070SOL     OW12323   4.951   5.294   2.655
 4070SOL    HW112324   4.972   5.368   2.590
 4070SOL    HW212325   5.019   5.294   2.728
 4071SOL     OW12326   4.183   4.876   2.603
 4071SOL    HW112327   4.112   4.849   2.668
 4071SOL    HW212328   4.157   4.848   2.510
 4072SOL     OW12329   4.756   4.273   1.878
 4072SOL    HW112330   4.715   4.355   1.839
 4072SOL    HW212331   4.820   4.299   1.951
 4073SOL     OW12332   3.802   4.280   3.248
 4073SOL    HW112333   3.894   4.279   3.207
 4073SOL    HW212334   3.796   4.354   3.315
 4074SOL     OW12335   4.285   3.946   3.009
 4074SOL    HW112336   4.323   3.862   3.046
 4074SOL    HW212337   4.197   3.965   3.053
 4075SOL     OW12338   4.590   4.178   2.504
 4075SOL    HW112339   4.558   4.250   2.442
 4075SOL    HW212340   4.614   4.097   2.451
 4076SOL     OW12341   4.741   3.763   2.615
 4076SOL    HW112342   4.669   3.768   2.546
 4076SOL    HW212343   4.717   3.694   2.684
 4077SOL     OW12344   4.251   3.980   2.190
 4077SOL    HW112345   4.278   3.921   2.115
 4077SOL    HW212346   4.251   4.075   2.159
 4078SOL     OW12347   4.639   3.813   3.264
 4078SOL    HW112348   4.664   3.793   3.169
 4078SOL    HW212349   4.711   3.869   3.306
 4079SOL     OW12350   4.704   4.840   3.581
 4079SOL    HW112351   4.605   4.846   3.591
 4079SOL    HW212352   4.727   4.760   3.525
 4080SOL     OW12353   4.429   4.774   2.230
 4080SOL    HW112354   4.415   4.781   2.329
 4080SOL    HW212355   4.513   4.723   2.212
 4081SOL     OW12356   4.134   4.537   3.113
 4081SOL    HW112357   4.220   4.549   3.163
 4081SOL    HW212358   4.092   4.450   3.140
 4082SOL     OW12359   4.998   4.110   3.124
 4082SOL    HW112360   5.019   4.184   3.188
 4082SOL    HW212361   4.909   4.127   3.081
 4083SOL     OW12362   4.091   4.824   2.363
 4083SOL    HW112363   4.084   4.907   2.307
 4083SOL    HW212364   4.095   4.744   2.303
 4084SOL     OW12365   4.290   4.261   2.727
 4084SOL    HW112366   4.302   4.327   2.653
 4084SOL    HW212367   4.336   4.295   2.810
 4085SOL     OW12368   4.976   5.072   2.250
 4085SOL    HW112369   5.026   5.149   2.290
 4085SOL    HW212370   4.881   5.074   2.282
 4086SOL     OW12371   4.126   4.475   3.460
 4086SOL    HW112372   4.194   4.530   3.413
 4086SOL    HW212373   4.166   4.387   3.487
 4087SOL     OW12374   4.737   3.829   3.632
 4087SOL    HW112375   4.743   3.914   3.580
 4087SOL    HW212376   4.769   3.753   3.575
 4088SOL     OW12377   4.228   3.774   3.602
 4088SOL    HW112378   4.186   3.717   3.532
 4088SOL    HW212379   4.162   3.843   3.634
 4089SOL     OW12380   4.297   4.594   2.891
 4089SOL    HW112381   4.341   4.683   2.882
 4089SOL    HW212382   4.234   4.594   2.968
 4090SOL     OW12383   5.084   4.586   2.907
 4090SOL    HW112384   5.009   4.586   2.841
 4090SOL    HW212385   5.121   4.494   2.916
 4091SOL     OW12386   4.933   4.249   2.137
 4091SOL    HW112387   4.946   4.165   2.191
 4091SOL    HW212388   4.904   4.323   2.197
 4092SOL     OW12389   4.031   3.937   3.093
 4092SOL    HW112390   4.008   3.974   3.183
 4092SOL    HW212391   4.001   3.842   3.087
 4093SOL     OW12392   4.456   4.358   2.926
 4093SOL    HW112393   4.515   4.332   2.850
 4093SOL    HW212394   4.428   4.454   2.915
 4094SOL     OW12395   4.031   3.787   2.480
 4094SOL    HW112396   4.020   3.881   2.513
 4094SOL    HW212397   4.026   3.724   2.557
 4095SOL     OW12398   5.346   4.091   2.236
 4095SOL    HW112399   5.348   4.015   2.300
 4095SOL    HW212400   5.298   4.168   2.276
 4096SOL     OW12401   4.747   4.490   2.828
 4096SOL    HW112402   4.762   4.511   2.924
 4096SOL    HW212403   4.717   4.395   2.819
 4097SOL     OW12404   4.074   4.622   3.666
 4097SOL    HW112405   4.150   4.666   3.714
 4097SOL    HW212406   4.109   4.575   3.584
 4098SOL     OW12407   5.027   4.562   1.904
 4098SOL    HW112408   5.061   4.469   1.919
 4098SOL    HW212409   5.045   4.589   1.809
 4099SOL     OW12410   4.043   4.534   2.811
 4099SOL    HW112411   4.136   4.570   2.816
 4099SOL    HW212412   4.037   4.449   2.863
 4100SOL     OW12413   4.063   4.233   2.868
 4100SOL    HW112414   4.011   4.150   2.851
 4100SOL    HW212415   4.140   4.238   2.804
 4101SOL     OW12416   4.862   4.104   3.540
 4101SOL    HW112417   4.817   4.167   3.604
 4101SOL    HW212418   4.955   4.135   3.523
 4102SOL     OW12419   4.884   3.931   3.339
 4102SOL    HW112420   4.884   3.995   3.416
 4102SOL    HW212421   4.912   3.979   3.256
 4103SOL     OW12422   3.732   5.050   2.062
 4103SOL    HW112423   3.639   5.071   2.031
 4103SOL    HW212424   3.742   4.951   2.075
 4104SOL     OW12425   4.726   4.520   3.100
 4104SOL    HW112426   4.767   4.488   3.186
 4104SOL    HW212427   4.630   4.493   3.097
 4105SOL     OW12428   3.764   4.268   2.976
 4105SOL    HW112429   3.849   4.235   2.935
 4105SOL    HW212430   3.777   4.283   3.074
 4106SOL     OW12431   3.913   4.244   3.584
 4106SOL    HW112432   3.972   4.204   3.514
 4106SOL    HW212433   3.855   4.315   3.543
 4107SOL     OW12434   4.539   4.296   2.187
 4107SOL    HW112435   4.546   4.207   2.141
 4107SOL    HW212436   4.445   4.330   2.179
 4108SOL     OW12437   4.395   4.188   3.131
 4108SOL    HW112438   4.361   4.099   3.101
 4108SOL    HW212439   4.421   4.242   3.051
 4109SOL     OW12440   4.197   4.224   2.053
 4109SOL    HW112441   4.258   4.304   2.057
 4109SOL    HW212442   4.102   4.255   2.060
 4110SOL     OW12443   3.883   4.861   3.328
 4110SOL    HW112444   3.905   4.800   3.404
 4110SOL    HW212445   3.893   4.812   3.242
 4111SOL     OW12446   5.071   4.783   3.096
 4111SOL    HW112447   5.095   4.720   3.022
 4111SOL    HW212448   4.981   4.823   3.078
 4112SOL     OW12449   3.807   4.982   2.884
 4112SOL    HW112450   3.802   4.981   2.984
 4112SOL    HW212451   3.724   4.941   2.846
 4113SOL     OW12452   5.004   4.651   2.534
 4113SOL    HW112453   5.064   4.570   2.536
 4113SOL    HW212454   5.044   4.720   2.474
 4114SOL     OW12455   4.554   4.997   3.284
 4114SOL    HW112456   4.549   5.030   3.379
 4114SOL    HW212457   4.468   5.016   3.238
 4115SOL     OW12458   3.987   4.050   2.582
 4115SOL    HW112459   3.908   4.101   2.548
 4115SOL    HW212460   3.978   4.035   2.680
 4116SOL     OW12461   4.918   5.336   1.893
 4116SOL    HW112462   4.924   5.243   1.930
 4116SOL    HW212463   4.859   5.336   1.813
 4117SOL     OW12464   4.546   4.726   3.234
 4117SOL    HW112465   4.586   4.725   3.142
 4117SOL    HW212466   4.556   4.818   3.274
 4118SOL     OW12467   4.640   4.634   2.153
 4118SOL    HW112468   4.703   4.672   2.085
 4118SOL    HW212469   4.680   4.551   2.192
 4119SOL     OW12470   4.096   5.012   3.352
 4119SOL    HW112471   4.083   5.105   3.318
 4119SOL    HW212472   4.012   4.960   3.339
 4120SOL     OW12473   4.763   4.822   2.558
 4120SOL    HW112474   4.693   4.775   2.612
 4120SOL    HW212475   4.822   4.754   2.515
 4121SOL     OW12476   4.738   3.960   2.833
 4121SOL    HW112477   4.730   3.924   2.740
 4121SOL    HW212478   4.736   3.884   2.898
 4122SOL     OW12479   3.829   4.737   3.588
 4122SOL    HW112480   3.752   4.704   3.642
 4122SOL    HW212481   3.914   4.707   3.630
 4123SOL     OW12482   4.396   3.927   3.351
 4123SOL    HW112483   4.486   3.911   3.311
 4123SOL    HW212484   4.404   3.932   3.450
 4124SOL     OW12485   3.799   4.069   1.895
 4124SOL    HW112486   3.707   4.041   1.866
 4124SOL    HW212487   3.830   4.146   1.839
 4125SOL     OW12488   5.164   4.580   3.260
 4125SOL    HW112489   5.107   4.632   3.197
 4125SOL    HW212490   5.260   4.592   3.236
 4126SOL     OW12491   3.796   3.890   2.180
 4126SOL    HW112492   3.779   3.973   2.126
 4126SOL    HW212493   3.886   3.853   2.158
 4127SOL     OW12494   4.337   4.566   3.293
 4127SOL    HW112495   4.393   4.647   3.276
 4127SOL    HW212496   4.396   4.486   3.296
 4128SOL     OW12497   4.440   4.289   3.570
 4128SOL    HW112498   4.459   4.354   3.644
 4128SOL    HW212499   4.500   4.209   3.579
 4129SOL     OW12500   5.174   4.944   3.495
 4129SOL    HW112501   5.165   4.934   3.594
 4129SOL    HW212502   5.270   4.937   3.469
 4130SOL     OW12503   4.949   4.049   2.311
 4130SOL    HW112504   5.014   3.975   2.300
 4130SOL    HW212505   4.969   4.099   2.395
 4131SOL     OW12506   4.318   4.469   2.514
 4131SOL    HW112507   4.368   4.554   2.495
 4131SOL    HW212508   4.230   4.471   2.466
 4132SOL     OW12509   4.583   4.680   2.723
 4132SOL    HW112510   4.637   4.611   2.771
 4132SOL    HW212511   4.551   4.749   2.789
 4133SOL     OW12512   4.807   4.708   1.949
 4133SOL    HW112513   4.784   4.761   1.867
 4133SOL    HW212514   4.888   4.652   1.930
 4134SOL     OW12515   3.803   4.964   2.515
 4134SOL    HW112516   3.802   4.917   2.603
 4134SOL    HW212517   3.885   4.936   2.464
 4135SOL     OW12518   4.152   4.148   2.382
 4135SOL    HW112519   4.182   4.076   2.320
 4135SOL    HW212520   4.113   4.108   2.465
 4136SOL     OW12521   4.041   4.271   3.142
 4136SOL    HW112522   4.079   4.212   3.214
 4136SOL    HW212523   4.081   4.245   3.054
 4137SOL     OW12524   4.725   3.758   3.016
 4137SOL    HW112525   4.662   3.686   2.985
 4137SOL    HW212526   4.818   3.722   3.016
 4138SOL     OW12527   4.494   5.054   2.163
 4138SOL    HW112528   4.448   4.967   2.180
 4138SOL    HW212529   4.585   5.051   2.204
 4139SOL     OW12530   5.076   3.776   2.030
 4139SOL    HW112531   5.111   3.735   1.946
 4139SOL    HW212532   4.986   3.738   2.050
 4140SOL     OW12533   3.763   4.801   2.162
 4140SOL    HW112534   3.862   4.790   2.153
 4140SOL    HW212535   3.723   4.715   2.194
 4141SOL     OW12536   3.954   4.352   3.837
 4141SOL    HW112537   3.861   4.350   3.874
 4141SOL    HW212538   3.955   4.313   3.745
 4142SOL     OW12539   3.949   3.999   4.720
 4142SOL    HW112540   3.984   3.982   4.812
 4142SOL    HW212541   3.861   3.954   4.708
 4143SOL     OW12542   3.743   4.092   4.371
 4143SOL    HW112543   3.661   4.135   4.410
 4143SOL    HW212544   3.715   4.019   4.308
 4144SOL     OW12545   4.293   4.999   4.889
 4144SOL    HW112546   4.200   4.992   4.852
 4144SOL    HW212547   4.304   5.088   4.933
 4145SOL     OW12548   4.859   4.427   4.441
 4145SOL    HW112549   4.916   4.505   4.416
 4145SOL    HW212550   4.799   4.453   4.517
 4146SOL     OW12551   4.492   4.868   4.747
 4146SOL    HW112552   4.414   4.885   4.807
 4146SOL    HW212553   4.526   4.955   4.711
 4147SOL     OW12554   4.409   4.736   4.389
 4147SOL    HW112555   4.478   4.720   4.459
 4147SOL    HW212556   4.336   4.793   4.427
 4148SOL     OW12557   4.059   5.159   4.785
 4148SOL    HW112558   3.981   5.128   4.732
 4148SOL    HW212559   4.117   5.217   4.728
 4149SOL     OW12560   3.964   4.815   4.610
 4149SOL    HW112561   3.978   4.731   4.662
 4149SOL    HW212562   3.909   4.879   4.665
 4150SOL     OW12563   4.330   4.688   3.847
 4150SOL    HW112564   4.337   4.772   3.793
 4150SOL    HW212565   4.376   4.701   3.935
 4151SOL     OW12566   3.846   4.367   4.287
 4151SOL    HW112567   3.801   4.279   4.304
 4151SOL    HW212568   3.845   4.421   4.371
 4152SOL     OW12569   4.533   3.728   4.226
 4152SOL    HW112570   4.573   3.819   4.217
 4152SOL    HW212571   4.433   3.736   4.232
 4153SOL     OW12572   3.921   4.700   4.988
 4153SOL    HW112573   4.010   4.655   4.974
 4153SOL    HW212574   3.848   4.635   4.969
 4154SOL     OW12575   4.322   4.453   3.994
 4154SOL    HW112576   4.346   4.522   3.926
 4154SOL    HW212577   4.244   4.486   4.048
 4155SOL     OW12578   5.005   4.069   4.668
 4155SOL    HW112579   4.919   4.019   4.655
 4155SOL    HW212580   5.067   4.015   4.724
 4156SOL     OW12581   4.715   4.134   4.966
 4156SOL    HW112582   4.638   4.168   5.020
 4156SOL    HW212583   4.681   4.083   4.887
 4157SOL     OW12584   4.765   4.425   4.153
 4157SOL    HW112585   4.791   4.421   4.249
 4157SOL    HW212586   4.680   4.374   4.139
 4158SOL     OW12587   3.800   4.535   4.513
 4158SOL    HW112588   3.899   4.523   4.522
 4158SOL    HW212589   3.776   4.630   4.534
 4159SOL     OW12590   4.589   4.072   3.919
 4159SOL    HW112591   4.648   4.135   3.870
 4159SOL    HW212592   4.608   3.978   3.890
 4160SOL     OW12593   4.274   3.920   4.609
 4160SOL    HW112594   4.269   3.915   4.709
 4160SOL    HW212595   4.276   4.016   4.580
 4161SOL     OW12596   4.045   4.667   3.966
 4161SOL    HW112597   4.127   4.706   3.924
 4161SOL    HW212598   4.018   4.585   3.917
 4162SOL     OW12599   4.106   4.424   4.204
 4162SOL    HW112600   4.151   4.334   4.201
 4162SOL    HW212601   4.012   4.413   4.237
 4163SOL     OW12602   4.338   3.846   3.841
 4163SOL    HW112603   4.436   3.824   3.848
 4163SOL    HW212604   4.307   3.829   3.748
 4164SOL     OW12605   4.527   5.126   4.648
 4164SOL    HW112606   4.617   5.140   4.606
 4164SOL    HW212607   4.456   5.128   4.577
 4165SOL     OW12608   4.646   4.227   4.623
 4165SOL    HW112609   4.621   4.218   4.527
 4165SOL    HW212610   4.694   4.145   4.654
 4166SOL     OW12611   4.263   3.788   4.236
 4166SOL    HW112612   4.182   3.789   4.294
 4166SOL    HW212613   4.266   3.871   4.181
 4167SOL     OW12614   5.158   4.912   3.765
 4167SOL    HW112615   5.190   4.836   3.822
 4167SOL    HW212616   5.066   4.939   3.795
 4168SOL     OW12617   4.021   3.759   3.895
 4168SOL    HW112618   4.070   3.843   3.874
 4168SOL    HW212619   4.083   3.694   3.940
 4169SOL     OW12620   4.659   3.960   4.204
 4169SOL    HW112621   4.611   4.001   4.126
 4169SOL    HW212622   4.758   3.958   4.185
 4170SOL     OW12623   4.951   5.294   4.517
 4170SOL    HW112624   4.972   5.368   4.452
 4170SOL    HW212625   5.019   5.294   4.590
 4171SOL     OW12626   4.183   4.876   4.465
 4171SOL    HW112627   4.112   4.849   4.530
 4171SOL    HW212628   4.157   4.848   4.372
 4172SOL     OW12629   4.756   4.273   3.740
 4172SOL    HW112630   4.715   4.355   3.701
 4172SOL    HW212631   4.820   4.299   3.813
 4173SOL     OW12632   4.285   3.946   4.871
 4173SOL    HW112633   4.323   3.862   4.908
 4173SOL    HW212634   4.197   3.965   4.915
 4174SOL     OW12635   4.590   4.178   4.366
 4174SOL    HW112636   4.558   4.250   4.304
 4174SOL    HW212637   4.614   4.097   4.313
 4175SOL     OW12638   4.741   3.763   4.477
 4175SOL    HW112639   4.669   3.768   4.408
 4175SOL    HW212640   4.717   3.694   4.546
 4176SOL     OW12641   4.251   3.980   4.052
 4176SOL    HW112642   4.278   3.921   3.977
 4176SOL    HW212643   4.251   4.075   4.021
 4177SOL     OW12644   4.429   4.774   4.092
 4177SOL    HW112645   4.415   4.781   4.191
 4177SOL    HW212646   4.513   4.723   4.074
 4178SOL     OW12647   4.134   4.537   4.975
 4178SOL    HW112648   4.220   4.549   5.025
 4178SOL    HW212649   4.092   4.450   5.002
 4179SOL     OW12650   4.091   4.824   4.225
 4179SOL    HW112651   4.084   4.907   4.169
 4179SOL    HW212652   4.095   4.744   4.165
 4180SOL     OW12653   4.290   4.261   4.589
 4180SOL    HW112654   4.302   4.327   4.515
 4180SOL    HW212655   4.336   4.295   4.672
 4181SOL     OW12656   4.976   5.072   4.112
 4181SOL    HW112657   5.026   5.149   4.152
 4181SOL    HW212658   4.881   5.074   4.144
 4182SOL     OW12659   4.297   4.594   4.753
 4182SOL    HW112660   4.341   4.683   4.744
 4182SOL    HW212661   4.234   4.594   4.830
 4183SOL     OW12662   5.084   4.586   4.769
 4183SOL    HW112663   5.009   4.586   4.703
 4183SOL    HW212664   5.121   4.494   4.778
 4184SOL     OW12665   4.933   4.249   3.999
 4184SOL    HW112666   4.946   4.165   4.053
 4184SOL    HW212667   4.904   4.323   4.059
 4185SOL     OW12668   4.031   3.937   4.955
 4185SOL    HW112669   4.008   3.974   5.045
 4185SOL    HW212670   4.001   3.842   4.949
 4186SOL     OW12671   4.456   4.358   4.788
 4186SOL    HW112672   4.515   4.332   4.712
 4186SOL    HW212673   4.428   4.454   4.777
 4187SOL     OW12674   4.031   3.787   4.342
 4187SOL    HW112675   4.020   3.881   4.375
 4187SOL    HW212676   4.026   3.724   4.419
 4188SOL     OW12677   5.346   4.091   4.098
 4188SOL    HW112678   5.348   4.015   4.162
 4188SOL    HW212679   5.298   4.168   4.138
 4189SOL     OW12680   4.747   4.490   4.690
 4189SOL    HW112681   4.762   4.511   4.786
 4189SOL    HW212682   4.717   4.395   4.681
 4190SOL     OW12683   5.027   4.562   3.766
 4190SOL    HW112684   5.061   4.469   3.781
 4190SOL    HW212685   5.045   4.589   3.671
 4191SOL     OW12686   4.043   4.534   4.673
 4191SOL    HW112687   4.136   4.570   4.678
 4191SOL    HW212688   4.037   4.449   4.725
 4192SOL     OW12689   4.063   4.233   4.730
 4192SOL    HW112690   4.011   4.150   4.713
 4192SOL    HW212691   4.140   4.238   4.666
 4193SOL     OW12692   4.884   3.931   5.201
 4193SOL    HW112693   4.884   3.995   5.278
 4193SOL    HW212694   4.912   3.979   5.118
 4194SOL     OW12695   3.732   5.050   3.924
 4194SOL    HW112696   3.639   5.071   3.893
 4194SOL    HW212697   3.742   4.951   3.937
 4195SOL     OW12698   4.726   4.520   4.962
 4195SOL    HW112699   4.767   4.488   5.048
 4195SOL    HW212700   4.630   4.493   4.959
 4196SOL     OW12701   3.764   4.268   4.838
 4196SOL    HW112702   3.849   4.235   4.797
 4196SOL    HW212703   3.777   4.283   4.936
 4197SOL     OW12704   4.539   4.296   4.049
 4197SOL    HW112705   4.546   4.207   4.003
 4197SOL    HW212706   4.445   4.330   4.041
 4198SOL     OW12707   4.395   4.188   4.993
 4198SOL    HW112708   4.361   4.099   4.963
 4198SOL    HW212709   4.421   4.242   4.913
 4199SOL     OW12710   4.197   4.224   3.915
 4199SOL    HW112711   4.258   4.304   3.919
 4199SOL    HW212712   4.102   4.255   3.922
 4200SOL     OW12713   5.071   4.783   4.958
 4200SOL    HW112714   5.095   4.720   4.884
 4200SOL    HW212715   4.981   4.823   4.940
 4201SOL     OW12716   3.807   4.982   4.746
 4201SOL    HW112717   3.802   4.981   4.846
 4201SOL    HW212718   3.724   4.941   4.708
 4202SOL     OW12719   5.004   4.651   4.396
 4202SOL    HW112720   5.064   4.570   4.398
 4202SOL    HW212721   5.044   4.720   4.336
 4203SOL     OW12722   4.554   4.997   5.146
 4203SOL    HW112723   4.549   5.030   5.241
 4203SOL    HW212724   4.468   5.016   5.100
 4204SOL     OW12725   3.987   4.050   4.444
 4204SOL    HW112726   3.908   4.101   4.410
 4204SOL    HW212727   3.978   4.035   4.542
 4205SOL     OW12728   4.918   5.336   3.755
 4205SOL    HW112729   4.924   5.243   3.792
 4205SOL    HW212730   4.859   5.336   3.675
 4206SOL     OW12731   4.546   4.726   5.096
 4206SOL    HW112732   4.586   4.725   5.004
 4206SOL    HW212733   4.556   4.818   5.136
 4207SOL     OW12734   4.640   4.634   4.015
 4207SOL    HW112735   4.703   4.672   3.947
 4207SOL    HW212736   4.680   4.551   4.054
 4208SOL     OW12737   4.763   4.822   4.420
 4208SOL    HW112738   4.693   4.775   4.474
 4208SOL    HW212739   4.822   4.754   4.377
 4209SOL     OW12740   4.738   3.960   4.695
 4209SOL    HW112741   4.730   3.924   4.602
 4209SOL    HW212742   4.736   3.884   4.760
 4210SOL     OW12743   3.799   4.069   3.757
 4210SOL    HW112744   3.707   4.041   3.728
 4210SOL    HW212745   3.830   4.146   3.701
 4211SOL     OW12746   3.796   3.890   4.042
 4211SOL    HW112747   3.779   3.973   3.988
 4211SOL    HW212748   3.886   3.853   4.020
 4212SOL     OW12749   4.949   4.049   4.173
 4212SOL    HW112750   5.014   3.975   4.162
 4212SOL    HW212751   4.969   4.099   4.257
 4213SOL     OW12752   4.318   4.469   4.376
 4213SOL    HW112753   4.368   4.554   4.357
 4213SOL    HW212754   4.230   4.471   4.328
 4214SOL     OW12755   4.583   4.680   4.585
 4214SOL    HW112756   4.637   4.611   4.633
 4214SOL    HW212757   4.551   4.749   4.651
 4215SOL     OW12758   4.807   4.708   3.811
 4215SOL    HW112759   4.784   4.761   3.729
 4215SOL    HW212760   4.888   4.652   3.792
 4216SOL     OW12761   3.803   4.964   4.377
 4216SOL    HW112762   3.802   4.917   4.465
 4216SOL    HW212763   3.885   4.936   4.326
 4217SOL     OW12764   4.152   4.148   4.244
 4217SOL    HW112765   4.182   4.076   4.182
 4217SOL    HW212766   4.113   4.108   4.327
 4218SOL     OW12767   4.725   3.758   4.878
 4218SOL    HW112768   4.662   3.686   4.847
 4218SOL    HW212769   4.818   3.722   4.878
 4219SOL     OW12770   4.494   5.054   4.025
 4219SOL    HW112771   4.448   4.967   4.042
 4219SOL    HW212772   4.585   5.051   4.066
 4220SOL     OW12773   5.076   3.776   3.892
 4220SOL    HW112774   5.111   3.735   3.808
 4220SOL    HW212775   4.986   3.738   3.912
 4221SOL     OW12776   3.763   4.801   4.024
 4221SOL    HW112777   3.862   4.790   4.015
 4221SOL    HW212778   3.723   4.715   4.056
   5.08970   5.08970   5.08970
