; MMC-in-water replacement topology based on DPPC 325K_1bar reference
; Compatible with gromos53a6_lipid.ff (Lorentz-Berthelot combination rule from forcefield.itp)

#include "gromos53a6_lipid.ff/forcefield.itp"
#include "../dppc.itp"
#include "mmc.itp"

#include "gromos53a6_lipid.ff/spc.itp"
#include "gromos53a6_lipid.ff/ions.itp"

[ system ]
256-DPPC bilayer in water with MMC

[ molecules ]
; molecule name   nr
DPPC              256
MMC               __MMC_COUNT__
SOL               __SOL_COUNT__
