UNITED ATOM STRUCTURE FOR MOLECULE UNK
12537
    0X2IT   H18    1   3.092   2.352   2.583
    0X2IT    N4    2   3.026   2.419   2.548
    0X2IT   H17    3   3.059   2.484   2.478
    0X2IT   C14    4   2.895   2.380   2.546
    0X2IT    O5    5   2.849   2.285   2.607
    0X2IT    O4    6   2.822   2.466   2.469
    0X2IT   C13    7   2.680   2.441   2.463
    0X2IT   C10    8   2.607   2.502   2.584
    0X2IT    C9    9   2.457   2.484   2.578
    0X2IT    C4   10   2.394   2.607   2.582
    0X2IT    C5   11   2.245   2.625   2.577
    0X2IT    O1   12   2.197   2.739   2.585
    0X2IT    C6   13   2.166   2.505   2.564
    0X2IT   C12   14   2.015   2.516   2.558
    0X2IT    C7   15   2.229   2.382   2.561
    0X2IT    C8   16   2.381   2.365   2.567
    0X2IT    O2   17   2.427   2.250   2.559
    0X2IT    N3   18   2.164   2.265   2.551
    0X2IT   H15   19   2.064   2.258   2.544
    0X2IT   H16   20   2.221   2.180   2.548
    0X2IT    N2   21   2.482   2.709   2.599
    0X2IT    C3   22   2.473   2.846   2.546
    0X2IT    C2   23   2.599   2.856   2.461
    0X2IT    H2   24   2.639   2.954   2.435
    0X2IT    N1   25   2.611   2.744   2.365
    0X2IT   H14   26   2.674   2.771   2.289
    0X2IT    C1   27   2.688   2.741   2.491
    0X2IT    H1   28   2.796   2.748   2.490
    0X2IT   C11   29   2.622   2.658   2.600
    0X2IT    O3   30   2.691   2.695   2.718
    0X2IT   C15   31   2.628   2.664   2.843
    1X2IT   H18   32   4.590   1.318   5.147
    1X2IT    N4   33   4.493   1.335   5.131
    1X2IT   H17   34   4.456   1.424   5.162
    1X2IT   C14   35   4.438   1.275   5.021
    1X2IT    O5   36   4.488   1.183   4.959
    1X2IT    O4   37   4.316   1.331   4.994
    1X2IT   C13   38   4.243   1.273   4.884
    1X2IT   C10   39   4.166   1.147   4.927
    1X2IT    C9   40   4.082   1.087   4.816
    1X2IT    C4   41   3.949   1.082   4.854
    1X2IT    C5   42   3.840   1.029   4.767
    1X2IT    O1   43   3.724   1.024   4.810
    1X2IT    C6   44   3.878   0.984   4.635
    1X2IT   C12   45   3.772   0.929   4.542
    1X2IT    C7   46   4.011   0.988   4.598
    1X2IT    C8   47   4.122   1.042   4.688
    1X2IT    O2   48   4.238   1.045   4.643
    1X2IT    N3   49   4.056   0.947   4.478
    1X2IT   H15   50   3.997   0.911   4.406
    1X2IT   H16   51   4.157   0.956   4.461
    1X2IT    N2   52   3.931   1.123   4.982
    1X2IT    C3   53   3.815   1.194   5.039
    1X2IT    C2   54   3.877   1.323   5.089
    1X2IT    H2   55   3.825   1.382   5.165
    1X2IT    N1   56   3.957   1.391   4.985
    1X2IT   H14   57   3.967   1.490   5.009
    1X2IT    C1   58   4.025   1.310   5.088
    1X2IT    H1   59   4.089   1.357   5.162
    1X2IT   C11   60   4.059   1.170   5.041
    1X2IT    O3   61   4.091   1.101   5.161
    1X2IT   C15   62   4.090   0.957   5.156
    2X2IT   H18   63   2.920   1.117   1.580
    2X2IT    N4   64   2.849   1.086   1.517
    2X2IT   H17   65   2.753   1.096   1.547
    2X2IT   C14   66   2.877   1.094   1.383
    2X2IT    O5   67   2.989   1.108   1.336
    2X2IT    O4   68   2.763   1.079   1.310
    2X2IT   C13   69   2.779   1.078   1.167
    2X2IT   C10   70   2.820   0.939   1.115
    2X2IT    C9   71   2.831   0.932   0.964
    2X2IT    C4   72   2.746   0.836   0.914
    2X2IT    C5   73   2.732   0.804   0.768
    2X2IT    O1   74   2.655   0.713   0.733
    2X2IT    C6   75   2.810   0.883   0.677
    2X2IT   C12   76   2.801   0.857   0.528
    2X2IT    C7   77   2.896   0.979   0.727
    2X2IT    C8   78   2.910   1.010   0.877
    2X2IT    O2   79   2.987   1.102   0.910
    2X2IT    N3   80   2.975   1.056   0.651
    2X2IT   H15   81   2.977   1.051   0.550
    2X2IT   H16   82   3.033   1.126   0.698
    2X2IT    N2   83   2.683   0.767   1.013
    2X2IT    C3   84   2.547   0.710   1.011
    2X2IT    C2   85   2.479   0.783   1.126
    2X2IT    H2   86   2.390   0.740   1.172
    2X2IT    N1   87   2.494   0.930   1.116
    2X2IT   H14   88   2.421   0.975   1.171
    2X2IT    C1   89   2.582   0.854   1.207
    2X2IT    H1   90   2.574   0.866   1.314
    2X2IT   C11   91   2.718   0.823   1.147
    2X2IT    O3   92   2.772   0.724   1.233
    2X2IT   C15   93   2.882   0.647   1.183
    3X2IT   H18   94   4.409   1.634   1.886
    3X2IT    N4   95   4.396   1.727   1.921
    3X2IT   H17   96   4.379   1.737   2.020
    3X2IT   C14   97   4.461   1.827   1.854
    3X2IT    O5   98   4.510   1.817   1.743
    3X2IT    O4   99   4.460   1.942   1.929
    3X2IT   C13  100   4.519   2.058   1.868
    3X2IT   C10  101   4.420   2.129   1.774
    3X2IT    C9  102   4.477   2.255   1.713
    3X2IT    C4  103   4.397   2.363   1.745
    3X2IT    C5  104   4.424   2.504   1.701
    3X2IT    O1  105   4.345   2.594   1.731
    3X2IT    C6  106   4.544   2.525   1.623
    3X2IT   C12  107   4.579   2.665   1.576
    3X2IT    C7  108   4.624   2.417   1.591
    3X2IT    C8  109   4.594   2.273   1.635
    3X2IT    O2  110   4.675   2.185   1.604
    3X2IT    N3  111   4.736   2.426   1.518
    3X2IT   H15  112   4.772   2.513   1.482
    3X2IT   H16  113   4.788   2.339   1.501
    3X2IT    N2  114   4.286   2.326   1.814
    3X2IT    C3  115   4.215   2.402   1.918
    3X2IT    C2  116   4.224   2.308   2.038
    3X2IT    H2  117   4.154   2.319   2.121
    3X2IT    N1  118   4.363   2.265   2.064
    3X2IT   H14  119   4.371   2.234   2.161
    3X2IT    C1  120   4.271   2.175   1.993
    3X2IT    H1  121   4.239   2.082   2.038
    3X2IT   C11  122   4.288   2.180   1.842
    3X2IT    O3  123   4.172   2.115   1.792
    3X2IT   C15  124   4.138   2.137   1.655
    4X2IT   H18  125   3.591   4.145   3.872
    4X2IT    N4  126   3.666   4.202   3.905
    4X2IT   H17  127   3.722   4.250   3.836
    4X2IT   C14  128   3.650   4.260   4.028
    4X2IT    O5  129   3.567   4.227   4.111
    4X2IT    O4  130   3.744   4.357   4.047
    4X2IT   C13  131   3.744   4.422   4.176
    4X2IT   C10  132   3.821   4.341   4.280
    4X2IT    C9  133   3.829   4.409   4.415
    4X2IT    C4  134   3.961   4.427   4.452
    4X2IT    C5  135   4.004   4.493   4.580
    4X2IT    O1  136   4.124   4.502   4.607
    4X2IT    C6  137   3.898   4.542   4.666
    4X2IT   C12  138   3.935   4.609   4.796
    4X2IT    C7  139   3.766   4.522   4.629
    4X2IT    C8  140   3.724   4.455   4.499
    4X2IT    O2  141   3.603   4.447   4.474
    4X2IT    N3  142   3.662   4.563   4.703
    4X2IT   H15  143   3.672   4.611   4.791
    4X2IT   H16  144   3.568   4.544   4.666
    4X2IT    N2  145   4.047   4.372   4.363
    4X2IT    C3  146   4.181   4.419   4.325
    4X2IT    C2  147   4.166   4.444   4.176
    4X2IT    H2  148   4.254   4.447   4.112
    4X2IT    N1  149   4.050   4.530   4.145
    4X2IT   H14  150   4.062   4.572   4.052
    4X2IT    C1  151   4.039   4.383   4.128
    4X2IT    H1  152   4.027   4.339   4.030
    4X2IT   C11  153   3.973   4.315   4.247
    4X2IT    O3  154   4.002   4.177   4.228
    4X2IT   C15  155   3.988   4.091   4.341
    5X2IT   H18  156   4.740   2.432   5.485
    5X2IT    N4  157   4.697   2.421   5.394
    5X2IT   H17  158   4.599   2.446   5.386
    5X2IT   C14  159   4.779   2.437   5.286
    5X2IT    O5  160   4.901   2.435   5.290
    5X2IT    O4  161   4.704   2.451   5.173
    5X2IT   C13  162   4.778   2.462   5.049
    5X2IT   C10  163   4.818   2.324   4.995
    5X2IT    C9  164   4.889   2.331   4.862
    5X2IT    C4  165   4.821   2.257   4.767
    5X2IT    C5  166   4.864   2.244   4.624
    5X2IT    O1  167   4.799   2.173   4.547
    5X2IT    C6  168   4.983   2.316   4.586
    5X2IT   C12  169   5.033   2.307   4.443
    5X2IT    C7  170   5.052   2.389   4.681
    5X2IT    C8  171   5.007   2.401   4.827
    5X2IT    O2  172   5.075   2.473   4.902
    5X2IT    N3  173   5.165   2.458   4.655
    5X2IT   H15  174   5.207   2.462   4.564
    5X2IT   H16  175   5.207   2.509   4.733
    5X2IT    N2  176   4.714   2.192   4.820
    5X2IT    C3  177   4.586   2.162   4.755
    5X2IT    C2  178   4.486   2.234   4.845
    5X2IT    H2  179   4.381   2.204   4.845
    5X2IT    N1  180   4.523   2.376   4.866
    5X2IT   H14  181   4.440   2.428   4.896
    5X2IT    C1  182   4.555   2.276   4.970
    5X2IT    H1  183   4.505   2.279   5.067
    5X2IT   C11  184   4.698   2.226   4.964
    5X2IT    O3  185   4.698   2.111   5.046
    5X2IT   C15  186   4.808   2.020   5.031
    6X2IT   H18  187   4.218   4.598   2.861
    6X2IT    N4  188   4.307   4.644   2.864
    6X2IT   H17  189   4.348   4.671   2.775
    6X2IT   C14  190   4.333   4.721   2.974
    6X2IT    O5  191   4.271   4.715   3.079
    6X2IT    O4  192   4.441   4.801   2.952
    6X2IT   C13  193   4.484   4.883   3.063
    6X2IT   C10  194   4.574   4.804   3.159
    6X2IT    C9  195   4.627   4.888   3.273
    6X2IT    C4  196   4.765   4.887   3.273
    6X2IT    C5  197   4.849   4.961   3.373
    6X2IT    O1  198   4.973   4.951   3.367
    6X2IT    C6  199   4.779   5.040   3.471
    6X2IT   C12  200   4.858   5.117   3.574
    6X2IT    C7  201   4.641   5.040   3.471
    6X2IT    C8  202   4.556   4.963   3.370
    6X2IT    O2  203   4.432   4.974   3.377
    6X2IT    N3  204   4.566   5.108   3.560
    6X2IT   H15  205   4.606   5.166   3.632
    6X2IT   H16  206   4.465   5.102   3.550
    6X2IT    N2  207   4.816   4.804   3.177
    6X2IT    C3  208   4.940   4.821   3.101
    6X2IT    C2  209   4.889   4.826   2.957
    6X2IT    H2  210   4.957   4.805   2.875
    6X2IT    N1  211   4.782   4.927   2.940
    6X2IT   H14  212   4.776   4.953   2.841
    6X2IT    C1  213   4.747   4.784   2.954
    6X2IT    H1  214   4.704   4.730   2.871
    6X2IT   C11  215   4.706   4.746   3.095
    6X2IT    O3  216   4.710   4.604   3.095
    6X2IT   C15  217   4.714   4.539   3.222
    7X2IT   H18  218   0.776   0.355   0.933
    7X2IT    N4  219   0.853   0.377   0.994
    7X2IT   H17  220   0.919   0.447   0.962
    7X2IT   C14  221   0.829   0.363   1.128
    7X2IT    O5  222   0.736   0.302   1.177
    7X2IT    O4  223   0.929   0.424   1.199
    7X2IT   C13  224   0.921   0.412   1.342
    7X2IT   C10  225   0.981   0.279   1.391
    7X2IT    C9  226   0.981   0.265   1.542
    7X2IT    C4  227   1.110   0.245   1.588
    7X2IT    C5  228   1.145   0.228   1.733
    7X2IT    O1  229   1.263   0.207   1.765
    7X2IT    C6  230   1.036   0.237   1.827
    7X2IT   C12  231   1.065   0.222   1.975
    7X2IT    C7  232   0.907   0.256   1.781
    7X2IT    C8  233   0.873   0.272   1.633
    7X2IT    O2  234   0.754   0.294   1.603
    7X2IT    N3  235   0.800   0.264   1.861
    7X2IT   H15  236   0.805   0.258   1.961
    7X2IT   H16  237   0.709   0.280   1.816
    7X2IT    N2  238   1.199   0.234   1.486
    7X2IT    C3  239   1.340   0.277   1.485
    7X2IT    C2  240   1.342   0.378   1.370
    7X2IT    H2  241   1.436   0.403   1.322
    7X2IT    N1  242   1.237   0.481   1.385
    7X2IT   H14  243   1.262   0.563   1.330
    7X2IT    C1  244   1.215   0.367   1.293
    7X2IT    H1  245   1.210   0.383   1.186
    7X2IT   C11  246   1.132   0.255   1.355
    7X2IT    O3  247   1.152   0.146   1.267
    7X2IT   C15  248   1.119   0.016   1.317
    8X2IT   H18  249   0.756   3.015   0.087
    8X2IT    N4  250   0.746   3.114   0.102
    8X2IT   H17  251   0.657   3.156   0.079
    8X2IT   C14  252   0.822   3.168   0.203
    8X2IT    O5  253   0.917   3.114   0.256
    8X2IT    O4  254   0.777   3.294   0.231
    8X2IT   C13  255   0.852   3.366   0.332
    8X2IT   C10  256   0.976   3.434   0.272
    8X2IT    C9  257   1.053   3.516   0.372
    8X2IT    C4  258   1.062   3.648   0.330
    8X2IT    C5  259   1.132   3.756   0.407
    8X2IT    O1  260   1.138   3.870   0.359
    8X2IT    C6  261   1.189   3.719   0.534
    8X2IT   C12  262   1.260   3.823   0.617
    8X2IT    C7  263   1.180   3.587   0.576
    8X2IT    C8  264   1.110   3.477   0.496
    8X2IT    O2  265   1.105   3.364   0.546
    8X2IT    N3  266   1.232   3.543   0.692
    8X2IT   H15  267   1.279   3.602   0.757
    8X2IT   H16  268   1.218   3.444   0.714
    8X2IT    N2  269   1.008   3.665   0.206
    8X2IT    C3  270   0.939   3.784   0.154
    8X2IT    C2  271   0.801   3.729   0.120
    8X2IT    H2  272   0.737   3.782   0.050
    8X2IT    N1  273   0.740   3.656   0.234
    8X2IT   H14  274   0.639   3.652   0.221
    8X2IT    C1  275   0.805   3.580   0.125
    8X2IT    H1  276   0.746   3.518   0.059
    8X2IT   C11  277   0.947   3.538   0.157
    8X2IT    O3  278   1.000   3.499   0.032
    8X2IT   C15  279   1.143   3.491   0.021
    9X2IT   H18  280   3.196   3.745   1.173
    9X2IT    N4  281   3.255   3.664   1.180
    9X2IT   H17  282   3.349   3.673   1.142
    9X2IT   C14  283   3.234   3.580   1.285
    9X2IT    O5  284   3.133   3.579   1.355
    9X2IT    O4  285   3.339   3.495   1.299
    9X2IT   C13  286   3.327   3.395   1.403
    9X2IT   C10  287   3.246   3.274   1.356
    9X2IT    C9  288   3.237   3.164   1.460
    9X2IT    C4  289   3.288   3.046   1.409
    9X2IT    C5  290   3.295   2.918   1.487
    9X2IT    O1  291   3.340   2.816   1.433
    9X2IT    C6  292   3.247   2.922   1.623
    9X2IT   C12  293   3.252   2.796   1.707
    9X2IT    C7  294   3.195   3.040   1.673
    9X2IT    C8  295   3.188   3.170   1.592
    9X2IT    O2  296   3.143   3.271   1.649
    9X2IT    N3  297   3.146   3.053   1.797
    9X2IT   H15  298   3.145   2.978   1.864
    9X2IT   H16  299   3.111   3.146   1.824
    9X2IT    N2  300   3.325   3.058   1.279
    9X2IT    C3  301   3.435   2.990   1.210
    9X2IT    C2  302   3.520   3.107   1.162
    9X2IT    H2  303   3.591   3.093   1.080
    9X2IT    N1  304   3.553   3.201   1.271
    9X2IT   H14  305   3.635   3.256   1.245
    9X2IT    C1  306   3.443   3.233   1.177
    9X2IT    H1  307   3.452   3.316   1.109
    9X2IT   C11  308   3.306   3.198   1.231
    9X2IT    O3  309   3.222   3.203   1.117
    9X2IT   C15  310   3.094   3.138   1.127
   10X2IT   H18  311   0.891   1.060   3.804
   10X2IT    N4  312   0.907   1.136   3.740
   10X2IT   H17  313   0.960   1.215   3.775
   10X2IT   C14  314   0.914   1.104   3.607
   10X2IT    O5  315   0.877   0.999   3.558
   10X2IT    O4  316   0.965   1.209   3.537
   10X2IT   C13  317   0.973   1.193   3.394
   10X2IT   C10  318   0.838   1.225   3.327
   10X2IT    C9  319   0.844   1.215   3.176
   10X2IT    C4  320   0.808   1.336   3.119
   10X2IT    C5  321   0.803   1.361   2.971
   10X2IT    O1  322   0.766   1.471   2.928
   10X2IT    C6  323   0.843   1.251   2.886
   10X2IT   C12  324   0.841   1.269   2.735
   10X2IT    C7  325   0.878   1.130   2.943
   10X2IT    C8  326   0.881   1.106   3.094
   10X2IT    O2  327   0.918   0.994   3.134
   10X2IT    N3  328   0.914   1.022   2.872
   10X2IT   H15  329   0.919   1.021   2.772
   10X2IT   H16  330   0.939   0.938   2.925
   10X2IT    N2  331   0.769   1.427   3.212
   10X2IT    C3  332   0.787   1.573   3.208
   10X2IT    C2  333   0.871   1.598   3.333
   10X2IT    H2  334   0.874   1.698   3.377
   10X2IT    N1  335   0.992   1.513   3.337
   10X2IT   H14  336   1.061   1.555   3.400
   10X2IT    C1  337   0.873   1.476   3.417
   10X2IT    H1  338   0.876   1.479   3.525
   10X2IT   C11  339   0.785   1.372   3.349
   10X2IT    O3  340   0.664   1.376   3.423
   10X2IT   C15  341   0.548   1.318   3.361
   11X2IT   H18  342  -0.049   3.591   1.321
   11X2IT    N4  343  -0.019   3.662   1.385
   11X2IT   H17  344  -0.007   3.756   1.349
   11X2IT   C14  345  -0.056   3.646   1.516
   11X2IT    O5  346  -0.097   3.542   1.565
   11X2IT    O4  347  -0.035   3.762   1.585
   11X2IT   C13  348  -0.064   3.758   1.726
   11X2IT   C10  349   0.055   3.700   1.806
   11X2IT    C9  350   0.031   3.701   1.955
   11X2IT    C4  351   0.130   3.773   2.019
   11X2IT    C5  352   0.137   3.794   2.167
   11X2IT    O1  353   0.231   3.858   2.216
   11X2IT    C6  354   0.030   3.737   2.245
   11X2IT   C12  355   0.030   3.754   2.396
   11X2IT    C7  356  -0.069   3.663   2.182
   11X2IT    C8  357  -0.073   3.642   2.030
   11X2IT    O2  358  -0.169   3.578   1.984
   11X2IT    N3  359  -0.171   3.604   2.246
   11X2IT   H15  360  -0.184   3.610   2.345
   11X2IT   H16  361  -0.239   3.554   2.188
   11X2IT    N2  362   0.225   3.817   1.932
   11X2IT    C3  363   0.304   3.941   1.939
   11X2IT    C2  364   0.266   4.010   1.808
   11X2IT    H2  365   0.330   4.088   1.767
   11X2IT    N1  366   0.119   4.020   1.791
   11X2IT   H14  367   0.098   4.094   1.724
   11X2IT    C1  368   0.194   3.914   1.721
   11X2IT    H1  369   0.203   3.914   1.613
   11X2IT   C11  370   0.190   3.780   1.792
   11X2IT    O3  371   0.292   3.704   1.730
   11X2IT   C15  372   0.340   3.588   1.800
   12X2IT   H18  373   0.095   2.022   3.501
   12X2IT    N4  374   0.170   1.991   3.443
   12X2IT   H17  375   0.229   1.917   3.479
   12X2IT   C14  376   0.151   2.001   3.308
   12X2IT    O5  377   0.064   2.068   3.254
   12X2IT    O4  378   0.246   1.929   3.242
   12X2IT   C13  379   0.242   1.936   3.098
   12X2IT   C10  380   0.314   2.061   3.045
   12X2IT    C9  381   0.318   2.068   2.894
   12X2IT    C4  382   0.448   2.075   2.850
   12X2IT    C5  383   0.488   2.083   2.706
   12X2IT    O1  384   0.608   2.092   2.675
   12X2IT    C6  385   0.381   2.079   2.609
   12X2IT   C12  386   0.413   2.086   2.461
   12X2IT    C7  387   0.250   2.073   2.653
   12X2IT    C8  388   0.211   2.066   2.801
   12X2IT    O2  389   0.090   2.057   2.829
   12X2IT    N3  390   0.143   2.071   2.571
   12X2IT   H15  391   0.151   2.073   2.471
   12X2IT   H16  392   0.051   2.065   2.615
   12X2IT    N2  393   0.537   2.083   2.953
   12X2IT    C3  394   0.673   2.028   2.959
   12X2IT    C2  395   0.664   1.932   3.078
   12X2IT    H2  396   0.755   1.901   3.129
   12X2IT    N1  397   0.551   1.838   3.065
   12X2IT   H14  398   0.568   1.756   3.124
   12X2IT    C1  399   0.537   1.957   3.151
   12X2IT    H1  400   0.529   1.946   3.259
   12X2IT   C11  401   0.466   2.073   3.084
   12X2IT    O3  402   0.493   2.184   3.168
   12X2IT   C15  403   0.473   2.314   3.112
   13X2IT   H18  404   2.509   4.237   1.190
   13X2IT    N4  405   2.535   4.318   1.137
   13X2IT   H17  406   2.604   4.379   1.178
   13X2IT   C14  407   2.530   4.305   1.001
   13X2IT    O5  408   2.470   4.218   0.940
   13X2IT    O4  409   2.597   4.409   0.942
   13X2IT   C13  410   2.594   4.413   0.798
   13X2IT   C10  411   2.465   4.479   0.746
   13X2IT    C9  412   2.461   4.492   0.596
   13X2IT    C4  413   2.447   4.624   0.559
   13X2IT    C5  414   2.440   4.672   0.417
   13X2IT    O1  415   2.423   4.792   0.393
   13X2IT    C6  416   2.453   4.571   0.315
   13X2IT   C12  417   2.448   4.612   0.169
   13X2IT    C7  418   2.467   4.438   0.351
   13X2IT    C8  419   2.473   4.391   0.497
   13X2IT    O2  420   2.490   4.270   0.518
   13X2IT    N3  421   2.478   4.337   0.263
   13X2IT   H15  422   2.478   4.351   0.164
   13X2IT   H16  423   2.489   4.243   0.302
   13X2IT    N2  424   2.431   4.706   0.667
   13X2IT    C3  425   2.476   4.845   0.682
   13X2IT    C2  426   2.570   4.835   0.802
   13X2IT    H2  427   2.594   4.925   0.860
   13X2IT    N1  428   2.672   4.729   0.786
   13X2IT   H14  429   2.751   4.748   0.848
   13X2IT    C1  430   2.552   4.703   0.868
   13X2IT    H1  431   2.560   4.689   0.975
   13X2IT   C11  432   2.443   4.628   0.793
   13X2IT    O3  433   2.328   4.643   0.875
   13X2IT   C15  434   2.201   4.618   0.815
   14X2IT   H18  435   2.684   4.081   0.683
   14X2IT    N4  436   2.777   4.073   0.644
   14X2IT   H17  437   2.784   4.053   0.546
   14X2IT   C14  438   2.874   4.148   0.705
   14X2IT    O5  439   2.864   4.199   0.815
   14X2IT    O4  440   2.985   4.152   0.626
   14X2IT   C13  441   3.099   4.222   0.680
   14X2IT   C10  442   3.181   4.132   0.775
   14X2IT    C9  443   3.305   4.200   0.828
   14X2IT    C4  444   3.417   4.127   0.795
   14X2IT    C5  445   3.557   4.166   0.832
   14X2IT    O1  446   3.652   4.093   0.801
   14X2IT    C6  447   3.572   4.290   0.904
   14X2IT   C12  448   3.710   4.336   0.945
   14X2IT    C7  449   3.459   4.363   0.939
   14X2IT    C8  450   3.317   4.320   0.901
   14X2IT    O2  451   3.224   4.395   0.934
   14X2IT    N3  452   3.463   4.478   1.008
   14X2IT   H15  453   3.548   4.521   1.039
   14X2IT   H16  454   3.373   4.524   1.027
   14X2IT    N2  455   3.386   4.011   0.731
   14X2IT    C3  456   3.463   3.942   0.626
   14X2IT    C2  457   3.364   3.941   0.510
   14X2IT    H2  458   3.377   3.869   0.429
   14X2IT    N1  459   3.310   4.075   0.480
   14X2IT   H14  460   3.274   4.077   0.385
   14X2IT    C1  461   3.229   3.979   0.559
   14X2IT    H1  462   3.138   3.938   0.518
   14X2IT   C11  463   3.239   4.001   0.709
   14X2IT    O3  464   3.185   3.883   0.764
   14X2IT   C15  465   3.214   3.856   0.902
   15X2IT   H18  466  -0.064   0.480   0.029
   15X2IT    N4  467  -0.019   0.544   0.092
   15X2IT   H17  468   0.003   0.635   0.056
   15X2IT   C14  469  -0.050   0.530   0.225
   15X2IT    O5  470  -0.103   0.432   0.275
   15X2IT    O4  471  -0.009   0.640   0.294
   15X2IT   C13  472  -0.029   0.637   0.436
   15X2IT   C10  473   0.085   0.561   0.508
   15X2IT    C9  474   0.071   0.562   0.658
   15X2IT    C4  475   0.183   0.618   0.716
   15X2IT    C5  476   0.202   0.634   0.864
   15X2IT    O1  477   0.308   0.683   0.907
   15X2IT    C6  478   0.093   0.591   0.948
   15X2IT   C12  479   0.105   0.605   1.098
   15X2IT    C7  480  -0.019   0.534   0.890
   15X2IT    C8  481  -0.036   0.517   0.739
   15X2IT    O2  482  -0.143   0.468   0.698
   15X2IT    N3  483  -0.124   0.489   0.960
   15X2IT   H15  484  -0.130   0.494   1.060
   15X2IT   H16  485  -0.202   0.450   0.906
   15X2IT    N2  486   0.278   0.649   0.624
   15X2IT    C3  487   0.374   0.761   0.627
   15X2IT    C2  488   0.338   0.837   0.500
   15X2IT    H2  489   0.411   0.906   0.456
   15X2IT    N1  490   0.194   0.869   0.492
   15X2IT   H14  491   0.179   0.947   0.428
   15X2IT    C1  492   0.248   0.754   0.416
   15X2IT    H1  493   0.250   0.756   0.308
   15X2IT   C11  494   0.229   0.621   0.486
   15X2IT    O3  495   0.315   0.533   0.416
   15X2IT   C15  496   0.349   0.410   0.481
   16X2IT   H18  497   4.730   2.026   3.772
   16X2IT    N4  498   4.755   1.976   3.855
   16X2IT   H17  499   4.689   1.977   3.931
   16X2IT   C14  500   4.836   1.868   3.839
   16X2IT    O5  501   4.901   1.843   3.739
   16X2IT    O4  502   4.838   1.793   3.953
   16X2IT   C13  503   4.925   1.678   3.952
   16X2IT   C10  504   5.070   1.717   3.987
   16X2IT    C9  505   5.163   1.598   3.995
   16X2IT    C4  506   5.222   1.591   4.120
   16X2IT    C5  507   5.319   1.484   4.161
   16X2IT    O1  508   5.370   1.488   4.274
   16X2IT    C6  509   5.349   1.383   4.063
   16X2IT   C12  510   5.446   1.272   4.098
   16X2IT    C7  511   5.291   1.390   3.938
   16X2IT    C8  512   5.192   1.500   3.897
   16X2IT    O2  513   5.143   1.494   3.783
   16X2IT    N3  514   5.313   1.302   3.839
   16X2IT   H15  515   5.374   1.222   3.850
   16X2IT   H16  516   5.264   1.316   3.751
   16X2IT    N2  517   5.187   1.696   4.198
   16X2IT    C3  518   5.169   1.698   4.344
   16X2IT    C2  519   5.024   1.741   4.359
   16X2IT    H2  520   4.989   1.784   4.453
   16X2IT    N1  521   4.932   1.658   4.278
   16X2IT   H14  522   4.837   1.665   4.315
   16X2IT    C1  523   4.974   1.790   4.228
   16X2IT    H1  524   4.902   1.871   4.218
   16X2IT   C11  525   5.089   1.784   4.128
   16X2IT    O3  526   5.134   1.918   4.120
   16X2IT   C15  527   5.265   1.939   4.065
   17X2IT   H18  528   0.965   1.960   0.726
   17X2IT    N4  529   1.019   2.015   0.790
   17X2IT   H17  530   0.988   2.110   0.807
   17X2IT   C14  531   1.082   1.947   0.891
   17X2IT    O5  532   1.101   1.827   0.893
   17X2IT    O4  533   1.124   2.035   0.986
   17X2IT   C13  534   1.199   1.978   1.096
   17X2IT   C10  535   1.347   1.960   1.060
   17X2IT    C9  536   1.430   1.907   1.175
   17X2IT    C4  537   1.533   1.994   1.204
   17X2IT    C5  538   1.634   1.972   1.313
   17X2IT    O1  539   1.725   2.055   1.329
   17X2IT    C6  540   1.617   1.853   1.393
   17X2IT   C12  541   1.715   1.825   1.505
   17X2IT    C7  542   1.515   1.765   1.363
   17X2IT    C8  543   1.414   1.788   1.251
   17X2IT    O2  544   1.323   1.705   1.236
   17X2IT    N3  545   1.493   1.651   1.430
   17X2IT   H15  546   1.549   1.621   1.508
   17X2IT   H16  547   1.413   1.594   1.400
   17X2IT    N2  548   1.537   2.099   1.117
   17X2IT    C3  549   1.579   2.237   1.144
   17X2IT    C2  550   1.453   2.316   1.109
   17X2IT    H2  551   1.460   2.422   1.087
   17X2IT    N1  552   1.333   2.263   1.179
   17X2IT   H14  553   1.261   2.336   1.182
   17X2IT    C1  554   1.358   2.228   1.038
   17X2IT    H1  555   1.292   2.263   0.959
   17X2IT   C11  556   1.424   2.092   1.021
   17X2IT    O3  557   1.468   2.092   0.886
   17X2IT   C15  558   1.568   1.995   0.850
   18X2IT   H18  559   3.157   1.614   4.444
   18X2IT    N4  560   3.191   1.684   4.507
   18X2IT   H17  561   3.163   1.780   4.490
   18X2IT   C14  562   3.215   1.644   4.635
   18X2IT    O5  563   3.225   1.528   4.672
   18X2IT    O4  564   3.231   1.753   4.716
   18X2IT   C13  565   3.264   1.726   4.854
   18X2IT   C10  566   3.415   1.702   4.872
   18X2IT    C9  567   3.455   1.680   5.016
   18X2IT    C4  568   3.548   1.774   5.055
   18X2IT    C5  569   3.608   1.781   5.193
   18X2IT    O1  570   3.695   1.866   5.217
   18X2IT    C6  571   3.561   1.684   5.289
   18X2IT   C12  572   3.617   1.686   5.429
   18X2IT    C7  573   3.468   1.590   5.250
   18X2IT    C8  574   3.408   1.583   5.109
   18X2IT    O2  575   3.322   1.497   5.086
   18X2IT    N3  576   3.419   1.495   5.331
   18X2IT   H15  577   3.446   1.486   5.427
   18X2IT   H16  578   3.349   1.431   5.292
   18X2IT    N2  579   3.586   1.854   4.952
   18X2IT    C3  580   3.625   1.996   4.957
   18X2IT    C2  581   3.521   2.061   4.867
   18X2IT    H2  582   3.542   2.159   4.824
   18X2IT    N1  583   3.383   2.025   4.905
   18X2IT   H14  584   3.318   2.095   4.868
   18X2IT    C1  585   3.448   1.956   4.792
   18X2IT    H1  586   3.412   1.971   4.691
   18X2IT   C11  587   3.508   1.822   4.829
   18X2IT    O3  588   3.592   1.790   4.720
   18X2IT   C15  589   3.692   1.689   4.741
   19X2IT   H18  590   0.305   3.955   4.074
   19X2IT    N4  591   0.395   3.910   4.073
   19X2IT   H17  592   0.398   3.811   4.096
   19X2IT   C14  593   0.487   3.959   3.984
   19X2IT    O5  594   0.479   4.068   3.929
   19X2IT    O4  595   0.590   3.872   3.970
   19X2IT   C13  596   0.698   3.914   3.885
   19X2IT   C10  597   0.797   4.005   3.960
   19X2IT    C9  598   0.916   4.046   3.875
   19X2IT    C4  599   1.034   4.006   3.936
   19X2IT    C5  600   1.170   4.031   3.878
   19X2IT    O1  601   1.270   3.995   3.941
   19X2IT    C6  602   1.175   4.097   3.750
   19X2IT   C12  603   1.309   4.124   3.685
   19X2IT    C7  604   1.057   4.138   3.690
   19X2IT    C8  605   0.919   4.113   3.750
   19X2IT    O2  606   0.819   4.149   3.685
   19X2IT    N3  607   1.051   4.201   3.572
   19X2IT   H15  608   1.133   4.224   3.517
   19X2IT   H16  609   0.959   4.225   3.536
   19X2IT    N2  610   1.012   3.950   4.057
   19X2IT    C3  611   1.089   3.842   4.122
   19X2IT    C2  612   0.983   3.734   4.141
   19X2IT    H2  613   0.998   3.655   4.214
   19X2IT    N1  614   0.910   3.704   4.015
   19X2IT   H14  615   0.868   3.611   4.022
   19X2IT    C1  616   0.848   3.792   4.116
   19X2IT    H1  617   0.760   3.761   4.170
   19X2IT   C11  618   0.866   3.940   4.086
   19X2IT    O3  619   0.831   4.004   4.207
   19X2IT   C15  620   0.874   4.140   4.223
   20X2IT   H18  621   2.745   1.757   1.724
   20X2IT    N4  622   2.694   1.690   1.778
   20X2IT   H17  623   2.682   1.710   1.877
   20X2IT   C14  624   2.598   1.619   1.712
   20X2IT    O5  625   2.587   1.611   1.591
   20X2IT    O4  626   2.517   1.555   1.802
   20X2IT   C13  627   2.414   1.471   1.747
   20X2IT   C10  628   2.469   1.331   1.711
   20X2IT    C9  629   2.363   1.237   1.659
   20X2IT    C4  630   2.356   1.124   1.738
   20X2IT    C5  631   2.261   1.011   1.714
   20X2IT    O1  632   2.265   0.911   1.788
   20X2IT    C6  633   2.169   1.026   1.604
   20X2IT   C12  634   2.070   0.915   1.574
   20X2IT    C7  635   2.177   1.139   1.524
   20X2IT    C8  636   2.275   1.253   1.549
   20X2IT    O2  637   2.270   1.352   1.474
   20X2IT    N3  638   2.097   1.160   1.418
   20X2IT   H15  639   2.026   1.096   1.389
   20X2IT   H16  640   2.110   1.248   1.367
   20X2IT    N2  641   2.452   1.124   1.834
   20X2IT    C3  642   2.443   1.067   1.970
   20X2IT    C2  643   2.467   1.189   2.058
   20X2IT    H2  644   2.499   1.176   2.161
   20X2IT    N1  645   2.377   1.301   2.023
   20X2IT   H14  646   2.371   1.366   2.102
   20X2IT    C1  647   2.517   1.301   1.974
   20X2IT    H1  648   2.588   1.374   2.010
   20X2IT   C11  649   2.530   1.250   1.831
   20X2IT    O3  650   2.669   1.226   1.817
   20X2IT   C15  651   2.710   1.142   1.708
   21X2IT   H18  652   1.536   4.167   5.001
   21X2IT    N4  653   1.500   4.104   4.932
   21X2IT   H17  654   1.410   4.061   4.950
   21X2IT   C14  655   1.536   4.129   4.802
   21X2IT    O5  656   1.627   4.202   4.768
   21X2IT    O4  657   1.457   4.057   4.717
   21X2IT   C13  658   1.488   4.069   4.576
   21X2IT   C10  659   1.603   3.974   4.536
   21X2IT    C9  660   1.634   3.979   4.388
   21X2IT    C4  661   1.620   3.853   4.333
   21X2IT    C5  662   1.642   3.822   4.188
   21X2IT    O1  663   1.631   3.705   4.148
   21X2IT    C6  664   1.677   3.933   4.103
   21X2IT   C12  665   1.701   3.909   3.955
   21X2IT    C7  666   1.692   4.059   4.158
   21X2IT    C8  667   1.670   4.089   4.307
   21X2IT    O2  668   1.681   4.206   4.345
   21X2IT    N3  669   1.726   4.168   4.088
   21X2IT   H15  670   1.743   4.167   3.989
   21X2IT   H16  671   1.733   4.257   4.139
   21X2IT    N2  672   1.591   3.759   4.427
   21X2IT    C3  673   1.508   3.638   4.411
   21X2IT    C2  674   1.399   3.661   4.514
   21X2IT    H2  675   1.341   3.576   4.551
   21X2IT    N1  676   1.334   3.793   4.499
   21X2IT   H14  677   1.242   3.791   4.544
   21X2IT    C1  678   1.437   3.773   4.603
   21X2IT    H1  679   1.411   3.777   4.708
   21X2IT   C11  680   1.575   3.821   4.561
   21X2IT    O3  681   1.662   3.764   4.657
   21X2IT   C15  682   1.801   3.759   4.623
   22X2IT   H18  683   3.801   0.624   1.476
   22X2IT    N4  684   3.890   0.627   1.524
   22X2IT   H17  685   3.889   0.613   1.624
   22X2IT   C14  686   3.998   0.587   1.451
   22X2IT    O5  687   4.002   0.574   1.330
   22X2IT    O4  688   4.105   0.566   1.535
   22X2IT   C13  689   4.229   0.529   1.471
   22X2IT   C10  690   4.305   0.652   1.420
   22X2IT    C9  691   4.439   0.618   1.359
   22X2IT    C4  692   4.540   0.686   1.426
   22X2IT    C5  693   4.686   0.674   1.391
   22X2IT    O1  694   4.769   0.741   1.453
   22X2IT    C6  695   4.719   0.583   1.283
   22X2IT   C12  696   4.864   0.566   1.243
   22X2IT    C7  697   4.618   0.517   1.216
   22X2IT    C8  698   4.470   0.531   1.252
   22X2IT    O2  699   4.388   0.463   1.188
   22X2IT    N3  700   4.639   0.433   1.114
   22X2IT   H15  701   4.730   0.410   1.079
   22X2IT   H16  702   4.557   0.388   1.073
   22X2IT    N2  703   4.492   0.770   1.521
   22X2IT    C3  704   4.553   0.806   1.649
   22X2IT    C2  705   4.449   0.759   1.749
   22X2IT    H2  706   4.448   0.801   1.850
   22X2IT    N1  707   4.409   0.619   1.728
   22X2IT   H14  708   4.368   0.581   1.814
   22X2IT    C1  709   4.322   0.727   1.678
   22X2IT    H1  710   4.224   0.744   1.720
   22X2IT   C11  711   4.343   0.758   1.530
   22X2IT    O3  712   4.279   0.883   1.512
   22X2IT   C15  713   4.313   0.957   1.394
   23X2IT   H18  714   3.951   0.827   2.950
   23X2IT    N4  715   3.914   0.917   2.975
   23X2IT   H17  716   3.879   0.975   2.900
   23X2IT   C14  717   3.855   0.926   3.098
   23X2IT    O5  718   3.869   0.845   3.188
   23X2IT    O4  719   3.783   1.041   3.106
   23X2IT   C13  720   3.720   1.068   3.234
   23X2IT   C10  721   3.819   1.134   3.332
   23X2IT    C9  722   3.756   1.170   3.464
   23X2IT    C4  723   3.769   1.305   3.488
   23X2IT    C5  724   3.716   1.374   3.611
   23X2IT    O1  725   3.736   1.496   3.626
   23X2IT    C6  726   3.645   1.292   3.706
   23X2IT   C12  727   3.589   1.355   3.832
   23X2IT    C7  728   3.633   1.156   3.682
   23X2IT    C8  729   3.688   1.087   3.557
   23X2IT    O2  730   3.667   0.965   3.544
   23X2IT    N3  731   3.570   1.071   3.765
   23X2IT   H15  732   3.527   1.100   3.851
   23X2IT   H16  733   3.566   0.973   3.737
   23X2IT    N2  734   3.842   1.367   3.392
   23X2IT    C3  735   3.827   1.505   3.342
   23X2IT    C2  736   3.798   1.482   3.194
   23X2IT    H2  737   3.815   1.562   3.123
   23X2IT    N1  738   3.687   1.386   3.173
   23X2IT   H14  739   3.648   1.400   3.079
   23X2IT    C1  740   3.827   1.340   3.160
   23X2IT    H1  741   3.866   1.309   3.063
   23X2IT   C11  742   3.879   1.271   3.284
   23X2IT    O3  743   4.019   1.266   3.264
   23X2IT   C15  744   4.101   1.242   3.380
   24X2IT   H18  745   4.385   1.473   2.301
   24X2IT    N4  746   4.328   1.522   2.368
   24X2IT   H17  747   4.237   1.551   2.339
   24X2IT   C14  748   4.349   1.488   2.499
   24X2IT    O5  749   4.445   1.428   2.543
   24X2IT    O4  750   4.246   1.537   2.576
   24X2IT   C13  751   4.258   1.515   2.718
   24X2IT   C10  752   4.346   1.622   2.785
   24X2IT    C9  753   4.355   1.607   2.935
   24X2IT    C4  754   4.311   1.723   2.997
   24X2IT    C5  755   4.305   1.741   3.146
   24X2IT    O1  756   4.268   1.849   3.193
   24X2IT    C6  757   4.346   1.628   3.226
   24X2IT   C12  758   4.343   1.639   3.377
   24X2IT    C7  759   4.391   1.513   3.164
   24X2IT    C8  760   4.397   1.496   3.012
   24X2IT    O2  761   4.435   1.387   2.967
   24X2IT    N3  762   4.433   1.404   3.230
   24X2IT   H15  763   4.434   1.397   3.330
   24X2IT   H16  764   4.462   1.324   3.173
   24X2IT    N2  765   4.280   1.820   2.908
   24X2IT    C3  766   4.176   1.924   2.919
   24X2IT    C2  767   4.089   1.895   2.797
   24X2IT    H2  768   4.024   1.973   2.758
   24X2IT    N1  769   4.047   1.753   2.791
   24X2IT   H14  770   3.964   1.745   2.732
   24X2IT    C1  771   4.160   1.800   2.707
   24X2IT    H1  772   4.151   1.804   2.600
   24X2IT   C11  773   4.296   1.771   2.768
   24X2IT    O3  774   4.385   1.851   2.693
   24X2IT   C15  775   4.515   1.876   2.750
   25X2IT   H18  776   3.009   3.250   5.141
   25X2IT    N4  777   3.067   3.303   5.078
   25X2IT   H17  778   3.158   3.331   5.112
   25X2IT   C14  779   3.051   3.278   4.945
   25X2IT    O5  780   2.956   3.220   4.895
   25X2IT    O4  781   3.155   3.332   4.875
   25X2IT   C13  782   3.148   3.320   4.731
   25X2IT   C10  783   3.061   3.430   4.669
   25X2IT    C9  784   3.057   3.425   4.518
   25X2IT    C4  785   3.101   3.544   4.465
   25X2IT    C5  786   3.111   3.572   4.317
   25X2IT    O1  787   3.149   3.683   4.278
   25X2IT    C6  788   3.073   3.464   4.229
   25X2IT   C12  789   3.080   3.485   4.079
   25X2IT    C7  790   3.027   3.345   4.282
   25X2IT    C8  791   3.017   3.318   4.433
   25X2IT    O2  792   2.979   3.206   4.470
   25X2IT    N3  793   2.988   3.240   4.208
   25X2IT   H15  794   2.990   3.240   4.108
   25X2IT   H16  795   2.958   3.156   4.259
   25X2IT    N2  796   3.128   3.636   4.561
   25X2IT    C3  797   3.232   3.741   4.559
   25X2IT    C2  798   3.316   3.705   4.681
   25X2IT    H2  799   3.380   3.780   4.727
   25X2IT    N1  800   3.359   3.563   4.680
   25X2IT   H14  801   3.440   3.552   4.741
   25X2IT    C1  802   3.244   3.604   4.763
   25X2IT    H1  803   3.249   3.600   4.871
   25X2IT   C11  804   3.109   3.577   4.696
   25X2IT    O3  805   3.017   3.652   4.774
   25X2IT   C15  806   2.889   3.680   4.715
   26X2IT   H18  807   3.540   5.301   1.117
   26X2IT    N4  808   3.546   5.207   1.151
   26X2IT   H17  809   3.568   5.135   1.083
   26X2IT   C14  810   3.586   5.191   1.280
   26X2IT    O5  811   3.589   5.279   1.365
   26X2IT    O4  812   3.619   5.060   1.303
   26X2IT   C13  813   3.658   5.026   1.437
   26X2IT   C10  814   3.535   5.001   1.527
   26X2IT    C9  815   3.571   4.959   1.667
   26X2IT    C4  816   3.515   4.836   1.696
   26X2IT    C5  817   3.532   4.764   1.827
   26X2IT    O1  818   3.475   4.656   1.845
   26X2IT    C6  819   3.615   4.829   1.925
   26X2IT   C12  820   3.637   4.763   2.059
   26X2IT    C7  821   3.671   4.953   1.897
   26X2IT    C8  822   3.652   5.025   1.763
   26X2IT    O2  823   3.710   5.133   1.747
   26X2IT    N3  824   3.748   5.021   1.982
   26X2IT   H15  825   3.772   4.988   2.074
   26X2IT   H16  826   3.785   5.111   1.950
   26X2IT    N2  827   3.436   4.791   1.595
   26X2IT    C3  828   3.413   4.651   1.553
   26X2IT    C2  829   3.462   4.653   1.409
   26X2IT    H2  830   3.429   4.575   1.340
   26X2IT    N1  831   3.598   4.709   1.396
   26X2IT   H14  832   3.640   4.677   1.308
   26X2IT    C1  833   3.481   4.793   1.365
   26X2IT    H1  834   3.463   4.826   1.263
   26X2IT   C11  835   3.440   4.884   1.479
   26X2IT    O3  836   3.311   4.929   1.443
   26X2IT   C15  837   3.230   4.986   1.546
   27X2IT   H18  838   1.437   1.083   2.655
   27X2IT    N4  839   1.380   1.061   2.576
   27X2IT   H17  840   1.315   0.984   2.587
   27X2IT   C14  841   1.347   1.165   2.494
   27X2IT    O5  842   1.403   1.273   2.492
   27X2IT    O4  843   1.245   1.128   2.411
   27X2IT   C13  844   1.204   1.226   2.313
   27X2IT   C10  845   1.295   1.223   2.189
   27X2IT    C9  846   1.251   1.320   2.081
   27X2IT    C4  847   1.226   1.252   1.963
   27X2IT    C5  848   1.179   1.318   1.837
   27X2IT    O1  849   1.163   1.249   1.735
   27X2IT    C6  850   1.158   1.460   1.842
   27X2IT   C12  851   1.111   1.533   1.718
   27X2IT    C7  852   1.184   1.528   1.960
   27X2IT    C8  853   1.232   1.460   2.088
   27X2IT    O2  854   1.248   1.530   2.189
   27X2IT    N3  855   1.169   1.661   1.974
   27X2IT   H15  856   1.137   1.721   1.900
   27X2IT   H16  857   1.190   1.701   2.066
   27X2IT    N2  858   1.255   1.119   1.973
   27X2IT    C3  859   1.188   1.007   1.907
   27X2IT    C2  860   1.139   0.924   2.025
   27X2IT    H2  861   1.114   0.819   2.011
   27X2IT    N1  862   1.061   1.005   2.122
   27X2IT   H14  863   1.002   0.943   2.178
   27X2IT    C1  864   1.203   0.973   2.149
   27X2IT    H1  865   1.230   0.908   2.232
   27X2IT   C11  866   1.298   1.085   2.112
   27X2IT    O3  867   1.426   1.024   2.114
   27X2IT   C15  868   1.532   1.093   2.046
   28X2IT   H18  869   0.017  -0.037   4.247
   28X2IT    N4  870   0.101   0.009   4.279
   28X2IT   H17  871   0.144   0.074   4.215
   28X2IT   C14  872   0.111   0.029   4.413
   28X2IT    O5  873   0.043  -0.026   4.498
   28X2IT    O4  874   0.212   0.118   4.439
   28X2IT   C13  875   0.238   0.144   4.579
   28X2IT   C10  876   0.330   0.037   4.640
   28X2IT    C9  877   0.366   0.065   4.784
   28X2IT    C4  878   0.504   0.073   4.798
   28X2IT    C5  879   0.573   0.100   4.928
   28X2IT    O1  880   0.697   0.102   4.932
   28X2IT    C6  881   0.489   0.122   5.043
   28X2IT   C12  882   0.552   0.151   5.177
   28X2IT    C7  883   0.351   0.113   5.029
   28X2IT    C8  884   0.282   0.084   4.896
   28X2IT    O2  885   0.158   0.083   4.894
   28X2IT    N3  886   0.265   0.130   5.130
   28X2IT   H15  887   0.293   0.152   5.224
   28X2IT   H16  888   0.165   0.123   5.108
   28X2IT    N2  889   0.569   0.045   4.682
   28X2IT    C3  890   0.695   0.102   4.633
   28X2IT    C2  891   0.654   0.167   4.502
   28X2IT    H2  892   0.729   0.189   4.426
   28X2IT    N1  893   0.538   0.258   4.519
   28X2IT   H14  894   0.535   0.324   4.442
   28X2IT    C1  895   0.517   0.122   4.466
   28X2IT    H1  896   0.485   0.107   4.364
   28X2IT   C11  897   0.471   0.022   4.571
   28X2IT    O3  898   0.490  -0.104   4.509
   28X2IT   C15  899   0.492  -0.219   4.595
   29X2IT   H18  900   2.510  -0.411   4.471
   29X2IT    N4  901   2.552  -0.323   4.491
   29X2IT   H17  902   2.529  -0.280   4.580
   29X2IT   C14  903   2.675  -0.299   4.435
   29X2IT    O5  904   2.724  -0.363   4.344
   29X2IT    O4  905   2.732  -0.190   4.494
   29X2IT   C13  906   2.860  -0.150   4.441
   29X2IT   C10  907   2.843  -0.061   4.317
   29X2IT    C9  908   2.975  -0.010   4.262
   29X2IT    C4  909   2.975   0.128   4.259
   29X2IT    C5  910   3.091   0.211   4.211
   29X2IT    O1  911   3.081   0.334   4.208
   29X2IT    C6  912   3.208   0.138   4.168
   29X2IT   C12  913   3.329   0.216   4.119
   29X2IT    C7  914   3.208   0.000   4.170
   29X2IT    C8  915   3.088  -0.083   4.219
   29X2IT    O2  916   3.100  -0.206   4.220
   29X2IT    N3  917   3.311  -0.076   4.131
   29X2IT   H15  918   3.398  -0.037   4.098
   29X2IT   H16  919   3.300  -0.177   4.138
   29X2IT    N2  920   2.856   0.180   4.297
   29X2IT    C3  921   2.831   0.306   4.370
   29X2IT    C2  922   2.761   0.258   4.496
   29X2IT    H2  923   2.701   0.327   4.554
   29X2IT    N1  924   2.837   0.151   4.565
   29X2IT   H14  925   2.808   0.146   4.663
   29X2IT    C1  926   2.722   0.116   4.479
   29X2IT    H1  927   2.632   0.074   4.523
   29X2IT   C11  928   2.762   0.072   4.339
   29X2IT    O3  929   2.641   0.076   4.266
   29X2IT   C15  930   2.651   0.078   4.123
   30X2IT   H18  931   0.541   1.381   5.125
   30X2IT    N4  932   0.617   1.396   5.062
   30X2IT   H17  933   0.690   1.460   5.091
   30X2IT   C14  934   0.650   1.292   4.980
   30X2IT    O5  935   0.580   1.195   4.957
   30X2IT    O4  936   0.772   1.315   4.922
   30X2IT   C13  937   0.817   1.216   4.827
   30X2IT   C10  938   0.757   1.240   4.688
   30X2IT    C9  939   0.807   1.142   4.584
   30X2IT    C4  940   0.867   1.210   4.479
   30X2IT    C5  941   0.929   1.143   4.360
   30X2IT    O1  942   0.977   1.213   4.269
   30X2IT    C6  943   0.926   0.999   4.358
   30X2IT   C12  944   0.986   0.925   4.241
   30X2IT    C7  945   0.865   0.931   4.462
   30X2IT    C8  946   0.802   1.001   4.583
   30X2IT    O2  947   0.754   0.930   4.673
   30X2IT    N3  948   0.856   0.797   4.469
   30X2IT   H15  949   0.893   0.736   4.399
   30X2IT   H16  950   0.810   0.758   4.551
   30X2IT    N2  951   0.858   1.345   4.494
   30X2IT    C3  952   0.954   1.448   4.451
   30X2IT    C2  953   0.989   1.516   4.583
   30X2IT    H2  954   1.032   1.616   4.583
   30X2IT    N1  955   1.030   1.418   4.687
   30X2IT   H14  956   1.085   1.467   4.759
   30X2IT    C1  957   0.893   1.472   4.688
   30X2IT    H1  958   0.859   1.537   4.768
   30X2IT   C11  959   0.791   1.379   4.623
   30X2IT    O3  960   0.677   1.461   4.604
   30X2IT   C15  961   0.579   1.415   4.511
   31X2IT   H18  962  -0.240   4.184   1.037
   31X2IT    N4  963  -0.223   4.136   0.951
   31X2IT   H17  964  -0.300   4.128   0.886
   31X2IT   C14  965  -0.095   4.143   0.902
   31X2IT    O5  966   0.003   4.178   0.966
   31X2IT    O4  967  -0.092   4.102   0.772
   31X2IT   C13  968   0.037   4.098   0.709
   31X2IT   C10  969   0.112   3.967   0.743
   31X2IT    C9  970   0.246   3.956   0.673
   31X2IT    C4  971   0.250   3.842   0.596
   31X2IT    C5  972   0.368   3.801   0.512
   31X2IT    O1  973   0.364   3.695   0.449
   31X2IT    C6  974   0.481   3.890   0.514
   31X2IT   C12  975   0.604   3.855   0.432
   31X2IT    C7  976   0.478   4.004   0.592
   31X2IT    C8  977   0.357   4.044   0.677
   31X2IT    O2  978   0.363   4.151   0.740
   31X2IT    N3  979   0.579   4.092   0.601
   31X2IT   H15  980   0.665   4.082   0.551
   31X2IT   H16  981   0.565   4.173   0.662
   31X2IT    N2  982   0.137   3.767   0.609
   31X2IT    C3  983   0.071   3.683   0.507
   31X2IT    C2  984  -0.067   3.747   0.498
   31X2IT    H2  985  -0.150   3.689   0.457
   31X2IT    N1  986  -0.060   3.893   0.476
   31X2IT   H14  987  -0.149   3.925   0.436
   31X2IT    C1  988  -0.086   3.841   0.612
   31X2IT    H1  989  -0.181   3.857   0.660
   31X2IT   C11  990   0.039   3.835   0.698
   31X2IT    O3  991   0.001   3.753   0.808
   31X2IT   C15  992   0.107   3.697   0.887
   32X2IT   H18  993   1.775   1.960   2.325
   32X2IT    N4  994   1.727   1.983   2.410
   32X2IT   H17  995   1.653   2.051   2.405
   32X2IT   C14  996   1.719   1.883   2.504
   32X2IT    O5  997   1.787   1.782   2.504
   32X2IT    O4  998   1.627   1.916   2.599
   32X2IT   C13  999   1.613   1.823   2.708
   32X2IT   C10 1000   1.720   1.846   2.816
   32X2IT    C9 1001   1.704   1.755   2.936
   32X2IT    C4 1002   1.689   1.829   3.051
   32X2IT    C5 1003   1.670   1.770   3.188
   32X2IT    O1 1004   1.660   1.844   3.286
   32X2IT    C6 1005   1.664   1.626   3.195
   32X2IT   C12 1006   1.645   1.559   3.330
   32X2IT    C7 1007   1.680   1.551   3.080
   32X2IT    C8 1008   1.700   1.613   2.941
   32X2IT    O2 1009   1.709   1.537   2.844
   32X2IT    N3 1010   1.679   1.417   3.077
   32X2IT   H15 1011   1.664   1.360   3.158
   32X2IT   H16 1012   1.690   1.372   2.985
   32X2IT    N2 1013   1.701   1.962   3.028
   32X2IT    C3 1014   1.632   2.073   3.096
   32X2IT    C2 1015   1.557   2.140   2.982
   32X2IT    H2 1016   1.523   2.243   2.993
   32X2IT    N1 1017   1.476   2.044   2.904
   32X2IT   H14 1018   1.402   2.094   2.854
   32X2IT    C1 1019   1.607   2.087   2.853
   32X2IT    H1 1020   1.614   2.147   2.763
   32X2IT   C11 1021   1.719   1.989   2.882
   32X2IT    O3 1022   1.837   2.062   2.856
   32X2IT   C15 1023   1.959   2.011   2.911
   33X2IT   H18 1024   0.550   3.963   5.272
   33X2IT    N4 1025   0.490   4.023   5.218
   33X2IT   H17 1026   0.405   4.054   5.262
   33X2IT   C14 1027   0.551   4.104   5.126
   33X2IT    O5 1028   0.665   4.090   5.085
   33X2IT    O4 1029   0.463   4.200   5.084
   33X2IT   C13 1030   0.512   4.289   4.981
   33X2IT   C10 1031   0.497   4.227   4.841
   33X2IT    C9 1032   0.541   4.320   4.730
   33X2IT    C4 1033   0.436   4.341   4.642
   33X2IT    C5 1034   0.446   4.429   4.520
   33X2IT    O1 1035   0.348   4.438   4.445
   33X2IT    C6 1036   0.571   4.497   4.500
   33X2IT   C12 1037   0.587   4.587   4.379
   33X2IT    C7 1038   0.676   4.475   4.587
   33X2IT    C8 1039   0.665   4.384   4.710
   33X2IT    O2 1040   0.764   4.376   4.785
   33X2IT    N3 1041   0.797   4.532   4.575
   33X2IT   H15 1042   0.820   4.596   4.501
   33X2IT   H16 1043   0.866   4.510   4.647
   33X2IT    N2 1044   0.327   4.266   4.673
   33X2IT    C3 1045   0.186   4.301   4.654
   33X2IT    C2 1046   0.132   4.296   4.796
   33X2IT    H2 1047   0.025   4.284   4.813
   33X2IT    N1 1048   0.212   4.378   4.889
   33X2IT   H14 1049   0.156   4.401   4.972
   33X2IT    C1 1050   0.232   4.232   4.885
   33X2IT    H1 1051   0.205   4.170   4.969
   33X2IT   C11 1052   0.350   4.190   4.799
   33X2IT    O3 1053   0.331   4.050   4.781
   33X2IT   C15 1054   0.404   3.988   4.673
   34X2IT   H18 1055   4.640   0.242  -0.021
   34X2IT    N4 1056   4.567   0.251   0.048
   34X2IT   H17 1057   4.490   0.187   0.041
   34X2IT   C14 1058   4.605   0.297   0.171
   34X2IT    O5 1059   4.711   0.353   0.196
   34X2IT    O4 1060   4.506   0.274   0.262
   34X2IT   C13 1061   4.529   0.323   0.395
   34X2IT   C10 1062   4.494   0.472   0.407
   34X2IT    C9 1063   4.510   0.526   0.548
   34X2IT    C4 1064   4.391   0.578   0.593
   34X2IT    C5 1065   4.372   0.639   0.729
   34X2IT    O1 1066   4.262   0.687   0.760
   34X2IT    C6 1067   4.487   0.639   0.816
   34X2IT   C12 1068   4.475   0.698   0.955
   34X2IT    C7 1069   4.607   0.587   0.770
   34X2IT    C8 1070   4.625   0.526   0.631
   34X2IT    O2 1071   4.736   0.479   0.602
   34X2IT    N3 1072   4.720   0.584   0.843
   34X2IT   H15 1073   4.725   0.618   0.937
   34X2IT   H16 1074   4.802   0.542   0.799
   34X2IT    N2 1075   4.294   0.575   0.498
   34X2IT    C3 1076   4.149   0.557   0.516
   34X2IT    C2 1077   4.122   0.431   0.436
   34X2IT    H2 1078   4.021   0.409   0.402
   34X2IT    N1 1079   4.213   0.320   0.473
   34X2IT   H14 1080   4.171   0.231   0.444
   34X2IT    C1 1081   4.241   0.399   0.352
   34X2IT    H1 1082   4.234   0.355   0.253
   34X2IT   C11 1083   4.344   0.509   0.374
   34X2IT    O3 1084   4.331   0.592   0.260
   34X2IT   C15 1085   4.387   0.724   0.269
   35X2IT   H18 1086   2.908   2.690   3.273
   35X2IT    N4 1087   2.894   2.775   3.324
   35X2IT   H17 1088   2.915   2.773   3.423
   35X2IT   C14 1089   2.912   2.891   3.255
   35X2IT    O5 1090   2.915   2.901   3.133
   35X2IT    O4 1091   2.921   2.996   3.341
   35X2IT   C13 1092   2.933   3.127   3.281
   35X2IT   C10 1093   2.795   3.184   3.241
   35X2IT    C9 1094   2.803   3.324   3.184
   35X2IT    C4 1095   2.725   3.410   3.259
   35X2IT    C5 1096   2.711   3.556   3.230
   35X2IT    O1 1097   2.636   3.626   3.300
   35X2IT    C6 1098   2.787   3.608   3.119
   35X2IT   C12 1099   2.778   3.755   3.085
   35X2IT    C7 1100   2.865   3.521   3.044
   35X2IT    C8 1101   2.877   3.372   3.074
   35X2IT    O2 1102   2.953   3.304   3.002
   35X2IT    N3 1103   2.937   3.560   2.938
   35X2IT   H15 1104   2.942   3.655   2.906
   35X2IT   H16 1105   2.992   3.487   2.890
   35X2IT    N2 1106   2.656   3.345   3.357
   35X2IT    C3 1107   2.619   3.395   3.490
   35X2IT    C2 1108   2.689   3.296   3.582
   35X2IT    H2 1109   2.655   3.286   3.686
   35X2IT    N1 1110   2.832   3.281   3.551
   35X2IT   H14 1111   2.882   3.244   3.632
   35X2IT    C1 1112   2.736   3.180   3.503
   35X2IT    H1 1113   2.738   3.079   3.543
   35X2IT   C11 1114   2.692   3.200   3.359
   35X2IT    O3 1115   2.579   3.117   3.345
   35X2IT   C15 1116   2.492   3.143   3.234
   36SOL     OW 1117   0.230   0.628   0.113
   36SOL    HW1 1118   0.137   0.626   0.150
   36SOL    HW2 1119   0.231   0.589   0.021
   37SOL     OW 1120   0.225   0.275   0.996
   37SOL    HW1 1121   0.260   0.258   1.088
   37SOL    HW2 1122   0.137   0.230   0.984
   38SOL     OW 1123   0.569   1.275   1.165
   38SOL    HW1 1124   0.476   1.268   1.128
   38SOL    HW2 1125   0.580   1.364   1.209
   39SOL     OW 1126   1.555   1.511   0.703
   39SOL    HW1 1127   1.498   1.495   0.784
   39SOL    HW2 1128   1.496   1.521   0.623
   40SOL     OW 1129   1.135   0.703   0.717
   40SOL    HW1 1130   1.192   0.781   0.692
   40SOL    HW2 1131   1.075   0.729   0.793
   41SOL     OW 1132   1.755   0.607   0.231
   41SOL    HW1 1133   1.743   0.594   0.132
   41SOL    HW2 1134   1.725   0.526   0.280
   42SOL     OW 1135   0.768   1.144   1.023
   42SOL    HW1 1136   0.690   1.161   1.083
   42SOL    HW2 1137   0.802   1.231   0.987
   43SOL     OW 1138   0.850   0.798   1.823
   43SOL    HW1 1139   0.846   0.874   1.888
   43SOL    HW2 1140   0.872   0.834   1.732
   44SOL     OW 1141   0.685   1.012   0.665
   44SOL    HW1 1142   0.754   0.996   0.735
   44SOL    HW2 1143   0.612   1.069   0.703
   45SOL     OW 1144   0.686   1.161   1.803
   45SOL    HW1 1145   0.746   1.240   1.817
   45SOL    HW2 1146   0.600   1.192   1.762
   46SOL     OW 1147   0.335   1.435   1.061
   46SOL    HW1 1148   0.257   1.404   1.008
   46SOL    HW2 1149   0.393   1.493   1.004
   47SOL     OW 1150   0.438   0.392   1.499
   47SOL    HW1 1151   0.520   0.336   1.508
   47SOL    HW2 1152   0.357   0.334   1.503
   48SOL     OW 1153   1.603   0.447   0.737
   48SOL    HW1 1154   1.529   0.493   0.687
   48SOL    HW2 1155   1.654   0.515   0.790
   49SOL     OW 1156   0.231   1.713   0.483
   49SOL    HW1 1157   0.265   1.790   0.537
   49SOL    HW2 1158   0.275   1.713   0.393
   50SOL     OW 1159   0.230   1.434   0.538
   50SOL    HW1 1160   0.204   1.530   0.538
   50SOL    HW2 1161   0.159   1.380   0.583
   51SOL     OW 1162   0.240   1.091   0.886
   51SOL    HW1 1163   0.254   1.007   0.938
   51SOL    HW2 1164   0.185   1.155   0.941
   52SOL     OW 1165   0.620   1.786   1.439
   52SOL    HW1 1166   0.528   1.769   1.474
   52SOL    HW2 1167   0.648   1.878   1.465
   53SOL     OW 1168   0.606   0.964   0.123
   53SOL    HW1 1169   0.613   1.048   0.069
   53SOL    HW2 1170   0.652   0.977   0.211
   54SOL     OW 1171   1.594   0.114   1.480
   54SOL    HW1 1172   1.576   0.181   1.408
   54SOL    HW2 1173   1.591   0.160   1.569
   55SOL     OW 1174   1.842   1.767   0.359
   55SOL    HW1 1175   1.896   1.738   0.439
   55SOL    HW2 1176   1.872   1.857   0.330
   56SOL     OW 1177   0.027   1.596   0.117
   56SOL    HW1 1178   0.008   1.500   0.138
   56SOL    HW2 1179  -0.006   1.654   0.192
   57SOL     OW 1180   1.689   0.922   0.612
   57SOL    HW1 1181   1.784   0.893   0.620
   57SOL    HW2 1182   1.681   0.987   0.537
   58SOL     OW 1183   1.641   1.108   0.432
   58SOL    HW1 1184   1.727   1.110   0.380
   58SOL    HW2 1185   1.655   1.155   0.520
   59SOL     OW 1186   0.113   0.737   1.597
   59SOL    HW1 1187   0.201   0.724   1.642
   59SOL    HW2 1188   0.100   0.834   1.575
   60SOL     OW 1189   0.613   1.365   0.726
   60SOL    HW1 1190   0.564   1.278   0.735
   60SOL    HW2 1191   0.590   1.408   0.639
   61SOL     OW 1192   1.293   1.228   1.423
   61SOL    HW1 1193   1.330   1.155   1.365
   61SOL    HW2 1194   1.345   1.233   1.508
   62SOL     OW 1195   0.809   0.004   0.502
   62SOL    HW1 1196   0.849   0.095   0.493
   62SOL    HW2 1197   0.709   0.012   0.508
   63SOL     OW 1198   0.197   0.976   1.264
   63SOL    HW1 1199   0.286   0.931   1.250
   63SOL    HW2 1200   0.124   0.911   1.245
   64SOL     OW 1201   1.525   0.999   0.190
   64SOL    HW1 1202   1.462   0.923   0.203
   64SOL    HW2 1203   1.573   1.017   0.276
   65SOL     OW 1204   1.187   1.792   1.616
   65SOL    HW1 1205   1.211   1.852   1.540
   65SOL    HW2 1206   1.194   1.697   1.586
   66SOL     OW 1207   0.317   0.251   1.801
   66SOL    HW1 1208   0.388   0.322   1.807
   66SOL    HW2 1209   0.229   0.290   1.829
   67SOL     OW 1210   1.466   1.417   0.953
   67SOL    HW1 1211   1.407   1.423   1.033
   67SOL    HW2 1212   1.451   1.329   0.907
   68SOL     OW 1213   1.667   1.714   0.572
   68SOL    HW1 1214   1.626   1.691   0.484
   68SOL    HW2 1215   1.649   1.640   0.637
   69SOL     OW 1216   0.598   0.729   0.270
   69SOL    HW1 1217   0.622   0.798   0.202
   69SOL    HW2 1218   0.520   0.762   0.324
   70SOL     OW 1219   1.281   0.345   0.944
   70SOL    HW1 1220   1.195   0.295   0.931
   70SOL    HW2 1221   1.343   0.291   1.000
   71SOL     OW 1222   1.576   1.662   0.307
   71SOL    HW1 1223   1.665   1.708   0.310
   71SOL    HW2 1224   1.555   1.638   0.212
   72SOL     OW 1225   0.807   0.605   1.465
   72SOL    HW1 1226   0.760   0.602   1.554
   72SOL    HW2 1227   0.756   0.550   1.399
   73SOL     OW 1228   1.394   0.469   1.674
   73SOL    HW1 1229   1.374   0.512   1.762
   73SOL    HW2 1230   1.472   0.407   1.683
   74SOL     OW 1231   0.973   0.890   1.572
   74SOL    HW1 1232   1.019   0.806   1.543
   74SOL    HW2 1233   0.917   0.924   1.497
   75SOL     OW 1234   1.041   0.701   0.429
   75SOL    HW1 1235   1.067   0.697   0.525
   75SOL    HW2 1236   0.956   0.650   0.415
   76SOL     OW 1237   0.076   0.811   0.789
   76SOL    HW1 1238   0.175   0.799   0.798
   76SOL    HW2 1239   0.052   0.906   0.810
   77SOL     OW 1240   0.130   1.821   1.571
   77SOL    HW1 1241   0.120   1.806   1.670
   77SOL    HW2 1242   0.044   1.857   1.535
   78SOL     OW 1243   0.865   0.348   0.195
   78SOL    HW1 1244   0.924   0.411   0.146
   78SOL    HW2 1245   0.884   0.254   0.166
   79SOL     OW 1246   1.719   0.585   1.831
   79SOL    HW1 1247   1.693   0.674   1.795
   79SOL    HW2 1248   1.717   0.517   1.758
   80SOL     OW 1249   1.362   1.144   0.545
   80SOL    HW1 1250   1.445   1.115   0.497
   80SOL    HW2 1251   1.313   1.211   0.489
   81SOL     OW 1252   0.550   0.196   0.885
   81SOL    HW1 1253   0.545   0.191   0.985
   81SOL    HW2 1254   0.552   0.292   0.856
   82SOL     OW 1255   1.008   1.456   0.477
   82SOL    HW1 1256   0.962   1.528   0.425
   82SOL    HW2 1257   1.004   1.476   0.575
   83SOL     OW 1258   0.351   1.801   0.853
   83SOL    HW1 1259   0.401   1.715   0.859
   83SOL    HW2 1260   0.416   1.878   0.850
   84SOL     OW 1261   1.795   1.066   0.873
   84SOL    HW1 1262   1.733   1.051   0.797
   84SOL    HW2 1263   1.743   1.077   0.958
   85SOL     OW 1264   1.227   1.550   1.506
   85SOL    HW1 1265   1.233   1.473   1.570
   85SOL    HW2 1266   1.175   1.524   1.426
   86SOL     OW 1267   0.321   0.943   0.242
   86SOL    HW1 1268   0.403   0.982   0.200
   86SOL    HW2 1269   0.294   0.861   0.193
   87SOL     OW 1270   1.458   0.735   0.728
   87SOL    HW1 1271   1.453   0.670   0.803
   87SOL    HW2 1272   1.538   0.794   0.741
   88SOL     OW 1273   0.461   1.266   1.727
   88SOL    HW1 1274   0.411   1.267   1.641
   88SOL    HW2 1275   0.398   1.248   1.803
   89SOL     OW 1276   1.111   1.776   0.237
   89SOL    HW1 1277   1.051   1.714   0.287
   89SOL    HW2 1278   1.142   1.732   0.152
   90SOL     OW 1279   0.202   0.285   1.498
   90SOL    HW1 1280   0.122   0.345   1.485
   90SOL    HW2 1281   0.192   0.236   1.584
   91SOL     OW 1282   1.632   1.377   0.081
   91SOL    HW1 1283   1.600   1.471   0.071
   91SOL    HW2 1284   1.556   1.314   0.069
   92SOL     OW 1285   0.464   1.743   0.323
   92SOL    HW1 1286   0.497   1.782   0.409
   92SOL    HW2 1287   0.540   1.736   0.258
   93SOL     OW 1288   1.400   0.107   0.426
   93SOL    HW1 1289   1.376   0.070   0.336
   93SOL    HW2 1290   1.499   0.123   0.430
   94SOL     OW 1291   0.249   1.785   1.241
   94SOL    HW1 1292   0.306   1.720   1.291
   94SOL    HW2 1293   0.233   1.752   1.148
   95SOL     OW 1294   0.940   1.698   0.904
   95SOL    HW1 1295   1.020   1.641   0.925
   95SOL    HW2 1296   0.891   1.658   0.827
   96SOL     OW 1297   1.547   0.222   1.729
   96SOL    HW1 1298   1.542   0.259   1.821
   96SOL    HW2 1299   1.475   0.153   1.717
   97SOL     OW 1300   0.888   1.514   1.195
   97SOL    HW1 1301   0.865   1.489   1.101
   97SOL    HW2 1302   0.949   1.445   1.234
   98SOL     OW 1303   0.803   1.402   0.924
   98SOL    HW1 1304   0.893   1.416   0.882
   98SOL    HW2 1305   0.732   1.404   0.853
   99SOL     OW 1306   0.539   0.064   0.512
   99SOL    HW1 1307   0.458   0.065   0.570
   99SOL    HW2 1308   0.542   0.147   0.457
  100SOL     OW 1309   1.434   1.188   0.041
  100SOL    HW1 1310   1.466   1.112   0.098
  100SOL    HW2 1311   1.342   1.215   0.071
  101SOL     OW 1312   0.935   0.236   0.480
  101SOL    HW1 1313   0.887   0.277   0.402
  101SOL    HW2 1314   1.034   0.234   0.461
  102SOL     OW 1315   1.076   0.683   1.464
  102SOL    HW1 1316   0.996   0.622   1.467
  102SOL    HW2 1317   1.157   0.630   1.440
  103SOL     OW 1318   1.227   1.570   0.793
  103SOL    HW1 1319   1.248   1.644   0.728
  103SOL    HW2 1320   1.295   1.570   0.866
  104SOL     OW 1321   0.459   1.152   0.741
  104SOL    HW1 1322   0.388   1.125   0.806
  104SOL    HW2 1323   0.433   1.124   0.648
  105SOL     OW 1324   1.271   1.797   0.591
  105SOL    HW1 1325   1.315   1.861   0.527
  105SOL    HW2 1326   1.221   1.849   0.661
  106SOL     OW 1327   1.032   0.549   0.016
  106SOL    HW1 1328   0.991   0.631  -0.023
  106SOL    HW2 1329   1.096   0.575   0.089
  107SOL     OW 1330   0.078   0.556   1.386
  107SOL    HW1 1331   0.170   0.555   1.345
  107SOL    HW2 1332   0.072   0.630   1.453
  108SOL     OW 1333   0.561   0.222   1.147
  108SOL    HW1 1334   0.599   0.138   1.184
  108SOL    HW2 1335   0.473   0.241   1.191
  109SOL     OW 1336   0.866   0.454   0.642
  109SOL    HW1 1337   0.834   0.526   0.580
  109SOL    HW2 1338   0.890   0.373   0.589
  110SOL     OW 1339   1.017   0.039   0.753
  110SOL    HW1 1340   0.945   0.044   0.684
  110SOL    HW2 1341   0.993  -0.030   0.822
  111SOL     OW 1342   1.429   1.173   0.867
  111SOL    HW1 1343   1.374   1.089   0.860
  111SOL    HW2 1344   1.455   1.202   0.775
  112SOL     OW 1345   1.466   0.590   0.992
  112SOL    HW1 1346   1.436   0.495   0.999
  112SOL    HW2 1347   1.539   0.606   1.058
  113SOL     OW 1348   1.857   0.833   0.377
  113SOL    HW1 1349   1.899   0.769   0.441
  113SOL    HW2 1350   1.819   0.782   0.299
  114SOL     OW 1351   1.664   1.280   0.657
  114SOL    HW1 1352   1.763   1.288   0.671
  114SOL    HW2 1353   1.619   1.364   0.688
  115SOL     OW 1354   1.390   0.575   0.078
  115SOL    HW1 1355   1.336   0.554   0.159
  115SOL    HW2 1356   1.481   0.534   0.087
  116SOL     OW 1357   0.527   0.256   0.328
  116SOL    HW1 1358   0.554   0.197   0.253
  116SOL    HW2 1359   0.527   0.351   0.297
  117SOL     OW 1360   1.754   1.223   1.588
  117SOL    HW1 1361   1.845   1.184   1.575
  117SOL    HW2 1362   1.762   1.319   1.612
  118SOL     OW 1363   1.064   1.347   1.340
  118SOL    HW1 1364   0.984   1.324   1.395
  118SOL    HW2 1365   1.147   1.321   1.389
  119SOL     OW 1366   1.111   1.195   1.100
  119SOL    HW1 1367   1.071   1.239   1.181
  119SOL    HW2 1368   1.070   1.232   1.017
  120SOL     OW 1369   1.638   1.099   1.079
  120SOL    HW1 1370   1.643   1.180   1.138
  120SOL    HW2 1371   1.552   1.101   1.028
  121SOL     OW 1372   0.980   1.116   1.719
  121SOL    HW1 1373   0.881   1.122   1.729
  121SOL    HW2 1374   1.003   1.036   1.663
  122SOL     OW 1375   0.705   1.050   0.368
  122SOL    HW1 1376   0.691   1.057   0.467
  122SOL    HW2 1377   0.789   0.999   0.350
  123SOL     OW 1378   0.410   0.813   1.251
  123SOL    HW1 1379   0.496   0.825   1.301
  123SOL    HW2 1380   0.368   0.726   1.278
  124SOL     OW 1381   0.064   1.564   1.331
  124SOL    HW1 1382   0.018   1.646   1.297
  124SOL    HW2 1383   0.162   1.583   1.340
  125SOL     OW 1384   0.566   0.537   0.865
  125SOL    HW1 1385   0.578   0.603   0.791
  125SOL    HW2 1386   0.612   0.571   0.948
  126SOL     OW 1387   1.252   1.348   0.388
  126SOL    HW1 1388   1.302   1.425   0.428
  126SOL    HW2 1389   1.157   1.350   0.420
  127SOL     OW 1390   1.272   1.445   1.142
  127SOL    HW1 1391   1.319   1.458   1.229
  127SOL    HW2 1392   1.206   1.371   1.151
  128SOL     OW 1393   1.582   0.639   0.472
  128SOL    HW1 1394   1.551   0.700   0.545
  128SOL    HW2 1395   1.632   0.691   0.403
  129SOL     OW 1396   0.354   1.510   1.329
  129SOL    HW1 1397   0.333   1.466   1.242
  129SOL    HW2 1398   0.451   1.536   1.332
  130SOL     OW 1399   0.402   0.751   1.598
  130SOL    HW1 1400   0.470   0.806   1.551
  130SOL    HW2 1401   0.442   0.663   1.625
  131SOL     OW 1402   1.587   0.779   1.670
  131SOL    HW1 1403   1.495   0.817   1.665
  131SOL    HW2 1404   1.647   0.826   1.605
  132SOL     OW 1405   0.504   0.050   1.740
  132SOL    HW1 1406   0.462  -0.007   1.670
  132SOL    HW2 1407   0.438   0.119   1.772
  133SOL     OW 1408   0.573   0.870   1.029
  133SOL    HW1 1409   0.617   0.959   1.020
  133SOL    HW2 1410   0.510   0.870   1.106
  134SOL     OW 1411   1.360   0.862   1.045
  134SOL    HW1 1412   1.285   0.862   0.979
  134SOL    HW2 1413   1.397   0.770   1.054
  135SOL     OW 1414   1.209   0.525   0.275
  135SOL    HW1 1415   1.222   0.441   0.329
  135SOL    HW2 1416   1.180   0.599   0.335
  136SOL     OW 1417   0.307   0.213   1.231
  136SOL    HW1 1418   0.284   0.250   1.321
  136SOL    HW2 1419   0.277   0.118   1.225
  137SOL     OW 1420   0.037   1.310   1.282
  137SOL    HW1 1421   0.090   1.261   1.350
  137SOL    HW2 1422   0.059   1.408   1.287
  138SOL     OW 1423   0.732   0.634   1.064
  138SOL    HW1 1424   0.791   0.608   0.988
  138SOL    HW2 1425   0.704   0.730   1.053
  139SOL     OW 1426   1.728   0.935   1.854
  139SOL    HW1 1427   1.682   0.928   1.765
  139SOL    HW2 1428   1.666   0.979   1.920
  140SOL     OW 1429   0.307   0.063   0.618
  140SOL    HW1 1430   0.296   0.157   0.651
  140SOL    HW2 1431   0.302   0.000   0.695
  141SOL     OW 1432   1.622   0.367   0.374
  141SOL    HW1 1433   1.624   0.291   0.438
  141SOL    HW2 1434   1.574   0.444   0.414
  142SOL     OW 1435   1.023   0.766   0.966
  142SOL    HW1 1436   1.038   0.787   1.062
  142SOL    HW2 1437   0.993   0.671   0.957
  143SOL     OW 1438   1.859   1.518   1.605
  143SOL    HW1 1439   1.873   1.545   1.510
  143SOL    HW2 1440   1.942   1.540   1.658
  144SOL     OW 1441   0.350   0.898   1.804
  144SOL    HW1 1442   0.426   0.942   1.852
  144SOL    HW2 1443   0.385   0.851   1.722
  145SOL     OW 1444   1.540   0.274   0.125
  145SOL    HW1 1445   1.479   0.199   0.148
  145SOL    HW2 1446   1.562   0.326   0.208
  146SOL     OW 1447   1.303   0.838   0.042
  146SOL    HW1 1448   1.337   0.745   0.057
  146SOL    HW2 1449   1.321   0.865  -0.053
  147SOL     OW 1450   1.068   1.333   0.849
  147SOL    HW1 1451   1.075   1.249   0.794
  147SOL    HW2 1452   1.130   1.402   0.813
  148SOL     OW 1453   0.339   0.509   1.006
  148SOL    HW1 1454   0.287   0.426   0.989
  148SOL    HW2 1455   0.416   0.514   0.942
  149SOL     OW 1456   0.008   1.326   0.200
  149SOL    HW1 1457  -0.085   1.347   0.169
  149SOL    HW2 1458   0.018   1.227   0.213
  150SOL     OW 1459   0.088   1.801   0.927
  150SOL    HW1 1460   0.046   1.715   0.900
  150SOL    HW2 1461   0.182   1.804   0.893
  151SOL     OW 1462   0.504   1.568   0.910
  151SOL    HW1 1463   0.570   1.642   0.919
  151SOL    HW2 1464   0.548   1.489   0.868
  152SOL     OW 1465   1.002   0.796   1.238
  152SOL    HW1 1466   1.043   0.764   1.324
  152SOL    HW2 1467   0.906   0.769   1.235
  153SOL     OW 1468   0.189   0.520   1.722
  153SOL    HW1 1469   0.248   0.480   1.652
  153SOL    HW2 1470   0.131   0.591   1.681
  154SOL     OW 1471   1.369   0.950   1.660
  154SOL    HW1 1472   1.408   1.039   1.680
  154SOL    HW2 1473   1.379   0.930   1.563
  155SOL     OW 1474   0.815   0.572   0.325
  155SOL    HW1 1475   0.822   0.483   0.279
  155SOL    HW2 1476   0.721   0.606   0.317
  156SOL     OW 1477   1.657   0.604   1.206
  156SOL    HW1 1478   1.619   0.535   1.268
  156SOL    HW2 1479   1.739   0.568   1.162
  157SOL     OW 1480   0.252   1.564   1.744
  157SOL    HW1 1481   0.222   1.621   1.820
  157SOL    HW2 1482   0.245   1.467   1.770
  158SOL     OW 1483   0.930   1.678   1.465
  158SOL    HW1 1484   0.906   1.660   1.370
  158SOL    HW2 1485   0.960   1.772   1.475
  159SOL     OW 1486   0.473   0.500   0.191
  159SOL    HW1 1487   0.534   0.580   0.195
  159SOL    HW2 1488   0.378   0.531   0.198
  160SOL     OW 1489   0.159   1.137   1.466
  160SOL    HW1 1490   0.181   1.076   1.542
  160SOL    HW2 1491   0.169   1.088   1.380
  161SOL     OW 1492   1.347   1.059   1.234
  161SOL    HW1 1493   1.371   0.996   1.160
  161SOL    HW2 1494   1.257   1.099   1.216
  162SOL     OW 1495   1.302   0.855   0.309
  162SOL    HW1 1496   1.216   0.824   0.351
  162SOL    HW2 1497   1.298   0.841   0.210
  163SOL     OW 1498   1.759   1.747   1.154
  163SOL    HW1 1499   1.820   1.777   1.081
  163SOL    HW2 1500   1.721   1.658   1.132
  164SOL     OW 1501   0.083   1.258   1.022
  164SOL    HW1 1502   0.078   1.257   1.122
  164SOL    HW2 1503   0.000   1.217   0.984
  165SOL     OW 1504   0.688   1.662   1.716
  165SOL    HW1 1505   0.632   1.743   1.725
  165SOL    HW2 1506   0.740   1.666   1.630
  166SOL     OW 1507   0.903   0.086   0.133
  166SOL    HW1 1508   0.954   0.087   0.047
  166SOL    HW2 1509   0.959   0.044   0.204
  167SOL     OW 1510   1.726   0.135   0.523
  167SOL    HW1 1511   1.799   0.118   0.456
  167SOL    HW2 1512   1.695   0.048   0.561
  168SOL     OW 1513   1.388   1.573   0.477
  168SOL    HW1 1514   1.455   1.585   0.403
  168SOL    HW2 1515   1.348   1.662   0.500
  169SOL     OW 1516   0.130   1.794   1.851
  169SOL    HW1 1517   0.089   1.720   1.904
  169SOL    HW2 1518   0.194   1.845   1.909
  170SOL     OW 1519   1.280   0.927   0.672
  170SOL    HW1 1520   1.340   0.846   0.674
  170SOL    HW2 1521   1.320   0.996   0.612
  171SOL     OW 1522   0.830   1.273   1.422
  171SOL    HW1 1523   0.825   1.306   1.517
  171SOL    HW2 1524   0.744   1.292   1.376
  172SOL     OW 1525   0.672   1.616   0.154
  172SOL    HW1 1526   0.681   1.626   0.055
  172SOL    HW2 1527   0.632   1.527   0.175
  173SOL     OW 1528   1.841   0.175   0.963
  173SOL    HW1 1529   1.880   0.090   0.927
  173SOL    HW2 1530   1.743   0.177   0.944
  174SOL     OW 1531   0.263   0.326   0.720
  174SOL    HW1 1532   0.184   0.377   0.686
  174SOL    HW2 1533   0.254   0.311   0.818
  175SOL     OW 1534   1.194   1.612   0.031
  175SOL    HW1 1535   1.200   1.519   0.068
  175SOL    HW2 1536   1.135   1.612  -0.049
  176SOL     OW 1537   0.822   1.002   1.372
  176SOL    HW1 1538   0.862   1.001   1.280
  176SOL    HW2 1539   0.832   1.094   1.412
  177SOL     OW 1540   0.916   0.910   0.291
  177SOL    HW1 1541   0.979   0.948   0.223
  177SOL    HW2 1542   0.956   0.827   0.330
  178SOL     OW 1543   1.504   1.607   0.044
  178SOL    HW1 1544   1.412   1.644   0.051
  178SOL    HW2 1545   1.542   1.627  -0.046
  179SOL     OW 1546   0.372   1.288   1.490
  179SOL    HW1 1547   0.359   1.381   1.456
  179SOL    HW2 1548   0.288   1.236   1.477
  180SOL     OW 1549   1.614   1.292   1.289
  180SOL    HW1 1550   1.674   1.295   1.369
  180SOL    HW2 1551   1.539   1.356   1.302
  181SOL     OW 1552   1.039   1.098   0.696
  181SOL    HW1 1553   0.969   1.051   0.750
  181SOL    HW2 1554   1.098   1.030   0.653
  182SOL     OW 1555   1.014   0.236   0.971
  182SOL    HW1 1556   1.006   0.200   0.878
  182SOL    HW2 1557   1.012   0.160   1.036
  183SOL     OW 1558   0.590   1.487   0.491
  183SOL    HW1 1559   0.632   1.429   0.421
  183SOL    HW2 1560   0.546   1.566   0.447
  184SOL     OW 1561   1.709   0.385   1.381
  184SOL    HW1 1562   1.782   0.454   1.385
  184SOL    HW2 1563   1.737   0.310   1.322
  185SOL     OW 1564   0.255   1.348   0.290
  185SOL    HW1 1565   0.159   1.349   0.263
  185SOL    HW2 1566   0.267   1.401   0.374
  186SOL     OW 1567   0.105   1.013   1.726
  186SOL    HW1 1568   0.028   0.980   1.780
  186SOL    HW2 1569   0.190   0.983   1.768
  187SOL     OW 1570   0.075   0.345   0.033
  187SOL    HW1 1571  -0.017   0.317   0.004
  187SOL    HW2 1572   0.106   0.422  -0.023
  188SOL     OW 1573   1.440   0.856   1.398
  188SOL    HW1 1574   1.383   0.908   1.335
  188SOL    HW2 1575   1.536   0.868   1.374
  189SOL     OW 1576   0.072   0.166   0.318
  189SOL    HW1 1577   0.055   0.249   0.264
  189SOL    HW2 1578   0.162   0.129   0.296
  190SOL     OW 1579   1.183   1.335   0.119
  190SOL    HW1 1580   1.084   1.324   0.121
  190SOL    HW2 1581   1.217   1.350   0.212
  191SOL     OW 1582   0.613   0.842   1.431
  191SOL    HW1 1583   0.669   0.923   1.414
  191SOL    HW2 1584   0.672   0.762   1.434
  192SOL     OW 1585   1.493   1.767   0.959
  192SOL    HW1 1586   1.526   1.831   0.890
  192SOL    HW2 1587   1.559   1.761   1.034
  193SOL     OW 1588   0.716   0.565   1.708
  193SOL    HW1 1589   0.735   0.630   1.782
  193SOL    HW2 1590   0.776   0.485   1.717
  194SOL     OW 1591   1.450   1.220   1.633
  194SOL    HW1 1592   1.441   1.210   1.732
  194SOL    HW2 1593   1.546   1.213   1.607
  195SOL     OW 1594   0.390   1.741   1.560
  195SOL    HW1 1595   0.299   1.782   1.558
  195SOL    HW2 1596   0.383   1.647   1.592
  196SOL     OW 1597   1.674   0.883   1.254
  196SOL    HW1 1598   1.647   0.794   1.217
  196SOL    HW2 1599   1.675   0.951   1.181
  197SOL     OW 1600   1.225   0.325   0.449
  197SOL    HW1 1601   1.290   0.251   0.438
  197SOL    HW2 1602   1.245   0.375   0.533
  198SOL     OW 1603   1.777   0.342   1.642
  198SOL    HW1 1604   1.760   0.373   1.548
  198SOL    HW2 1605   1.693   0.305   1.680
  199SOL     OW 1606   1.730   0.934   1.517
  199SOL    HW1 1607   1.768   1.025   1.532
  199SOL    HW2 1608   1.722   0.917   1.418
  200SOL     OW 1609   0.859   1.374   0.016
  200SOL    HW1 1610   0.813   1.389   0.104
  200SOL    HW2 1611   0.903   1.459  -0.014
  201SOL     OW 1612   0.661   1.790   0.953
  201SOL    HW1 1613   0.615   1.878   0.940
  201SOL    HW2 1614   0.760   1.802   0.946
  202SOL     OW 1615   0.859   0.956   0.861
  202SOL    HW1 1616   0.913   0.887   0.909
  202SOL    HW2 1617   0.827   1.025   0.927
  203SOL     OW 1618   1.083   0.984   0.087
  203SOL    HW1 1619   1.060   1.037   0.005
  203SOL    HW2 1620   1.164   0.928   0.068
  204SOL     OW 1621   1.861   1.569   0.851
  204SOL    HW1 1622   1.790   1.557   0.781
  204SOL    HW2 1623   1.862   1.490   0.911
  205SOL     OW 1624   0.221   1.314   1.844
  205SOL    HW1 1625   0.156   1.241   1.823
  205SOL    HW2 1626   0.225   1.328   1.942
  206SOL     OW 1627   0.079   1.240   0.653
  206SOL    HW1 1628   0.078   1.193   0.741
  206SOL    HW2 1629   0.161   1.212   0.602
  207SOL     OW 1630   0.672   1.391   1.624
  207SOL    HW1 1631   0.594   1.341   1.662
  207SOL    HW2 1632   0.669   1.486   1.655
  208SOL     OW 1633   1.824   0.192   1.227
  208SOL    HW1 1634   1.820   0.102   1.271
  208SOL    HW2 1635   1.827   0.181   1.128
  209SOL     OW 1636   1.705   1.487   1.104
  209SOL    HW1 1637   1.612   1.462   1.077
  209SOL    HW2 1638   1.731   1.437   1.186
  210SOL     OW 1639   0.317   0.547   1.280
  210SOL    HW1 1640   0.355   0.488   1.352
  210SOL    HW2 1641   0.357   0.521   1.192
  211SOL     OW 1642   0.812   1.586   0.687
  211SOL    HW1 1643   0.844   1.596   0.593
  211SOL    HW2 1644   0.733   1.524   0.689
  212SOL     OW 1645   1.424   0.214   1.112
  212SOL    HW1 1646   1.476   0.149   1.167
  212SOL    HW2 1647   1.375   0.277   1.173
  213SOL     OW 1648   1.001   0.034   1.154
  213SOL    HW1 1649   0.938  -0.038   1.123
  213SOL    HW2 1650   1.094  -0.002   1.154
  214SOL     OW 1651   0.770   1.330   0.301
  214SOL    HW1 1652   0.724   1.243   0.318
  214SOL    HW2 1653   0.861   1.327   0.342
  215SOL     OW 1654   0.618   1.567   1.284
  215SOL    HW1 1655   0.613   1.649   1.341
  215SOL    HW2 1656   0.707   1.564   1.239
  216SOL     OW 1657   1.352   0.052   0.168
  216SOL    HW1 1658   1.387   0.011   0.084
  216SOL    HW2 1659   1.262   0.014   0.188
  217SOL     OW 1660   1.300   0.453   0.691
  217SOL    HW1 1661   1.241   0.533   0.695
  217SOL    HW2 1662   1.315   0.418   0.784
  218SOL     OW 1663   1.593   0.221   0.882
  218SOL    HW1 1664   1.509   0.220   0.936
  218SOL    HW2 1665   1.595   0.304   0.826
  219SOL     OW 1666   0.039   1.077   0.300
  219SOL    HW1 1667   0.138   1.066   0.291
  219SOL    HW2 1668  -0.001   0.991   0.332
  220SOL     OW 1669   0.875   1.646   0.337
  220SOL    HW1 1670   0.798   1.611   0.283
  220SOL    HW2 1671   0.843   1.717   0.399
  221SOL     OW 1672   0.230   0.628   1.975
  221SOL    HW1 1673   0.137   0.626   2.012
  221SOL    HW2 1674   0.231   0.589   1.883
  222SOL     OW 1675   0.225   0.275   2.858
  222SOL    HW1 1676   0.260   0.258   2.950
  222SOL    HW2 1677   0.137   0.230   2.846
  223SOL     OW 1678   0.019   0.368   2.509
  223SOL    HW1 1679  -0.063   0.411   2.548
  223SOL    HW2 1680  -0.009   0.295   2.446
  224SOL     OW 1681   0.569   1.275   3.027
  224SOL    HW1 1682   0.476   1.268   2.990
  224SOL    HW2 1683   0.580   1.364   3.071
  225SOL     OW 1684   1.555   1.511   2.565
  225SOL    HW1 1685   1.498   1.495   2.646
  225SOL    HW2 1686   1.496   1.521   2.485
  226SOL     OW 1687   1.135   0.703   2.579
  226SOL    HW1 1688   1.192   0.781   2.554
  226SOL    HW2 1689   1.075   0.729   2.655
  227SOL     OW 1690   1.755   0.607   2.093
  227SOL    HW1 1691   1.743   0.594   1.994
  227SOL    HW2 1692   1.725   0.526   2.142
  228SOL     OW 1693   0.850   0.798   3.685
  228SOL    HW1 1694   0.846   0.874   3.750
  228SOL    HW2 1695   0.872   0.834   3.594
  229SOL     OW 1696   0.685   1.012   2.527
  229SOL    HW1 1697   0.754   0.996   2.597
  229SOL    HW2 1698   0.612   1.069   2.565
  230SOL     OW 1699   0.686   1.161   3.665
  230SOL    HW1 1700   0.746   1.240   3.679
  230SOL    HW2 1701   0.600   1.192   3.624
  231SOL     OW 1702   0.335   1.435   2.923
  231SOL    HW1 1703   0.257   1.404   2.870
  231SOL    HW2 1704   0.393   1.493   2.866
  232SOL     OW 1705   1.460   1.505   3.201
  232SOL    HW1 1706   1.484   1.599   3.227
  232SOL    HW2 1707   1.444   1.451   3.283
  233SOL     OW 1708   0.438   0.392   3.361
  233SOL    HW1 1709   0.520   0.336   3.370
  233SOL    HW2 1710   0.357   0.334   3.365
  234SOL     OW 1711   1.603   0.447   2.599
  234SOL    HW1 1712   1.529   0.493   2.549
  234SOL    HW2 1713   1.654   0.515   2.652
  235SOL     OW 1714   0.231   1.713   2.345
  235SOL    HW1 1715   0.265   1.790   2.399
  235SOL    HW2 1716   0.275   1.713   2.255
  236SOL     OW 1717   0.230   1.434   2.400
  236SOL    HW1 1718   0.204   1.530   2.400
  236SOL    HW2 1719   0.159   1.380   2.445
  237SOL     OW 1720   0.240   1.091   2.748
  237SOL    HW1 1721   0.254   1.007   2.800
  237SOL    HW2 1722   0.185   1.155   2.803
  238SOL     OW 1723   0.620   1.786   3.301
  238SOL    HW1 1724   0.528   1.769   3.336
  238SOL    HW2 1725   0.648   1.878   3.327
  239SOL     OW 1726   0.606   0.964   1.985
  239SOL    HW1 1727   0.613   1.048   1.931
  239SOL    HW2 1728   0.652   0.977   2.073
  240SOL     OW 1729   1.594   0.114   3.342
  240SOL    HW1 1730   1.576   0.181   3.270
  240SOL    HW2 1731   1.591   0.160   3.431
  241SOL     OW 1732   0.122   0.643   2.425
  241SOL    HW1 1733   0.077   0.555   2.442
  241SOL    HW2 1734   0.121   0.697   2.509
  242SOL     OW 1735   1.842   1.767   2.221
  242SOL    HW1 1736   1.896   1.738   2.301
  242SOL    HW2 1737   1.872   1.857   2.192
  243SOL     OW 1738   0.027   1.596   1.979
  243SOL    HW1 1739   0.008   1.500   2.000
  243SOL    HW2 1740  -0.006   1.654   2.054
  244SOL     OW 1741   1.689   0.922   2.474
  244SOL    HW1 1742   1.784   0.893   2.482
  244SOL    HW2 1743   1.681   0.987   2.399
  245SOL     OW 1744   1.641   1.108   2.294
  245SOL    HW1 1745   1.727   1.110   2.242
  245SOL    HW2 1746   1.655   1.155   2.382
  246SOL     OW 1747   0.113   0.737   3.459
  246SOL    HW1 1748   0.201   0.724   3.504
  246SOL    HW2 1749   0.100   0.834   3.437
  247SOL     OW 1750   0.613   1.365   2.588
  247SOL    HW1 1751   0.564   1.278   2.597
  247SOL    HW2 1752   0.590   1.408   2.501
  248SOL     OW 1753   1.293   1.228   3.285
  248SOL    HW1 1754   1.330   1.155   3.227
  248SOL    HW2 1755   1.345   1.233   3.370
  249SOL     OW 1756   0.809   0.004   2.364
  249SOL    HW1 1757   0.849   0.095   2.355
  249SOL    HW2 1758   0.709   0.012   2.370
  250SOL     OW 1759   0.197   0.976   3.126
  250SOL    HW1 1760   0.286   0.931   3.112
  250SOL    HW2 1761   0.124   0.911   3.107
  251SOL     OW 1762   1.187   1.792   3.478
  251SOL    HW1 1763   1.211   1.852   3.402
  251SOL    HW2 1764   1.194   1.697   3.448
  252SOL     OW 1765   0.317   0.251   3.663
  252SOL    HW1 1766   0.388   0.322   3.669
  252SOL    HW2 1767   0.229   0.290   3.691
  253SOL     OW 1768   1.466   1.417   2.815
  253SOL    HW1 1769   1.407   1.423   2.895
  253SOL    HW2 1770   1.451   1.329   2.769
  254SOL     OW 1771   0.598   0.729   2.132
  254SOL    HW1 1772   0.622   0.798   2.064
  254SOL    HW2 1773   0.520   0.762   2.186
  255SOL     OW 1774   1.281   0.345   2.806
  255SOL    HW1 1775   1.195   0.295   2.793
  255SOL    HW2 1776   1.343   0.291   2.862
  256SOL     OW 1777   1.576   1.662   2.169
  256SOL    HW1 1778   1.665   1.708   2.172
  256SOL    HW2 1779   1.555   1.638   2.074
  257SOL     OW 1780   0.807   0.605   3.327
  257SOL    HW1 1781   0.760   0.602   3.416
  257SOL    HW2 1782   0.756   0.550   3.261
  258SOL     OW 1783   1.394   0.469   3.536
  258SOL    HW1 1784   1.374   0.512   3.624
  258SOL    HW2 1785   1.472   0.407   3.545
  259SOL     OW 1786   0.973   0.890   3.434
  259SOL    HW1 1787   1.019   0.806   3.405
  259SOL    HW2 1788   0.917   0.924   3.359
  260SOL     OW 1789   0.991   0.410   3.104
  260SOL    HW1 1790   0.914   0.444   3.158
  260SOL    HW2 1791   0.957   0.359   3.025
  261SOL     OW 1792   1.041   0.701   2.291
  261SOL    HW1 1793   1.067   0.697   2.387
  261SOL    HW2 1794   0.956   0.650   2.277
  262SOL     OW 1795   0.076   0.811   2.651
  262SOL    HW1 1796   0.175   0.799   2.660
  262SOL    HW2 1797   0.052   0.906   2.672
  263SOL     OW 1798   1.719   0.585   3.693
  263SOL    HW1 1799   1.693   0.674   3.657
  263SOL    HW2 1800   1.717   0.517   3.620
  264SOL     OW 1801   0.550   0.196   2.747
  264SOL    HW1 1802   0.545   0.191   2.847
  264SOL    HW2 1803   0.552   0.292   2.718
  265SOL     OW 1804   1.008   1.456   2.339
  265SOL    HW1 1805   0.962   1.528   2.287
  265SOL    HW2 1806   1.004   1.476   2.437
  266SOL     OW 1807   0.351   1.801   2.715
  266SOL    HW1 1808   0.401   1.715   2.721
  266SOL    HW2 1809   0.416   1.878   2.712
  267SOL     OW 1810   1.795   1.066   2.735
  267SOL    HW1 1811   1.733   1.051   2.659
  267SOL    HW2 1812   1.743   1.077   2.820
  268SOL     OW 1813   1.227   1.550   3.368
  268SOL    HW1 1814   1.233   1.473   3.432
  268SOL    HW2 1815   1.175   1.524   3.288
  269SOL     OW 1816   0.321   0.943   2.104
  269SOL    HW1 1817   0.403   0.982   2.062
  269SOL    HW2 1818   0.294   0.861   2.055
  270SOL     OW 1819   1.458   0.735   2.590
  270SOL    HW1 1820   1.453   0.670   2.665
  270SOL    HW2 1821   1.538   0.794   2.603
  271SOL     OW 1822   0.461   1.266   3.589
  271SOL    HW1 1823   0.411   1.267   3.503
  271SOL    HW2 1824   0.398   1.248   3.665
  272SOL     OW 1825   0.202   0.285   3.360
  272SOL    HW1 1826   0.122   0.345   3.347
  272SOL    HW2 1827   0.192   0.236   3.446
  273SOL     OW 1828   1.632   1.377   1.943
  273SOL    HW1 1829   1.600   1.471   1.933
  273SOL    HW2 1830   1.556   1.314   1.931
  274SOL     OW 1831   0.464   1.743   2.185
  274SOL    HW1 1832   0.497   1.782   2.271
  274SOL    HW2 1833   0.540   1.736   2.120
  275SOL     OW 1834   1.400   0.107   2.288
  275SOL    HW1 1835   1.376   0.070   2.198
  275SOL    HW2 1836   1.499   0.123   2.292
  276SOL     OW 1837   0.940   1.698   2.766
  276SOL    HW1 1838   1.020   1.641   2.787
  276SOL    HW2 1839   0.891   1.658   2.689
  277SOL     OW 1840   0.382   0.700   2.342
  277SOL    HW1 1841   0.427   0.610   2.339
  277SOL    HW2 1842   0.288   0.689   2.375
  278SOL     OW 1843   1.547   0.222   3.591
  278SOL    HW1 1844   1.542   0.259   3.683
  278SOL    HW2 1845   1.475   0.153   3.579
  279SOL     OW 1846   0.614   0.122   1.979
  279SOL    HW1 1847   0.712   0.100   1.986
  279SOL    HW2 1848   0.583   0.105   1.886
  280SOL     OW 1849   0.781   0.264   3.611
  280SOL    HW1 1850   0.848   0.203   3.654
  280SOL    HW2 1851   0.708   0.283   3.676
  281SOL     OW 1852   1.351   0.590   3.295
  281SOL    HW1 1853   1.379   0.547   3.380
  281SOL    HW2 1854   1.376   0.686   3.296
  282SOL     OW 1855   0.922   0.503   2.761
  282SOL    HW1 1856   0.897   0.494   2.665
  282SOL    HW2 1857   0.970   0.421   2.792
  283SOL     OW 1858   0.539   0.064   2.374
  283SOL    HW1 1859   0.458   0.065   2.432
  283SOL    HW2 1860   0.542   0.147   2.319
  284SOL     OW 1861   0.297   0.035   2.033
  284SOL    HW1 1862   0.346   0.119   2.012
  284SOL    HW2 1863   0.359  -0.030   2.078
  285SOL     OW 1864   0.935   0.236   2.342
  285SOL    HW1 1865   0.887   0.277   2.264
  285SOL    HW2 1866   1.034   0.234   2.323
  286SOL     OW 1867   1.076   0.683   3.326
  286SOL    HW1 1868   0.996   0.622   3.329
  286SOL    HW2 1869   1.157   0.630   3.302
  287SOL     OW 1870   1.227   1.570   2.655
  287SOL    HW1 1871   1.248   1.644   2.590
  287SOL    HW2 1872   1.295   1.570   2.728
  288SOL     OW 1873   0.459   1.152   2.603
  288SOL    HW1 1874   0.388   1.125   2.668
  288SOL    HW2 1875   0.433   1.124   2.510
  289SOL     OW 1876   1.271   1.797   2.453
  289SOL    HW1 1877   1.315   1.861   2.389
  289SOL    HW2 1878   1.221   1.849   2.523
  290SOL     OW 1879   1.032   0.549   1.878
  290SOL    HW1 1880   0.991   0.631   1.839
  290SOL    HW2 1881   1.096   0.575   1.951
  291SOL     OW 1882   0.078   0.556   3.248
  291SOL    HW1 1883   0.170   0.555   3.207
  291SOL    HW2 1884   0.072   0.630   3.315
  292SOL     OW 1885   0.561   0.222   3.009
  292SOL    HW1 1886   0.599   0.138   3.046
  292SOL    HW2 1887   0.473   0.241   3.053
  293SOL     OW 1888   0.866   0.454   2.504
  293SOL    HW1 1889   0.834   0.526   2.442
  293SOL    HW2 1890   0.890   0.373   2.451
  294SOL     OW 1891   1.017   0.039   2.615
  294SOL    HW1 1892   0.945   0.044   2.546
  294SOL    HW2 1893   0.993  -0.030   2.684
  295SOL     OW 1894   1.466   0.590   2.854
  295SOL    HW1 1895   1.436   0.495   2.861
  295SOL    HW2 1896   1.539   0.606   2.920
  296SOL     OW 1897   1.857   0.833   2.239
  296SOL    HW1 1898   1.899   0.769   2.303
  296SOL    HW2 1899   1.819   0.782   2.161
  297SOL     OW 1900   0.488   1.385   2.036
  297SOL    HW1 1901   0.401   1.370   2.083
  297SOL    HW2 1902   0.471   1.411   1.941
  298SOL     OW 1903   1.664   1.280   2.519
  298SOL    HW1 1904   1.763   1.288   2.533
  298SOL    HW2 1905   1.619   1.364   2.550
  299SOL     OW 1906   1.390   0.575   1.940
  299SOL    HW1 1907   1.336   0.554   2.021
  299SOL    HW2 1908   1.481   0.534   1.949
  300SOL     OW 1909   0.527   0.256   2.190
  300SOL    HW1 1910   0.554   0.197   2.115
  300SOL    HW2 1911   0.527   0.351   2.159
  301SOL     OW 1912   1.754   1.223   3.450
  301SOL    HW1 1913   1.845   1.184   3.437
  301SOL    HW2 1914   1.762   1.319   3.474
  302SOL     OW 1915   1.064   1.347   3.202
  302SOL    HW1 1916   0.984   1.324   3.257
  302SOL    HW2 1917   1.147   1.321   3.251
  303SOL     OW 1918   1.111   1.195   2.962
  303SOL    HW1 1919   1.071   1.239   3.043
  303SOL    HW2 1920   1.070   1.232   2.879
  304SOL     OW 1921   1.638   1.099   2.941
  304SOL    HW1 1922   1.643   1.180   3.000
  304SOL    HW2 1923   1.552   1.101   2.890
  305SOL     OW 1924   0.915   0.089   3.264
  305SOL    HW1 1925   0.940   0.069   3.169
  305SOL    HW2 1926   0.987   0.145   3.306
  306SOL     OW 1927   0.705   1.050   2.230
  306SOL    HW1 1928   0.691   1.057   2.329
  306SOL    HW2 1929   0.789   0.999   2.212
  307SOL     OW 1930   0.410   0.813   3.113
  307SOL    HW1 1931   0.496   0.825   3.163
  307SOL    HW2 1932   0.368   0.726   3.140
  308SOL     OW 1933   1.274   0.386   3.124
  308SOL    HW1 1934   1.295   0.460   3.188
  308SOL    HW2 1935   1.185   0.403   3.081
  309SOL     OW 1936   0.064   1.564   3.193
  309SOL    HW1 1937   0.018   1.646   3.159
  309SOL    HW2 1938   0.162   1.583   3.202
  310SOL     OW 1939   0.367   1.100   2.363
  310SOL    HW1 1940   0.360   1.183   2.307
  310SOL    HW2 1941   0.371   1.020   2.303
  311SOL     OW 1942   0.566   0.537   2.727
  311SOL    HW1 1943   0.578   0.603   2.653
  311SOL    HW2 1944   0.612   0.571   2.810
  312SOL     OW 1945   1.272   1.445   3.004
  312SOL    HW1 1946   1.319   1.458   3.091
  312SOL    HW2 1947   1.206   1.371   3.013
  313SOL     OW 1948   1.582   0.639   2.334
  313SOL    HW1 1949   1.551   0.700   2.407
  313SOL    HW2 1950   1.632   0.691   2.265
  314SOL     OW 1951   0.354   1.510   3.191
  314SOL    HW1 1952   0.333   1.466   3.104
  314SOL    HW2 1953   0.451   1.536   3.194
  315SOL     OW 1954   0.402   0.751   3.460
  315SOL    HW1 1955   0.470   0.806   3.413
  315SOL    HW2 1956   0.442   0.663   3.487
  316SOL     OW 1957   1.587   0.779   3.532
  316SOL    HW1 1958   1.495   0.817   3.527
  316SOL    HW2 1959   1.647   0.826   3.467
  317SOL     OW 1960   1.013   0.105   3.632
  317SOL    HW1 1961   1.019   0.190   3.580
  317SOL    HW2 1962   1.045   0.029   3.575
  318SOL     OW 1963   0.504   0.050   3.602
  318SOL    HW1 1964   0.462  -0.007   3.532
  318SOL    HW2 1965   0.438   0.119   3.634
  319SOL     OW 1966   0.573   0.870   2.891
  319SOL    HW1 1967   0.617   0.959   2.882
  319SOL    HW2 1968   0.510   0.870   2.968
  320SOL     OW 1969   1.360   0.862   2.907
  320SOL    HW1 1970   1.285   0.862   2.841
  320SOL    HW2 1971   1.397   0.770   2.916
  321SOL     OW 1972   1.209   0.525   2.137
  321SOL    HW1 1973   1.222   0.441   2.191
  321SOL    HW2 1974   1.180   0.599   2.197
  322SOL     OW 1975   0.307   0.213   3.093
  322SOL    HW1 1976   0.284   0.250   3.183
  322SOL    HW2 1977   0.277   0.118   3.087
  323SOL     OW 1978   0.037   1.310   3.144
  323SOL    HW1 1979   0.090   1.261   3.212
  323SOL    HW2 1980   0.059   1.408   3.149
  324SOL     OW 1981   0.732   0.634   2.926
  324SOL    HW1 1982   0.791   0.608   2.850
  324SOL    HW2 1983   0.704   0.730   2.915
  325SOL     OW 1984   1.728   0.935   3.716
  325SOL    HW1 1985   1.682   0.928   3.627
  325SOL    HW2 1986   1.666   0.979   3.782
  326SOL     OW 1987   0.307   0.063   2.480
  326SOL    HW1 1988   0.296   0.157   2.513
  326SOL    HW2 1989   0.302   0.000   2.557
  327SOL     OW 1990   1.622   0.367   2.236
  327SOL    HW1 1991   1.624   0.291   2.300
  327SOL    HW2 1992   1.574   0.444   2.276
  328SOL     OW 1993   1.023   0.766   2.828
  328SOL    HW1 1994   1.038   0.787   2.924
  328SOL    HW2 1995   0.993   0.671   2.819
  329SOL     OW 1996   1.859   1.518   3.467
  329SOL    HW1 1997   1.873   1.545   3.372
  329SOL    HW2 1998   1.942   1.540   3.520
  330SOL     OW 1999   0.350   0.898   3.666
  330SOL    HW1 2000   0.426   0.942   3.714
  330SOL    HW2 2001   0.385   0.851   3.584
  331SOL     OW 2002   1.540   0.274   1.987
  331SOL    HW1 2003   1.479   0.199   2.010
  331SOL    HW2 2004   1.562   0.326   2.070
  332SOL     OW 2005   1.303   0.838   1.904
  332SOL    HW1 2006   1.337   0.745   1.919
  332SOL    HW2 2007   1.321   0.865   1.809
  333SOL     OW 2008   1.068   1.333   2.711
  333SOL    HW1 2009   1.075   1.249   2.656
  333SOL    HW2 2010   1.130   1.402   2.675
  334SOL     OW 2011   0.319   0.810   2.811
  334SOL    HW1 2012   0.412   0.846   2.816
  334SOL    HW2 2013   0.313   0.725   2.863
  335SOL     OW 2014   0.339   0.509   2.868
  335SOL    HW1 2015   0.287   0.426   2.851
  335SOL    HW2 2016   0.416   0.514   2.804
  336SOL     OW 2017   1.138   0.380   3.540
  336SOL    HW1 2018   1.093   0.443   3.604
  336SOL    HW2 2019   1.231   0.411   3.523
  337SOL     OW 2020   1.160   0.207   3.339
  337SOL    HW1 2021   1.160   0.271   3.416
  337SOL    HW2 2022   1.188   0.255   3.256
  338SOL     OW 2023   0.008   1.326   2.062
  338SOL    HW1 2024  -0.085   1.347   2.031
  338SOL    HW2 2025   0.018   1.227   2.075
  339SOL     OW 2026   0.088   1.801   2.789
  339SOL    HW1 2027   0.046   1.715   2.762
  339SOL    HW2 2028   0.182   1.804   2.755
  340SOL     OW 2029   0.504   1.568   2.772
  340SOL    HW1 2030   0.570   1.642   2.781
  340SOL    HW2 2031   0.548   1.489   2.730
  341SOL     OW 2032   1.002   0.796   3.100
  341SOL    HW1 2033   1.043   0.764   3.186
  341SOL    HW2 2034   0.906   0.769   3.097
  342SOL     OW 2035   0.040   0.544   2.976
  342SOL    HW1 2036   0.125   0.511   2.935
  342SOL    HW2 2037   0.053   0.559   3.074
  343SOL     OW 2038   0.189   0.520   3.584
  343SOL    HW1 2039   0.248   0.480   3.514
  343SOL    HW2 2040   0.131   0.591   3.543
  344SOL     OW 2041   1.369   0.950   3.522
  344SOL    HW1 2042   1.408   1.039   3.542
  344SOL    HW2 2043   1.379   0.930   3.425
  345SOL     OW 2044   0.815   0.572   2.187
  345SOL    HW1 2045   0.822   0.483   2.141
  345SOL    HW2 2046   0.721   0.606   2.179
  346SOL     OW 2047   1.657   0.604   3.068
  346SOL    HW1 2048   1.619   0.535   3.130
  346SOL    HW2 2049   1.739   0.568   3.024
  347SOL     OW 2050   0.252   1.564   3.606
  347SOL    HW1 2051   0.222   1.621   3.682
  347SOL    HW2 2052   0.245   1.467   3.632
  348SOL     OW 2053   0.671   0.464   3.131
  348SOL    HW1 2054   0.637   0.375   3.101
  348SOL    HW2 2055   0.697   0.518   3.051
  349SOL     OW 2056   0.473   0.500   2.053
  349SOL    HW1 2057   0.534   0.580   2.057
  349SOL    HW2 2058   0.378   0.531   2.060
  350SOL     OW 2059   0.159   1.137   3.328
  350SOL    HW1 2060   0.181   1.076   3.404
  350SOL    HW2 2061   0.169   1.088   3.242
  351SOL     OW 2062   1.347   1.059   3.096
  351SOL    HW1 2063   1.371   0.996   3.022
  351SOL    HW2 2064   1.257   1.099   3.078
  352SOL     OW 2065   1.252   1.731   2.990
  352SOL    HW1 2066   1.336   1.736   2.936
  352SOL    HW2 2067   1.229   1.635   3.008
  353SOL     OW 2068   0.083   1.258   2.884
  353SOL    HW1 2069   0.078   1.257   2.984
  353SOL    HW2 2070   0.000   1.217   2.846
  354SOL     OW 2071   0.688   1.662   3.578
  354SOL    HW1 2072   0.632   1.743   3.587
  354SOL    HW2 2073   0.740   1.666   3.492
  355SOL     OW 2074   1.726   0.135   2.385
  355SOL    HW1 2075   1.799   0.118   2.318
  355SOL    HW2 2076   1.695   0.048   2.423
  356SOL     OW 2077   1.388   1.573   2.339
  356SOL    HW1 2078   1.455   1.585   2.265
  356SOL    HW2 2079   1.348   1.662   2.362
  357SOL     OW 2080   0.130   1.794   3.713
  357SOL    HW1 2081   0.089   1.720   3.766
  357SOL    HW2 2082   0.194   1.845   3.771
  358SOL     OW 2083   0.672   1.616   2.016
  358SOL    HW1 2084   0.681   1.626   1.917
  358SOL    HW2 2085   0.632   1.527   2.037
  359SOL     OW 2086   1.841   0.175   2.825
  359SOL    HW1 2087   1.880   0.090   2.789
  359SOL    HW2 2088   1.743   0.177   2.806
  360SOL     OW 2089   0.263   0.326   2.582
  360SOL    HW1 2090   0.184   0.377   2.548
  360SOL    HW2 2091   0.254   0.311   2.680
  361SOL     OW 2092   1.504   1.607   1.906
  361SOL    HW1 2093   1.412   1.644   1.913
  361SOL    HW2 2094   1.542   1.627   1.816
  362SOL     OW 2095   1.039   1.098   2.558
  362SOL    HW1 2096   0.969   1.051   2.612
  362SOL    HW2 2097   1.098   1.030   2.515
  363SOL     OW 2098   1.014   0.236   2.833
  363SOL    HW1 2099   1.006   0.200   2.740
  363SOL    HW2 2100   1.012   0.160   2.898
  364SOL     OW 2101   0.590   1.487   2.353
  364SOL    HW1 2102   0.632   1.429   2.283
  364SOL    HW2 2103   0.546   1.566   2.309
  365SOL     OW 2104   1.709   0.385   3.243
  365SOL    HW1 2105   1.782   0.454   3.247
  365SOL    HW2 2106   1.737   0.310   3.184
  366SOL     OW 2107   0.255   1.348   2.152
  366SOL    HW1 2108   0.159   1.349   2.125
  366SOL    HW2 2109   0.267   1.401   2.236
  367SOL     OW 2110   0.105   1.013   3.588
  367SOL    HW1 2111   0.028   0.980   3.642
  367SOL    HW2 2112   0.190   0.983   3.630
  368SOL     OW 2113   0.672   0.203   3.351
  368SOL    HW1 2114   0.762   0.187   3.311
  368SOL    HW2 2115   0.680   0.208   3.450
  369SOL     OW 2116   0.075   0.345   1.895
  369SOL    HW1 2117  -0.017   0.317   1.866
  369SOL    HW2 2118   0.106   0.422   1.839
  370SOL     OW 2119   1.440   0.856   3.260
  370SOL    HW1 2120   1.383   0.908   3.197
  370SOL    HW2 2121   1.536   0.868   3.236
  371SOL     OW 2122   0.072   0.166   2.180
  371SOL    HW1 2123   0.055   0.249   2.126
  371SOL    HW2 2124   0.162   0.129   2.158
  372SOL     OW 2125   0.613   0.842   3.293
  372SOL    HW1 2126   0.669   0.923   3.276
  372SOL    HW2 2127   0.672   0.762   3.296
  373SOL     OW 2128   0.716   0.565   3.570
  373SOL    HW1 2129   0.735   0.630   3.644
  373SOL    HW2 2130   0.776   0.485   3.579
  374SOL     OW 2131   1.450   1.220   3.495
  374SOL    HW1 2132   1.441   1.210   3.594
  374SOL    HW2 2133   1.546   1.213   3.469
  375SOL     OW 2134   0.390   1.741   3.422
  375SOL    HW1 2135   0.299   1.782   3.420
  375SOL    HW2 2136   0.383   1.647   3.454
  376SOL     OW 2137   1.674   0.883   3.116
  376SOL    HW1 2138   1.647   0.794   3.079
  376SOL    HW2 2139   1.675   0.951   3.043
  377SOL     OW 2140   1.225   0.325   2.311
  377SOL    HW1 2141   1.290   0.251   2.300
  377SOL    HW2 2142   1.245   0.375   2.395
  378SOL     OW 2143   0.594   0.745   2.514
  378SOL    HW1 2144   0.644   0.830   2.495
  378SOL    HW2 2145   0.506   0.747   2.466
  379SOL     OW 2146   1.777   0.342   3.504
  379SOL    HW1 2147   1.760   0.373   3.410
  379SOL    HW2 2148   1.693   0.305   3.542
  380SOL     OW 2149   1.730   0.934   3.379
  380SOL    HW1 2150   1.768   1.025   3.394
  380SOL    HW2 2151   1.722   0.917   3.280
  381SOL     OW 2152   0.859   1.374   1.878
  381SOL    HW1 2153   0.813   1.389   1.966
  381SOL    HW2 2154   0.903   1.459   1.848
  382SOL     OW 2155   0.661   1.790   2.815
  382SOL    HW1 2156   0.615   1.878   2.802
  382SOL    HW2 2157   0.760   1.802   2.808
  383SOL     OW 2158   1.861   1.569   2.713
  383SOL    HW1 2159   1.790   1.557   2.643
  383SOL    HW2 2160   1.862   1.490   2.773
  384SOL     OW 2161   0.079   1.240   2.515
  384SOL    HW1 2162   0.078   1.193   2.603
  384SOL    HW2 2163   0.161   1.212   2.464
  385SOL     OW 2164   1.824   0.192   3.089
  385SOL    HW1 2165   1.820   0.102   3.133
  385SOL    HW2 2166   1.827   0.181   2.990
  386SOL     OW 2167   0.428   0.424   2.382
  386SOL    HW1 2168   0.458   0.352   2.320
  386SOL    HW2 2169   0.389   0.384   2.465
  387SOL     OW 2170   0.317   0.547   3.142
  387SOL    HW1 2171   0.355   0.488   3.214
  387SOL    HW2 2172   0.357   0.521   3.054
  388SOL     OW 2173   0.812   1.586   2.549
  388SOL    HW1 2174   0.844   1.596   2.455
  388SOL    HW2 2175   0.733   1.524   2.551
  389SOL     OW 2176   1.424   0.214   2.974
  389SOL    HW1 2177   1.476   0.149   3.029
  389SOL    HW2 2178   1.375   0.277   3.035
  390SOL     OW 2179   1.001   0.034   3.016
  390SOL    HW1 2180   0.938  -0.038   2.985
  390SOL    HW2 2181   1.094  -0.002   3.016
  391SOL     OW 2182   0.770   1.330   2.163
  391SOL    HW1 2183   0.724   1.243   2.180
  391SOL    HW2 2184   0.861   1.327   2.204
  392SOL     OW 2185   1.352   0.052   2.030
  392SOL    HW1 2186   1.387   0.011   1.946
  392SOL    HW2 2187   1.262   0.014   2.050
  393SOL     OW 2188   1.300   0.453   2.553
  393SOL    HW1 2189   1.241   0.533   2.557
  393SOL    HW2 2190   1.315   0.418   2.646
  394SOL     OW 2191   1.593   0.221   2.744
  394SOL    HW1 2192   1.509   0.220   2.798
  394SOL    HW2 2193   1.595   0.304   2.688
  395SOL     OW 2194   0.039   1.077   2.162
  395SOL    HW1 2195   0.138   1.066   2.153
  395SOL    HW2 2196  -0.001   0.991   2.194
  396SOL     OW 2197   0.875   1.646   2.199
  396SOL    HW1 2198   0.798   1.611   2.145
  396SOL    HW2 2199   0.843   1.717   2.261
  397SOL     OW 2200   0.230   0.628   3.837
  397SOL    HW1 2201   0.137   0.626   3.874
  397SOL    HW2 2202   0.231   0.589   3.745
  398SOL     OW 2203   0.225   0.275   4.720
  398SOL    HW1 2204   0.260   0.258   4.812
  398SOL    HW2 2205   0.137   0.230   4.708
  399SOL     OW 2206   0.019   0.368   4.371
  399SOL    HW1 2207  -0.063   0.411   4.410
  399SOL    HW2 2208  -0.009   0.295   4.308
  400SOL     OW 2209   1.555   1.511   4.427
  400SOL    HW1 2210   1.498   1.495   4.508
  400SOL    HW2 2211   1.496   1.521   4.347
  401SOL     OW 2212   1.135   0.703   4.441
  401SOL    HW1 2213   1.192   0.781   4.416
  401SOL    HW2 2214   1.075   0.729   4.517
  402SOL     OW 2215   1.755   0.607   3.955
  402SOL    HW1 2216   1.743   0.594   3.856
  402SOL    HW2 2217   1.725   0.526   4.004
  403SOL     OW 2218   0.335   1.435   4.785
  403SOL    HW1 2219   0.257   1.404   4.732
  403SOL    HW2 2220   0.393   1.493   4.728
  404SOL     OW 2221   1.603   0.447   4.461
  404SOL    HW1 2222   1.529   0.493   4.411
  404SOL    HW2 2223   1.654   0.515   4.514
  405SOL     OW 2224   0.240   1.091   4.610
  405SOL    HW1 2225   0.254   1.007   4.662
  405SOL    HW2 2226   0.185   1.155   4.665
  406SOL     OW 2227   0.620   1.786   5.163
  406SOL    HW1 2228   0.528   1.769   5.198
  406SOL    HW2 2229   0.648   1.878   5.189
  407SOL     OW 2230   0.606   0.964   3.847
  407SOL    HW1 2231   0.613   1.048   3.793
  407SOL    HW2 2232   0.652   0.977   3.935
  408SOL     OW 2233   0.122   0.643   4.287
  408SOL    HW1 2234   0.077   0.555   4.304
  408SOL    HW2 2235   0.121   0.697   4.371
  409SOL     OW 2236   1.842   1.767   4.083
  409SOL    HW1 2237   1.896   1.738   4.163
  409SOL    HW2 2238   1.872   1.857   4.054
  410SOL     OW 2239   1.689   0.922   4.336
  410SOL    HW1 2240   1.784   0.893   4.344
  410SOL    HW2 2241   1.681   0.987   4.261
  411SOL     OW 2242   1.641   1.108   4.156
  411SOL    HW1 2243   1.727   1.110   4.104
  411SOL    HW2 2244   1.655   1.155   4.244
  412SOL     OW 2245   0.809   0.004   4.226
  412SOL    HW1 2246   0.849   0.095   4.217
  412SOL    HW2 2247   0.709   0.012   4.232
  413SOL     OW 2248   0.197   0.976   4.988
  413SOL    HW1 2249   0.286   0.931   4.974
  413SOL    HW2 2250   0.124   0.911   4.969
  414SOL     OW 2251   1.525   0.999   3.914
  414SOL    HW1 2252   1.462   0.923   3.927
  414SOL    HW2 2253   1.573   1.017   4.000
  415SOL     OW 2254   1.466   1.417   4.677
  415SOL    HW1 2255   1.407   1.423   4.757
  415SOL    HW2 2256   1.451   1.329   4.631
  416SOL     OW 2257   1.667   1.714   4.296
  416SOL    HW1 2258   1.626   1.691   4.208
  416SOL    HW2 2259   1.649   1.640   4.361
  417SOL     OW 2260   0.598   0.729   3.994
  417SOL    HW1 2261   0.622   0.798   3.926
  417SOL    HW2 2262   0.520   0.762   4.048
  418SOL     OW 2263   1.281   0.345   4.668
  418SOL    HW1 2264   1.195   0.295   4.655
  418SOL    HW2 2265   1.343   0.291   4.724
  419SOL     OW 2266   1.576   1.662   4.031
  419SOL    HW1 2267   1.665   1.708   4.034
  419SOL    HW2 2268   1.555   1.638   3.936
  420SOL     OW 2269   0.991   0.410   4.966
  420SOL    HW1 2270   0.914   0.444   5.020
  420SOL    HW2 2271   0.957   0.359   4.887
  421SOL     OW 2272   1.041   0.701   4.153
  421SOL    HW1 2273   1.067   0.697   4.249
  421SOL    HW2 2274   0.956   0.650   4.139
  422SOL     OW 2275   0.076   0.811   4.513
  422SOL    HW1 2276   0.175   0.799   4.522
  422SOL    HW2 2277   0.052   0.906   4.534
  423SOL     OW 2278   0.130   1.821   5.295
  423SOL    HW1 2279   0.120   1.806   5.394
  423SOL    HW2 2280   0.044   1.857   5.259
  424SOL     OW 2281   0.865   0.348   3.919
  424SOL    HW1 2282   0.924   0.411   3.870
  424SOL    HW2 2283   0.884   0.254   3.890
  425SOL     OW 2284   1.362   1.144   4.269
  425SOL    HW1 2285   1.445   1.115   4.221
  425SOL    HW2 2286   1.313   1.211   4.213
  426SOL     OW 2287   0.351   1.801   4.577
  426SOL    HW1 2288   0.401   1.715   4.583
  426SOL    HW2 2289   0.416   1.878   4.574
  427SOL     OW 2290   1.795   1.066   4.597
  427SOL    HW1 2291   1.733   1.051   4.521
  427SOL    HW2 2292   1.743   1.077   4.682
  428SOL     OW 2293   0.321   0.943   3.966
  428SOL    HW1 2294   0.403   0.982   3.924
  428SOL    HW2 2295   0.294   0.861   3.917
  429SOL     OW 2296   1.458   0.735   4.452
  429SOL    HW1 2297   1.453   0.670   4.527
  429SOL    HW2 2298   1.538   0.794   4.465
  430SOL     OW 2299   1.111   1.776   3.961
  430SOL    HW1 2300   1.051   1.714   4.011
  430SOL    HW2 2301   1.142   1.732   3.876
  431SOL     OW 2302   1.632   1.377   3.805
  431SOL    HW1 2303   1.600   1.471   3.795
  431SOL    HW2 2304   1.556   1.314   3.793
  432SOL     OW 2305   0.464   1.743   4.047
  432SOL    HW1 2306   0.497   1.782   4.133
  432SOL    HW2 2307   0.540   1.736   3.982
  433SOL     OW 2308   1.400   0.107   4.150
  433SOL    HW1 2309   1.376   0.070   4.060
  433SOL    HW2 2310   1.499   0.123   4.154
  434SOL     OW 2311   0.249   1.785   4.965
  434SOL    HW1 2312   0.306   1.720   5.015
  434SOL    HW2 2313   0.233   1.752   4.872
  435SOL     OW 2314   0.382   0.700   4.204
  435SOL    HW1 2315   0.427   0.610   4.201
  435SOL    HW2 2316   0.288   0.689   4.237
  436SOL     OW 2317   0.614   0.122   3.841
  436SOL    HW1 2318   0.712   0.100   3.848
  436SOL    HW2 2319   0.583   0.105   3.748
  437SOL     OW 2320   0.922   0.503   4.623
  437SOL    HW1 2321   0.897   0.494   4.527
  437SOL    HW2 2322   0.970   0.421   4.654
  438SOL     OW 2323   1.434   1.188   3.765
  438SOL    HW1 2324   1.466   1.112   3.822
  438SOL    HW2 2325   1.342   1.215   3.795
  439SOL     OW 2326   0.297   0.035   3.895
  439SOL    HW1 2327   0.346   0.119   3.874
  439SOL    HW2 2328   0.359  -0.030   3.940
  440SOL     OW 2329   0.935   0.236   4.204
  440SOL    HW1 2330   0.887   0.277   4.126
  440SOL    HW2 2331   1.034   0.234   4.185
  441SOL     OW 2332   1.227   1.570   4.517
  441SOL    HW1 2333   1.248   1.644   4.452
  441SOL    HW2 2334   1.295   1.570   4.590
  442SOL     OW 2335   0.459   1.152   4.465
  442SOL    HW1 2336   0.388   1.125   4.530
  442SOL    HW2 2337   0.433   1.124   4.372
  443SOL     OW 2338   1.271   1.797   4.315
  443SOL    HW1 2339   1.315   1.861   4.251
  443SOL    HW2 2340   1.221   1.849   4.385
  444SOL     OW 2341   1.032   0.549   3.740
  444SOL    HW1 2342   0.991   0.631   3.701
  444SOL    HW2 2343   1.096   0.575   3.813
  445SOL     OW 2344   0.866   0.454   4.366
  445SOL    HW1 2345   0.834   0.526   4.304
  445SOL    HW2 2346   0.890   0.373   4.313
  446SOL     OW 2347   1.017   0.039   4.477
  446SOL    HW1 2348   0.945   0.044   4.408
  446SOL    HW2 2349   0.993  -0.030   4.546
  447SOL     OW 2350   1.429   1.173   4.591
  447SOL    HW1 2351   1.374   1.089   4.584
  447SOL    HW2 2352   1.455   1.202   4.499
  448SOL     OW 2353   1.466   0.590   4.716
  448SOL    HW1 2354   1.436   0.495   4.723
  448SOL    HW2 2355   1.539   0.606   4.782
  449SOL     OW 2356   1.857   0.833   4.101
  449SOL    HW1 2357   1.899   0.769   4.165
  449SOL    HW2 2358   1.819   0.782   4.023
  450SOL     OW 2359   0.488   1.385   3.898
  450SOL    HW1 2360   0.401   1.370   3.945
  450SOL    HW2 2361   0.471   1.411   3.803
  451SOL     OW 2362   1.664   1.280   4.381
  451SOL    HW1 2363   1.763   1.288   4.395
  451SOL    HW2 2364   1.619   1.364   4.412
  452SOL     OW 2365   1.390   0.575   3.802
  452SOL    HW1 2366   1.336   0.554   3.883
  452SOL    HW2 2367   1.481   0.534   3.811
  453SOL     OW 2368   0.527   0.256   4.052
  453SOL    HW1 2369   0.554   0.197   3.977
  453SOL    HW2 2370   0.527   0.351   4.021
  454SOL     OW 2371   1.111   1.195   4.824
  454SOL    HW1 2372   1.071   1.239   4.905
  454SOL    HW2 2373   1.070   1.232   4.741
  455SOL     OW 2374   1.638   1.099   4.803
  455SOL    HW1 2375   1.643   1.180   4.862
  455SOL    HW2 2376   1.552   1.101   4.752
  456SOL     OW 2377   0.705   1.050   4.092
  456SOL    HW1 2378   0.691   1.057   4.191
  456SOL    HW2 2379   0.789   0.999   4.074
  457SOL     OW 2380   0.410   0.813   4.975
  457SOL    HW1 2381   0.496   0.825   5.025
  457SOL    HW2 2382   0.368   0.726   5.002
  458SOL     OW 2383   1.274   0.386   4.986
  458SOL    HW1 2384   1.295   0.460   5.050
  458SOL    HW2 2385   1.185   0.403   4.943
  459SOL     OW 2386   0.566   0.537   4.589
  459SOL    HW1 2387   0.578   0.603   4.515
  459SOL    HW2 2388   0.612   0.571   4.672
  460SOL     OW 2389   1.252   1.348   4.112
  460SOL    HW1 2390   1.302   1.425   4.152
  460SOL    HW2 2391   1.157   1.350   4.144
  461SOL     OW 2392   1.272   1.445   4.866
  461SOL    HW1 2393   1.319   1.458   4.953
  461SOL    HW2 2394   1.206   1.371   4.875
  462SOL     OW 2395   1.582   0.639   4.196
  462SOL    HW1 2396   1.551   0.700   4.269
  462SOL    HW2 2397   1.632   0.691   4.127
  463SOL     OW 2398   0.354   1.510   5.053
  463SOL    HW1 2399   0.333   1.466   4.966
  463SOL    HW2 2400   0.451   1.536   5.056
  464SOL     OW 2401   0.573   0.870   4.753
  464SOL    HW1 2402   0.617   0.959   4.744
  464SOL    HW2 2403   0.510   0.870   4.830
  465SOL     OW 2404   1.360   0.862   4.769
  465SOL    HW1 2405   1.285   0.862   4.703
  465SOL    HW2 2406   1.397   0.770   4.778
  466SOL     OW 2407   1.209   0.525   3.999
  466SOL    HW1 2408   1.222   0.441   4.053
  466SOL    HW2 2409   1.180   0.599   4.059
  467SOL     OW 2410   0.037   1.310   5.006
  467SOL    HW1 2411   0.090   1.261   5.074
  467SOL    HW2 2412   0.059   1.408   5.011
  468SOL     OW 2413   0.732   0.634   4.788
  468SOL    HW1 2414   0.791   0.608   4.712
  468SOL    HW2 2415   0.704   0.730   4.777
  469SOL     OW 2416   1.622   0.367   4.098
  469SOL    HW1 2417   1.624   0.291   4.162
  469SOL    HW2 2418   1.574   0.444   4.138
  470SOL     OW 2419   1.023   0.766   4.690
  470SOL    HW1 2420   1.038   0.787   4.786
  470SOL    HW2 2421   0.993   0.671   4.681
  471SOL     OW 2422   1.540   0.274   3.849
  471SOL    HW1 2423   1.479   0.199   3.872
  471SOL    HW2 2424   1.562   0.326   3.932
  472SOL     OW 2425   1.303   0.838   3.766
  472SOL    HW1 2426   1.337   0.745   3.781
  472SOL    HW2 2427   1.321   0.865   3.671
  473SOL     OW 2428   0.319   0.810   4.673
  473SOL    HW1 2429   0.412   0.846   4.678
  473SOL    HW2 2430   0.313   0.725   4.725
  474SOL     OW 2431   0.339   0.509   4.730
  474SOL    HW1 2432   0.287   0.426   4.713
  474SOL    HW2 2433   0.416   0.514   4.666
  475SOL     OW 2434   1.160   0.207   5.201
  475SOL    HW1 2435   1.160   0.271   5.278
  475SOL    HW2 2436   1.188   0.255   5.118
  476SOL     OW 2437   0.008   1.326   3.924
  476SOL    HW1 2438  -0.085   1.347   3.893
  476SOL    HW2 2439   0.018   1.227   3.937
  477SOL     OW 2440   0.088   1.801   4.651
  477SOL    HW1 2441   0.046   1.715   4.624
  477SOL    HW2 2442   0.182   1.804   4.617
  478SOL     OW 2443   1.002   0.796   4.962
  478SOL    HW1 2444   1.043   0.764   5.048
  478SOL    HW2 2445   0.906   0.769   4.959
  479SOL     OW 2446   0.040   0.544   4.838
  479SOL    HW1 2447   0.125   0.511   4.797
  479SOL    HW2 2448   0.053   0.559   4.936
  480SOL     OW 2449   0.815   0.572   4.049
  480SOL    HW1 2450   0.822   0.483   4.003
  480SOL    HW2 2451   0.721   0.606   4.041
  481SOL     OW 2452   1.657   0.604   4.930
  481SOL    HW1 2453   1.619   0.535   4.992
  481SOL    HW2 2454   1.739   0.568   4.886
  482SOL     OW 2455   0.671   0.464   4.993
  482SOL    HW1 2456   0.637   0.375   4.963
  482SOL    HW2 2457   0.697   0.518   4.913
  483SOL     OW 2458   0.930   1.678   5.189
  483SOL    HW1 2459   0.906   1.660   5.094
  483SOL    HW2 2460   0.960   1.772   5.199
  484SOL     OW 2461   0.473   0.500   3.915
  484SOL    HW1 2462   0.534   0.580   3.919
  484SOL    HW2 2463   0.378   0.531   3.922
  485SOL     OW 2464   1.347   1.059   4.958
  485SOL    HW1 2465   1.371   0.996   4.884
  485SOL    HW2 2466   1.257   1.099   4.940
  486SOL     OW 2467   1.302   0.855   4.033
  486SOL    HW1 2468   1.216   0.824   4.075
  486SOL    HW2 2469   1.298   0.841   3.934
  487SOL     OW 2470   1.759   1.747   4.878
  487SOL    HW1 2471   1.820   1.777   4.805
  487SOL    HW2 2472   1.721   1.658   4.856
  488SOL     OW 2473   1.252   1.731   4.852
  488SOL    HW1 2474   1.336   1.736   4.798
  488SOL    HW2 2475   1.229   1.635   4.870
  489SOL     OW 2476   0.083   1.258   4.746
  489SOL    HW1 2477   0.078   1.257   4.846
  489SOL    HW2 2478   0.000   1.217   4.708
  490SOL     OW 2479   1.726   0.135   4.247
  490SOL    HW1 2480   1.799   0.118   4.180
  490SOL    HW2 2481   1.695   0.048   4.285
  491SOL     OW 2482   1.388   1.573   4.201
  491SOL    HW1 2483   1.455   1.585   4.127
  491SOL    HW2 2484   1.348   1.662   4.224
  492SOL     OW 2485   1.280   0.927   4.396
  492SOL    HW1 2486   1.340   0.846   4.398
  492SOL    HW2 2487   1.320   0.996   4.336
  493SOL     OW 2488   0.672   1.616   3.878
  493SOL    HW1 2489   0.681   1.626   3.779
  493SOL    HW2 2490   0.632   1.527   3.899
  494SOL     OW 2491   1.650   1.720   5.118
  494SOL    HW1 2492   1.703   1.730   5.034
  494SOL    HW2 2493   1.623   1.810   5.152
  495SOL     OW 2494   1.841   0.175   4.687
  495SOL    HW1 2495   1.880   0.090   4.651
  495SOL    HW2 2496   1.743   0.177   4.668
  496SOL     OW 2497   0.263   0.326   4.444
  496SOL    HW1 2498   0.184   0.377   4.410
  496SOL    HW2 2499   0.254   0.311   4.542
  497SOL     OW 2500   1.194   1.612   3.755
  497SOL    HW1 2501   1.200   1.519   3.792
  497SOL    HW2 2502   1.135   1.612   3.675
  498SOL     OW 2503   0.822   1.002   5.096
  498SOL    HW1 2504   0.862   1.001   5.004
  498SOL    HW2 2505   0.832   1.094   5.136
  499SOL     OW 2506   0.916   0.910   4.015
  499SOL    HW1 2507   0.979   0.948   3.947
  499SOL    HW2 2508   0.956   0.827   4.054
  500SOL     OW 2509   1.504   1.607   3.768
  500SOL    HW1 2510   1.412   1.644   3.775
  500SOL    HW2 2511   1.542   1.627   3.678
  501SOL     OW 2512   1.014   0.236   4.695
  501SOL    HW1 2513   1.006   0.200   4.602
  501SOL    HW2 2514   1.012   0.160   4.760
  502SOL     OW 2515   0.590   1.487   4.215
  502SOL    HW1 2516   0.632   1.429   4.145
  502SOL    HW2 2517   0.546   1.566   4.171
  503SOL     OW 2518   1.709   0.385   5.105
  503SOL    HW1 2519   1.782   0.454   5.109
  503SOL    HW2 2520   1.737   0.310   5.046
  504SOL     OW 2521   0.075   0.345   3.757
  504SOL    HW1 2522  -0.017   0.317   3.728
  504SOL    HW2 2523   0.106   0.422   3.701
  505SOL     OW 2524   0.072   0.166   4.042
  505SOL    HW1 2525   0.055   0.249   3.988
  505SOL    HW2 2526   0.162   0.129   4.020
  506SOL     OW 2527   1.183   1.335   3.843
  506SOL    HW1 2528   1.084   1.324   3.845
  506SOL    HW2 2529   1.217   1.350   3.936
  507SOL     OW 2530   1.493   1.767   4.683
  507SOL    HW1 2531   1.526   1.831   4.614
  507SOL    HW2 2532   1.559   1.761   4.758
  508SOL     OW 2533   1.450   1.220   5.357
  508SOL    HW1 2534   1.441   1.210   5.456
  508SOL    HW2 2535   1.546   1.213   5.331
  509SOL     OW 2536   1.674   0.883   4.978
  509SOL    HW1 2537   1.647   0.794   4.941
  509SOL    HW2 2538   1.675   0.951   4.905
  510SOL     OW 2539   1.225   0.325   4.173
  510SOL    HW1 2540   1.290   0.251   4.162
  510SOL    HW2 2541   1.245   0.375   4.257
  511SOL     OW 2542   0.594   0.745   4.376
  511SOL    HW1 2543   0.644   0.830   4.357
  511SOL    HW2 2544   0.506   0.747   4.328
  512SOL     OW 2545   1.730   0.934   5.241
  512SOL    HW1 2546   1.768   1.025   5.256
  512SOL    HW2 2547   1.722   0.917   5.142
  513SOL     OW 2548   0.859   1.374   3.740
  513SOL    HW1 2549   0.813   1.389   3.828
  513SOL    HW2 2550   0.903   1.459   3.710
  514SOL     OW 2551   0.661   1.790   4.677
  514SOL    HW1 2552   0.615   1.878   4.664
  514SOL    HW2 2553   0.760   1.802   4.670
  515SOL     OW 2554   1.083   0.984   3.811
  515SOL    HW1 2555   1.060   1.037   3.729
  515SOL    HW2 2556   1.164   0.928   3.792
  516SOL     OW 2557   1.861   1.569   4.575
  516SOL    HW1 2558   1.790   1.557   4.505
  516SOL    HW2 2559   1.862   1.490   4.635
  517SOL     OW 2560   0.079   1.240   4.377
  517SOL    HW1 2561   0.078   1.193   4.465
  517SOL    HW2 2562   0.161   1.212   4.326
  518SOL     OW 2563   1.824   0.192   4.951
  518SOL    HW1 2564   1.820   0.102   4.995
  518SOL    HW2 2565   1.827   0.181   4.852
  519SOL     OW 2566   0.428   0.424   4.244
  519SOL    HW1 2567   0.458   0.352   4.182
  519SOL    HW2 2568   0.389   0.384   4.327
  520SOL     OW 2569   1.705   1.487   4.828
  520SOL    HW1 2570   1.612   1.462   4.801
  520SOL    HW2 2571   1.731   1.437   4.910
  521SOL     OW 2572   0.812   1.586   4.411
  521SOL    HW1 2573   0.844   1.596   4.317
  521SOL    HW2 2574   0.733   1.524   4.413
  522SOL     OW 2575   1.424   0.214   4.836
  522SOL    HW1 2576   1.476   0.149   4.891
  522SOL    HW2 2577   1.375   0.277   4.897
  523SOL     OW 2578   1.001   0.034   4.878
  523SOL    HW1 2579   0.938  -0.038   4.847
  523SOL    HW2 2580   1.094  -0.002   4.878
  524SOL     OW 2581   0.770   1.330   4.025
  524SOL    HW1 2582   0.724   1.243   4.042
  524SOL    HW2 2583   0.861   1.327   4.066
  525SOL     OW 2584   1.352   0.052   3.892
  525SOL    HW1 2585   1.387   0.011   3.808
  525SOL    HW2 2586   1.262   0.014   3.912
  526SOL     OW 2587   1.300   0.453   4.415
  526SOL    HW1 2588   1.241   0.533   4.419
  526SOL    HW2 2589   1.315   0.418   4.508
  527SOL     OW 2590   1.593   0.221   4.606
  527SOL    HW1 2591   1.509   0.220   4.660
  527SOL    HW2 2592   1.595   0.304   4.550
  528SOL     OW 2593   0.039   1.077   4.024
  528SOL    HW1 2594   0.138   1.066   4.015
  528SOL    HW2 2595  -0.001   0.991   4.056
  529SOL     OW 2596   0.875   1.646   4.061
  529SOL    HW1 2597   0.798   1.611   4.007
  529SOL    HW2 2598   0.843   1.717   4.123
  530SOL     OW 2599   0.230   2.490   0.113
  530SOL    HW1 2600   0.137   2.488   0.150
  530SOL    HW2 2601   0.231   2.451   0.021
  531SOL     OW 2602   0.225   2.137   0.996
  531SOL    HW1 2603   0.260   2.120   1.088
  531SOL    HW2 2604   0.137   2.092   0.984
  532SOL     OW 2605   0.019   2.230   0.647
  532SOL    HW1 2606  -0.063   2.273   0.686
  532SOL    HW2 2607  -0.009   2.157   0.584
  533SOL     OW 2608   0.569   3.137   1.165
  533SOL    HW1 2609   0.476   3.130   1.128
  533SOL    HW2 2610   0.580   3.226   1.209
  534SOL     OW 2611   1.555   3.373   0.703
  534SOL    HW1 2612   1.498   3.357   0.784
  534SOL    HW2 2613   1.496   3.383   0.623
  535SOL     OW 2614   1.135   2.565   0.717
  535SOL    HW1 2615   1.192   2.643   0.692
  535SOL    HW2 2616   1.075   2.591   0.793
  536SOL     OW 2617   1.755   2.469   0.231
  536SOL    HW1 2618   1.743   2.456   0.132
  536SOL    HW2 2619   1.725   2.388   0.280
  537SOL     OW 2620   0.768   3.006   1.023
  537SOL    HW1 2621   0.690   3.023   1.083
  537SOL    HW2 2622   0.802   3.093   0.987
  538SOL     OW 2623   0.850   2.660   1.823
  538SOL    HW1 2624   0.846   2.736   1.888
  538SOL    HW2 2625   0.872   2.696   1.732
  539SOL     OW 2626   0.685   2.874   0.665
  539SOL    HW1 2627   0.754   2.858   0.735
  539SOL    HW2 2628   0.612   2.931   0.703
  540SOL     OW 2629   0.686   3.023   1.803
  540SOL    HW1 2630   0.746   3.102   1.817
  540SOL    HW2 2631   0.600   3.054   1.762
  541SOL     OW 2632   0.335   3.297   1.061
  541SOL    HW1 2633   0.257   3.266   1.008
  541SOL    HW2 2634   0.393   3.355   1.004
  542SOL     OW 2635   1.460   3.367   1.339
  542SOL    HW1 2636   1.484   3.461   1.365
  542SOL    HW2 2637   1.444   3.313   1.421
  543SOL     OW 2638   0.438   2.254   1.499
  543SOL    HW1 2639   0.520   2.198   1.508
  543SOL    HW2 2640   0.357   2.196   1.503
  544SOL     OW 2641   1.603   2.309   0.737
  544SOL    HW1 2642   1.529   2.355   0.687
  544SOL    HW2 2643   1.654   2.377   0.790
  545SOL     OW 2644   1.127   3.203   1.690
  545SOL    HW1 2645   1.174   3.203   1.778
  545SOL    HW2 2646   1.079   3.116   1.679
  546SOL     OW 2647   0.230   3.296   0.538
  546SOL    HW1 2648   0.204   3.392   0.538
  546SOL    HW2 2649   0.159   3.242   0.583
  547SOL     OW 2650   0.240   2.953   0.886
  547SOL    HW1 2651   0.254   2.869   0.938
  547SOL    HW2 2652   0.185   3.017   0.941
  548SOL     OW 2653   0.620   3.648   1.439
  548SOL    HW1 2654   0.528   3.631   1.474
  548SOL    HW2 2655   0.648   3.740   1.465
  549SOL     OW 2656   0.606   2.826   0.123
  549SOL    HW1 2657   0.613   2.910   0.069
  549SOL    HW2 2658   0.652   2.839   0.211
  550SOL     OW 2659   0.122   2.505   0.563
  550SOL    HW1 2660   0.077   2.417   0.580
  550SOL    HW2 2661   0.121   2.559   0.647
  551SOL     OW 2662   1.842   3.629   0.359
  551SOL    HW1 2663   1.896   3.600   0.439
  551SOL    HW2 2664   1.872   3.719   0.330
  552SOL     OW 2665   0.027   3.458   0.117
  552SOL    HW1 2666   0.008   3.362   0.138
  552SOL    HW2 2667  -0.006   3.516   0.192
  553SOL     OW 2668   1.689   2.784   0.612
  553SOL    HW1 2669   1.784   2.755   0.620
  553SOL    HW2 2670   1.681   2.849   0.537
  554SOL     OW 2671   1.641   2.970   0.432
  554SOL    HW1 2672   1.727   2.972   0.380
  554SOL    HW2 2673   1.655   3.017   0.520
  555SOL     OW 2674   0.113   2.599   1.597
  555SOL    HW1 2675   0.201   2.586   1.642
  555SOL    HW2 2676   0.100   2.696   1.575
  556SOL     OW 2677   0.613   3.227   0.726
  556SOL    HW1 2678   0.564   3.140   0.735
  556SOL    HW2 2679   0.590   3.270   0.639
  557SOL     OW 2680   1.293   3.090   1.423
  557SOL    HW1 2681   1.330   3.017   1.365
  557SOL    HW2 2682   1.345   3.095   1.508
  558SOL     OW 2683   0.809   1.866   0.502
  558SOL    HW1 2684   0.849   1.957   0.493
  558SOL    HW2 2685   0.709   1.874   0.508
  559SOL     OW 2686   0.197   2.838   1.264
  559SOL    HW1 2687   0.286   2.793   1.250
  559SOL    HW2 2688   0.124   2.773   1.245
  560SOL     OW 2689   1.525   2.861   0.190
  560SOL    HW1 2690   1.462   2.785   0.203
  560SOL    HW2 2691   1.573   2.879   0.276
  561SOL     OW 2692   1.187   3.654   1.616
  561SOL    HW1 2693   1.211   3.714   1.540
  561SOL    HW2 2694   1.194   3.559   1.586
  562SOL     OW 2695   0.317   2.113   1.801
  562SOL    HW1 2696   0.388   2.184   1.807
  562SOL    HW2 2697   0.229   2.152   1.829
  563SOL     OW 2698   1.466   3.279   0.953
  563SOL    HW1 2699   1.407   3.285   1.033
  563SOL    HW2 2700   1.451   3.191   0.907
  564SOL     OW 2701   1.667   3.576   0.572
  564SOL    HW1 2702   1.626   3.553   0.484
  564SOL    HW2 2703   1.649   3.502   0.637
  565SOL     OW 2704   0.598   2.591   0.270
  565SOL    HW1 2705   0.622   2.660   0.202
  565SOL    HW2 2706   0.520   2.624   0.324
  566SOL     OW 2707   1.576   3.524   0.307
  566SOL    HW1 2708   1.665   3.570   0.310
  566SOL    HW2 2709   1.555   3.500   0.212
  567SOL     OW 2710   0.807   2.467   1.465
  567SOL    HW1 2711   0.760   2.464   1.554
  567SOL    HW2 2712   0.756   2.412   1.399
  568SOL     OW 2713   1.394   2.331   1.674
  568SOL    HW1 2714   1.374   2.374   1.762
  568SOL    HW2 2715   1.472   2.269   1.683
  569SOL     OW 2716   0.973   2.752   1.572
  569SOL    HW1 2717   1.019   2.668   1.543
  569SOL    HW2 2718   0.917   2.786   1.497
  570SOL     OW 2719   0.991   2.272   1.242
  570SOL    HW1 2720   0.914   2.306   1.296
  570SOL    HW2 2721   0.957   2.221   1.163
  571SOL     OW 2722   1.041   2.563   0.429
  571SOL    HW1 2723   1.067   2.559   0.525
  571SOL    HW2 2724   0.956   2.512   0.415
  572SOL     OW 2725   0.076   2.673   0.789
  572SOL    HW1 2726   0.175   2.661   0.798
  572SOL    HW2 2727   0.052   2.768   0.810
  573SOL     OW 2728   0.865   2.210   0.195
  573SOL    HW1 2729   0.924   2.273   0.146
  573SOL    HW2 2730   0.884   2.116   0.166
  574SOL     OW 2731   1.719   2.447   1.831
  574SOL    HW1 2732   1.693   2.536   1.795
  574SOL    HW2 2733   1.717   2.379   1.758
  575SOL     OW 2734   1.362   3.006   0.545
  575SOL    HW1 2735   1.445   2.977   0.497
  575SOL    HW2 2736   1.313   3.073   0.489
  576SOL     OW 2737   0.550   2.058   0.885
  576SOL    HW1 2738   0.545   2.053   0.985
  576SOL    HW2 2739   0.552   2.154   0.856
  577SOL     OW 2740   0.351   3.663   0.853
  577SOL    HW1 2741   0.401   3.577   0.859
  577SOL    HW2 2742   0.416   3.740   0.850
  578SOL     OW 2743   1.795   2.928   0.873
  578SOL    HW1 2744   1.733   2.913   0.797
  578SOL    HW2 2745   1.743   2.939   0.958
  579SOL     OW 2746   1.227   3.412   1.506
  579SOL    HW1 2747   1.233   3.335   1.570
  579SOL    HW2 2748   1.175   3.386   1.426
  580SOL     OW 2749   0.321   2.805   0.242
  580SOL    HW1 2750   0.403   2.844   0.200
  580SOL    HW2 2751   0.294   2.723   0.193
  581SOL     OW 2752   1.458   2.597   0.728
  581SOL    HW1 2753   1.453   2.532   0.803
  581SOL    HW2 2754   1.538   2.656   0.741
  582SOL     OW 2755   0.461   3.128   1.727
  582SOL    HW1 2756   0.411   3.129   1.641
  582SOL    HW2 2757   0.398   3.110   1.803
  583SOL     OW 2758   0.202   2.147   1.498
  583SOL    HW1 2759   0.122   2.207   1.485
  583SOL    HW2 2760   0.192   2.098   1.584
  584SOL     OW 2761   1.632   3.239   0.081
  584SOL    HW1 2762   1.600   3.333   0.071
  584SOL    HW2 2763   1.556   3.176   0.069
  585SOL     OW 2764   1.400   1.969   0.426
  585SOL    HW1 2765   1.376   1.932   0.336
  585SOL    HW2 2766   1.499   1.985   0.430
  586SOL     OW 2767   0.249   3.647   1.241
  586SOL    HW1 2768   0.306   3.582   1.291
  586SOL    HW2 2769   0.233   3.614   1.148
  587SOL     OW 2770   0.940   3.560   0.904
  587SOL    HW1 2771   1.020   3.503   0.925
  587SOL    HW2 2772   0.891   3.520   0.827
  588SOL     OW 2773   0.382   2.562   0.480
  588SOL    HW1 2774   0.427   2.472   0.477
  588SOL    HW2 2775   0.288   2.551   0.513
  589SOL     OW 2776   1.547   2.084   1.729
  589SOL    HW1 2777   1.542   2.121   1.821
  589SOL    HW2 2778   1.475   2.015   1.717
  590SOL     OW 2779   0.781   2.126   1.749
  590SOL    HW1 2780   0.848   2.065   1.792
  590SOL    HW2 2781   0.708   2.145   1.814
  591SOL     OW 2782   0.888   3.376   1.195
  591SOL    HW1 2783   0.865   3.351   1.101
  591SOL    HW2 2784   0.949   3.307   1.234
  592SOL     OW 2785   1.351   2.452   1.433
  592SOL    HW1 2786   1.379   2.409   1.518
  592SOL    HW2 2787   1.376   2.548   1.434
  593SOL     OW 2788   0.803   3.264   0.924
  593SOL    HW1 2789   0.893   3.278   0.882
  593SOL    HW2 2790   0.732   3.266   0.853
  594SOL     OW 2791   0.922   2.365   0.899
  594SOL    HW1 2792   0.897   2.356   0.803
  594SOL    HW2 2793   0.970   2.283   0.930
  595SOL     OW 2794   0.539   1.926   0.512
  595SOL    HW1 2795   0.458   1.927   0.570
  595SOL    HW2 2796   0.542   2.009   0.457
  596SOL     OW 2797   1.434   3.050   0.041
  596SOL    HW1 2798   1.466   2.974   0.098
  596SOL    HW2 2799   1.342   3.077   0.071
  597SOL     OW 2800   0.297   1.897   0.171
  597SOL    HW1 2801   0.346   1.981   0.150
  597SOL    HW2 2802   0.359   1.832   0.216
  598SOL     OW 2803   0.935   2.098   0.480
  598SOL    HW1 2804   0.887   2.139   0.402
  598SOL    HW2 2805   1.034   2.096   0.461
  599SOL     OW 2806   1.076   2.545   1.464
  599SOL    HW1 2807   0.996   2.484   1.467
  599SOL    HW2 2808   1.157   2.492   1.440
  600SOL     OW 2809   0.459   3.014   0.741
  600SOL    HW1 2810   0.388   2.987   0.806
  600SOL    HW2 2811   0.433   2.986   0.648
  601SOL     OW 2812   1.032   2.411   0.016
  601SOL    HW1 2813   0.991   2.493  -0.023
  601SOL    HW2 2814   1.096   2.437   0.089
  602SOL     OW 2815   0.078   2.418   1.386
  602SOL    HW1 2816   0.170   2.417   1.345
  602SOL    HW2 2817   0.072   2.492   1.453
  603SOL     OW 2818   0.561   2.084   1.147
  603SOL    HW1 2819   0.599   2.000   1.184
  603SOL    HW2 2820   0.473   2.103   1.191
  604SOL     OW 2821   0.866   2.316   0.642
  604SOL    HW1 2822   0.834   2.388   0.580
  604SOL    HW2 2823   0.890   2.235   0.589
  605SOL     OW 2824   1.429   3.035   0.867
  605SOL    HW1 2825   1.374   2.951   0.860
  605SOL    HW2 2826   1.455   3.064   0.775
  606SOL     OW 2827   1.857   2.695   0.377
  606SOL    HW1 2828   1.899   2.631   0.441
  606SOL    HW2 2829   1.819   2.644   0.299
  607SOL     OW 2830   0.488   3.247   0.174
  607SOL    HW1 2831   0.401   3.232   0.221
  607SOL    HW2 2832   0.471   3.273   0.079
  608SOL     OW 2833   1.664   3.142   0.657
  608SOL    HW1 2834   1.763   3.150   0.671
  608SOL    HW2 2835   1.619   3.226   0.688
  609SOL     OW 2836   1.390   2.437   0.078
  609SOL    HW1 2837   1.336   2.416   0.159
  609SOL    HW2 2838   1.481   2.396   0.087
  610SOL     OW 2839   0.527   2.118   0.328
  610SOL    HW1 2840   0.554   2.059   0.253
  610SOL    HW2 2841   0.527   2.213   0.297
  611SOL     OW 2842   1.754   3.085   1.588
  611SOL    HW1 2843   1.845   3.046   1.575
  611SOL    HW2 2844   1.762   3.181   1.612
  612SOL     OW 2845   1.064   3.209   1.340
  612SOL    HW1 2846   0.984   3.186   1.395
  612SOL    HW2 2847   1.147   3.183   1.389
  613SOL     OW 2848   1.592   3.491   1.625
  613SOL    HW1 2849   1.619   3.525   1.535
  613SOL    HW2 2850   1.671   3.453   1.671
  614SOL     OW 2851   1.111   3.057   1.100
  614SOL    HW1 2852   1.071   3.101   1.181
  614SOL    HW2 2853   1.070   3.094   1.017
  615SOL     OW 2854   1.638   2.961   1.079
  615SOL    HW1 2855   1.643   3.042   1.138
  615SOL    HW2 2856   1.552   2.963   1.028
  616SOL     OW 2857   0.915   1.951   1.402
  616SOL    HW1 2858   0.940   1.931   1.307
  616SOL    HW2 2859   0.987   2.007   1.444
  617SOL     OW 2860   0.980   2.978   1.719
  617SOL    HW1 2861   0.881   2.984   1.729
  617SOL    HW2 2862   1.003   2.898   1.663
  618SOL     OW 2863   0.705   2.912   0.368
  618SOL    HW1 2864   0.691   2.919   0.467
  618SOL    HW2 2865   0.789   2.861   0.350
  619SOL     OW 2866   0.410   2.675   1.251
  619SOL    HW1 2867   0.496   2.687   1.301
  619SOL    HW2 2868   0.368   2.588   1.278
  620SOL     OW 2869   0.367   2.962   0.501
  620SOL    HW1 2870   0.360   3.045   0.445
  620SOL    HW2 2871   0.371   2.882   0.441
  621SOL     OW 2872   0.566   2.399   0.865
  621SOL    HW1 2873   0.578   2.465   0.791
  621SOL    HW2 2874   0.612   2.433   0.948
  622SOL     OW 2875   1.252   3.210   0.388
  622SOL    HW1 2876   1.302   3.287   0.428
  622SOL    HW2 2877   1.157   3.212   0.420
  623SOL     OW 2878   1.272   3.307   1.142
  623SOL    HW1 2879   1.319   3.320   1.229
  623SOL    HW2 2880   1.206   3.233   1.151
  624SOL     OW 2881   1.582   2.501   0.472
  624SOL    HW1 2882   1.551   2.562   0.545
  624SOL    HW2 2883   1.632   2.553   0.403
  625SOL     OW 2884   0.354   3.372   1.329
  625SOL    HW1 2885   0.333   3.328   1.242
  625SOL    HW2 2886   0.451   3.398   1.332
  626SOL     OW 2887   0.402   2.613   1.598
  626SOL    HW1 2888   0.470   2.668   1.551
  626SOL    HW2 2889   0.442   2.525   1.625
  627SOL     OW 2890   1.587   2.641   1.670
  627SOL    HW1 2891   1.495   2.679   1.665
  627SOL    HW2 2892   1.647   2.688   1.605
  628SOL     OW 2893   1.013   1.967   1.770
  628SOL    HW1 2894   1.019   2.052   1.718
  628SOL    HW2 2895   1.045   1.891   1.713
  629SOL     OW 2896   0.504   1.912   1.740
  629SOL    HW1 2897   0.462   1.855   1.670
  629SOL    HW2 2898   0.438   1.981   1.772
  630SOL     OW 2899   0.573   2.732   1.029
  630SOL    HW1 2900   0.617   2.821   1.020
  630SOL    HW2 2901   0.510   2.732   1.106
  631SOL     OW 2902   1.360   2.724   1.045
  631SOL    HW1 2903   1.285   2.724   0.979
  631SOL    HW2 2904   1.397   2.632   1.054
  632SOL     OW 2905   1.209   2.387   0.275
  632SOL    HW1 2906   1.222   2.303   0.329
  632SOL    HW2 2907   1.180   2.461   0.335
  633SOL     OW 2908   0.307   2.075   1.231
  633SOL    HW1 2909   0.284   2.112   1.321
  633SOL    HW2 2910   0.277   1.980   1.225
  634SOL     OW 2911   0.037   3.172   1.282
  634SOL    HW1 2912   0.090   3.123   1.350
  634SOL    HW2 2913   0.059   3.270   1.287
  635SOL     OW 2914   0.732   2.496   1.064
  635SOL    HW1 2915   0.791   2.470   0.988
  635SOL    HW2 2916   0.704   2.592   1.053
  636SOL     OW 2917   1.728   2.797   1.854
  636SOL    HW1 2918   1.682   2.790   1.765
  636SOL    HW2 2919   1.666   2.841   1.920
  637SOL     OW 2920   0.307   1.925   0.618
  637SOL    HW1 2921   0.296   2.019   0.651
  637SOL    HW2 2922   0.302   1.862   0.695
  638SOL     OW 2923   1.622   2.229   0.374
  638SOL    HW1 2924   1.624   2.153   0.438
  638SOL    HW2 2925   1.574   2.306   0.414
  639SOL     OW 2926   1.023   2.628   0.966
  639SOL    HW1 2927   1.038   2.649   1.062
  639SOL    HW2 2928   0.993   2.533   0.957
  640SOL     OW 2929   0.980   3.435   1.700
  640SOL    HW1 2930   0.960   3.479   1.612
  640SOL    HW2 2931   1.019   3.344   1.684
  641SOL     OW 2932   1.859   3.380   1.605
  641SOL    HW1 2933   1.873   3.407   1.510
  641SOL    HW2 2934   1.942   3.402   1.658
  642SOL     OW 2935   0.350   2.760   1.804
  642SOL    HW1 2936   0.426   2.804   1.852
  642SOL    HW2 2937   0.385   2.713   1.722
  643SOL     OW 2938   1.540   2.136   0.125
  643SOL    HW1 2939   1.479   2.061   0.148
  643SOL    HW2 2940   1.562   2.188   0.208
  644SOL     OW 2941   1.303   2.700   0.042
  644SOL    HW1 2942   1.337   2.607   0.057
  644SOL    HW2 2943   1.321   2.727  -0.053
  645SOL     OW 2944   1.068   3.195   0.849
  645SOL    HW1 2945   1.075   3.111   0.794
  645SOL    HW2 2946   1.130   3.264   0.813
  646SOL     OW 2947   0.319   2.672   0.949
  646SOL    HW1 2948   0.412   2.708   0.954
  646SOL    HW2 2949   0.313   2.587   1.001
  647SOL     OW 2950   0.339   2.371   1.006
  647SOL    HW1 2951   0.287   2.288   0.989
  647SOL    HW2 2952   0.416   2.376   0.942
  648SOL     OW 2953   1.138   2.242   1.678
  648SOL    HW1 2954   1.093   2.305   1.742
  648SOL    HW2 2955   1.231   2.273   1.661
  649SOL     OW 2956   1.160   2.069   1.477
  649SOL    HW1 2957   1.160   2.133   1.554
  649SOL    HW2 2958   1.188   2.117   1.394
  650SOL     OW 2959   0.008   3.188   0.200
  650SOL    HW1 2960  -0.085   3.209   0.169
  650SOL    HW2 2961   0.018   3.089   0.213
  651SOL     OW 2962   0.504   3.430   0.910
  651SOL    HW1 2963   0.570   3.504   0.919
  651SOL    HW2 2964   0.548   3.351   0.868
  652SOL     OW 2965   1.002   2.658   1.238
  652SOL    HW1 2966   1.043   2.626   1.324
  652SOL    HW2 2967   0.906   2.631   1.235
  653SOL     OW 2968   0.040   2.406   1.114
  653SOL    HW1 2969   0.125   2.373   1.073
  653SOL    HW2 2970   0.053   2.421   1.212
  654SOL     OW 2971   0.189   2.382   1.722
  654SOL    HW1 2972   0.248   2.342   1.652
  654SOL    HW2 2973   0.131   2.453   1.681
  655SOL     OW 2974   1.369   2.812   1.660
  655SOL    HW1 2975   1.408   2.901   1.680
  655SOL    HW2 2976   1.379   2.792   1.563
  656SOL     OW 2977   0.815   2.434   0.325
  656SOL    HW1 2978   0.822   2.345   0.279
  656SOL    HW2 2979   0.721   2.468   0.317
  657SOL     OW 2980   1.657   2.466   1.206
  657SOL    HW1 2981   1.619   2.397   1.268
  657SOL    HW2 2982   1.739   2.430   1.162
  658SOL     OW 2983   0.671   2.326   1.269
  658SOL    HW1 2984   0.637   2.237   1.239
  658SOL    HW2 2985   0.697   2.380   1.189
  659SOL     OW 2986   0.930   3.540   1.465
  659SOL    HW1 2987   0.906   3.522   1.370
  659SOL    HW2 2988   0.960   3.634   1.475
  660SOL     OW 2989   0.473   2.362   0.191
  660SOL    HW1 2990   0.534   2.442   0.195
  660SOL    HW2 2991   0.378   2.393   0.198
  661SOL     OW 2992   0.159   2.999   1.466
  661SOL    HW1 2993   0.181   2.938   1.542
  661SOL    HW2 2994   0.169   2.950   1.380
  662SOL     OW 2995   1.347   2.921   1.234
  662SOL    HW1 2996   1.371   2.858   1.160
  662SOL    HW2 2997   1.257   2.961   1.216
  663SOL     OW 2998   1.302   2.717   0.309
  663SOL    HW1 2999   1.216   2.686   0.351
  663SOL    HW2 3000   1.298   2.703   0.210
  664SOL     OW 3001   1.759   3.609   1.154
  664SOL    HW1 3002   1.820   3.639   1.081
  664SOL    HW2 3003   1.721   3.520   1.132
  665SOL     OW 3004   1.252   3.593   1.128
  665SOL    HW1 3005   1.336   3.598   1.074
  665SOL    HW2 3006   1.229   3.497   1.146
  666SOL     OW 3007   0.083   3.120   1.022
  666SOL    HW1 3008   0.078   3.119   1.122
  666SOL    HW2 3009   0.000   3.079   0.984
  667SOL     OW 3010   0.688   3.524   1.716
  667SOL    HW1 3011   0.632   3.605   1.725
  667SOL    HW2 3012   0.740   3.528   1.630
  668SOL     OW 3013   0.903   1.948   0.133
  668SOL    HW1 3014   0.954   1.949   0.047
  668SOL    HW2 3015   0.959   1.906   0.204
  669SOL     OW 3016   1.726   1.997   0.523
  669SOL    HW1 3017   1.799   1.980   0.456
  669SOL    HW2 3018   1.695   1.910   0.561
  670SOL     OW 3019   1.388   3.435   0.477
  670SOL    HW1 3020   1.455   3.447   0.403
  670SOL    HW2 3021   1.348   3.524   0.500
  671SOL     OW 3022   1.280   2.789   0.672
  671SOL    HW1 3023   1.340   2.708   0.674
  671SOL    HW2 3024   1.320   2.858   0.612
  672SOL     OW 3025   0.830   3.135   1.422
  672SOL    HW1 3026   0.825   3.168   1.517
  672SOL    HW2 3027   0.744   3.154   1.376
  673SOL     OW 3028   1.650   3.582   1.394
  673SOL    HW1 3029   1.703   3.592   1.310
  673SOL    HW2 3030   1.623   3.672   1.428
  674SOL     OW 3031   1.841   2.037   0.963
  674SOL    HW1 3032   1.880   1.952   0.927
  674SOL    HW2 3033   1.743   2.039   0.944
  675SOL     OW 3034   0.263   2.188   0.720
  675SOL    HW1 3035   0.184   2.239   0.686
  675SOL    HW2 3036   0.254   2.173   0.818
  676SOL     OW 3037   0.822   2.864   1.372
  676SOL    HW1 3038   0.862   2.863   1.280
  676SOL    HW2 3039   0.832   2.956   1.412
  677SOL     OW 3040   0.916   2.772   0.291
  677SOL    HW1 3041   0.979   2.810   0.223
  677SOL    HW2 3042   0.956   2.689   0.330
  678SOL     OW 3043   1.504   3.469   0.044
  678SOL    HW1 3044   1.412   3.506   0.051
  678SOL    HW2 3045   1.542   3.489  -0.046
  679SOL     OW 3046   0.372   3.150   1.490
  679SOL    HW1 3047   0.359   3.243   1.456
  679SOL    HW2 3048   0.288   3.098   1.477
  680SOL     OW 3049   1.614   3.154   1.289
  680SOL    HW1 3050   1.674   3.157   1.369
  680SOL    HW2 3051   1.539   3.218   1.302
  681SOL     OW 3052   1.039   2.960   0.696
  681SOL    HW1 3053   0.969   2.913   0.750
  681SOL    HW2 3054   1.098   2.892   0.653
  682SOL     OW 3055   0.590   3.349   0.491
  682SOL    HW1 3056   0.632   3.291   0.421
  682SOL    HW2 3057   0.546   3.428   0.447
  683SOL     OW 3058   0.255   3.210   0.290
  683SOL    HW1 3059   0.159   3.211   0.263
  683SOL    HW2 3060   0.267   3.263   0.374
  684SOL     OW 3061   0.105   2.875   1.726
  684SOL    HW1 3062   0.028   2.842   1.780
  684SOL    HW2 3063   0.190   2.845   1.768
  685SOL     OW 3064   0.672   2.065   1.489
  685SOL    HW1 3065   0.762   2.049   1.449
  685SOL    HW2 3066   0.680   2.070   1.588
  686SOL     OW 3067   0.075   2.207   0.033
  686SOL    HW1 3068  -0.017   2.179   0.004
  686SOL    HW2 3069   0.106   2.284  -0.023
  687SOL     OW 3070   1.440   2.718   1.398
  687SOL    HW1 3071   1.383   2.770   1.335
  687SOL    HW2 3072   1.536   2.730   1.374
  688SOL     OW 3073   0.072   2.028   0.318
  688SOL    HW1 3074   0.055   2.111   0.264
  688SOL    HW2 3075   0.162   1.991   0.296
  689SOL     OW 3076   1.183   3.197   0.119
  689SOL    HW1 3077   1.084   3.186   0.121
  689SOL    HW2 3078   1.217   3.212   0.212
  690SOL     OW 3079   0.613   2.704   1.431
  690SOL    HW1 3080   0.669   2.785   1.414
  690SOL    HW2 3081   0.672   2.624   1.434
  691SOL     OW 3082   1.493   3.629   0.959
  691SOL    HW1 3083   1.526   3.693   0.890
  691SOL    HW2 3084   1.559   3.623   1.034
  692SOL     OW 3085   0.716   2.427   1.708
  692SOL    HW1 3086   0.735   2.492   1.782
  692SOL    HW2 3087   0.776   2.347   1.717
  693SOL     OW 3088   1.450   3.082   1.633
  693SOL    HW1 3089   1.441   3.072   1.732
  693SOL    HW2 3090   1.546   3.075   1.607
  694SOL     OW 3091   0.390   3.603   1.560
  694SOL    HW1 3092   0.299   3.644   1.558
  694SOL    HW2 3093   0.383   3.509   1.592
  695SOL     OW 3094   1.674   2.745   1.254
  695SOL    HW1 3095   1.647   2.656   1.217
  695SOL    HW2 3096   1.675   2.813   1.181
  696SOL     OW 3097   1.225   2.187   0.449
  696SOL    HW1 3098   1.290   2.113   0.438
  696SOL    HW2 3099   1.245   2.237   0.533
  697SOL     OW 3100   0.594   2.607   0.652
  697SOL    HW1 3101   0.644   2.692   0.633
  697SOL    HW2 3102   0.506   2.609   0.604
  698SOL     OW 3103   1.777   2.204   1.642
  698SOL    HW1 3104   1.760   2.235   1.548
  698SOL    HW2 3105   1.693   2.167   1.680
  699SOL     OW 3106   1.730   2.796   1.517
  699SOL    HW1 3107   1.768   2.887   1.532
  699SOL    HW2 3108   1.722   2.779   1.418
  700SOL     OW 3109   0.661   3.652   0.953
  700SOL    HW1 3110   0.615   3.740   0.940
  700SOL    HW2 3111   0.760   3.664   0.946
  701SOL     OW 3112   0.859   2.818   0.861
  701SOL    HW1 3113   0.913   2.749   0.909
  701SOL    HW2 3114   0.827   2.887   0.927
  702SOL     OW 3115   1.083   2.846   0.087
  702SOL    HW1 3116   1.060   2.899   0.005
  702SOL    HW2 3117   1.164   2.790   0.068
  703SOL     OW 3118   1.861   3.431   0.851
  703SOL    HW1 3119   1.790   3.419   0.781
  703SOL    HW2 3120   1.862   3.352   0.911
  704SOL     OW 3121   0.221   3.176   1.844
  704SOL    HW1 3122   0.156   3.103   1.823
  704SOL    HW2 3123   0.225   3.190   1.942
  705SOL     OW 3124   0.079   3.102   0.653
  705SOL    HW1 3125   0.078   3.055   0.741
  705SOL    HW2 3126   0.161   3.074   0.602
  706SOL     OW 3127   0.672   3.253   1.624
  706SOL    HW1 3128   0.594   3.203   1.662
  706SOL    HW2 3129   0.669   3.348   1.655
  707SOL     OW 3130   0.428   2.286   0.520
  707SOL    HW1 3131   0.458   2.214   0.458
  707SOL    HW2 3132   0.389   2.246   0.603
  708SOL     OW 3133   1.705   3.349   1.104
  708SOL    HW1 3134   1.612   3.324   1.077
  708SOL    HW2 3135   1.731   3.299   1.186
  709SOL     OW 3136   0.317   2.409   1.280
  709SOL    HW1 3137   0.355   2.350   1.352
  709SOL    HW2 3138   0.357   2.383   1.192
  710SOL     OW 3139   0.812   3.448   0.687
  710SOL    HW1 3140   0.844   3.458   0.593
  710SOL    HW2 3141   0.733   3.386   0.689
  711SOL     OW 3142   1.001   1.896   1.154
  711SOL    HW1 3143   0.938   1.824   1.123
  711SOL    HW2 3144   1.094   1.860   1.154
  712SOL     OW 3145   0.618   3.429   1.284
  712SOL    HW1 3146   0.613   3.511   1.341
  712SOL    HW2 3147   0.707   3.426   1.239
  713SOL     OW 3148   1.352   1.914   0.168
  713SOL    HW1 3149   1.387   1.873   0.084
  713SOL    HW2 3150   1.262   1.876   0.188
  714SOL     OW 3151   1.300   2.315   0.691
  714SOL    HW1 3152   1.241   2.395   0.695
  714SOL    HW2 3153   1.315   2.280   0.784
  715SOL     OW 3154   0.039   2.939   0.300
  715SOL    HW1 3155   0.138   2.928   0.291
  715SOL    HW2 3156  -0.001   2.853   0.332
  716SOL     OW 3157   0.230   2.490   1.975
  716SOL    HW1 3158   0.137   2.488   2.012
  716SOL    HW2 3159   0.231   2.451   1.883
  717SOL     OW 3160   0.019   2.230   2.509
  717SOL    HW1 3161  -0.063   2.273   2.548
  717SOL    HW2 3162  -0.009   2.157   2.446
  718SOL     OW 3163   0.569   3.137   3.027
  718SOL    HW1 3164   0.476   3.130   2.990
  718SOL    HW2 3165   0.580   3.226   3.071
  719SOL     OW 3166   1.555   3.373   2.565
  719SOL    HW1 3167   1.498   3.357   2.646
  719SOL    HW2 3168   1.496   3.383   2.485
  720SOL     OW 3169   1.135   2.565   2.579
  720SOL    HW1 3170   1.192   2.643   2.554
  720SOL    HW2 3171   1.075   2.591   2.655
  721SOL     OW 3172   1.755   2.469   2.093
  721SOL    HW1 3173   1.743   2.456   1.994
  721SOL    HW2 3174   1.725   2.388   2.142
  722SOL     OW 3175   0.768   3.006   2.885
  722SOL    HW1 3176   0.690   3.023   2.945
  722SOL    HW2 3177   0.802   3.093   2.849
  723SOL     OW 3178   0.850   2.660   3.685
  723SOL    HW1 3179   0.846   2.736   3.750
  723SOL    HW2 3180   0.872   2.696   3.594
  724SOL     OW 3181   0.685   2.874   2.527
  724SOL    HW1 3182   0.754   2.858   2.597
  724SOL    HW2 3183   0.612   2.931   2.565
  725SOL     OW 3184   0.686   3.023   3.665
  725SOL    HW1 3185   0.746   3.102   3.679
  725SOL    HW2 3186   0.600   3.054   3.624
  726SOL     OW 3187   0.335   3.297   2.923
  726SOL    HW1 3188   0.257   3.266   2.870
  726SOL    HW2 3189   0.393   3.355   2.866
  727SOL     OW 3190   1.460   3.367   3.201
  727SOL    HW1 3191   1.484   3.461   3.227
  727SOL    HW2 3192   1.444   3.313   3.283
  728SOL     OW 3193   0.438   2.254   3.361
  728SOL    HW1 3194   0.520   2.198   3.370
  728SOL    HW2 3195   0.357   2.196   3.365
  729SOL     OW 3196   1.603   2.309   2.599
  729SOL    HW1 3197   1.529   2.355   2.549
  729SOL    HW2 3198   1.654   2.377   2.652
  730SOL     OW 3199   0.231   3.575   2.345
  730SOL    HW1 3200   0.265   3.652   2.399
  730SOL    HW2 3201   0.275   3.575   2.255
  731SOL     OW 3202   1.127   3.203   3.552
  731SOL    HW1 3203   1.174   3.203   3.640
  731SOL    HW2 3204   1.079   3.116   3.541
  732SOL     OW 3205   0.230   3.296   2.400
  732SOL    HW1 3206   0.204   3.392   2.400
  732SOL    HW2 3207   0.159   3.242   2.445
  733SOL     OW 3208   0.240   2.953   2.748
  733SOL    HW1 3209   0.254   2.869   2.800
  733SOL    HW2 3210   0.185   3.017   2.803
  734SOL     OW 3211   0.620   3.648   3.301
  734SOL    HW1 3212   0.528   3.631   3.336
  734SOL    HW2 3213   0.648   3.740   3.327
  735SOL     OW 3214   0.606   2.826   1.985
  735SOL    HW1 3215   0.613   2.910   1.931
  735SOL    HW2 3216   0.652   2.839   2.073
  736SOL     OW 3217   0.122   2.505   2.425
  736SOL    HW1 3218   0.077   2.417   2.442
  736SOL    HW2 3219   0.121   2.559   2.509
  737SOL     OW 3220   1.842   3.629   2.221
  737SOL    HW1 3221   1.896   3.600   2.301
  737SOL    HW2 3222   1.872   3.719   2.192
  738SOL     OW 3223   1.689   2.784   2.474
  738SOL    HW1 3224   1.784   2.755   2.482
  738SOL    HW2 3225   1.681   2.849   2.399
  739SOL     OW 3226   1.641   2.970   2.294
  739SOL    HW1 3227   1.727   2.972   2.242
  739SOL    HW2 3228   1.655   3.017   2.382
  740SOL     OW 3229   0.113   2.599   3.459
  740SOL    HW1 3230   0.201   2.586   3.504
  740SOL    HW2 3231   0.100   2.696   3.437
  741SOL     OW 3232   0.613   3.227   2.588
  741SOL    HW1 3233   0.564   3.140   2.597
  741SOL    HW2 3234   0.590   3.270   2.501
  742SOL     OW 3235   1.293   3.090   3.285
  742SOL    HW1 3236   1.330   3.017   3.227
  742SOL    HW2 3237   1.345   3.095   3.370
  743SOL     OW 3238   0.809   1.866   2.364
  743SOL    HW1 3239   0.849   1.957   2.355
  743SOL    HW2 3240   0.709   1.874   2.370
  744SOL     OW 3241   0.197   2.838   3.126
  744SOL    HW1 3242   0.286   2.793   3.112
  744SOL    HW2 3243   0.124   2.773   3.107
  745SOL     OW 3244   1.525   2.861   2.052
  745SOL    HW1 3245   1.462   2.785   2.065
  745SOL    HW2 3246   1.573   2.879   2.138
  746SOL     OW 3247   1.187   3.654   3.478
  746SOL    HW1 3248   1.211   3.714   3.402
  746SOL    HW2 3249   1.194   3.559   3.448
  747SOL     OW 3250   0.317   2.113   3.663
  747SOL    HW1 3251   0.388   2.184   3.669
  747SOL    HW2 3252   0.229   2.152   3.691
  748SOL     OW 3253   1.466   3.279   2.815
  748SOL    HW1 3254   1.407   3.285   2.895
  748SOL    HW2 3255   1.451   3.191   2.769
  749SOL     OW 3256   1.667   3.576   2.434
  749SOL    HW1 3257   1.626   3.553   2.346
  749SOL    HW2 3258   1.649   3.502   2.499
  750SOL     OW 3259   0.598   2.591   2.132
  750SOL    HW1 3260   0.622   2.660   2.064
  750SOL    HW2 3261   0.520   2.624   2.186
  751SOL     OW 3262   1.576   3.524   2.169
  751SOL    HW1 3263   1.665   3.570   2.172
  751SOL    HW2 3264   1.555   3.500   2.074
  752SOL     OW 3265   0.807   2.467   3.327
  752SOL    HW1 3266   0.760   2.464   3.416
  752SOL    HW2 3267   0.756   2.412   3.261
  753SOL     OW 3268   1.394   2.331   3.536
  753SOL    HW1 3269   1.374   2.374   3.624
  753SOL    HW2 3270   1.472   2.269   3.545
  754SOL     OW 3271   0.973   2.752   3.434
  754SOL    HW1 3272   1.019   2.668   3.405
  754SOL    HW2 3273   0.917   2.786   3.359
  755SOL     OW 3274   0.991   2.272   3.104
  755SOL    HW1 3275   0.914   2.306   3.158
  755SOL    HW2 3276   0.957   2.221   3.025
  756SOL     OW 3277   1.041   2.563   2.291
  756SOL    HW1 3278   1.067   2.559   2.387
  756SOL    HW2 3279   0.956   2.512   2.277
  757SOL     OW 3280   0.076   2.673   2.651
  757SOL    HW1 3281   0.175   2.661   2.660
  757SOL    HW2 3282   0.052   2.768   2.672
  758SOL     OW 3283   0.130   3.683   3.433
  758SOL    HW1 3284   0.120   3.668   3.532
  758SOL    HW2 3285   0.044   3.719   3.397
  759SOL     OW 3286   0.865   2.210   2.057
  759SOL    HW1 3287   0.924   2.273   2.008
  759SOL    HW2 3288   0.884   2.116   2.028
  760SOL     OW 3289   1.719   2.447   3.693
  760SOL    HW1 3290   1.693   2.536   3.657
  760SOL    HW2 3291   1.717   2.379   3.620
  761SOL     OW 3292   1.362   3.006   2.407
  761SOL    HW1 3293   1.445   2.977   2.359
  761SOL    HW2 3294   1.313   3.073   2.351
  762SOL     OW 3295   1.008   3.318   2.339
  762SOL    HW1 3296   0.962   3.390   2.287
  762SOL    HW2 3297   1.004   3.338   2.437
  763SOL     OW 3298   0.351   3.663   2.715
  763SOL    HW1 3299   0.401   3.577   2.721
  763SOL    HW2 3300   0.416   3.740   2.712
  764SOL     OW 3301   1.795   2.928   2.735
  764SOL    HW1 3302   1.733   2.913   2.659
  764SOL    HW2 3303   1.743   2.939   2.820
  765SOL     OW 3304   1.227   3.412   3.368
  765SOL    HW1 3305   1.233   3.335   3.432
  765SOL    HW2 3306   1.175   3.386   3.288
  766SOL     OW 3307   0.321   2.805   2.104
  766SOL    HW1 3308   0.403   2.844   2.062
  766SOL    HW2 3309   0.294   2.723   2.055
  767SOL     OW 3310   1.458   2.597   2.590
  767SOL    HW1 3311   1.453   2.532   2.665
  767SOL    HW2 3312   1.538   2.656   2.603
  768SOL     OW 3313   0.461   3.128   3.589
  768SOL    HW1 3314   0.411   3.129   3.503
  768SOL    HW2 3315   0.398   3.110   3.665
  769SOL     OW 3316   1.111   3.638   2.099
  769SOL    HW1 3317   1.051   3.576   2.149
  769SOL    HW2 3318   1.142   3.594   2.014
  770SOL     OW 3319   1.632   3.239   1.943
  770SOL    HW1 3320   1.600   3.333   1.933
  770SOL    HW2 3321   1.556   3.176   1.931
  771SOL     OW 3322   0.464   3.605   2.185
  771SOL    HW1 3323   0.497   3.644   2.271
  771SOL    HW2 3324   0.540   3.598   2.120
  772SOL     OW 3325   1.400   1.969   2.288
  772SOL    HW1 3326   1.376   1.932   2.198
  772SOL    HW2 3327   1.499   1.985   2.292
  773SOL     OW 3328   0.249   3.647   3.103
  773SOL    HW1 3329   0.306   3.582   3.153
  773SOL    HW2 3330   0.233   3.614   3.010
  774SOL     OW 3331   0.940   3.560   2.766
  774SOL    HW1 3332   1.020   3.503   2.787
  774SOL    HW2 3333   0.891   3.520   2.689
  775SOL     OW 3334   0.382   2.562   2.342
  775SOL    HW1 3335   0.427   2.472   2.339
  775SOL    HW2 3336   0.288   2.551   2.375
  776SOL     OW 3337   1.547   2.084   3.591
  776SOL    HW1 3338   1.542   2.121   3.683
  776SOL    HW2 3339   1.475   2.015   3.579
  777SOL     OW 3340   0.614   1.984   1.979
  777SOL    HW1 3341   0.712   1.962   1.986
  777SOL    HW2 3342   0.583   1.967   1.886
  778SOL     OW 3343   0.781   2.126   3.611
  778SOL    HW1 3344   0.848   2.065   3.654
  778SOL    HW2 3345   0.708   2.145   3.676
  779SOL     OW 3346   0.888   3.376   3.057
  779SOL    HW1 3347   0.865   3.351   2.963
  779SOL    HW2 3348   0.949   3.307   3.096
  780SOL     OW 3349   1.351   2.452   3.295
  780SOL    HW1 3350   1.379   2.409   3.380
  780SOL    HW2 3351   1.376   2.548   3.296
  781SOL     OW 3352   0.803   3.264   2.786
  781SOL    HW1 3353   0.893   3.278   2.744
  781SOL    HW2 3354   0.732   3.266   2.715
  782SOL     OW 3355   0.922   2.365   2.761
  782SOL    HW1 3356   0.897   2.356   2.665
  782SOL    HW2 3357   0.970   2.283   2.792
  783SOL     OW 3358   0.539   1.926   2.374
  783SOL    HW1 3359   0.458   1.927   2.432
  783SOL    HW2 3360   0.542   2.009   2.319
  784SOL     OW 3361   1.434   3.050   1.903
  784SOL    HW1 3362   1.466   2.974   1.960
  784SOL    HW2 3363   1.342   3.077   1.933
  785SOL     OW 3364   0.297   1.897   2.033
  785SOL    HW1 3365   0.346   1.981   2.012
  785SOL    HW2 3366   0.359   1.832   2.078
  786SOL     OW 3367   0.935   2.098   2.342
  786SOL    HW1 3368   0.887   2.139   2.264
  786SOL    HW2 3369   1.034   2.096   2.323
  787SOL     OW 3370   1.076   2.545   3.326
  787SOL    HW1 3371   0.996   2.484   3.329
  787SOL    HW2 3372   1.157   2.492   3.302
  788SOL     OW 3373   1.227   3.432   2.655
  788SOL    HW1 3374   1.248   3.506   2.590
  788SOL    HW2 3375   1.295   3.432   2.728
  789SOL     OW 3376   0.459   3.014   2.603
  789SOL    HW1 3377   0.388   2.987   2.668
  789SOL    HW2 3378   0.433   2.986   2.510
  790SOL     OW 3379   1.271   3.659   2.453
  790SOL    HW1 3380   1.315   3.723   2.389
  790SOL    HW2 3381   1.221   3.711   2.523
  791SOL     OW 3382   1.032   2.411   1.878
  791SOL    HW1 3383   0.991   2.493   1.839
  791SOL    HW2 3384   1.096   2.437   1.951
  792SOL     OW 3385   0.078   2.418   3.248
  792SOL    HW1 3386   0.170   2.417   3.207
  792SOL    HW2 3387   0.072   2.492   3.315
  793SOL     OW 3388   0.866   2.316   2.504
  793SOL    HW1 3389   0.834   2.388   2.442
  793SOL    HW2 3390   0.890   2.235   2.451
  794SOL     OW 3391   1.017   1.901   2.615
  794SOL    HW1 3392   0.945   1.906   2.546
  794SOL    HW2 3393   0.993   1.832   2.684
  795SOL     OW 3394   1.429   3.035   2.729
  795SOL    HW1 3395   1.374   2.951   2.722
  795SOL    HW2 3396   1.455   3.064   2.637
  796SOL     OW 3397   1.466   2.452   2.854
  796SOL    HW1 3398   1.436   2.357   2.861
  796SOL    HW2 3399   1.539   2.468   2.920
  797SOL     OW 3400   1.857   2.695   2.239
  797SOL    HW1 3401   1.899   2.631   2.303
  797SOL    HW2 3402   1.819   2.644   2.161
  798SOL     OW 3403   0.488   3.247   2.036
  798SOL    HW1 3404   0.401   3.232   2.083
  798SOL    HW2 3405   0.471   3.273   1.941
  799SOL     OW 3406   1.664   3.142   2.519
  799SOL    HW1 3407   1.763   3.150   2.533
  799SOL    HW2 3408   1.619   3.226   2.550
  800SOL     OW 3409   1.390   2.437   1.940
  800SOL    HW1 3410   1.336   2.416   2.021
  800SOL    HW2 3411   1.481   2.396   1.949
  801SOL     OW 3412   0.527   2.118   2.190
  801SOL    HW1 3413   0.554   2.059   2.115
  801SOL    HW2 3414   0.527   2.213   2.159
  802SOL     OW 3415   1.754   3.085   3.450
  802SOL    HW1 3416   1.845   3.046   3.437
  802SOL    HW2 3417   1.762   3.181   3.474
  803SOL     OW 3418   1.064   3.209   3.202
  803SOL    HW1 3419   0.984   3.186   3.257
  803SOL    HW2 3420   1.147   3.183   3.251
  804SOL     OW 3421   1.592   3.491   3.487
  804SOL    HW1 3422   1.619   3.525   3.397
  804SOL    HW2 3423   1.671   3.453   3.533
  805SOL     OW 3424   1.111   3.057   2.962
  805SOL    HW1 3425   1.071   3.101   3.043
  805SOL    HW2 3426   1.070   3.094   2.879
  806SOL     OW 3427   1.638   2.961   2.941
  806SOL    HW1 3428   1.643   3.042   3.000
  806SOL    HW2 3429   1.552   2.963   2.890
  807SOL     OW 3430   0.915   1.951   3.264
  807SOL    HW1 3431   0.940   1.931   3.169
  807SOL    HW2 3432   0.987   2.007   3.306
  808SOL     OW 3433   0.980   2.978   3.581
  808SOL    HW1 3434   0.881   2.984   3.591
  808SOL    HW2 3435   1.003   2.898   3.525
  809SOL     OW 3436   0.705   2.912   2.230
  809SOL    HW1 3437   0.691   2.919   2.329
  809SOL    HW2 3438   0.789   2.861   2.212
  810SOL     OW 3439   0.410   2.675   3.113
  810SOL    HW1 3440   0.496   2.687   3.163
  810SOL    HW2 3441   0.368   2.588   3.140
  811SOL     OW 3442   1.274   2.248   3.124
  811SOL    HW1 3443   1.295   2.322   3.188
  811SOL    HW2 3444   1.185   2.265   3.081
  812SOL     OW 3445   0.064   3.426   3.193
  812SOL    HW1 3446   0.018   3.508   3.159
  812SOL    HW2 3447   0.162   3.445   3.202
  813SOL     OW 3448   0.367   2.962   2.363
  813SOL    HW1 3449   0.360   3.045   2.307
  813SOL    HW2 3450   0.371   2.882   2.303
  814SOL     OW 3451   0.566   2.399   2.727
  814SOL    HW1 3452   0.578   2.465   2.653
  814SOL    HW2 3453   0.612   2.433   2.810
  815SOL     OW 3454   1.252   3.210   2.250
  815SOL    HW1 3455   1.302   3.287   2.290
  815SOL    HW2 3456   1.157   3.212   2.282
  816SOL     OW 3457   1.272   3.307   3.004
  816SOL    HW1 3458   1.319   3.320   3.091
  816SOL    HW2 3459   1.206   3.233   3.013
  817SOL     OW 3460   1.582   2.501   2.334
  817SOL    HW1 3461   1.551   2.562   2.407
  817SOL    HW2 3462   1.632   2.553   2.265
  818SOL     OW 3463   0.354   3.372   3.191
  818SOL    HW1 3464   0.333   3.328   3.104
  818SOL    HW2 3465   0.451   3.398   3.194
  819SOL     OW 3466   0.402   2.613   3.460
  819SOL    HW1 3467   0.470   2.668   3.413
  819SOL    HW2 3468   0.442   2.525   3.487
  820SOL     OW 3469   1.587   2.641   3.532
  820SOL    HW1 3470   1.495   2.679   3.527
  820SOL    HW2 3471   1.647   2.688   3.467
  821SOL     OW 3472   1.013   1.967   3.632
  821SOL    HW1 3473   1.019   2.052   3.580
  821SOL    HW2 3474   1.045   1.891   3.575
  822SOL     OW 3475   0.504   1.912   3.602
  822SOL    HW1 3476   0.462   1.855   3.532
  822SOL    HW2 3477   0.438   1.981   3.634
  823SOL     OW 3478   0.573   2.732   2.891
  823SOL    HW1 3479   0.617   2.821   2.882
  823SOL    HW2 3480   0.510   2.732   2.968
  824SOL     OW 3481   1.360   2.724   2.907
  824SOL    HW1 3482   1.285   2.724   2.841
  824SOL    HW2 3483   1.397   2.632   2.916
  825SOL     OW 3484   1.209   2.387   2.137
  825SOL    HW1 3485   1.222   2.303   2.191
  825SOL    HW2 3486   1.180   2.461   2.197
  826SOL     OW 3487   0.037   3.172   3.144
  826SOL    HW1 3488   0.090   3.123   3.212
  826SOL    HW2 3489   0.059   3.270   3.149
  827SOL     OW 3490   0.732   2.496   2.926
  827SOL    HW1 3491   0.791   2.470   2.850
  827SOL    HW2 3492   0.704   2.592   2.915
  828SOL     OW 3493   1.728   2.797   3.716
  828SOL    HW1 3494   1.682   2.790   3.627
  828SOL    HW2 3495   1.666   2.841   3.782
  829SOL     OW 3496   1.622   2.229   2.236
  829SOL    HW1 3497   1.624   2.153   2.300
  829SOL    HW2 3498   1.574   2.306   2.276
  830SOL     OW 3499   1.023   2.628   2.828
  830SOL    HW1 3500   1.038   2.649   2.924
  830SOL    HW2 3501   0.993   2.533   2.819
  831SOL     OW 3502   0.980   3.435   3.562
  831SOL    HW1 3503   0.960   3.479   3.474
  831SOL    HW2 3504   1.019   3.344   3.546
  832SOL     OW 3505   1.859   3.380   3.467
  832SOL    HW1 3506   1.873   3.407   3.372
  832SOL    HW2 3507   1.942   3.402   3.520
  833SOL     OW 3508   0.350   2.760   3.666
  833SOL    HW1 3509   0.426   2.804   3.714
  833SOL    HW2 3510   0.385   2.713   3.584
  834SOL     OW 3511   1.540   2.136   1.987
  834SOL    HW1 3512   1.479   2.061   2.010
  834SOL    HW2 3513   1.562   2.188   2.070
  835SOL     OW 3514   1.303   2.700   1.904
  835SOL    HW1 3515   1.337   2.607   1.919
  835SOL    HW2 3516   1.321   2.727   1.809
  836SOL     OW 3517   1.068   3.195   2.711
  836SOL    HW1 3518   1.075   3.111   2.656
  836SOL    HW2 3519   1.130   3.264   2.675
  837SOL     OW 3520   0.319   2.672   2.811
  837SOL    HW1 3521   0.412   2.708   2.816
  837SOL    HW2 3522   0.313   2.587   2.863
  838SOL     OW 3523   0.339   2.371   2.868
  838SOL    HW1 3524   0.287   2.288   2.851
  838SOL    HW2 3525   0.416   2.376   2.804
  839SOL     OW 3526   1.138   2.242   3.540
  839SOL    HW1 3527   1.093   2.305   3.604
  839SOL    HW2 3528   1.231   2.273   3.523
  840SOL     OW 3529   1.160   2.069   3.339
  840SOL    HW1 3530   1.160   2.133   3.416
  840SOL    HW2 3531   1.188   2.117   3.256
  841SOL     OW 3532   0.008   3.188   2.062
  841SOL    HW1 3533  -0.085   3.209   2.031
  841SOL    HW2 3534   0.018   3.089   2.075
  842SOL     OW 3535   0.088   3.663   2.789
  842SOL    HW1 3536   0.046   3.577   2.762
  842SOL    HW2 3537   0.182   3.666   2.755
  843SOL     OW 3538   0.504   3.430   2.772
  843SOL    HW1 3539   0.570   3.504   2.781
  843SOL    HW2 3540   0.548   3.351   2.730
  844SOL     OW 3541   1.002   2.658   3.100
  844SOL    HW1 3542   1.043   2.626   3.186
  844SOL    HW2 3543   0.906   2.631   3.097
  845SOL     OW 3544   0.040   2.406   2.976
  845SOL    HW1 3545   0.125   2.373   2.935
  845SOL    HW2 3546   0.053   2.421   3.074
  846SOL     OW 3547   0.189   2.382   3.584
  846SOL    HW1 3548   0.248   2.342   3.514
  846SOL    HW2 3549   0.131   2.453   3.543
  847SOL     OW 3550   1.369   2.812   3.522
  847SOL    HW1 3551   1.408   2.901   3.542
  847SOL    HW2 3552   1.379   2.792   3.425
  848SOL     OW 3553   0.815   2.434   2.187
  848SOL    HW1 3554   0.822   2.345   2.141
  848SOL    HW2 3555   0.721   2.468   2.179
  849SOL     OW 3556   1.657   2.466   3.068
  849SOL    HW1 3557   1.619   2.397   3.130
  849SOL    HW2 3558   1.739   2.430   3.024
  850SOL     OW 3559   0.252   3.426   3.606
  850SOL    HW1 3560   0.222   3.483   3.682
  850SOL    HW2 3561   0.245   3.329   3.632
  851SOL     OW 3562   0.671   2.326   3.131
  851SOL    HW1 3563   0.637   2.237   3.101
  851SOL    HW2 3564   0.697   2.380   3.051
  852SOL     OW 3565   0.930   3.540   3.327
  852SOL    HW1 3566   0.906   3.522   3.232
  852SOL    HW2 3567   0.960   3.634   3.337
  853SOL     OW 3568   0.473   2.362   2.053
  853SOL    HW1 3569   0.534   2.442   2.057
  853SOL    HW2 3570   0.378   2.393   2.060
  854SOL     OW 3571   0.159   2.999   3.328
  854SOL    HW1 3572   0.181   2.938   3.404
  854SOL    HW2 3573   0.169   2.950   3.242
  855SOL     OW 3574   1.347   2.921   3.096
  855SOL    HW1 3575   1.371   2.858   3.022
  855SOL    HW2 3576   1.257   2.961   3.078
  856SOL     OW 3577   1.302   2.717   2.171
  856SOL    HW1 3578   1.216   2.686   2.213
  856SOL    HW2 3579   1.298   2.703   2.072
  857SOL     OW 3580   1.759   3.609   3.016
  857SOL    HW1 3581   1.820   3.639   2.943
  857SOL    HW2 3582   1.721   3.520   2.994
  858SOL     OW 3583   1.252   3.593   2.990
  858SOL    HW1 3584   1.336   3.598   2.936
  858SOL    HW2 3585   1.229   3.497   3.008
  859SOL     OW 3586   0.083   3.120   2.884
  859SOL    HW1 3587   0.078   3.119   2.984
  859SOL    HW2 3588   0.000   3.079   2.846
  860SOL     OW 3589   0.688   3.524   3.578
  860SOL    HW1 3590   0.632   3.605   3.587
  860SOL    HW2 3591   0.740   3.528   3.492
  861SOL     OW 3592   1.388   3.435   2.339
  861SOL    HW1 3593   1.455   3.447   2.265
  861SOL    HW2 3594   1.348   3.524   2.362
  862SOL     OW 3595   0.130   3.656   3.713
  862SOL    HW1 3596   0.089   3.582   3.766
  862SOL    HW2 3597   0.194   3.707   3.771
  863SOL     OW 3598   1.280   2.789   2.534
  863SOL    HW1 3599   1.340   2.708   2.536
  863SOL    HW2 3600   1.320   2.858   2.474
  864SOL     OW 3601   0.830   3.135   3.284
  864SOL    HW1 3602   0.825   3.168   3.379
  864SOL    HW2 3603   0.744   3.154   3.238
  865SOL     OW 3604   0.672   3.478   2.016
  865SOL    HW1 3605   0.681   3.488   1.917
  865SOL    HW2 3606   0.632   3.389   2.037
  866SOL     OW 3607   1.650   3.582   3.256
  866SOL    HW1 3608   1.703   3.592   3.172
  866SOL    HW2 3609   1.623   3.672   3.290
  867SOL     OW 3610   1.194   3.474   1.893
  867SOL    HW1 3611   1.200   3.381   1.930
  867SOL    HW2 3612   1.135   3.474   1.813
  868SOL     OW 3613   0.822   2.864   3.234
  868SOL    HW1 3614   0.862   2.863   3.142
  868SOL    HW2 3615   0.832   2.956   3.274
  869SOL     OW 3616   0.916   2.772   2.153
  869SOL    HW1 3617   0.979   2.810   2.085
  869SOL    HW2 3618   0.956   2.689   2.192
  870SOL     OW 3619   1.504   3.469   1.906
  870SOL    HW1 3620   1.412   3.506   1.913
  870SOL    HW2 3621   1.542   3.489   1.816
  871SOL     OW 3622   0.372   3.150   3.352
  871SOL    HW1 3623   0.359   3.243   3.318
  871SOL    HW2 3624   0.288   3.098   3.339
  872SOL     OW 3625   1.614   3.154   3.151
  872SOL    HW1 3626   1.674   3.157   3.231
  872SOL    HW2 3627   1.539   3.218   3.164
  873SOL     OW 3628   1.039   2.960   2.558
  873SOL    HW1 3629   0.969   2.913   2.612
  873SOL    HW2 3630   1.098   2.892   2.515
  874SOL     OW 3631   1.014   2.098   2.833
  874SOL    HW1 3632   1.006   2.062   2.740
  874SOL    HW2 3633   1.012   2.022   2.898
  875SOL     OW 3634   0.590   3.349   2.353
  875SOL    HW1 3635   0.632   3.291   2.283
  875SOL    HW2 3636   0.546   3.428   2.309
  876SOL     OW 3637   1.709   2.247   3.243
  876SOL    HW1 3638   1.782   2.316   3.247
  876SOL    HW2 3639   1.737   2.172   3.184
  877SOL     OW 3640   0.255   3.210   2.152
  877SOL    HW1 3641   0.159   3.211   2.125
  877SOL    HW2 3642   0.267   3.263   2.236
  878SOL     OW 3643   0.105   2.875   3.588
  878SOL    HW1 3644   0.028   2.842   3.642
  878SOL    HW2 3645   0.190   2.845   3.630
  879SOL     OW 3646   0.672   2.065   3.351
  879SOL    HW1 3647   0.762   2.049   3.311
  879SOL    HW2 3648   0.680   2.070   3.450
  880SOL     OW 3649   0.075   2.207   1.895
  880SOL    HW1 3650  -0.017   2.179   1.866
  880SOL    HW2 3651   0.106   2.284   1.839
  881SOL     OW 3652   1.440   2.718   3.260
  881SOL    HW1 3653   1.383   2.770   3.197
  881SOL    HW2 3654   1.536   2.730   3.236
  882SOL     OW 3655   0.072   2.028   2.180
  882SOL    HW1 3656   0.055   2.111   2.126
  882SOL    HW2 3657   0.162   1.991   2.158
  883SOL     OW 3658   1.183   3.197   1.981
  883SOL    HW1 3659   1.084   3.186   1.983
  883SOL    HW2 3660   1.217   3.212   2.074
  884SOL     OW 3661   0.613   2.704   3.293
  884SOL    HW1 3662   0.669   2.785   3.276
  884SOL    HW2 3663   0.672   2.624   3.296
  885SOL     OW 3664   1.493   3.629   2.821
  885SOL    HW1 3665   1.526   3.693   2.752
  885SOL    HW2 3666   1.559   3.623   2.896
  886SOL     OW 3667   0.716   2.427   3.570
  886SOL    HW1 3668   0.735   2.492   3.644
  886SOL    HW2 3669   0.776   2.347   3.579
  887SOL     OW 3670   1.450   3.082   3.495
  887SOL    HW1 3671   1.441   3.072   3.594
  887SOL    HW2 3672   1.546   3.075   3.469
  888SOL     OW 3673   0.390   3.603   3.422
  888SOL    HW1 3674   0.299   3.644   3.420
  888SOL    HW2 3675   0.383   3.509   3.454
  889SOL     OW 3676   1.674   2.745   3.116
  889SOL    HW1 3677   1.647   2.656   3.079
  889SOL    HW2 3678   1.675   2.813   3.043
  890SOL     OW 3679   1.225   2.187   2.311
  890SOL    HW1 3680   1.290   2.113   2.300
  890SOL    HW2 3681   1.245   2.237   2.395
  891SOL     OW 3682   0.594   2.607   2.514
  891SOL    HW1 3683   0.644   2.692   2.495
  891SOL    HW2 3684   0.506   2.609   2.466
  892SOL     OW 3685   1.777   2.204   3.504
  892SOL    HW1 3686   1.760   2.235   3.410
  892SOL    HW2 3687   1.693   2.167   3.542
  893SOL     OW 3688   1.730   2.796   3.379
  893SOL    HW1 3689   1.768   2.887   3.394
  893SOL    HW2 3690   1.722   2.779   3.280
  894SOL     OW 3691   0.859   3.236   1.878
  894SOL    HW1 3692   0.813   3.251   1.966
  894SOL    HW2 3693   0.903   3.321   1.848
  895SOL     OW 3694   0.661   3.652   2.815
  895SOL    HW1 3695   0.615   3.740   2.802
  895SOL    HW2 3696   0.760   3.664   2.808
  896SOL     OW 3697   0.859   2.818   2.723
  896SOL    HW1 3698   0.913   2.749   2.771
  896SOL    HW2 3699   0.827   2.887   2.789
  897SOL     OW 3700   1.083   2.846   1.949
  897SOL    HW1 3701   1.060   2.899   1.867
  897SOL    HW2 3702   1.164   2.790   1.930
  898SOL     OW 3703   1.861   3.431   2.713
  898SOL    HW1 3704   1.790   3.419   2.643
  898SOL    HW2 3705   1.862   3.352   2.773
  899SOL     OW 3706   0.221   3.176   3.706
  899SOL    HW1 3707   0.156   3.103   3.685
  899SOL    HW2 3708   0.225   3.190   3.804
  900SOL     OW 3709   0.079   3.102   2.515
  900SOL    HW1 3710   0.078   3.055   2.603
  900SOL    HW2 3711   0.161   3.074   2.464
  901SOL     OW 3712   0.672   3.253   3.486
  901SOL    HW1 3713   0.594   3.203   3.524
  901SOL    HW2 3714   0.669   3.348   3.517
  902SOL     OW 3715   1.705   3.349   2.966
  902SOL    HW1 3716   1.612   3.324   2.939
  902SOL    HW2 3717   1.731   3.299   3.048
  903SOL     OW 3718   0.812   3.448   2.549
  903SOL    HW1 3719   0.844   3.458   2.455
  903SOL    HW2 3720   0.733   3.386   2.551
  904SOL     OW 3721   1.001   1.896   3.016
  904SOL    HW1 3722   0.938   1.824   2.985
  904SOL    HW2 3723   1.094   1.860   3.016
  905SOL     OW 3724   0.770   3.192   2.163
  905SOL    HW1 3725   0.724   3.105   2.180
  905SOL    HW2 3726   0.861   3.189   2.204
  906SOL     OW 3727   0.618   3.429   3.146
  906SOL    HW1 3728   0.613   3.511   3.203
  906SOL    HW2 3729   0.707   3.426   3.101
  907SOL     OW 3730   1.352   1.914   2.030
  907SOL    HW1 3731   1.387   1.873   1.946
  907SOL    HW2 3732   1.262   1.876   2.050
  908SOL     OW 3733   1.300   2.315   2.553
  908SOL    HW1 3734   1.241   2.395   2.557
  908SOL    HW2 3735   1.315   2.280   2.646
  909SOL     OW 3736   0.039   2.939   2.162
  909SOL    HW1 3737   0.138   2.928   2.153
  909SOL    HW2 3738  -0.001   2.853   2.194
  910SOL     OW 3739   0.875   3.508   2.199
  910SOL    HW1 3740   0.798   3.473   2.145
  910SOL    HW2 3741   0.843   3.579   2.261
  911SOL     OW 3742   0.230   2.490   3.837
  911SOL    HW1 3743   0.137   2.488   3.874
  911SOL    HW2 3744   0.231   2.451   3.745
  912SOL     OW 3745   0.225   2.137   4.720
  912SOL    HW1 3746   0.260   2.120   4.812
  912SOL    HW2 3747   0.137   2.092   4.708
  913SOL     OW 3748   0.569   3.137   4.889
  913SOL    HW1 3749   0.476   3.130   4.852
  913SOL    HW2 3750   0.580   3.226   4.933
  914SOL     OW 3751   1.555   3.373   4.427
  914SOL    HW1 3752   1.498   3.357   4.508
  914SOL    HW2 3753   1.496   3.383   4.347
  915SOL     OW 3754   1.135   2.565   4.441
  915SOL    HW1 3755   1.192   2.643   4.416
  915SOL    HW2 3756   1.075   2.591   4.517
  916SOL     OW 3757   1.755   2.469   3.955
  916SOL    HW1 3758   1.743   2.456   3.856
  916SOL    HW2 3759   1.725   2.388   4.004
  917SOL     OW 3760   0.768   3.006   4.747
  917SOL    HW1 3761   0.690   3.023   4.807
  917SOL    HW2 3762   0.802   3.093   4.711
  918SOL     OW 3763   0.685   2.874   4.389
  918SOL    HW1 3764   0.754   2.858   4.459
  918SOL    HW2 3765   0.612   2.931   4.427
  919SOL     OW 3766   0.335   3.297   4.785
  919SOL    HW1 3767   0.257   3.266   4.732
  919SOL    HW2 3768   0.393   3.355   4.728
  920SOL     OW 3769   1.603   2.309   4.461
  920SOL    HW1 3770   1.529   2.355   4.411
  920SOL    HW2 3771   1.654   2.377   4.514
  921SOL     OW 3772   0.231   3.575   4.207
  921SOL    HW1 3773   0.265   3.652   4.261
  921SOL    HW2 3774   0.275   3.575   4.117
  922SOL     OW 3775   0.230   3.296   4.262
  922SOL    HW1 3776   0.204   3.392   4.262
  922SOL    HW2 3777   0.159   3.242   4.307
  923SOL     OW 3778   0.240   2.953   4.610
  923SOL    HW1 3779   0.254   2.869   4.662
  923SOL    HW2 3780   0.185   3.017   4.665
  924SOL     OW 3781   0.606   2.826   3.847
  924SOL    HW1 3782   0.613   2.910   3.793
  924SOL    HW2 3783   0.652   2.839   3.935
  925SOL     OW 3784   0.122   2.505   4.287
  925SOL    HW1 3785   0.077   2.417   4.304
  925SOL    HW2 3786   0.121   2.559   4.371
  926SOL     OW 3787   1.842   3.629   4.083
  926SOL    HW1 3788   1.896   3.600   4.163
  926SOL    HW2 3789   1.872   3.719   4.054
  927SOL     OW 3790   0.027   3.458   3.841
  927SOL    HW1 3791   0.008   3.362   3.862
  927SOL    HW2 3792  -0.006   3.516   3.916
  928SOL     OW 3793   1.689   2.784   4.336
  928SOL    HW1 3794   1.784   2.755   4.344
  928SOL    HW2 3795   1.681   2.849   4.261
  929SOL     OW 3796   1.641   2.970   4.156
  929SOL    HW1 3797   1.727   2.972   4.104
  929SOL    HW2 3798   1.655   3.017   4.244
  930SOL     OW 3799   0.613   3.227   4.450
  930SOL    HW1 3800   0.564   3.140   4.459
  930SOL    HW2 3801   0.590   3.270   4.363
  931SOL     OW 3802   0.809   1.866   4.226
  931SOL    HW1 3803   0.849   1.957   4.217
  931SOL    HW2 3804   0.709   1.874   4.232
  932SOL     OW 3805   0.197   2.838   4.988
  932SOL    HW1 3806   0.286   2.793   4.974
  932SOL    HW2 3807   0.124   2.773   4.969
  933SOL     OW 3808   1.525   2.861   3.914
  933SOL    HW1 3809   1.462   2.785   3.927
  933SOL    HW2 3810   1.573   2.879   4.000
  934SOL     OW 3811   1.466   3.279   4.677
  934SOL    HW1 3812   1.407   3.285   4.757
  934SOL    HW2 3813   1.451   3.191   4.631
  935SOL     OW 3814   1.667   3.576   4.296
  935SOL    HW1 3815   1.626   3.553   4.208
  935SOL    HW2 3816   1.649   3.502   4.361
  936SOL     OW 3817   0.598   2.591   3.994
  936SOL    HW1 3818   0.622   2.660   3.926
  936SOL    HW2 3819   0.520   2.624   4.048
  937SOL     OW 3820   1.281   2.207   4.668
  937SOL    HW1 3821   1.195   2.157   4.655
  937SOL    HW2 3822   1.343   2.153   4.724
  938SOL     OW 3823   1.576   3.524   4.031
  938SOL    HW1 3824   1.665   3.570   4.034
  938SOL    HW2 3825   1.555   3.500   3.936
  939SOL     OW 3826   0.991   2.272   4.966
  939SOL    HW1 3827   0.914   2.306   5.020
  939SOL    HW2 3828   0.957   2.221   4.887
  940SOL     OW 3829   1.041   2.563   4.153
  940SOL    HW1 3830   1.067   2.559   4.249
  940SOL    HW2 3831   0.956   2.512   4.139
  941SOL     OW 3832   0.076   2.673   4.513
  941SOL    HW1 3833   0.175   2.661   4.522
  941SOL    HW2 3834   0.052   2.768   4.534
  942SOL     OW 3835   0.130   3.683   5.295
  942SOL    HW1 3836   0.120   3.668   5.394
  942SOL    HW2 3837   0.044   3.719   5.259
  943SOL     OW 3838   0.865   2.210   3.919
  943SOL    HW1 3839   0.924   2.273   3.870
  943SOL    HW2 3840   0.884   2.116   3.890
  944SOL     OW 3841   1.362   3.006   4.269
  944SOL    HW1 3842   1.445   2.977   4.221
  944SOL    HW2 3843   1.313   3.073   4.213
  945SOL     OW 3844   0.550   2.058   4.609
  945SOL    HW1 3845   0.545   2.053   4.709
  945SOL    HW2 3846   0.552   2.154   4.580
  946SOL     OW 3847   1.008   3.318   4.201
  946SOL    HW1 3848   0.962   3.390   4.149
  946SOL    HW2 3849   1.004   3.338   4.299
  947SOL     OW 3850   0.351   3.663   4.577
  947SOL    HW1 3851   0.401   3.577   4.583
  947SOL    HW2 3852   0.416   3.740   4.574
  948SOL     OW 3853   1.795   2.928   4.597
  948SOL    HW1 3854   1.733   2.913   4.521
  948SOL    HW2 3855   1.743   2.939   4.682
  949SOL     OW 3856   0.321   2.805   3.966
  949SOL    HW1 3857   0.403   2.844   3.924
  949SOL    HW2 3858   0.294   2.723   3.917
  950SOL     OW 3859   1.458   2.597   4.452
  950SOL    HW1 3860   1.453   2.532   4.527
  950SOL    HW2 3861   1.538   2.656   4.465
  951SOL     OW 3862   1.111   3.638   3.961
  951SOL    HW1 3863   1.051   3.576   4.011
  951SOL    HW2 3864   1.142   3.594   3.876
  952SOL     OW 3865   1.632   3.239   3.805
  952SOL    HW1 3866   1.600   3.333   3.795
  952SOL    HW2 3867   1.556   3.176   3.793
  953SOL     OW 3868   0.464   3.605   4.047
  953SOL    HW1 3869   0.497   3.644   4.133
  953SOL    HW2 3870   0.540   3.598   3.982
  954SOL     OW 3871   1.400   1.969   4.150
  954SOL    HW1 3872   1.376   1.932   4.060
  954SOL    HW2 3873   1.499   1.985   4.154
  955SOL     OW 3874   0.249   3.647   4.965
  955SOL    HW1 3875   0.306   3.582   5.015
  955SOL    HW2 3876   0.233   3.614   4.872
  956SOL     OW 3877   0.940   3.560   4.628
  956SOL    HW1 3878   1.020   3.503   4.649
  956SOL    HW2 3879   0.891   3.520   4.551
  957SOL     OW 3880   0.382   2.562   4.204
  957SOL    HW1 3881   0.427   2.472   4.201
  957SOL    HW2 3882   0.288   2.551   4.237
  958SOL     OW 3883   0.614   1.984   3.841
  958SOL    HW1 3884   0.712   1.962   3.848
  958SOL    HW2 3885   0.583   1.967   3.748
  959SOL     OW 3886   0.803   3.264   4.648
  959SOL    HW1 3887   0.893   3.278   4.606
  959SOL    HW2 3888   0.732   3.266   4.577
  960SOL     OW 3889   0.922   2.365   4.623
  960SOL    HW1 3890   0.897   2.356   4.527
  960SOL    HW2 3891   0.970   2.283   4.654
  961SOL     OW 3892   0.539   1.926   4.236
  961SOL    HW1 3893   0.458   1.927   4.294
  961SOL    HW2 3894   0.542   2.009   4.181
  962SOL     OW 3895   1.434   3.050   3.765
  962SOL    HW1 3896   1.466   2.974   3.822
  962SOL    HW2 3897   1.342   3.077   3.795
  963SOL     OW 3898   0.297   1.897   3.895
  963SOL    HW1 3899   0.346   1.981   3.874
  963SOL    HW2 3900   0.359   1.832   3.940
  964SOL     OW 3901   0.935   2.098   4.204
  964SOL    HW1 3902   0.887   2.139   4.126
  964SOL    HW2 3903   1.034   2.096   4.185
  965SOL     OW 3904   1.227   3.432   4.517
  965SOL    HW1 3905   1.248   3.506   4.452
  965SOL    HW2 3906   1.295   3.432   4.590
  966SOL     OW 3907   0.459   3.014   4.465
  966SOL    HW1 3908   0.388   2.987   4.530
  966SOL    HW2 3909   0.433   2.986   4.372
  967SOL     OW 3910   1.271   3.659   4.315
  967SOL    HW1 3911   1.315   3.723   4.251
  967SOL    HW2 3912   1.221   3.711   4.385
  968SOL     OW 3913   1.032   2.411   3.740
  968SOL    HW1 3914   0.991   2.493   3.701
  968SOL    HW2 3915   1.096   2.437   3.813
  969SOL     OW 3916   0.561   2.084   4.871
  969SOL    HW1 3917   0.599   2.000   4.908
  969SOL    HW2 3918   0.473   2.103   4.915
  970SOL     OW 3919   0.866   2.316   4.366
  970SOL    HW1 3920   0.834   2.388   4.304
  970SOL    HW2 3921   0.890   2.235   4.313
  971SOL     OW 3922   1.017   1.901   4.477
  971SOL    HW1 3923   0.945   1.906   4.408
  971SOL    HW2 3924   0.993   1.832   4.546
  972SOL     OW 3925   1.429   3.035   4.591
  972SOL    HW1 3926   1.374   2.951   4.584
  972SOL    HW2 3927   1.455   3.064   4.499
  973SOL     OW 3928   1.466   2.452   4.716
  973SOL    HW1 3929   1.436   2.357   4.723
  973SOL    HW2 3930   1.539   2.468   4.782
  974SOL     OW 3931   1.857   2.695   4.101
  974SOL    HW1 3932   1.899   2.631   4.165
  974SOL    HW2 3933   1.819   2.644   4.023
  975SOL     OW 3934   0.488   3.247   3.898
  975SOL    HW1 3935   0.401   3.232   3.945
  975SOL    HW2 3936   0.471   3.273   3.803
  976SOL     OW 3937   1.664   3.142   4.381
  976SOL    HW1 3938   1.763   3.150   4.395
  976SOL    HW2 3939   1.619   3.226   4.412
  977SOL     OW 3940   1.390   2.437   3.802
  977SOL    HW1 3941   1.336   2.416   3.883
  977SOL    HW2 3942   1.481   2.396   3.811
  978SOL     OW 3943   0.527   2.118   4.052
  978SOL    HW1 3944   0.554   2.059   3.977
  978SOL    HW2 3945   0.527   2.213   4.021
  979SOL     OW 3946   1.111   3.057   4.824
  979SOL    HW1 3947   1.071   3.101   4.905
  979SOL    HW2 3948   1.070   3.094   4.741
  980SOL     OW 3949   1.638   2.961   4.803
  980SOL    HW1 3950   1.643   3.042   4.862
  980SOL    HW2 3951   1.552   2.963   4.752
  981SOL     OW 3952   0.705   2.912   4.092
  981SOL    HW1 3953   0.691   2.919   4.191
  981SOL    HW2 3954   0.789   2.861   4.074
  982SOL     OW 3955   0.410   2.675   4.975
  982SOL    HW1 3956   0.496   2.687   5.025
  982SOL    HW2 3957   0.368   2.588   5.002
  983SOL     OW 3958   1.274   2.248   4.986
  983SOL    HW1 3959   1.295   2.322   5.050
  983SOL    HW2 3960   1.185   2.265   4.943
  984SOL     OW 3961   0.367   2.962   4.225
  984SOL    HW1 3962   0.360   3.045   4.169
  984SOL    HW2 3963   0.371   2.882   4.165
  985SOL     OW 3964   0.566   2.399   4.589
  985SOL    HW1 3965   0.578   2.465   4.515
  985SOL    HW2 3966   0.612   2.433   4.672
  986SOL     OW 3967   1.252   3.210   4.112
  986SOL    HW1 3968   1.302   3.287   4.152
  986SOL    HW2 3969   1.157   3.212   4.144
  987SOL     OW 3970   1.272   3.307   4.866
  987SOL    HW1 3971   1.319   3.320   4.953
  987SOL    HW2 3972   1.206   3.233   4.875
  988SOL     OW 3973   1.582   2.501   4.196
  988SOL    HW1 3974   1.551   2.562   4.269
  988SOL    HW2 3975   1.632   2.553   4.127
  989SOL     OW 3976   0.354   3.372   5.053
  989SOL    HW1 3977   0.333   3.328   4.966
  989SOL    HW2 3978   0.451   3.398   5.056
  990SOL     OW 3979   0.573   2.732   4.753
  990SOL    HW1 3980   0.617   2.821   4.744
  990SOL    HW2 3981   0.510   2.732   4.830
  991SOL     OW 3982   1.360   2.724   4.769
  991SOL    HW1 3983   1.285   2.724   4.703
  991SOL    HW2 3984   1.397   2.632   4.778
  992SOL     OW 3985   1.209   2.387   3.999
  992SOL    HW1 3986   1.222   2.303   4.053
  992SOL    HW2 3987   1.180   2.461   4.059
  993SOL     OW 3988   0.307   2.075   4.955
  993SOL    HW1 3989   0.284   2.112   5.045
  993SOL    HW2 3990   0.277   1.980   4.949
  994SOL     OW 3991   0.037   3.172   5.006
  994SOL    HW1 3992   0.090   3.123   5.074
  994SOL    HW2 3993   0.059   3.270   5.011
  995SOL     OW 3994   0.732   2.496   4.788
  995SOL    HW1 3995   0.791   2.470   4.712
  995SOL    HW2 3996   0.704   2.592   4.777
  996SOL     OW 3997   0.307   1.925   4.342
  996SOL    HW1 3998   0.296   2.019   4.375
  996SOL    HW2 3999   0.302   1.862   4.419
  997SOL     OW 4000   1.622   2.229   4.098
  997SOL    HW1 4001   1.624   2.153   4.162
  997SOL    HW2 4002   1.574   2.306   4.138
  998SOL     OW 4003   1.023   2.628   4.690
  998SOL    HW1 4004   1.038   2.649   4.786
  998SOL    HW2 4005   0.993   2.533   4.681
  999SOL     OW 4006   1.540   2.136   3.849
  999SOL    HW1 4007   1.479   2.061   3.872
  999SOL    HW2 4008   1.562   2.188   3.932
 1000SOL     OW 4009   1.303   2.700   3.766
 1000SOL    HW1 4010   1.337   2.607   3.781
 1000SOL    HW2 4011   1.321   2.727   3.671
 1001SOL     OW 4012   1.068   3.195   4.573
 1001SOL    HW1 4013   1.075   3.111   4.518
 1001SOL    HW2 4014   1.130   3.264   4.537
 1002SOL     OW 4015   0.319   2.672   4.673
 1002SOL    HW1 4016   0.412   2.708   4.678
 1002SOL    HW2 4017   0.313   2.587   4.725
 1003SOL     OW 4018   0.339   2.371   4.730
 1003SOL    HW1 4019   0.287   2.288   4.713
 1003SOL    HW2 4020   0.416   2.376   4.666
 1004SOL     OW 4021   1.160   2.069   5.201
 1004SOL    HW1 4022   1.160   2.133   5.278
 1004SOL    HW2 4023   1.188   2.117   5.118
 1005SOL     OW 4024   0.008   3.188   3.924
 1005SOL    HW1 4025  -0.085   3.209   3.893
 1005SOL    HW2 4026   0.018   3.089   3.937
 1006SOL     OW 4027   0.088   3.663   4.651
 1006SOL    HW1 4028   0.046   3.577   4.624
 1006SOL    HW2 4029   0.182   3.666   4.617
 1007SOL     OW 4030   0.504   3.430   4.634
 1007SOL    HW1 4031   0.570   3.504   4.643
 1007SOL    HW2 4032   0.548   3.351   4.592
 1008SOL     OW 4033   1.002   2.658   4.962
 1008SOL    HW1 4034   1.043   2.626   5.048
 1008SOL    HW2 4035   0.906   2.631   4.959
 1009SOL     OW 4036   0.815   2.434   4.049
 1009SOL    HW1 4037   0.822   2.345   4.003
 1009SOL    HW2 4038   0.721   2.468   4.041
 1010SOL     OW 4039   1.657   2.466   4.930
 1010SOL    HW1 4040   1.619   2.397   4.992
 1010SOL    HW2 4041   1.739   2.430   4.886
 1011SOL     OW 4042   0.671   2.326   4.993
 1011SOL    HW1 4043   0.637   2.237   4.963
 1011SOL    HW2 4044   0.697   2.380   4.913
 1012SOL     OW 4045   0.473   2.362   3.915
 1012SOL    HW1 4046   0.534   2.442   3.919
 1012SOL    HW2 4047   0.378   2.393   3.922
 1013SOL     OW 4048   1.347   2.921   4.958
 1013SOL    HW1 4049   1.371   2.858   4.884
 1013SOL    HW2 4050   1.257   2.961   4.940
 1014SOL     OW 4051   1.302   2.717   4.033
 1014SOL    HW1 4052   1.216   2.686   4.075
 1014SOL    HW2 4053   1.298   2.703   3.934
 1015SOL     OW 4054   1.759   3.609   4.878
 1015SOL    HW1 4055   1.820   3.639   4.805
 1015SOL    HW2 4056   1.721   3.520   4.856
 1016SOL     OW 4057   1.252   3.593   4.852
 1016SOL    HW1 4058   1.336   3.598   4.798
 1016SOL    HW2 4059   1.229   3.497   4.870
 1017SOL     OW 4060   0.083   3.120   4.746
 1017SOL    HW1 4061   0.078   3.119   4.846
 1017SOL    HW2 4062   0.000   3.079   4.708
 1018SOL     OW 4063   1.726   1.997   4.247
 1018SOL    HW1 4064   1.799   1.980   4.180
 1018SOL    HW2 4065   1.695   1.910   4.285
 1019SOL     OW 4066   1.388   3.435   4.201
 1019SOL    HW1 4067   1.455   3.447   4.127
 1019SOL    HW2 4068   1.348   3.524   4.224
 1020SOL     OW 4069   1.280   2.789   4.396
 1020SOL    HW1 4070   1.340   2.708   4.398
 1020SOL    HW2 4071   1.320   2.858   4.336
 1021SOL     OW 4072   0.672   3.478   3.878
 1021SOL    HW1 4073   0.681   3.488   3.779
 1021SOL    HW2 4074   0.632   3.389   3.899
 1022SOL     OW 4075   1.650   3.582   5.118
 1022SOL    HW1 4076   1.703   3.592   5.034
 1022SOL    HW2 4077   1.623   3.672   5.152
 1023SOL     OW 4078   1.841   2.037   4.687
 1023SOL    HW1 4079   1.880   1.952   4.651
 1023SOL    HW2 4080   1.743   2.039   4.668
 1024SOL     OW 4081   0.263   2.188   4.444
 1024SOL    HW1 4082   0.184   2.239   4.410
 1024SOL    HW2 4083   0.254   2.173   4.542
 1025SOL     OW 4084   1.194   3.474   3.755
 1025SOL    HW1 4085   1.200   3.381   3.792
 1025SOL    HW2 4086   1.135   3.474   3.675
 1026SOL     OW 4087   0.916   2.772   4.015
 1026SOL    HW1 4088   0.979   2.810   3.947
 1026SOL    HW2 4089   0.956   2.689   4.054
 1027SOL     OW 4090   1.504   3.469   3.768
 1027SOL    HW1 4091   1.412   3.506   3.775
 1027SOL    HW2 4092   1.542   3.489   3.678
 1028SOL     OW 4093   1.039   2.960   4.420
 1028SOL    HW1 4094   0.969   2.913   4.474
 1028SOL    HW2 4095   1.098   2.892   4.377
 1029SOL     OW 4096   1.014   2.098   4.695
 1029SOL    HW1 4097   1.006   2.062   4.602
 1029SOL    HW2 4098   1.012   2.022   4.760
 1030SOL     OW 4099   0.590   3.349   4.215
 1030SOL    HW1 4100   0.632   3.291   4.145
 1030SOL    HW2 4101   0.546   3.428   4.171
 1031SOL     OW 4102   1.709   2.247   5.105
 1031SOL    HW1 4103   1.782   2.316   5.109
 1031SOL    HW2 4104   1.737   2.172   5.046
 1032SOL     OW 4105   0.255   3.210   4.014
 1032SOL    HW1 4106   0.159   3.211   3.987
 1032SOL    HW2 4107   0.267   3.263   4.098
 1033SOL     OW 4108   0.075   2.207   3.757
 1033SOL    HW1 4109  -0.017   2.179   3.728
 1033SOL    HW2 4110   0.106   2.284   3.701
 1034SOL     OW 4111   1.183   3.197   3.843
 1034SOL    HW1 4112   1.084   3.186   3.845
 1034SOL    HW2 4113   1.217   3.212   3.936
 1035SOL     OW 4114   1.450   3.082   5.357
 1035SOL    HW1 4115   1.441   3.072   5.456
 1035SOL    HW2 4116   1.546   3.075   5.331
 1036SOL     OW 4117   1.674   2.745   4.978
 1036SOL    HW1 4118   1.647   2.656   4.941
 1036SOL    HW2 4119   1.675   2.813   4.905
 1037SOL     OW 4120   1.225   2.187   4.173
 1037SOL    HW1 4121   1.290   2.113   4.162
 1037SOL    HW2 4122   1.245   2.237   4.257
 1038SOL     OW 4123   0.594   2.607   4.376
 1038SOL    HW1 4124   0.644   2.692   4.357
 1038SOL    HW2 4125   0.506   2.609   4.328
 1039SOL     OW 4126   1.730   2.796   5.241
 1039SOL    HW1 4127   1.768   2.887   5.256
 1039SOL    HW2 4128   1.722   2.779   5.142
 1040SOL     OW 4129   0.859   3.236   3.740
 1040SOL    HW1 4130   0.813   3.251   3.828
 1040SOL    HW2 4131   0.903   3.321   3.710
 1041SOL     OW 4132   0.661   3.652   4.677
 1041SOL    HW1 4133   0.615   3.740   4.664
 1041SOL    HW2 4134   0.760   3.664   4.670
 1042SOL     OW 4135   0.859   2.818   4.585
 1042SOL    HW1 4136   0.913   2.749   4.633
 1042SOL    HW2 4137   0.827   2.887   4.651
 1043SOL     OW 4138   1.083   2.846   3.811
 1043SOL    HW1 4139   1.060   2.899   3.729
 1043SOL    HW2 4140   1.164   2.790   3.792
 1044SOL     OW 4141   1.861   3.431   4.575
 1044SOL    HW1 4142   1.790   3.419   4.505
 1044SOL    HW2 4143   1.862   3.352   4.635
 1045SOL     OW 4144   0.079   3.102   4.377
 1045SOL    HW1 4145   0.078   3.055   4.465
 1045SOL    HW2 4146   0.161   3.074   4.326
 1046SOL     OW 4147   1.824   2.054   4.951
 1046SOL    HW1 4148   1.820   1.964   4.995
 1046SOL    HW2 4149   1.827   2.043   4.852
 1047SOL     OW 4150   0.428   2.286   4.244
 1047SOL    HW1 4151   0.458   2.214   4.182
 1047SOL    HW2 4152   0.389   2.246   4.327
 1048SOL     OW 4153   1.705   3.349   4.828
 1048SOL    HW1 4154   1.612   3.324   4.801
 1048SOL    HW2 4155   1.731   3.299   4.910
 1049SOL     OW 4156   0.812   3.448   4.411
 1049SOL    HW1 4157   0.844   3.458   4.317
 1049SOL    HW2 4158   0.733   3.386   4.413
 1050SOL     OW 4159   1.424   2.076   4.836
 1050SOL    HW1 4160   1.476   2.011   4.891
 1050SOL    HW2 4161   1.375   2.139   4.897
 1051SOL     OW 4162   1.001   1.896   4.878
 1051SOL    HW1 4163   0.938   1.824   4.847
 1051SOL    HW2 4164   1.094   1.860   4.878
 1052SOL     OW 4165   0.770   3.192   4.025
 1052SOL    HW1 4166   0.724   3.105   4.042
 1052SOL    HW2 4167   0.861   3.189   4.066
 1053SOL     OW 4168   1.352   1.914   3.892
 1053SOL    HW1 4169   1.387   1.873   3.808
 1053SOL    HW2 4170   1.262   1.876   3.912
 1054SOL     OW 4171   1.300   2.315   4.415
 1054SOL    HW1 4172   1.241   2.395   4.419
 1054SOL    HW2 4173   1.315   2.280   4.508
 1055SOL     OW 4174   1.593   2.083   4.606
 1055SOL    HW1 4175   1.509   2.082   4.660
 1055SOL    HW2 4176   1.595   2.166   4.550
 1056SOL     OW 4177   0.039   2.939   4.024
 1056SOL    HW1 4178   0.138   2.928   4.015
 1056SOL    HW2 4179  -0.001   2.853   4.056
 1057SOL     OW 4180   0.230   4.352   0.113
 1057SOL    HW1 4181   0.137   4.350   0.150
 1057SOL    HW2 4182   0.231   4.313   0.021
 1058SOL     OW 4183   0.225   3.999   0.996
 1058SOL    HW1 4184   0.260   3.982   1.088
 1058SOL    HW2 4185   0.137   3.954   0.984
 1059SOL     OW 4186   0.569   4.999   1.165
 1059SOL    HW1 4187   0.476   4.992   1.128
 1059SOL    HW2 4188   0.580   5.088   1.209
 1060SOL     OW 4189   1.555   5.235   0.703
 1060SOL    HW1 4190   1.498   5.219   0.784
 1060SOL    HW2 4191   1.496   5.245   0.623
 1061SOL     OW 4192   1.135   4.427   0.717
 1061SOL    HW1 4193   1.192   4.505   0.692
 1061SOL    HW2 4194   1.075   4.453   0.793
 1062SOL     OW 4195   1.755   4.331   0.231
 1062SOL    HW1 4196   1.743   4.318   0.132
 1062SOL    HW2 4197   1.725   4.250   0.280
 1063SOL     OW 4198   0.768   4.868   1.023
 1063SOL    HW1 4199   0.690   4.885   1.083
 1063SOL    HW2 4200   0.802   4.955   0.987
 1064SOL     OW 4201   0.850   4.522   1.823
 1064SOL    HW1 4202   0.846   4.598   1.888
 1064SOL    HW2 4203   0.872   4.558   1.732
 1065SOL     OW 4204   0.685   4.736   0.665
 1065SOL    HW1 4205   0.754   4.720   0.735
 1065SOL    HW2 4206   0.612   4.793   0.703
 1066SOL     OW 4207   0.686   4.885   1.803
 1066SOL    HW1 4208   0.746   4.964   1.817
 1066SOL    HW2 4209   0.600   4.916   1.762
 1067SOL     OW 4210   0.335   5.159   1.061
 1067SOL    HW1 4211   0.257   5.128   1.008
 1067SOL    HW2 4212   0.393   5.217   1.004
 1068SOL     OW 4213   0.438   4.116   1.499
 1068SOL    HW1 4214   0.520   4.060   1.508
 1068SOL    HW2 4215   0.357   4.058   1.503
 1069SOL     OW 4216   1.603   4.171   0.737
 1069SOL    HW1 4217   1.529   4.217   0.687
 1069SOL    HW2 4218   1.654   4.239   0.790
 1070SOL     OW 4219   0.240   4.815   0.886
 1070SOL    HW1 4220   0.254   4.731   0.938
 1070SOL    HW2 4221   0.185   4.879   0.941
 1071SOL     OW 4222   0.606   4.688   0.123
 1071SOL    HW1 4223   0.613   4.772   0.069
 1071SOL    HW2 4224   0.652   4.701   0.211
 1072SOL     OW 4225   1.594   3.838   1.480
 1072SOL    HW1 4226   1.576   3.905   1.408
 1072SOL    HW2 4227   1.591   3.884   1.569
 1073SOL     OW 4228   0.122   4.367   0.563
 1073SOL    HW1 4229   0.077   4.279   0.580
 1073SOL    HW2 4230   0.121   4.421   0.647
 1074SOL     OW 4231   1.689   4.646   0.612
 1074SOL    HW1 4232   1.784   4.617   0.620
 1074SOL    HW2 4233   1.681   4.711   0.537
 1075SOL     OW 4234   1.641   4.832   0.432
 1075SOL    HW1 4235   1.727   4.834   0.380
 1075SOL    HW2 4236   1.655   4.879   0.520
 1076SOL     OW 4237   0.113   4.461   1.597
 1076SOL    HW1 4238   0.201   4.448   1.642
 1076SOL    HW2 4239   0.100   4.558   1.575
 1077SOL     OW 4240   1.293   4.952   1.423
 1077SOL    HW1 4241   1.330   4.879   1.365
 1077SOL    HW2 4242   1.345   4.957   1.508
 1078SOL     OW 4243   0.809   3.728   0.502
 1078SOL    HW1 4244   0.849   3.819   0.493
 1078SOL    HW2 4245   0.709   3.736   0.508
 1079SOL     OW 4246   0.197   4.700   1.264
 1079SOL    HW1 4247   0.286   4.655   1.250
 1079SOL    HW2 4248   0.124   4.635   1.245
 1080SOL     OW 4249   1.525   4.723   0.190
 1080SOL    HW1 4250   1.462   4.647   0.203
 1080SOL    HW2 4251   1.573   4.741   0.276
 1081SOL     OW 4252   1.466   5.141   0.953
 1081SOL    HW1 4253   1.407   5.147   1.033
 1081SOL    HW2 4254   1.451   5.053   0.907
 1082SOL     OW 4255   0.598   4.453   0.270
 1082SOL    HW1 4256   0.622   4.522   0.202
 1082SOL    HW2 4257   0.520   4.486   0.324
 1083SOL     OW 4258   1.281   4.069   0.944
 1083SOL    HW1 4259   1.195   4.019   0.931
 1083SOL    HW2 4260   1.343   4.015   1.000
 1084SOL     OW 4261   0.807   4.329   1.465
 1084SOL    HW1 4262   0.760   4.326   1.554
 1084SOL    HW2 4263   0.756   4.274   1.399
 1085SOL     OW 4264   1.394   4.193   1.674
 1085SOL    HW1 4265   1.374   4.236   1.762
 1085SOL    HW2 4266   1.472   4.131   1.683
 1086SOL     OW 4267   0.973   4.614   1.572
 1086SOL    HW1 4268   1.019   4.530   1.543
 1086SOL    HW2 4269   0.917   4.648   1.497
 1087SOL     OW 4270   0.991   4.134   1.242
 1087SOL    HW1 4271   0.914   4.168   1.296
 1087SOL    HW2 4272   0.957   4.083   1.163
 1088SOL     OW 4273   1.041   4.425   0.429
 1088SOL    HW1 4274   1.067   4.421   0.525
 1088SOL    HW2 4275   0.956   4.374   0.415
 1089SOL     OW 4276   0.076   4.535   0.789
 1089SOL    HW1 4277   0.175   4.523   0.798
 1089SOL    HW2 4278   0.052   4.630   0.810
 1090SOL     OW 4279   0.865   4.072   0.195
 1090SOL    HW1 4280   0.924   4.135   0.146
 1090SOL    HW2 4281   0.884   3.978   0.166
 1091SOL     OW 4282   1.719   4.309   1.831
 1091SOL    HW1 4283   1.693   4.398   1.795
 1091SOL    HW2 4284   1.717   4.241   1.758
 1092SOL     OW 4285   1.362   4.868   0.545
 1092SOL    HW1 4286   1.445   4.839   0.497
 1092SOL    HW2 4287   1.313   4.935   0.489
 1093SOL     OW 4288   0.550   3.920   0.885
 1093SOL    HW1 4289   0.545   3.915   0.985
 1093SOL    HW2 4290   0.552   4.016   0.856
 1094SOL     OW 4291   1.795   4.790   0.873
 1094SOL    HW1 4292   1.733   4.775   0.797
 1094SOL    HW2 4293   1.743   4.801   0.958
 1095SOL     OW 4294   0.321   4.667   0.242
 1095SOL    HW1 4295   0.403   4.706   0.200
 1095SOL    HW2 4296   0.294   4.585   0.193
 1096SOL     OW 4297   1.458   4.459   0.728
 1096SOL    HW1 4298   1.453   4.394   0.803
 1096SOL    HW2 4299   1.538   4.518   0.741
 1097SOL     OW 4300   1.632   5.101   0.081
 1097SOL    HW1 4301   1.600   5.195   0.071
 1097SOL    HW2 4302   1.556   5.038   0.069
 1098SOL     OW 4303   1.400   3.831   0.426
 1098SOL    HW1 4304   1.376   3.794   0.336
 1098SOL    HW2 4305   1.499   3.847   0.430
 1099SOL     OW 4306   0.382   4.424   0.480
 1099SOL    HW1 4307   0.427   4.334   0.477
 1099SOL    HW2 4308   0.288   4.413   0.513
 1100SOL     OW 4309   1.547   3.946   1.729
 1100SOL    HW1 4310   1.542   3.983   1.821
 1100SOL    HW2 4311   1.475   3.877   1.717
 1101SOL     OW 4312   0.781   3.988   1.749
 1101SOL    HW1 4313   0.848   3.927   1.792
 1101SOL    HW2 4314   0.708   4.007   1.814
 1102SOL     OW 4315   1.351   4.314   1.433
 1102SOL    HW1 4316   1.379   4.271   1.518
 1102SOL    HW2 4317   1.376   4.410   1.434
 1103SOL     OW 4318   0.803   5.126   0.924
 1103SOL    HW1 4319   0.893   5.140   0.882
 1103SOL    HW2 4320   0.732   5.128   0.853
 1104SOL     OW 4321   0.922   4.227   0.899
 1104SOL    HW1 4322   0.897   4.218   0.803
 1104SOL    HW2 4323   0.970   4.145   0.930
 1105SOL     OW 4324   1.434   4.912   0.041
 1105SOL    HW1 4325   1.466   4.836   0.098
 1105SOL    HW2 4326   1.342   4.939   0.071
 1106SOL     OW 4327   0.297   3.759   0.171
 1106SOL    HW1 4328   0.346   3.843   0.150
 1106SOL    HW2 4329   0.359   3.694   0.216
 1107SOL     OW 4330   0.935   3.960   0.480
 1107SOL    HW1 4331   0.887   4.001   0.402
 1107SOL    HW2 4332   1.034   3.958   0.461
 1108SOL     OW 4333   1.076   4.407   1.464
 1108SOL    HW1 4334   0.996   4.346   1.467
 1108SOL    HW2 4335   1.157   4.354   1.440
 1109SOL     OW 4336   1.227   5.294   0.793
 1109SOL    HW1 4337   1.248   5.368   0.728
 1109SOL    HW2 4338   1.295   5.294   0.866
 1110SOL     OW 4339   0.459   4.876   0.741
 1110SOL    HW1 4340   0.388   4.849   0.806
 1110SOL    HW2 4341   0.433   4.848   0.648
 1111SOL     OW 4342   1.032   4.273   0.016
 1111SOL    HW1 4343   0.991   4.355  -0.023
 1111SOL    HW2 4344   1.096   4.299   0.089
 1112SOL     OW 4345   0.078   4.280   1.386
 1112SOL    HW1 4346   0.170   4.279   1.345
 1112SOL    HW2 4347   0.072   4.354   1.453
 1113SOL     OW 4348   0.561   3.946   1.147
 1113SOL    HW1 4349   0.599   3.862   1.184
 1113SOL    HW2 4350   0.473   3.965   1.191
 1114SOL     OW 4351   0.866   4.178   0.642
 1114SOL    HW1 4352   0.834   4.250   0.580
 1114SOL    HW2 4353   0.890   4.097   0.589
 1115SOL     OW 4354   1.017   3.763   0.753
 1115SOL    HW1 4355   0.945   3.768   0.684
 1115SOL    HW2 4356   0.993   3.694   0.822
 1116SOL     OW 4357   1.429   4.897   0.867
 1116SOL    HW1 4358   1.374   4.813   0.860
 1116SOL    HW2 4359   1.455   4.926   0.775
 1117SOL     OW 4360   1.466   4.314   0.992
 1117SOL    HW1 4361   1.436   4.219   0.999
 1117SOL    HW2 4362   1.539   4.330   1.058
 1118SOL     OW 4363   1.857   4.557   0.377
 1118SOL    HW1 4364   1.899   4.493   0.441
 1118SOL    HW2 4365   1.819   4.506   0.299
 1119SOL     OW 4366   1.664   5.004   0.657
 1119SOL    HW1 4367   1.763   5.012   0.671
 1119SOL    HW2 4368   1.619   5.088   0.688
 1120SOL     OW 4369   1.390   4.299   0.078
 1120SOL    HW1 4370   1.336   4.278   0.159
 1120SOL    HW2 4371   1.481   4.258   0.087
 1121SOL     OW 4372   1.754   4.947   1.588
 1121SOL    HW1 4373   1.845   4.908   1.575
 1121SOL    HW2 4374   1.762   5.043   1.612
 1122SOL     OW 4375   1.638   4.823   1.079
 1122SOL    HW1 4376   1.643   4.904   1.138
 1122SOL    HW2 4377   1.552   4.825   1.028
 1123SOL     OW 4378   0.915   3.813   1.402
 1123SOL    HW1 4379   0.940   3.793   1.307
 1123SOL    HW2 4380   0.987   3.869   1.444
 1124SOL     OW 4381   0.980   4.840   1.719
 1124SOL    HW1 4382   0.881   4.846   1.729
 1124SOL    HW2 4383   1.003   4.760   1.663
 1125SOL     OW 4384   0.705   4.774   0.368
 1125SOL    HW1 4385   0.691   4.781   0.467
 1125SOL    HW2 4386   0.789   4.723   0.350
 1126SOL     OW 4387   0.410   4.537   1.251
 1126SOL    HW1 4388   0.496   4.549   1.301
 1126SOL    HW2 4389   0.368   4.450   1.278
 1127SOL     OW 4390   1.274   4.110   1.262
 1127SOL    HW1 4391   1.295   4.184   1.326
 1127SOL    HW2 4392   1.185   4.127   1.219
 1128SOL     OW 4393   0.367   4.824   0.501
 1128SOL    HW1 4394   0.360   4.907   0.445
 1128SOL    HW2 4395   0.371   4.744   0.441
 1129SOL     OW 4396   0.566   4.261   0.865
 1129SOL    HW1 4397   0.578   4.327   0.791
 1129SOL    HW2 4398   0.612   4.295   0.948
 1130SOL     OW 4399   1.582   4.363   0.472
 1130SOL    HW1 4400   1.551   4.424   0.545
 1130SOL    HW2 4401   1.632   4.415   0.403
 1131SOL     OW 4402   0.402   4.475   1.598
 1131SOL    HW1 4403   0.470   4.530   1.551
 1131SOL    HW2 4404   0.442   4.387   1.625
 1132SOL     OW 4405   1.587   4.503   1.670
 1132SOL    HW1 4406   1.495   4.541   1.665
 1132SOL    HW2 4407   1.647   4.550   1.605
 1133SOL     OW 4408   1.013   3.829   1.770
 1133SOL    HW1 4409   1.019   3.914   1.718
 1133SOL    HW2 4410   1.045   3.753   1.713
 1134SOL     OW 4411   0.504   3.774   1.740
 1134SOL    HW1 4412   0.462   3.717   1.670
 1134SOL    HW2 4413   0.438   3.843   1.772
 1135SOL     OW 4414   0.573   4.594   1.029
 1135SOL    HW1 4415   0.617   4.683   1.020
 1135SOL    HW2 4416   0.510   4.594   1.106
 1136SOL     OW 4417   1.360   4.586   1.045
 1136SOL    HW1 4418   1.285   4.586   0.979
 1136SOL    HW2 4419   1.397   4.494   1.054
 1137SOL     OW 4420   1.209   4.249   0.275
 1137SOL    HW1 4421   1.222   4.165   0.329
 1137SOL    HW2 4422   1.180   4.323   0.335
 1138SOL     OW 4423   0.307   3.937   1.231
 1138SOL    HW1 4424   0.284   3.974   1.321
 1138SOL    HW2 4425   0.277   3.842   1.225
 1139SOL     OW 4426   0.037   5.034   1.282
 1139SOL    HW1 4427   0.090   4.985   1.350
 1139SOL    HW2 4428   0.059   5.132   1.287
 1140SOL     OW 4429   0.732   4.358   1.064
 1140SOL    HW1 4430   0.791   4.332   0.988
 1140SOL    HW2 4431   0.704   4.454   1.053
 1141SOL     OW 4432   1.728   4.659   1.854
 1141SOL    HW1 4433   1.682   4.652   1.765
 1141SOL    HW2 4434   1.666   4.703   1.920
 1142SOL     OW 4435   1.622   4.091   0.374
 1142SOL    HW1 4436   1.624   4.015   0.438
 1142SOL    HW2 4437   1.574   4.168   0.414
 1143SOL     OW 4438   1.023   4.490   0.966
 1143SOL    HW1 4439   1.038   4.511   1.062
 1143SOL    HW2 4440   0.993   4.395   0.957
 1144SOL     OW 4441   1.859   5.242   1.605
 1144SOL    HW1 4442   1.873   5.269   1.510
 1144SOL    HW2 4443   1.942   5.264   1.658
 1145SOL     OW 4444   0.350   4.622   1.804
 1145SOL    HW1 4445   0.426   4.666   1.852
 1145SOL    HW2 4446   0.385   4.575   1.722
 1146SOL     OW 4447   1.540   3.998   0.125
 1146SOL    HW1 4448   1.479   3.923   0.148
 1146SOL    HW2 4449   1.562   4.050   0.208
 1147SOL     OW 4450   1.303   4.562   0.042
 1147SOL    HW1 4451   1.337   4.469   0.057
 1147SOL    HW2 4452   1.321   4.589  -0.053
 1148SOL     OW 4453   0.319   4.534   0.949
 1148SOL    HW1 4454   0.412   4.570   0.954
 1148SOL    HW2 4455   0.313   4.449   1.001
 1149SOL     OW 4456   0.339   4.233   1.006
 1149SOL    HW1 4457   0.287   4.150   0.989
 1149SOL    HW2 4458   0.416   4.238   0.942
 1150SOL     OW 4459   1.138   4.104   1.678
 1150SOL    HW1 4460   1.093   4.167   1.742
 1150SOL    HW2 4461   1.231   4.135   1.661
 1151SOL     OW 4462   1.160   3.931   1.477
 1151SOL    HW1 4463   1.160   3.995   1.554
 1151SOL    HW2 4464   1.188   3.979   1.394
 1152SOL     OW 4465   0.008   5.050   0.200
 1152SOL    HW1 4466  -0.085   5.071   0.169
 1152SOL    HW2 4467   0.018   4.951   0.213
 1153SOL     OW 4468   1.002   4.520   1.238
 1153SOL    HW1 4469   1.043   4.488   1.324
 1153SOL    HW2 4470   0.906   4.493   1.235
 1154SOL     OW 4471   0.040   4.268   1.114
 1154SOL    HW1 4472   0.125   4.235   1.073
 1154SOL    HW2 4473   0.053   4.283   1.212
 1155SOL     OW 4474   0.189   4.244   1.722
 1155SOL    HW1 4475   0.248   4.204   1.652
 1155SOL    HW2 4476   0.131   4.315   1.681
 1156SOL     OW 4477   1.369   4.674   1.660
 1156SOL    HW1 4478   1.408   4.763   1.680
 1156SOL    HW2 4479   1.379   4.654   1.563
 1157SOL     OW 4480   0.815   4.296   0.325
 1157SOL    HW1 4481   0.822   4.207   0.279
 1157SOL    HW2 4482   0.721   4.330   0.317
 1158SOL     OW 4483   1.657   4.328   1.206
 1158SOL    HW1 4484   1.619   4.259   1.268
 1158SOL    HW2 4485   1.739   4.292   1.162
 1159SOL     OW 4486   0.671   4.188   1.269
 1159SOL    HW1 4487   0.637   4.099   1.239
 1159SOL    HW2 4488   0.697   4.242   1.189
 1160SOL     OW 4489   0.473   4.224   0.191
 1160SOL    HW1 4490   0.534   4.304   0.195
 1160SOL    HW2 4491   0.378   4.255   0.198
 1161SOL     OW 4492   0.159   4.861   1.466
 1161SOL    HW1 4493   0.181   4.800   1.542
 1161SOL    HW2 4494   0.169   4.812   1.380
 1162SOL     OW 4495   1.347   4.783   1.234
 1162SOL    HW1 4496   1.371   4.720   1.160
 1162SOL    HW2 4497   1.257   4.823   1.216
 1163SOL     OW 4498   1.302   4.579   0.309
 1163SOL    HW1 4499   1.216   4.548   0.351
 1163SOL    HW2 4500   1.298   4.565   0.210
 1164SOL     OW 4501   0.083   4.982   1.022
 1164SOL    HW1 4502   0.078   4.981   1.122
 1164SOL    HW2 4503   0.000   4.941   0.984
 1165SOL     OW 4504   1.726   3.859   0.523
 1165SOL    HW1 4505   1.799   3.842   0.456
 1165SOL    HW2 4506   1.695   3.772   0.561
 1166SOL     OW 4507   1.280   4.651   0.672
 1166SOL    HW1 4508   1.340   4.570   0.674
 1166SOL    HW2 4509   1.320   4.720   0.612
 1167SOL     OW 4510   0.830   4.997   1.422
 1167SOL    HW1 4511   0.825   5.030   1.517
 1167SOL    HW2 4512   0.744   5.016   1.376
 1168SOL     OW 4513   1.841   3.899   0.963
 1168SOL    HW1 4514   1.880   3.814   0.927
 1168SOL    HW2 4515   1.743   3.901   0.944
 1169SOL     OW 4516   0.822   4.726   1.372
 1169SOL    HW1 4517   0.862   4.725   1.280
 1169SOL    HW2 4518   0.832   4.818   1.412
 1170SOL     OW 4519   0.916   4.634   0.291
 1170SOL    HW1 4520   0.979   4.672   0.223
 1170SOL    HW2 4521   0.956   4.551   0.330
 1171SOL     OW 4522   0.372   5.012   1.490
 1171SOL    HW1 4523   0.359   5.105   1.456
 1171SOL    HW2 4524   0.288   4.960   1.477
 1172SOL     OW 4525   1.614   5.016   1.289
 1172SOL    HW1 4526   1.674   5.019   1.369
 1172SOL    HW2 4527   1.539   5.080   1.302
 1173SOL     OW 4528   1.039   4.822   0.696
 1173SOL    HW1 4529   0.969   4.775   0.750
 1173SOL    HW2 4530   1.098   4.754   0.653
 1174SOL     OW 4531   1.014   3.960   0.971
 1174SOL    HW1 4532   1.006   3.924   0.878
 1174SOL    HW2 4533   1.012   3.884   1.036
 1175SOL     OW 4534   1.709   4.109   1.381
 1175SOL    HW1 4535   1.782   4.178   1.385
 1175SOL    HW2 4536   1.737   4.034   1.322
 1176SOL     OW 4537   0.105   4.737   1.726
 1176SOL    HW1 4538   0.028   4.704   1.780
 1176SOL    HW2 4539   0.190   4.707   1.768
 1177SOL     OW 4540   0.672   3.927   1.489
 1177SOL    HW1 4541   0.762   3.911   1.449
 1177SOL    HW2 4542   0.680   3.932   1.588
 1178SOL     OW 4543   0.075   4.069   0.033
 1178SOL    HW1 4544  -0.017   4.041   0.004
 1178SOL    HW2 4545   0.106   4.146  -0.023
 1179SOL     OW 4546   1.440   4.580   1.398
 1179SOL    HW1 4547   1.383   4.632   1.335
 1179SOL    HW2 4548   1.536   4.592   1.374
 1180SOL     OW 4549   0.072   3.890   0.318
 1180SOL    HW1 4550   0.055   3.973   0.264
 1180SOL    HW2 4551   0.162   3.853   0.296
 1181SOL     OW 4552   0.613   4.566   1.431
 1181SOL    HW1 4553   0.669   4.647   1.414
 1181SOL    HW2 4554   0.672   4.486   1.434
 1182SOL     OW 4555   0.716   4.289   1.708
 1182SOL    HW1 4556   0.735   4.354   1.782
 1182SOL    HW2 4557   0.776   4.209   1.717
 1183SOL     OW 4558   1.450   4.944   1.633
 1183SOL    HW1 4559   1.441   4.934   1.732
 1183SOL    HW2 4560   1.546   4.937   1.607
 1184SOL     OW 4561   1.674   4.607   1.254
 1184SOL    HW1 4562   1.647   4.518   1.217
 1184SOL    HW2 4563   1.675   4.675   1.181
 1185SOL     OW 4564   1.225   4.049   0.449
 1185SOL    HW1 4565   1.290   3.975   0.438
 1185SOL    HW2 4566   1.245   4.099   0.533
 1186SOL     OW 4567   0.594   4.469   0.652
 1186SOL    HW1 4568   0.644   4.554   0.633
 1186SOL    HW2 4569   0.506   4.471   0.604
 1187SOL     OW 4570   1.777   4.066   1.642
 1187SOL    HW1 4571   1.760   4.097   1.548
 1187SOL    HW2 4572   1.693   4.029   1.680
 1188SOL     OW 4573   1.730   4.658   1.517
 1188SOL    HW1 4574   1.768   4.749   1.532
 1188SOL    HW2 4575   1.722   4.641   1.418
 1189SOL     OW 4576   0.859   4.680   0.861
 1189SOL    HW1 4577   0.913   4.611   0.909
 1189SOL    HW2 4578   0.827   4.749   0.927
 1190SOL     OW 4579   1.083   4.708   0.087
 1190SOL    HW1 4580   1.060   4.761   0.005
 1190SOL    HW2 4581   1.164   4.652   0.068
 1191SOL     OW 4582   0.079   4.964   0.653
 1191SOL    HW1 4583   0.078   4.917   0.741
 1191SOL    HW2 4584   0.161   4.936   0.602
 1192SOL     OW 4585   1.824   3.916   1.227
 1192SOL    HW1 4586   1.820   3.826   1.271
 1192SOL    HW2 4587   1.827   3.905   1.128
 1193SOL     OW 4588   0.317   4.271   1.280
 1193SOL    HW1 4589   0.355   4.212   1.352
 1193SOL    HW2 4590   0.357   4.245   1.192
 1194SOL     OW 4591   1.424   3.938   1.112
 1194SOL    HW1 4592   1.476   3.873   1.167
 1194SOL    HW2 4593   1.375   4.001   1.173
 1195SOL     OW 4594   1.001   3.758   1.154
 1195SOL    HW1 4595   0.938   3.686   1.123
 1195SOL    HW2 4596   1.094   3.722   1.154
 1196SOL     OW 4597   0.770   5.054   0.301
 1196SOL    HW1 4598   0.724   4.967   0.318
 1196SOL    HW2 4599   0.861   5.051   0.342
 1197SOL     OW 4600   1.352   3.776   0.168
 1197SOL    HW1 4601   1.387   3.735   0.084
 1197SOL    HW2 4602   1.262   3.738   0.188
 1198SOL     OW 4603   1.300   4.177   0.691
 1198SOL    HW1 4604   1.241   4.257   0.695
 1198SOL    HW2 4605   1.315   4.142   0.784
 1199SOL     OW 4606   1.593   3.945   0.882
 1199SOL    HW1 4607   1.509   3.944   0.936
 1199SOL    HW2 4608   1.595   4.028   0.826
 1200SOL     OW 4609   0.039   4.801   0.300
 1200SOL    HW1 4610   0.138   4.790   0.291
 1200SOL    HW2 4611  -0.001   4.715   0.332
 1201SOL     OW 4612   0.230   4.352   1.975
 1201SOL    HW1 4613   0.137   4.350   2.012
 1201SOL    HW2 4614   0.231   4.313   1.883
 1202SOL     OW 4615   0.225   3.999   2.858
 1202SOL    HW1 4616   0.260   3.982   2.950
 1202SOL    HW2 4617   0.137   3.954   2.846
 1203SOL     OW 4618   0.019   4.092   2.509
 1203SOL    HW1 4619  -0.063   4.135   2.548
 1203SOL    HW2 4620  -0.009   4.019   2.446
 1204SOL     OW 4621   0.569   4.999   3.027
 1204SOL    HW1 4622   0.476   4.992   2.990
 1204SOL    HW2 4623   0.580   5.088   3.071
 1205SOL     OW 4624   1.555   5.235   2.565
 1205SOL    HW1 4625   1.498   5.219   2.646
 1205SOL    HW2 4626   1.496   5.245   2.485
 1206SOL     OW 4627   1.135   4.427   2.579
 1206SOL    HW1 4628   1.192   4.505   2.554
 1206SOL    HW2 4629   1.075   4.453   2.655
 1207SOL     OW 4630   1.755   4.331   2.093
 1207SOL    HW1 4631   1.743   4.318   1.994
 1207SOL    HW2 4632   1.725   4.250   2.142
 1208SOL     OW 4633   0.768   4.868   2.885
 1208SOL    HW1 4634   0.690   4.885   2.945
 1208SOL    HW2 4635   0.802   4.955   2.849
 1209SOL     OW 4636   0.850   4.522   3.685
 1209SOL    HW1 4637   0.846   4.598   3.750
 1209SOL    HW2 4638   0.872   4.558   3.594
 1210SOL     OW 4639   0.685   4.736   2.527
 1210SOL    HW1 4640   0.754   4.720   2.597
 1210SOL    HW2 4641   0.612   4.793   2.565
 1211SOL     OW 4642   0.686   4.885   3.665
 1211SOL    HW1 4643   0.746   4.964   3.679
 1211SOL    HW2 4644   0.600   4.916   3.624
 1212SOL     OW 4645   0.335   5.159   2.923
 1212SOL    HW1 4646   0.257   5.128   2.870
 1212SOL    HW2 4647   0.393   5.217   2.866
 1213SOL     OW 4648   0.438   4.116   3.361
 1213SOL    HW1 4649   0.520   4.060   3.370
 1213SOL    HW2 4650   0.357   4.058   3.365
 1214SOL     OW 4651   1.603   4.171   2.599
 1214SOL    HW1 4652   1.529   4.217   2.549
 1214SOL    HW2 4653   1.654   4.239   2.652
 1215SOL     OW 4654   0.240   4.815   2.748
 1215SOL    HW1 4655   0.254   4.731   2.800
 1215SOL    HW2 4656   0.185   4.879   2.803
 1216SOL     OW 4657   0.606   4.688   1.985
 1216SOL    HW1 4658   0.613   4.772   1.931
 1216SOL    HW2 4659   0.652   4.701   2.073
 1217SOL     OW 4660   1.594   3.838   3.342
 1217SOL    HW1 4661   1.576   3.905   3.270
 1217SOL    HW2 4662   1.591   3.884   3.431
 1218SOL     OW 4663   0.122   4.367   2.425
 1218SOL    HW1 4664   0.077   4.279   2.442
 1218SOL    HW2 4665   0.121   4.421   2.509
 1219SOL     OW 4666   1.689   4.646   2.474
 1219SOL    HW1 4667   1.784   4.617   2.482
 1219SOL    HW2 4668   1.681   4.711   2.399
 1220SOL     OW 4669   1.641   4.832   2.294
 1220SOL    HW1 4670   1.727   4.834   2.242
 1220SOL    HW2 4671   1.655   4.879   2.382
 1221SOL     OW 4672   0.113   4.461   3.459
 1221SOL    HW1 4673   0.201   4.448   3.504
 1221SOL    HW2 4674   0.100   4.558   3.437
 1222SOL     OW 4675   1.293   4.952   3.285
 1222SOL    HW1 4676   1.330   4.879   3.227
 1222SOL    HW2 4677   1.345   4.957   3.370
 1223SOL     OW 4678   0.809   3.728   2.364
 1223SOL    HW1 4679   0.849   3.819   2.355
 1223SOL    HW2 4680   0.709   3.736   2.370
 1224SOL     OW 4681   0.197   4.700   3.126
 1224SOL    HW1 4682   0.286   4.655   3.112
 1224SOL    HW2 4683   0.124   4.635   3.107
 1225SOL     OW 4684   1.525   4.723   2.052
 1225SOL    HW1 4685   1.462   4.647   2.065
 1225SOL    HW2 4686   1.573   4.741   2.138
 1226SOL     OW 4687   0.317   3.975   3.663
 1226SOL    HW1 4688   0.388   4.046   3.669
 1226SOL    HW2 4689   0.229   4.014   3.691
 1227SOL     OW 4690   1.466   5.141   2.815
 1227SOL    HW1 4691   1.407   5.147   2.895
 1227SOL    HW2 4692   1.451   5.053   2.769
 1228SOL     OW 4693   0.598   4.453   2.132
 1228SOL    HW1 4694   0.622   4.522   2.064
 1228SOL    HW2 4695   0.520   4.486   2.186
 1229SOL     OW 4696   1.281   4.069   2.806
 1229SOL    HW1 4697   1.195   4.019   2.793
 1229SOL    HW2 4698   1.343   4.015   2.862
 1230SOL     OW 4699   0.807   4.329   3.327
 1230SOL    HW1 4700   0.760   4.326   3.416
 1230SOL    HW2 4701   0.756   4.274   3.261
 1231SOL     OW 4702   0.973   4.614   3.434
 1231SOL    HW1 4703   1.019   4.530   3.405
 1231SOL    HW2 4704   0.917   4.648   3.359
 1232SOL     OW 4705   0.991   4.134   3.104
 1232SOL    HW1 4706   0.914   4.168   3.158
 1232SOL    HW2 4707   0.957   4.083   3.025
 1233SOL     OW 4708   1.041   4.425   2.291
 1233SOL    HW1 4709   1.067   4.421   2.387
 1233SOL    HW2 4710   0.956   4.374   2.277
 1234SOL     OW 4711   0.076   4.535   2.651
 1234SOL    HW1 4712   0.175   4.523   2.660
 1234SOL    HW2 4713   0.052   4.630   2.672
 1235SOL     OW 4714   0.865   4.072   2.057
 1235SOL    HW1 4715   0.924   4.135   2.008
 1235SOL    HW2 4716   0.884   3.978   2.028
 1236SOL     OW 4717   1.719   4.309   3.693
 1236SOL    HW1 4718   1.693   4.398   3.657
 1236SOL    HW2 4719   1.717   4.241   3.620
 1237SOL     OW 4720   1.362   4.868   2.407
 1237SOL    HW1 4721   1.445   4.839   2.359
 1237SOL    HW2 4722   1.313   4.935   2.351
 1238SOL     OW 4723   0.550   3.920   2.747
 1238SOL    HW1 4724   0.545   3.915   2.847
 1238SOL    HW2 4725   0.552   4.016   2.718
 1239SOL     OW 4726   1.795   4.790   2.735
 1239SOL    HW1 4727   1.733   4.775   2.659
 1239SOL    HW2 4728   1.743   4.801   2.820
 1240SOL     OW 4729   0.321   4.667   2.104
 1240SOL    HW1 4730   0.403   4.706   2.062
 1240SOL    HW2 4731   0.294   4.585   2.055
 1241SOL     OW 4732   1.458   4.459   2.590
 1241SOL    HW1 4733   1.453   4.394   2.665
 1241SOL    HW2 4734   1.538   4.518   2.603
 1242SOL     OW 4735   0.202   4.009   3.360
 1242SOL    HW1 4736   0.122   4.069   3.347
 1242SOL    HW2 4737   0.192   3.960   3.446
 1243SOL     OW 4738   1.632   5.101   1.943
 1243SOL    HW1 4739   1.600   5.195   1.933
 1243SOL    HW2 4740   1.556   5.038   1.931
 1244SOL     OW 4741   1.400   3.831   2.288
 1244SOL    HW1 4742   1.376   3.794   2.198
 1244SOL    HW2 4743   1.499   3.847   2.292
 1245SOL     OW 4744   0.382   4.424   2.342
 1245SOL    HW1 4745   0.427   4.334   2.339
 1245SOL    HW2 4746   0.288   4.413   2.375
 1246SOL     OW 4747   1.547   3.946   3.591
 1246SOL    HW1 4748   1.542   3.983   3.683
 1246SOL    HW2 4749   1.475   3.877   3.579
 1247SOL     OW 4750   0.614   3.846   1.979
 1247SOL    HW1 4751   0.712   3.824   1.986
 1247SOL    HW2 4752   0.583   3.829   1.886
 1248SOL     OW 4753   0.781   3.988   3.611
 1248SOL    HW1 4754   0.848   3.927   3.654
 1248SOL    HW2 4755   0.708   4.007   3.676
 1249SOL     OW 4756   1.351   4.314   3.295
 1249SOL    HW1 4757   1.379   4.271   3.380
 1249SOL    HW2 4758   1.376   4.410   3.296
 1250SOL     OW 4759   0.803   5.126   2.786
 1250SOL    HW1 4760   0.893   5.140   2.744
 1250SOL    HW2 4761   0.732   5.128   2.715
 1251SOL     OW 4762   0.922   4.227   2.761
 1251SOL    HW1 4763   0.897   4.218   2.665
 1251SOL    HW2 4764   0.970   4.145   2.792
 1252SOL     OW 4765   0.539   3.788   2.374
 1252SOL    HW1 4766   0.458   3.789   2.432
 1252SOL    HW2 4767   0.542   3.871   2.319
 1253SOL     OW 4768   1.434   4.912   1.903
 1253SOL    HW1 4769   1.466   4.836   1.960
 1253SOL    HW2 4770   1.342   4.939   1.933
 1254SOL     OW 4771   0.935   3.960   2.342
 1254SOL    HW1 4772   0.887   4.001   2.264
 1254SOL    HW2 4773   1.034   3.958   2.323
 1255SOL     OW 4774   1.076   4.407   3.326
 1255SOL    HW1 4775   0.996   4.346   3.329
 1255SOL    HW2 4776   1.157   4.354   3.302
 1256SOL     OW 4777   1.227   5.294   2.655
 1256SOL    HW1 4778   1.248   5.368   2.590
 1256SOL    HW2 4779   1.295   5.294   2.728
 1257SOL     OW 4780   0.459   4.876   2.603
 1257SOL    HW1 4781   0.388   4.849   2.668
 1257SOL    HW2 4782   0.433   4.848   2.510
 1258SOL     OW 4783   1.032   4.273   1.878
 1258SOL    HW1 4784   0.991   4.355   1.839
 1258SOL    HW2 4785   1.096   4.299   1.951
 1259SOL     OW 4786   0.078   4.280   3.248
 1259SOL    HW1 4787   0.170   4.279   3.207
 1259SOL    HW2 4788   0.072   4.354   3.315
 1260SOL     OW 4789   0.561   3.946   3.009
 1260SOL    HW1 4790   0.599   3.862   3.046
 1260SOL    HW2 4791   0.473   3.965   3.053
 1261SOL     OW 4792   0.866   4.178   2.504
 1261SOL    HW1 4793   0.834   4.250   2.442
 1261SOL    HW2 4794   0.890   4.097   2.451
 1262SOL     OW 4795   1.017   3.763   2.615
 1262SOL    HW1 4796   0.945   3.768   2.546
 1262SOL    HW2 4797   0.993   3.694   2.684
 1263SOL     OW 4798   1.429   4.897   2.729
 1263SOL    HW1 4799   1.374   4.813   2.722
 1263SOL    HW2 4800   1.455   4.926   2.637
 1264SOL     OW 4801   1.466   4.314   2.854
 1264SOL    HW1 4802   1.436   4.219   2.861
 1264SOL    HW2 4803   1.539   4.330   2.920
 1265SOL     OW 4804   1.857   4.557   2.239
 1265SOL    HW1 4805   1.899   4.493   2.303
 1265SOL    HW2 4806   1.819   4.506   2.161
 1266SOL     OW 4807   1.664   5.004   2.519
 1266SOL    HW1 4808   1.763   5.012   2.533
 1266SOL    HW2 4809   1.619   5.088   2.550
 1267SOL     OW 4810   1.390   4.299   1.940
 1267SOL    HW1 4811   1.336   4.278   2.021
 1267SOL    HW2 4812   1.481   4.258   1.949
 1268SOL     OW 4813   0.527   3.980   2.190
 1268SOL    HW1 4814   0.554   3.921   2.115
 1268SOL    HW2 4815   0.527   4.075   2.159
 1269SOL     OW 4816   1.754   4.947   3.450
 1269SOL    HW1 4817   1.845   4.908   3.437
 1269SOL    HW2 4818   1.762   5.043   3.474
 1270SOL     OW 4819   1.638   4.823   2.941
 1270SOL    HW1 4820   1.643   4.904   3.000
 1270SOL    HW2 4821   1.552   4.825   2.890
 1271SOL     OW 4822   0.915   3.813   3.264
 1271SOL    HW1 4823   0.940   3.793   3.169
 1271SOL    HW2 4824   0.987   3.869   3.306
 1272SOL     OW 4825   0.980   4.840   3.581
 1272SOL    HW1 4826   0.881   4.846   3.591
 1272SOL    HW2 4827   1.003   4.760   3.525
 1273SOL     OW 4828   0.705   4.774   2.230
 1273SOL    HW1 4829   0.691   4.781   2.329
 1273SOL    HW2 4830   0.789   4.723   2.212
 1274SOL     OW 4831   0.410   4.537   3.113
 1274SOL    HW1 4832   0.496   4.549   3.163
 1274SOL    HW2 4833   0.368   4.450   3.140
 1275SOL     OW 4834   1.274   4.110   3.124
 1275SOL    HW1 4835   1.295   4.184   3.188
 1275SOL    HW2 4836   1.185   4.127   3.081
 1276SOL     OW 4837   0.367   4.824   2.363
 1276SOL    HW1 4838   0.360   4.907   2.307
 1276SOL    HW2 4839   0.371   4.744   2.303
 1277SOL     OW 4840   0.566   4.261   2.727
 1277SOL    HW1 4841   0.578   4.327   2.653
 1277SOL    HW2 4842   0.612   4.295   2.810
 1278SOL     OW 4843   1.582   4.363   2.334
 1278SOL    HW1 4844   1.551   4.424   2.407
 1278SOL    HW2 4845   1.632   4.415   2.265
 1279SOL     OW 4846   0.402   4.475   3.460
 1279SOL    HW1 4847   0.470   4.530   3.413
 1279SOL    HW2 4848   0.442   4.387   3.487
 1280SOL     OW 4849   1.587   4.503   3.532
 1280SOL    HW1 4850   1.495   4.541   3.527
 1280SOL    HW2 4851   1.647   4.550   3.467
 1281SOL     OW 4852   1.013   3.829   3.632
 1281SOL    HW1 4853   1.019   3.914   3.580
 1281SOL    HW2 4854   1.045   3.753   3.575
 1282SOL     OW 4855   0.504   3.774   3.602
 1282SOL    HW1 4856   0.462   3.717   3.532
 1282SOL    HW2 4857   0.438   3.843   3.634
 1283SOL     OW 4858   0.573   4.594   2.891
 1283SOL    HW1 4859   0.617   4.683   2.882
 1283SOL    HW2 4860   0.510   4.594   2.968
 1284SOL     OW 4861   1.360   4.586   2.907
 1284SOL    HW1 4862   1.285   4.586   2.841
 1284SOL    HW2 4863   1.397   4.494   2.916
 1285SOL     OW 4864   1.209   4.249   2.137
 1285SOL    HW1 4865   1.222   4.165   2.191
 1285SOL    HW2 4866   1.180   4.323   2.197
 1286SOL     OW 4867   0.307   3.937   3.093
 1286SOL    HW1 4868   0.284   3.974   3.183
 1286SOL    HW2 4869   0.277   3.842   3.087
 1287SOL     OW 4870   0.037   5.034   3.144
 1287SOL    HW1 4871   0.090   4.985   3.212
 1287SOL    HW2 4872   0.059   5.132   3.149
 1288SOL     OW 4873   0.732   4.358   2.926
 1288SOL    HW1 4874   0.791   4.332   2.850
 1288SOL    HW2 4875   0.704   4.454   2.915
 1289SOL     OW 4876   1.728   4.659   3.716
 1289SOL    HW1 4877   1.682   4.652   3.627
 1289SOL    HW2 4878   1.666   4.703   3.782
 1290SOL     OW 4879   0.307   3.787   2.480
 1290SOL    HW1 4880   0.296   3.881   2.513
 1290SOL    HW2 4881   0.302   3.724   2.557
 1291SOL     OW 4882   1.622   4.091   2.236
 1291SOL    HW1 4883   1.624   4.015   2.300
 1291SOL    HW2 4884   1.574   4.168   2.276
 1292SOL     OW 4885   1.023   4.490   2.828
 1292SOL    HW1 4886   1.038   4.511   2.924
 1292SOL    HW2 4887   0.993   4.395   2.819
 1293SOL     OW 4888   1.859   5.242   3.467
 1293SOL    HW1 4889   1.873   5.269   3.372
 1293SOL    HW2 4890   1.942   5.264   3.520
 1294SOL     OW 4891   0.350   4.622   3.666
 1294SOL    HW1 4892   0.426   4.666   3.714
 1294SOL    HW2 4893   0.385   4.575   3.584
 1295SOL     OW 4894   1.540   3.998   1.987
 1295SOL    HW1 4895   1.479   3.923   2.010
 1295SOL    HW2 4896   1.562   4.050   2.070
 1296SOL     OW 4897   1.303   4.562   1.904
 1296SOL    HW1 4898   1.337   4.469   1.919
 1296SOL    HW2 4899   1.321   4.589   1.809
 1297SOL     OW 4900   0.319   4.534   2.811
 1297SOL    HW1 4901   0.412   4.570   2.816
 1297SOL    HW2 4902   0.313   4.449   2.863
 1298SOL     OW 4903   0.339   4.233   2.868
 1298SOL    HW1 4904   0.287   4.150   2.851
 1298SOL    HW2 4905   0.416   4.238   2.804
 1299SOL     OW 4906   1.160   3.931   3.339
 1299SOL    HW1 4907   1.160   3.995   3.416
 1299SOL    HW2 4908   1.188   3.979   3.256
 1300SOL     OW 4909   0.008   5.050   2.062
 1300SOL    HW1 4910  -0.085   5.071   2.031
 1300SOL    HW2 4911   0.018   4.951   2.075
 1301SOL     OW 4912   1.002   4.520   3.100
 1301SOL    HW1 4913   1.043   4.488   3.186
 1301SOL    HW2 4914   0.906   4.493   3.097
 1302SOL     OW 4915   0.040   4.268   2.976
 1302SOL    HW1 4916   0.125   4.235   2.935
 1302SOL    HW2 4917   0.053   4.283   3.074
 1303SOL     OW 4918   0.189   4.244   3.584
 1303SOL    HW1 4919   0.248   4.204   3.514
 1303SOL    HW2 4920   0.131   4.315   3.543
 1304SOL     OW 4921   1.369   4.674   3.522
 1304SOL    HW1 4922   1.408   4.763   3.542
 1304SOL    HW2 4923   1.379   4.654   3.425
 1305SOL     OW 4924   0.815   4.296   2.187
 1305SOL    HW1 4925   0.822   4.207   2.141
 1305SOL    HW2 4926   0.721   4.330   2.179
 1306SOL     OW 4927   1.657   4.328   3.068
 1306SOL    HW1 4928   1.619   4.259   3.130
 1306SOL    HW2 4929   1.739   4.292   3.024
 1307SOL     OW 4930   0.671   4.188   3.131
 1307SOL    HW1 4931   0.637   4.099   3.101
 1307SOL    HW2 4932   0.697   4.242   3.051
 1308SOL     OW 4933   0.473   4.224   2.053
 1308SOL    HW1 4934   0.534   4.304   2.057
 1308SOL    HW2 4935   0.378   4.255   2.060
 1309SOL     OW 4936   0.159   4.861   3.328
 1309SOL    HW1 4937   0.181   4.800   3.404
 1309SOL    HW2 4938   0.169   4.812   3.242
 1310SOL     OW 4939   1.347   4.783   3.096
 1310SOL    HW1 4940   1.371   4.720   3.022
 1310SOL    HW2 4941   1.257   4.823   3.078
 1311SOL     OW 4942   1.302   4.579   2.171
 1311SOL    HW1 4943   1.216   4.548   2.213
 1311SOL    HW2 4944   1.298   4.565   2.072
 1312SOL     OW 4945   0.083   4.982   2.884
 1312SOL    HW1 4946   0.078   4.981   2.984
 1312SOL    HW2 4947   0.000   4.941   2.846
 1313SOL     OW 4948   1.726   3.859   2.385
 1313SOL    HW1 4949   1.799   3.842   2.318
 1313SOL    HW2 4950   1.695   3.772   2.423
 1314SOL     OW 4951   1.280   4.651   2.534
 1314SOL    HW1 4952   1.340   4.570   2.536
 1314SOL    HW2 4953   1.320   4.720   2.474
 1315SOL     OW 4954   0.830   4.997   3.284
 1315SOL    HW1 4955   0.825   5.030   3.379
 1315SOL    HW2 4956   0.744   5.016   3.238
 1316SOL     OW 4957   1.841   3.899   2.825
 1316SOL    HW1 4958   1.880   3.814   2.789
 1316SOL    HW2 4959   1.743   3.901   2.806
 1317SOL     OW 4960   0.263   4.050   2.582
 1317SOL    HW1 4961   0.184   4.101   2.548
 1317SOL    HW2 4962   0.254   4.035   2.680
 1318SOL     OW 4963   0.822   4.726   3.234
 1318SOL    HW1 4964   0.862   4.725   3.142
 1318SOL    HW2 4965   0.832   4.818   3.274
 1319SOL     OW 4966   0.916   4.634   2.153
 1319SOL    HW1 4967   0.979   4.672   2.085
 1319SOL    HW2 4968   0.956   4.551   2.192
 1320SOL     OW 4969   0.372   5.012   3.352
 1320SOL    HW1 4970   0.359   5.105   3.318
 1320SOL    HW2 4971   0.288   4.960   3.339
 1321SOL     OW 4972   1.614   5.016   3.151
 1321SOL    HW1 4973   1.674   5.019   3.231
 1321SOL    HW2 4974   1.539   5.080   3.164
 1322SOL     OW 4975   1.039   4.822   2.558
 1322SOL    HW1 4976   0.969   4.775   2.612
 1322SOL    HW2 4977   1.098   4.754   2.515
 1323SOL     OW 4978   1.014   3.960   2.833
 1323SOL    HW1 4979   1.006   3.924   2.740
 1323SOL    HW2 4980   1.012   3.884   2.898
 1324SOL     OW 4981   1.709   4.109   3.243
 1324SOL    HW1 4982   1.782   4.178   3.247
 1324SOL    HW2 4983   1.737   4.034   3.184
 1325SOL     OW 4984   0.105   4.737   3.588
 1325SOL    HW1 4985   0.028   4.704   3.642
 1325SOL    HW2 4986   0.190   4.707   3.630
 1326SOL     OW 4987   0.672   3.927   3.351
 1326SOL    HW1 4988   0.762   3.911   3.311
 1326SOL    HW2 4989   0.680   3.932   3.450
 1327SOL     OW 4990   1.440   4.580   3.260
 1327SOL    HW1 4991   1.383   4.632   3.197
 1327SOL    HW2 4992   1.536   4.592   3.236
 1328SOL     OW 4993   0.613   4.566   3.293
 1328SOL    HW1 4994   0.669   4.647   3.276
 1328SOL    HW2 4995   0.672   4.486   3.296
 1329SOL     OW 4996   1.450   4.944   3.495
 1329SOL    HW1 4997   1.441   4.934   3.594
 1329SOL    HW2 4998   1.546   4.937   3.469
 1330SOL     OW 4999   1.674   4.607   3.116
 1330SOL    HW1 5000   1.647   4.518   3.079
 1330SOL    HW2 5001   1.675   4.675   3.043
 1331SOL     OW 5002   1.225   4.049   2.311
 1331SOL    HW1 5003   1.290   3.975   2.300
 1331SOL    HW2 5004   1.245   4.099   2.395
 1332SOL     OW 5005   0.594   4.469   2.514
 1332SOL    HW1 5006   0.644   4.554   2.495
 1332SOL    HW2 5007   0.506   4.471   2.466
 1333SOL     OW 5008   1.777   4.066   3.504
 1333SOL    HW1 5009   1.760   4.097   3.410
 1333SOL    HW2 5010   1.693   4.029   3.542
 1334SOL     OW 5011   1.730   4.658   3.379
 1334SOL    HW1 5012   1.768   4.749   3.394
 1334SOL    HW2 5013   1.722   4.641   3.280
 1335SOL     OW 5014   0.859   4.680   2.723
 1335SOL    HW1 5015   0.913   4.611   2.771
 1335SOL    HW2 5016   0.827   4.749   2.789
 1336SOL     OW 5017   1.083   4.708   1.949
 1336SOL    HW1 5018   1.060   4.761   1.867
 1336SOL    HW2 5019   1.164   4.652   1.930
 1337SOL     OW 5020   0.079   4.964   2.515
 1337SOL    HW1 5021   0.078   4.917   2.603
 1337SOL    HW2 5022   0.161   4.936   2.464
 1338SOL     OW 5023   1.824   3.916   3.089
 1338SOL    HW1 5024   1.820   3.826   3.133
 1338SOL    HW2 5025   1.827   3.905   2.990
 1339SOL     OW 5026   0.428   4.148   2.382
 1339SOL    HW1 5027   0.458   4.076   2.320
 1339SOL    HW2 5028   0.389   4.108   2.465
 1340SOL     OW 5029   0.317   4.271   3.142
 1340SOL    HW1 5030   0.355   4.212   3.214
 1340SOL    HW2 5031   0.357   4.245   3.054
 1341SOL     OW 5032   1.424   3.938   2.974
 1341SOL    HW1 5033   1.476   3.873   3.029
 1341SOL    HW2 5034   1.375   4.001   3.035
 1342SOL     OW 5035   1.001   3.758   3.016
 1342SOL    HW1 5036   0.938   3.686   2.985
 1342SOL    HW2 5037   1.094   3.722   3.016
 1343SOL     OW 5038   0.770   5.054   2.163
 1343SOL    HW1 5039   0.724   4.967   2.180
 1343SOL    HW2 5040   0.861   5.051   2.204
 1344SOL     OW 5041   1.352   3.776   2.030
 1344SOL    HW1 5042   1.387   3.735   1.946
 1344SOL    HW2 5043   1.262   3.738   2.050
 1345SOL     OW 5044   1.300   4.177   2.553
 1345SOL    HW1 5045   1.241   4.257   2.557
 1345SOL    HW2 5046   1.315   4.142   2.646
 1346SOL     OW 5047   1.593   3.945   2.744
 1346SOL    HW1 5048   1.509   3.944   2.798
 1346SOL    HW2 5049   1.595   4.028   2.688
 1347SOL     OW 5050   0.039   4.801   2.162
 1347SOL    HW1 5051   0.138   4.790   2.153
 1347SOL    HW2 5052  -0.001   4.715   2.194
 1348SOL     OW 5053   0.230   4.352   3.837
 1348SOL    HW1 5054   0.137   4.350   3.874
 1348SOL    HW2 5055   0.231   4.313   3.745
 1349SOL     OW 5056   0.019   4.092   4.371
 1349SOL    HW1 5057  -0.063   4.135   4.410
 1349SOL    HW2 5058  -0.009   4.019   4.308
 1350SOL     OW 5059   1.555   5.235   4.427
 1350SOL    HW1 5060   1.498   5.219   4.508
 1350SOL    HW2 5061   1.496   5.245   4.347
 1351SOL     OW 5062   1.135   4.427   4.441
 1351SOL    HW1 5063   1.192   4.505   4.416
 1351SOL    HW2 5064   1.075   4.453   4.517
 1352SOL     OW 5065   0.768   4.868   4.747
 1352SOL    HW1 5066   0.690   4.885   4.807
 1352SOL    HW2 5067   0.802   4.955   4.711
 1353SOL     OW 5068   0.240   4.815   4.610
 1353SOL    HW1 5069   0.254   4.731   4.662
 1353SOL    HW2 5070   0.185   4.879   4.665
 1354SOL     OW 5071   0.606   4.688   3.847
 1354SOL    HW1 5072   0.613   4.772   3.793
 1354SOL    HW2 5073   0.652   4.701   3.935
 1355SOL     OW 5074   0.122   4.367   4.287
 1355SOL    HW1 5075   0.077   4.279   4.304
 1355SOL    HW2 5076   0.121   4.421   4.371
 1356SOL     OW 5077   1.689   4.646   4.336
 1356SOL    HW1 5078   1.784   4.617   4.344
 1356SOL    HW2 5079   1.681   4.711   4.261
 1357SOL     OW 5080   1.641   4.832   4.156
 1357SOL    HW1 5081   1.727   4.834   4.104
 1357SOL    HW2 5082   1.655   4.879   4.244
 1358SOL     OW 5083   0.197   4.700   4.988
 1358SOL    HW1 5084   0.286   4.655   4.974
 1358SOL    HW2 5085   0.124   4.635   4.969
 1359SOL     OW 5086   1.525   4.723   3.914
 1359SOL    HW1 5087   1.462   4.647   3.927
 1359SOL    HW2 5088   1.573   4.741   4.000
 1360SOL     OW 5089   1.466   5.141   4.677
 1360SOL    HW1 5090   1.407   5.147   4.757
 1360SOL    HW2 5091   1.451   5.053   4.631
 1361SOL     OW 5092   0.598   4.453   3.994
 1361SOL    HW1 5093   0.622   4.522   3.926
 1361SOL    HW2 5094   0.520   4.486   4.048
 1362SOL     OW 5095   0.991   4.134   4.966
 1362SOL    HW1 5096   0.914   4.168   5.020
 1362SOL    HW2 5097   0.957   4.083   4.887
 1363SOL     OW 5098   1.041   4.425   4.153
 1363SOL    HW1 5099   1.067   4.421   4.249
 1363SOL    HW2 5100   0.956   4.374   4.139
 1364SOL     OW 5101   0.076   4.535   4.513
 1364SOL    HW1 5102   0.175   4.523   4.522
 1364SOL    HW2 5103   0.052   4.630   4.534
 1365SOL     OW 5104   1.362   4.868   4.269
 1365SOL    HW1 5105   1.445   4.839   4.221
 1365SOL    HW2 5106   1.313   4.935   4.213
 1366SOL     OW 5107   1.795   4.790   4.597
 1366SOL    HW1 5108   1.733   4.775   4.521
 1366SOL    HW2 5109   1.743   4.801   4.682
 1367SOL     OW 5110   0.321   4.667   3.966
 1367SOL    HW1 5111   0.403   4.706   3.924
 1367SOL    HW2 5112   0.294   4.585   3.917
 1368SOL     OW 5113   1.458   4.459   4.452
 1368SOL    HW1 5114   1.453   4.394   4.527
 1368SOL    HW2 5115   1.538   4.518   4.465
 1369SOL     OW 5116   1.632   5.101   3.805
 1369SOL    HW1 5117   1.600   5.195   3.795
 1369SOL    HW2 5118   1.556   5.038   3.793
 1370SOL     OW 5119   0.382   4.424   4.204
 1370SOL    HW1 5120   0.427   4.334   4.201
 1370SOL    HW2 5121   0.288   4.413   4.237
 1371SOL     OW 5122   0.922   4.227   4.623
 1371SOL    HW1 5123   0.897   4.218   4.527
 1371SOL    HW2 5124   0.970   4.145   4.654
 1372SOL     OW 5125   0.539   3.788   4.236
 1372SOL    HW1 5126   0.458   3.789   4.294
 1372SOL    HW2 5127   0.542   3.871   4.181
 1373SOL     OW 5128   1.434   4.912   3.765
 1373SOL    HW1 5129   1.466   4.836   3.822
 1373SOL    HW2 5130   1.342   4.939   3.795
 1374SOL     OW 5131   0.297   3.759   3.895
 1374SOL    HW1 5132   0.346   3.843   3.874
 1374SOL    HW2 5133   0.359   3.694   3.940
 1375SOL     OW 5134   1.227   5.294   4.517
 1375SOL    HW1 5135   1.248   5.368   4.452
 1375SOL    HW2 5136   1.295   5.294   4.590
 1376SOL     OW 5137   0.561   3.946   4.871
 1376SOL    HW1 5138   0.599   3.862   4.908
 1376SOL    HW2 5139   0.473   3.965   4.915
 1377SOL     OW 5140   1.017   3.763   4.477
 1377SOL    HW1 5141   0.945   3.768   4.408
 1377SOL    HW2 5142   0.993   3.694   4.546
 1378SOL     OW 5143   1.429   4.897   4.591
 1378SOL    HW1 5144   1.374   4.813   4.584
 1378SOL    HW2 5145   1.455   4.926   4.499
 1379SOL     OW 5146   1.857   4.557   4.101
 1379SOL    HW1 5147   1.899   4.493   4.165
 1379SOL    HW2 5148   1.819   4.506   4.023
 1380SOL     OW 5149   1.664   5.004   4.381
 1380SOL    HW1 5150   1.763   5.012   4.395
 1380SOL    HW2 5151   1.619   5.088   4.412
 1381SOL     OW 5152   1.390   4.299   3.802
 1381SOL    HW1 5153   1.336   4.278   3.883
 1381SOL    HW2 5154   1.481   4.258   3.811
 1382SOL     OW 5155   1.638   4.823   4.803
 1382SOL    HW1 5156   1.643   4.904   4.862
 1382SOL    HW2 5157   1.552   4.825   4.752
 1383SOL     OW 5158   0.705   4.774   4.092
 1383SOL    HW1 5159   0.691   4.781   4.191
 1383SOL    HW2 5160   0.789   4.723   4.074
 1384SOL     OW 5161   0.410   4.537   4.975
 1384SOL    HW1 5162   0.496   4.549   5.025
 1384SOL    HW2 5163   0.368   4.450   5.002
 1385SOL     OW 5164   0.367   4.824   4.225
 1385SOL    HW1 5165   0.360   4.907   4.169
 1385SOL    HW2 5166   0.371   4.744   4.165
 1386SOL     OW 5167   1.582   4.363   4.196
 1386SOL    HW1 5168   1.551   4.424   4.269
 1386SOL    HW2 5169   1.632   4.415   4.127
 1387SOL     OW 5170   0.573   4.594   4.753
 1387SOL    HW1 5171   0.617   4.683   4.744
 1387SOL    HW2 5172   0.510   4.594   4.830
 1388SOL     OW 5173   1.360   4.586   4.769
 1388SOL    HW1 5174   1.285   4.586   4.703
 1388SOL    HW2 5175   1.397   4.494   4.778
 1389SOL     OW 5176   1.209   4.249   3.999
 1389SOL    HW1 5177   1.222   4.165   4.053
 1389SOL    HW2 5178   1.180   4.323   4.059
 1390SOL     OW 5179   0.307   3.937   4.955
 1390SOL    HW1 5180   0.284   3.974   5.045
 1390SOL    HW2 5181   0.277   3.842   4.949
 1391SOL     OW 5182   0.037   5.034   5.006
 1391SOL    HW1 5183   0.090   4.985   5.074
 1391SOL    HW2 5184   0.059   5.132   5.011
 1392SOL     OW 5185   0.307   3.787   4.342
 1392SOL    HW1 5186   0.296   3.881   4.375
 1392SOL    HW2 5187   0.302   3.724   4.419
 1393SOL     OW 5188   1.023   4.490   4.690
 1393SOL    HW1 5189   1.038   4.511   4.786
 1393SOL    HW2 5190   0.993   4.395   4.681
 1394SOL     OW 5191   1.540   3.998   3.849
 1394SOL    HW1 5192   1.479   3.923   3.872
 1394SOL    HW2 5193   1.562   4.050   3.932
 1395SOL     OW 5194   1.303   4.562   3.766
 1395SOL    HW1 5195   1.337   4.469   3.781
 1395SOL    HW2 5196   1.321   4.589   3.671
 1396SOL     OW 5197   0.319   4.534   4.673
 1396SOL    HW1 5198   0.412   4.570   4.678
 1396SOL    HW2 5199   0.313   4.449   4.725
 1397SOL     OW 5200   1.160   3.931   5.201
 1397SOL    HW1 5201   1.160   3.995   5.278
 1397SOL    HW2 5202   1.188   3.979   5.118
 1398SOL     OW 5203   0.008   5.050   3.924
 1398SOL    HW1 5204  -0.085   5.071   3.893
 1398SOL    HW2 5205   0.018   4.951   3.937
 1399SOL     OW 5206   1.002   4.520   4.962
 1399SOL    HW1 5207   1.043   4.488   5.048
 1399SOL    HW2 5208   0.906   4.493   4.959
 1400SOL     OW 5209   0.815   4.296   4.049
 1400SOL    HW1 5210   0.822   4.207   4.003
 1400SOL    HW2 5211   0.721   4.330   4.041
 1401SOL     OW 5212   1.347   4.783   4.958
 1401SOL    HW1 5213   1.371   4.720   4.884
 1401SOL    HW2 5214   1.257   4.823   4.940
 1402SOL     OW 5215   1.302   4.579   4.033
 1402SOL    HW1 5216   1.216   4.548   4.075
 1402SOL    HW2 5217   1.298   4.565   3.934
 1403SOL     OW 5218   0.083   4.982   4.746
 1403SOL    HW1 5219   0.078   4.981   4.846
 1403SOL    HW2 5220   0.000   4.941   4.708
 1404SOL     OW 5221   1.280   4.651   4.396
 1404SOL    HW1 5222   1.340   4.570   4.398
 1404SOL    HW2 5223   1.320   4.720   4.336
 1405SOL     OW 5224   0.830   4.997   5.146
 1405SOL    HW1 5225   0.825   5.030   5.241
 1405SOL    HW2 5226   0.744   5.016   5.100
 1406SOL     OW 5227   0.263   4.050   4.444
 1406SOL    HW1 5228   0.184   4.101   4.410
 1406SOL    HW2 5229   0.254   4.035   4.542
 1407SOL     OW 5230   1.194   5.336   3.755
 1407SOL    HW1 5231   1.200   5.243   3.792
 1407SOL    HW2 5232   1.135   5.336   3.675
 1408SOL     OW 5233   0.822   4.726   5.096
 1408SOL    HW1 5234   0.862   4.725   5.004
 1408SOL    HW2 5235   0.832   4.818   5.136
 1409SOL     OW 5236   0.916   4.634   4.015
 1409SOL    HW1 5237   0.979   4.672   3.947
 1409SOL    HW2 5238   0.956   4.551   4.054
 1410SOL     OW 5239   1.039   4.822   4.420
 1410SOL    HW1 5240   0.969   4.775   4.474
 1410SOL    HW2 5241   1.098   4.754   4.377
 1411SOL     OW 5242   1.014   3.960   4.695
 1411SOL    HW1 5243   1.006   3.924   4.602
 1411SOL    HW2 5244   1.012   3.884   4.760
 1412SOL     OW 5245   1.709   4.109   5.105
 1412SOL    HW1 5246   1.782   4.178   5.109
 1412SOL    HW2 5247   1.737   4.034   5.046
 1413SOL     OW 5248   0.075   4.069   3.757
 1413SOL    HW1 5249  -0.017   4.041   3.728
 1413SOL    HW2 5250   0.106   4.146   3.701
 1414SOL     OW 5251   0.072   3.890   4.042
 1414SOL    HW1 5252   0.055   3.973   3.988
 1414SOL    HW2 5253   0.162   3.853   4.020
 1415SOL     OW 5254   1.450   4.944   5.357
 1415SOL    HW1 5255   1.441   4.934   5.456
 1415SOL    HW2 5256   1.546   4.937   5.331
 1416SOL     OW 5257   1.674   4.607   4.978
 1416SOL    HW1 5258   1.647   4.518   4.941
 1416SOL    HW2 5259   1.675   4.675   4.905
 1417SOL     OW 5260   1.225   4.049   4.173
 1417SOL    HW1 5261   1.290   3.975   4.162
 1417SOL    HW2 5262   1.245   4.099   4.257
 1418SOL     OW 5263   1.730   4.658   5.241
 1418SOL    HW1 5264   1.768   4.749   5.256
 1418SOL    HW2 5265   1.722   4.641   5.142
 1419SOL     OW 5266   1.083   4.708   3.811
 1419SOL    HW1 5267   1.060   4.761   3.729
 1419SOL    HW2 5268   1.164   4.652   3.792
 1420SOL     OW 5269   1.824   3.916   4.951
 1420SOL    HW1 5270   1.820   3.826   4.995
 1420SOL    HW2 5271   1.827   3.905   4.852
 1421SOL     OW 5272   0.428   4.148   4.244
 1421SOL    HW1 5273   0.458   4.076   4.182
 1421SOL    HW2 5274   0.389   4.108   4.327
 1422SOL     OW 5275   1.001   3.758   4.878
 1422SOL    HW1 5276   0.938   3.686   4.847
 1422SOL    HW2 5277   1.094   3.722   4.878
 1423SOL     OW 5278   0.770   5.054   4.025
 1423SOL    HW1 5279   0.724   4.967   4.042
 1423SOL    HW2 5280   0.861   5.051   4.066
 1424SOL     OW 5281   1.352   3.776   3.892
 1424SOL    HW1 5282   1.387   3.735   3.808
 1424SOL    HW2 5283   1.262   3.738   3.912
 1425SOL     OW 5284   1.300   4.177   4.415
 1425SOL    HW1 5285   1.241   4.257   4.419
 1425SOL    HW2 5286   1.315   4.142   4.508
 1426SOL     OW 5287   0.039   4.801   4.024
 1426SOL    HW1 5288   0.138   4.790   4.015
 1426SOL    HW2 5289  -0.001   4.715   4.056
 1427SOL     OW 5290   2.092   0.628   0.113
 1427SOL    HW1 5291   1.999   0.626   0.150
 1427SOL    HW2 5292   2.093   0.589   0.021
 1428SOL     OW 5293   2.087   0.275   0.996
 1428SOL    HW1 5294   2.122   0.258   1.088
 1428SOL    HW2 5295   1.999   0.230   0.984
 1429SOL     OW 5296   1.881   0.368   0.647
 1429SOL    HW1 5297   1.799   0.411   0.686
 1429SOL    HW2 5298   1.853   0.295   0.584
 1430SOL     OW 5299   2.431   1.275   1.165
 1430SOL    HW1 5300   2.338   1.268   1.128
 1430SOL    HW2 5301   2.442   1.364   1.209
 1431SOL     OW 5302   3.417   1.511   0.703
 1431SOL    HW1 5303   3.360   1.495   0.784
 1431SOL    HW2 5304   3.358   1.521   0.623
 1432SOL     OW 5305   2.997   0.703   0.717
 1432SOL    HW1 5306   3.054   0.781   0.692
 1432SOL    HW2 5307   2.937   0.729   0.793
 1433SOL     OW 5308   3.617   0.607   0.231
 1433SOL    HW1 5309   3.605   0.594   0.132
 1433SOL    HW2 5310   3.587   0.526   0.280
 1434SOL     OW 5311   2.630   1.144   1.023
 1434SOL    HW1 5312   2.552   1.161   1.083
 1434SOL    HW2 5313   2.664   1.231   0.987
 1435SOL     OW 5314   2.712   0.798   1.823
 1435SOL    HW1 5315   2.708   0.874   1.888
 1435SOL    HW2 5316   2.734   0.834   1.732
 1436SOL     OW 5317   2.547   1.012   0.665
 1436SOL    HW1 5318   2.616   0.996   0.735
 1436SOL    HW2 5319   2.474   1.069   0.703
 1437SOL     OW 5320   2.197   1.435   1.061
 1437SOL    HW1 5321   2.119   1.404   1.008
 1437SOL    HW2 5322   2.255   1.493   1.004
 1438SOL     OW 5323   3.322   1.505   1.339
 1438SOL    HW1 5324   3.346   1.599   1.365
 1438SOL    HW2 5325   3.306   1.451   1.421
 1439SOL     OW 5326   2.300   0.392   1.499
 1439SOL    HW1 5327   2.382   0.336   1.508
 1439SOL    HW2 5328   2.219   0.334   1.503
 1440SOL     OW 5329   3.465   0.447   0.737
 1440SOL    HW1 5330   3.391   0.493   0.687
 1440SOL    HW2 5331   3.516   0.515   0.790
 1441SOL     OW 5332   2.093   1.713   0.483
 1441SOL    HW1 5333   2.127   1.790   0.537
 1441SOL    HW2 5334   2.137   1.713   0.393
 1442SOL     OW 5335   2.989   1.341   1.690
 1442SOL    HW1 5336   3.036   1.341   1.778
 1442SOL    HW2 5337   2.941   1.254   1.679
 1443SOL     OW 5338   2.092   1.434   0.538
 1443SOL    HW1 5339   2.066   1.530   0.538
 1443SOL    HW2 5340   2.021   1.380   0.583
 1444SOL     OW 5341   2.102   1.091   0.886
 1444SOL    HW1 5342   2.116   1.007   0.938
 1444SOL    HW2 5343   2.047   1.155   0.941
 1445SOL     OW 5344   2.482   1.786   1.439
 1445SOL    HW1 5345   2.390   1.769   1.474
 1445SOL    HW2 5346   2.510   1.878   1.465
 1446SOL     OW 5347   2.468   0.964   0.123
 1446SOL    HW1 5348   2.475   1.048   0.069
 1446SOL    HW2 5349   2.514   0.977   0.211
 1447SOL     OW 5350   3.456   0.114   1.480
 1447SOL    HW1 5351   3.438   0.181   1.408
 1447SOL    HW2 5352   3.453   0.160   1.569
 1448SOL     OW 5353   1.984   0.643   0.563
 1448SOL    HW1 5354   1.939   0.555   0.580
 1448SOL    HW2 5355   1.983   0.697   0.647
 1449SOL     OW 5356   1.889   1.596   0.117
 1449SOL    HW1 5357   1.870   1.500   0.138
 1449SOL    HW2 5358   1.856   1.654   0.192
 1450SOL     OW 5359   3.551   0.922   0.612
 1450SOL    HW1 5360   3.646   0.893   0.620
 1450SOL    HW2 5361   3.543   0.987   0.537
 1451SOL     OW 5362   3.503   1.108   0.432
 1451SOL    HW1 5363   3.589   1.110   0.380
 1451SOL    HW2 5364   3.517   1.155   0.520
 1452SOL     OW 5365   2.475   1.365   0.726
 1452SOL    HW1 5366   2.426   1.278   0.735
 1452SOL    HW2 5367   2.452   1.408   0.639
 1453SOL     OW 5368   3.155   1.228   1.423
 1453SOL    HW1 5369   3.192   1.155   1.365
 1453SOL    HW2 5370   3.207   1.233   1.508
 1454SOL     OW 5371   2.671   0.004   0.502
 1454SOL    HW1 5372   2.711   0.095   0.493
 1454SOL    HW2 5373   2.571   0.012   0.508
 1455SOL     OW 5374   2.059   0.976   1.264
 1455SOL    HW1 5375   2.148   0.931   1.250
 1455SOL    HW2 5376   1.986   0.911   1.245
 1456SOL     OW 5377   3.387   0.999   0.190
 1456SOL    HW1 5378   3.324   0.923   0.203
 1456SOL    HW2 5379   3.435   1.017   0.276
 1457SOL     OW 5380   3.049   1.792   1.616
 1457SOL    HW1 5381   3.073   1.852   1.540
 1457SOL    HW2 5382   3.056   1.697   1.586
 1458SOL     OW 5383   2.179   0.251   1.801
 1458SOL    HW1 5384   2.250   0.322   1.807
 1458SOL    HW2 5385   2.091   0.290   1.829
 1459SOL     OW 5386   3.328   1.417   0.953
 1459SOL    HW1 5387   3.269   1.423   1.033
 1459SOL    HW2 5388   3.313   1.329   0.907
 1460SOL     OW 5389   3.529   1.714   0.572
 1460SOL    HW1 5390   3.488   1.691   0.484
 1460SOL    HW2 5391   3.511   1.640   0.637
 1461SOL     OW 5392   2.460   0.729   0.270
 1461SOL    HW1 5393   2.484   0.798   0.202
 1461SOL    HW2 5394   2.382   0.762   0.324
 1462SOL     OW 5395   3.143   0.345   0.944
 1462SOL    HW1 5396   3.057   0.295   0.931
 1462SOL    HW2 5397   3.205   0.291   1.000
 1463SOL     OW 5398   2.669   0.605   1.465
 1463SOL    HW1 5399   2.622   0.602   1.554
 1463SOL    HW2 5400   2.618   0.550   1.399
 1464SOL     OW 5401   3.256   0.469   1.674
 1464SOL    HW1 5402   3.236   0.512   1.762
 1464SOL    HW2 5403   3.334   0.407   1.683
 1465SOL     OW 5404   2.835   0.890   1.572
 1465SOL    HW1 5405   2.881   0.806   1.543
 1465SOL    HW2 5406   2.779   0.924   1.497
 1466SOL     OW 5407   2.853   0.410   1.242
 1466SOL    HW1 5408   2.776   0.444   1.296
 1466SOL    HW2 5409   2.819   0.359   1.163
 1467SOL     OW 5410   2.903   0.701   0.429
 1467SOL    HW1 5411   2.929   0.697   0.525
 1467SOL    HW2 5412   2.818   0.650   0.415
 1468SOL     OW 5413   1.938   0.811   0.789
 1468SOL    HW1 5414   2.037   0.799   0.798
 1468SOL    HW2 5415   1.914   0.906   0.810
 1469SOL     OW 5416   1.992   1.821   1.571
 1469SOL    HW1 5417   1.982   1.806   1.670
 1469SOL    HW2 5418   1.906   1.857   1.535
 1470SOL     OW 5419   2.727   0.348   0.195
 1470SOL    HW1 5420   2.786   0.411   0.146
 1470SOL    HW2 5421   2.746   0.254   0.166
 1471SOL     OW 5422   3.581   0.585   1.831
 1471SOL    HW1 5423   3.555   0.674   1.795
 1471SOL    HW2 5424   3.579   0.517   1.758
 1472SOL     OW 5425   3.224   1.144   0.545
 1472SOL    HW1 5426   3.307   1.115   0.497
 1472SOL    HW2 5427   3.175   1.211   0.489
 1473SOL     OW 5428   2.412   0.196   0.885
 1473SOL    HW1 5429   2.407   0.191   0.985
 1473SOL    HW2 5430   2.414   0.292   0.856
 1474SOL     OW 5431   2.870   1.456   0.477
 1474SOL    HW1 5432   2.824   1.528   0.425
 1474SOL    HW2 5433   2.866   1.476   0.575
 1475SOL     OW 5434   2.213   1.801   0.853
 1475SOL    HW1 5435   2.263   1.715   0.859
 1475SOL    HW2 5436   2.278   1.878   0.850
 1476SOL     OW 5437   3.657   1.066   0.873
 1476SOL    HW1 5438   3.595   1.051   0.797
 1476SOL    HW2 5439   3.605   1.077   0.958
 1477SOL     OW 5440   3.089   1.550   1.506
 1477SOL    HW1 5441   3.095   1.473   1.570
 1477SOL    HW2 5442   3.037   1.524   1.426
 1478SOL     OW 5443   2.183   0.943   0.242
 1478SOL    HW1 5444   2.265   0.982   0.200
 1478SOL    HW2 5445   2.156   0.861   0.193
 1479SOL     OW 5446   3.320   0.735   0.728
 1479SOL    HW1 5447   3.315   0.670   0.803
 1479SOL    HW2 5448   3.400   0.794   0.741
 1480SOL     OW 5449   2.973   1.776   0.237
 1480SOL    HW1 5450   2.913   1.714   0.287
 1480SOL    HW2 5451   3.004   1.732   0.152
 1481SOL     OW 5452   2.064   0.285   1.498
 1481SOL    HW1 5453   1.984   0.345   1.485
 1481SOL    HW2 5454   2.054   0.236   1.584
 1482SOL     OW 5455   2.326   1.743   0.323
 1482SOL    HW1 5456   2.359   1.782   0.409
 1482SOL    HW2 5457   2.402   1.736   0.258
 1483SOL     OW 5458   3.262   0.107   0.426
 1483SOL    HW1 5459   3.238   0.070   0.336
 1483SOL    HW2 5460   3.361   0.123   0.430
 1484SOL     OW 5461   2.111   1.785   1.241
 1484SOL    HW1 5462   2.168   1.720   1.291
 1484SOL    HW2 5463   2.095   1.752   1.148
 1485SOL     OW 5464   2.802   1.698   0.904
 1485SOL    HW1 5465   2.882   1.641   0.925
 1485SOL    HW2 5466   2.753   1.658   0.827
 1486SOL     OW 5467   2.244   0.700   0.480
 1486SOL    HW1 5468   2.289   0.610   0.477
 1486SOL    HW2 5469   2.150   0.689   0.513
 1487SOL     OW 5470   3.409   0.222   1.729
 1487SOL    HW1 5471   3.404   0.259   1.821
 1487SOL    HW2 5472   3.337   0.153   1.717
 1488SOL     OW 5473   2.476   0.122   0.117
 1488SOL    HW1 5474   2.574   0.100   0.124
 1488SOL    HW2 5475   2.445   0.105   0.024
 1489SOL     OW 5476   2.643   0.264   1.749
 1489SOL    HW1 5477   2.710   0.203   1.792
 1489SOL    HW2 5478   2.570   0.283   1.814
 1490SOL     OW 5479   2.750   1.514   1.195
 1490SOL    HW1 5480   2.727   1.489   1.101
 1490SOL    HW2 5481   2.811   1.445   1.234
 1491SOL     OW 5482   3.213   0.590   1.433
 1491SOL    HW1 5483   3.241   0.547   1.518
 1491SOL    HW2 5484   3.238   0.686   1.434
 1492SOL     OW 5485   2.665   1.402   0.924
 1492SOL    HW1 5486   2.755   1.416   0.882
 1492SOL    HW2 5487   2.594   1.404   0.853
 1493SOL     OW 5488   2.784   0.503   0.899
 1493SOL    HW1 5489   2.759   0.494   0.803
 1493SOL    HW2 5490   2.832   0.421   0.930
 1494SOL     OW 5491   2.401   0.064   0.512
 1494SOL    HW1 5492   2.320   0.065   0.570
 1494SOL    HW2 5493   2.404   0.147   0.457
 1495SOL     OW 5494   3.296   1.188   0.041
 1495SOL    HW1 5495   3.328   1.112   0.098
 1495SOL    HW2 5496   3.204   1.215   0.071
 1496SOL     OW 5497   2.159   0.035   0.171
 1496SOL    HW1 5498   2.208   0.119   0.150
 1496SOL    HW2 5499   2.221  -0.030   0.216
 1497SOL     OW 5500   2.797   0.236   0.480
 1497SOL    HW1 5501   2.749   0.277   0.402
 1497SOL    HW2 5502   2.896   0.234   0.461
 1498SOL     OW 5503   2.938   0.683   1.464
 1498SOL    HW1 5504   2.858   0.622   1.467
 1498SOL    HW2 5505   3.019   0.630   1.440
 1499SOL     OW 5506   3.089   1.570   0.793
 1499SOL    HW1 5507   3.110   1.644   0.728
 1499SOL    HW2 5508   3.157   1.570   0.866
 1500SOL     OW 5509   2.321   1.152   0.741
 1500SOL    HW1 5510   2.250   1.125   0.806
 1500SOL    HW2 5511   2.295   1.124   0.648
 1501SOL     OW 5512   3.133   1.797   0.591
 1501SOL    HW1 5513   3.177   1.861   0.527
 1501SOL    HW2 5514   3.083   1.849   0.661
 1502SOL     OW 5515   2.894   0.549   0.016
 1502SOL    HW1 5516   2.853   0.631  -0.023
 1502SOL    HW2 5517   2.958   0.575   0.089
 1503SOL     OW 5518   1.940   0.556   1.386
 1503SOL    HW1 5519   2.032   0.555   1.345
 1503SOL    HW2 5520   1.934   0.630   1.453
 1504SOL     OW 5521   2.423   0.222   1.147
 1504SOL    HW1 5522   2.461   0.138   1.184
 1504SOL    HW2 5523   2.335   0.241   1.191
 1505SOL     OW 5524   2.728   0.454   0.642
 1505SOL    HW1 5525   2.696   0.526   0.580
 1505SOL    HW2 5526   2.752   0.373   0.589
 1506SOL     OW 5527   2.879   0.039   0.753
 1506SOL    HW1 5528   2.807   0.044   0.684
 1506SOL    HW2 5529   2.855  -0.030   0.822
 1507SOL     OW 5530   3.291   1.173   0.867
 1507SOL    HW1 5531   3.236   1.089   0.860
 1507SOL    HW2 5532   3.317   1.202   0.775
 1508SOL     OW 5533   3.328   0.590   0.992
 1508SOL    HW1 5534   3.298   0.495   0.999
 1508SOL    HW2 5535   3.401   0.606   1.058
 1509SOL     OW 5536   3.719   0.833   0.377
 1509SOL    HW1 5537   3.761   0.769   0.441
 1509SOL    HW2 5538   3.681   0.782   0.299
 1510SOL     OW 5539   2.350   1.385   0.174
 1510SOL    HW1 5540   2.263   1.370   0.221
 1510SOL    HW2 5541   2.333   1.411   0.079
 1511SOL     OW 5542   3.526   1.280   0.657
 1511SOL    HW1 5543   3.625   1.288   0.671
 1511SOL    HW2 5544   3.481   1.364   0.688
 1512SOL     OW 5545   3.252   0.575   0.078
 1512SOL    HW1 5546   3.198   0.554   0.159
 1512SOL    HW2 5547   3.343   0.534   0.087
 1513SOL     OW 5548   2.389   0.256   0.328
 1513SOL    HW1 5549   2.416   0.197   0.253
 1513SOL    HW2 5550   2.389   0.351   0.297
 1514SOL     OW 5551   3.616   1.223   1.588
 1514SOL    HW1 5552   3.707   1.184   1.575
 1514SOL    HW2 5553   3.624   1.319   1.612
 1515SOL     OW 5554   2.926   1.347   1.340
 1515SOL    HW1 5555   2.846   1.324   1.395
 1515SOL    HW2 5556   3.009   1.321   1.389
 1516SOL     OW 5557   3.454   1.629   1.625
 1516SOL    HW1 5558   3.481   1.663   1.535
 1516SOL    HW2 5559   3.533   1.591   1.671
 1517SOL     OW 5560   2.973   1.195   1.100
 1517SOL    HW1 5561   2.933   1.239   1.181
 1517SOL    HW2 5562   2.932   1.232   1.017
 1518SOL     OW 5563   3.500   1.099   1.079
 1518SOL    HW1 5564   3.505   1.180   1.138
 1518SOL    HW2 5565   3.414   1.101   1.028
 1519SOL     OW 5566   2.777   0.089   1.402
 1519SOL    HW1 5567   2.802   0.069   1.307
 1519SOL    HW2 5568   2.849   0.145   1.444
 1520SOL     OW 5569   2.567   1.050   0.368
 1520SOL    HW1 5570   2.553   1.057   0.467
 1520SOL    HW2 5571   2.651   0.999   0.350
 1521SOL     OW 5572   2.272   0.813   1.251
 1521SOL    HW1 5573   2.358   0.825   1.301
 1521SOL    HW2 5574   2.230   0.726   1.278
 1522SOL     OW 5575   3.136   0.386   1.262
 1522SOL    HW1 5576   3.157   0.460   1.326
 1522SOL    HW2 5577   3.047   0.403   1.219
 1523SOL     OW 5578   1.926   1.564   1.331
 1523SOL    HW1 5579   1.880   1.646   1.297
 1523SOL    HW2 5580   2.024   1.583   1.340
 1524SOL     OW 5581   2.229   1.100   0.501
 1524SOL    HW1 5582   2.222   1.183   0.445
 1524SOL    HW2 5583   2.233   1.020   0.441
 1525SOL     OW 5584   2.428   0.537   0.865
 1525SOL    HW1 5585   2.440   0.603   0.791
 1525SOL    HW2 5586   2.474   0.571   0.948
 1526SOL     OW 5587   3.114   1.348   0.388
 1526SOL    HW1 5588   3.164   1.425   0.428
 1526SOL    HW2 5589   3.019   1.350   0.420
 1527SOL     OW 5590   3.134   1.445   1.142
 1527SOL    HW1 5591   3.181   1.458   1.229
 1527SOL    HW2 5592   3.068   1.371   1.151
 1528SOL     OW 5593   3.444   0.639   0.472
 1528SOL    HW1 5594   3.413   0.700   0.545
 1528SOL    HW2 5595   3.494   0.691   0.403
 1529SOL     OW 5596   2.216   1.510   1.329
 1529SOL    HW1 5597   2.195   1.466   1.242
 1529SOL    HW2 5598   2.313   1.536   1.332
 1530SOL     OW 5599   2.264   0.751   1.598
 1530SOL    HW1 5600   2.332   0.806   1.551
 1530SOL    HW2 5601   2.304   0.663   1.625
 1531SOL     OW 5602   3.449   0.779   1.670
 1531SOL    HW1 5603   3.357   0.817   1.665
 1531SOL    HW2 5604   3.509   0.826   1.605
 1532SOL     OW 5605   2.875   0.105   1.770
 1532SOL    HW1 5606   2.881   0.190   1.718
 1532SOL    HW2 5607   2.907   0.029   1.713
 1533SOL     OW 5608   2.366   0.050   1.740
 1533SOL    HW1 5609   2.324  -0.007   1.670
 1533SOL    HW2 5610   2.300   0.119   1.772
 1534SOL     OW 5611   3.222   0.862   1.045
 1534SOL    HW1 5612   3.147   0.862   0.979
 1534SOL    HW2 5613   3.259   0.770   1.054
 1535SOL     OW 5614   3.071   0.525   0.275
 1535SOL    HW1 5615   3.084   0.441   0.329
 1535SOL    HW2 5616   3.042   0.599   0.335
 1536SOL     OW 5617   2.169   0.213   1.231
 1536SOL    HW1 5618   2.146   0.250   1.321
 1536SOL    HW2 5619   2.139   0.118   1.225
 1537SOL     OW 5620   1.899   1.310   1.282
 1537SOL    HW1 5621   1.952   1.261   1.350
 1537SOL    HW2 5622   1.921   1.408   1.287
 1538SOL     OW 5623   3.590   0.935   1.854
 1538SOL    HW1 5624   3.544   0.928   1.765
 1538SOL    HW2 5625   3.528   0.979   1.920
 1539SOL     OW 5626   2.169   0.063   0.618
 1539SOL    HW1 5627   2.158   0.157   0.651
 1539SOL    HW2 5628   2.164   0.000   0.695
 1540SOL     OW 5629   3.484   0.367   0.374
 1540SOL    HW1 5630   3.486   0.291   0.438
 1540SOL    HW2 5631   3.436   0.444   0.414
 1541SOL     OW 5632   2.842   1.573   1.700
 1541SOL    HW1 5633   2.822   1.617   1.612
 1541SOL    HW2 5634   2.881   1.482   1.684
 1542SOL     OW 5635   3.721   1.518   1.605
 1542SOL    HW1 5636   3.735   1.545   1.510
 1542SOL    HW2 5637   3.804   1.540   1.658
 1543SOL     OW 5638   3.402   0.274   0.125
 1543SOL    HW1 5639   3.341   0.199   0.148
 1543SOL    HW2 5640   3.424   0.326   0.208
 1544SOL     OW 5641   3.165   0.838   0.042
 1544SOL    HW1 5642   3.199   0.745   0.057
 1544SOL    HW2 5643   3.183   0.865  -0.053
 1545SOL     OW 5644   2.930   1.333   0.849
 1545SOL    HW1 5645   2.937   1.249   0.794
 1545SOL    HW2 5646   2.992   1.402   0.813
 1546SOL     OW 5647   2.181   0.810   0.949
 1546SOL    HW1 5648   2.274   0.846   0.954
 1546SOL    HW2 5649   2.175   0.725   1.001
 1547SOL     OW 5650   2.201   0.509   1.006
 1547SOL    HW1 5651   2.149   0.426   0.989
 1547SOL    HW2 5652   2.278   0.514   0.942
 1548SOL     OW 5653   3.000   0.380   1.678
 1548SOL    HW1 5654   2.955   0.443   1.742
 1548SOL    HW2 5655   3.093   0.411   1.661
 1549SOL     OW 5656   3.022   0.207   1.477
 1549SOL    HW1 5657   3.022   0.271   1.554
 1549SOL    HW2 5658   3.050   0.255   1.394
 1550SOL     OW 5659   1.950   1.801   0.927
 1550SOL    HW1 5660   1.908   1.715   0.900
 1550SOL    HW2 5661   2.044   1.804   0.893
 1551SOL     OW 5662   2.366   1.568   0.910
 1551SOL    HW1 5663   2.432   1.642   0.919
 1551SOL    HW2 5664   2.410   1.489   0.868
 1552SOL     OW 5665   1.902   0.544   1.114
 1552SOL    HW1 5666   1.987   0.511   1.073
 1552SOL    HW2 5667   1.915   0.559   1.212
 1553SOL     OW 5668   2.051   0.520   1.722
 1553SOL    HW1 5669   2.110   0.480   1.652
 1553SOL    HW2 5670   1.993   0.591   1.681
 1554SOL     OW 5671   3.231   0.950   1.660
 1554SOL    HW1 5672   3.270   1.039   1.680
 1554SOL    HW2 5673   3.241   0.930   1.563
 1555SOL     OW 5674   2.677   0.572   0.325
 1555SOL    HW1 5675   2.684   0.483   0.279
 1555SOL    HW2 5676   2.583   0.606   0.317
 1556SOL     OW 5677   3.519   0.604   1.206
 1556SOL    HW1 5678   3.481   0.535   1.268
 1556SOL    HW2 5679   3.601   0.568   1.162
 1557SOL     OW 5680   2.114   1.564   1.744
 1557SOL    HW1 5681   2.084   1.621   1.820
 1557SOL    HW2 5682   2.107   1.467   1.770
 1558SOL     OW 5683   2.533   0.464   1.269
 1558SOL    HW1 5684   2.499   0.375   1.239
 1558SOL    HW2 5685   2.559   0.518   1.189
 1559SOL     OW 5686   2.792   1.678   1.465
 1559SOL    HW1 5687   2.768   1.660   1.370
 1559SOL    HW2 5688   2.822   1.772   1.475
 1560SOL     OW 5689   2.335   0.500   0.191
 1560SOL    HW1 5690   2.396   0.580   0.195
 1560SOL    HW2 5691   2.240   0.531   0.198
 1561SOL     OW 5692   3.209   1.059   1.234
 1561SOL    HW1 5693   3.233   0.996   1.160
 1561SOL    HW2 5694   3.119   1.099   1.216
 1562SOL     OW 5695   3.164   0.855   0.309
 1562SOL    HW1 5696   3.078   0.824   0.351
 1562SOL    HW2 5697   3.160   0.841   0.210
 1563SOL     OW 5698   3.621   1.747   1.154
 1563SOL    HW1 5699   3.682   1.777   1.081
 1563SOL    HW2 5700   3.583   1.658   1.132
 1564SOL     OW 5701   3.114   1.731   1.128
 1564SOL    HW1 5702   3.198   1.736   1.074
 1564SOL    HW2 5703   3.091   1.635   1.146
 1565SOL     OW 5704   1.945   1.258   1.022
 1565SOL    HW1 5705   1.940   1.257   1.122
 1565SOL    HW2 5706   1.862   1.217   0.984
 1566SOL     OW 5707   2.765   0.086   0.133
 1566SOL    HW1 5708   2.816   0.087   0.047
 1566SOL    HW2 5709   2.821   0.044   0.204
 1567SOL     OW 5710   3.588   0.135   0.523
 1567SOL    HW1 5711   3.661   0.118   0.456
 1567SOL    HW2 5712   3.557   0.048   0.561
 1568SOL     OW 5713   3.250   1.573   0.477
 1568SOL    HW1 5714   3.317   1.585   0.403
 1568SOL    HW2 5715   3.210   1.662   0.500
 1569SOL     OW 5716   1.992   1.794   1.851
 1569SOL    HW1 5717   1.951   1.720   1.904
 1569SOL    HW2 5718   2.056   1.845   1.909
 1570SOL     OW 5719   3.142   0.927   0.672
 1570SOL    HW1 5720   3.202   0.846   0.674
 1570SOL    HW2 5721   3.182   0.996   0.612
 1571SOL     OW 5722   2.692   1.273   1.422
 1571SOL    HW1 5723   2.687   1.306   1.517
 1571SOL    HW2 5724   2.606   1.292   1.376
 1572SOL     OW 5725   2.534   1.616   0.154
 1572SOL    HW1 5726   2.543   1.626   0.055
 1572SOL    HW2 5727   2.494   1.527   0.175
 1573SOL     OW 5728   3.512   1.720   1.394
 1573SOL    HW1 5729   3.565   1.730   1.310
 1573SOL    HW2 5730   3.485   1.810   1.428
 1574SOL     OW 5731   3.703   0.175   0.963
 1574SOL    HW1 5732   3.742   0.090   0.927
 1574SOL    HW2 5733   3.605   0.177   0.944
 1575SOL     OW 5734   2.125   0.326   0.720
 1575SOL    HW1 5735   2.046   0.377   0.686
 1575SOL    HW2 5736   2.116   0.311   0.818
 1576SOL     OW 5737   3.056   1.612   0.031
 1576SOL    HW1 5738   3.062   1.519   0.068
 1576SOL    HW2 5739   2.997   1.612  -0.049
 1577SOL     OW 5740   2.778   0.910   0.291
 1577SOL    HW1 5741   2.841   0.948   0.223
 1577SOL    HW2 5742   2.818   0.827   0.330
 1578SOL     OW 5743   3.476   1.292   1.289
 1578SOL    HW1 5744   3.536   1.295   1.369
 1578SOL    HW2 5745   3.401   1.356   1.302
 1579SOL     OW 5746   2.876   0.236   0.971
 1579SOL    HW1 5747   2.868   0.200   0.878
 1579SOL    HW2 5748   2.874   0.160   1.036
 1580SOL     OW 5749   2.452   1.487   0.491
 1580SOL    HW1 5750   2.494   1.429   0.421
 1580SOL    HW2 5751   2.408   1.566   0.447
 1581SOL     OW 5752   2.117   1.348   0.290
 1581SOL    HW1 5753   2.021   1.349   0.263
 1581SOL    HW2 5754   2.129   1.401   0.374
 1582SOL     OW 5755   1.967   1.013   1.726
 1582SOL    HW1 5756   1.890   0.980   1.780
 1582SOL    HW2 5757   2.052   0.983   1.768
 1583SOL     OW 5758   2.534   0.203   1.489
 1583SOL    HW1 5759   2.624   0.187   1.449
 1583SOL    HW2 5760   2.542   0.208   1.588
 1584SOL     OW 5761   3.302   0.856   1.398
 1584SOL    HW1 5762   3.245   0.908   1.335
 1584SOL    HW2 5763   3.398   0.868   1.374
 1585SOL     OW 5764   1.934   0.166   0.318
 1585SOL    HW1 5765   1.917   0.249   0.264
 1585SOL    HW2 5766   2.024   0.129   0.296
 1586SOL     OW 5767   3.045   1.335   0.119
 1586SOL    HW1 5768   2.946   1.324   0.121
 1586SOL    HW2 5769   3.079   1.350   0.212
 1587SOL     OW 5770   3.355   1.767   0.959
 1587SOL    HW1 5771   3.388   1.831   0.890
 1587SOL    HW2 5772   3.421   1.761   1.034
 1588SOL     OW 5773   2.578   0.565   1.708
 1588SOL    HW1 5774   2.597   0.630   1.782
 1588SOL    HW2 5775   2.638   0.485   1.717
 1589SOL     OW 5776   3.312   1.220   1.633
 1589SOL    HW1 5777   3.303   1.210   1.732
 1589SOL    HW2 5778   3.408   1.213   1.607
 1590SOL     OW 5779   2.252   1.741   1.560
 1590SOL    HW1 5780   2.161   1.782   1.558
 1590SOL    HW2 5781   2.245   1.647   1.592
 1591SOL     OW 5782   3.536   0.883   1.254
 1591SOL    HW1 5783   3.509   0.794   1.217
 1591SOL    HW2 5784   3.537   0.951   1.181
 1592SOL     OW 5785   3.087   0.325   0.449
 1592SOL    HW1 5786   3.152   0.251   0.438
 1592SOL    HW2 5787   3.107   0.375   0.533
 1593SOL     OW 5788   2.456   0.745   0.652
 1593SOL    HW1 5789   2.506   0.830   0.633
 1593SOL    HW2 5790   2.368   0.747   0.604
 1594SOL     OW 5791   3.639   0.342   1.642
 1594SOL    HW1 5792   3.622   0.373   1.548
 1594SOL    HW2 5793   3.555   0.305   1.680
 1595SOL     OW 5794   3.592   0.934   1.517
 1595SOL    HW1 5795   3.630   1.025   1.532
 1595SOL    HW2 5796   3.584   0.917   1.418
 1596SOL     OW 5797   2.721   1.374   0.016
 1596SOL    HW1 5798   2.675   1.389   0.104
 1596SOL    HW2 5799   2.765   1.459  -0.014
 1597SOL     OW 5800   2.523   1.790   0.953
 1597SOL    HW1 5801   2.477   1.878   0.940
 1597SOL    HW2 5802   2.622   1.802   0.946
 1598SOL     OW 5803   2.945   0.984   0.087
 1598SOL    HW1 5804   2.922   1.037   0.005
 1598SOL    HW2 5805   3.026   0.928   0.068
 1599SOL     OW 5806   3.723   1.569   0.851
 1599SOL    HW1 5807   3.652   1.557   0.781
 1599SOL    HW2 5808   3.724   1.490   0.911
 1600SOL     OW 5809   2.083   1.314   1.844
 1600SOL    HW1 5810   2.018   1.241   1.823
 1600SOL    HW2 5811   2.087   1.328   1.942
 1601SOL     OW 5812   1.941   1.240   0.653
 1601SOL    HW1 5813   1.940   1.193   0.741
 1601SOL    HW2 5814   2.023   1.212   0.602
 1602SOL     OW 5815   2.290   0.424   0.520
 1602SOL    HW1 5816   2.320   0.352   0.458
 1602SOL    HW2 5817   2.251   0.384   0.603
 1603SOL     OW 5818   3.567   1.487   1.104
 1603SOL    HW1 5819   3.474   1.462   1.077
 1603SOL    HW2 5820   3.593   1.437   1.186
 1604SOL     OW 5821   2.179   0.547   1.280
 1604SOL    HW1 5822   2.217   0.488   1.352
 1604SOL    HW2 5823   2.219   0.521   1.192
 1605SOL     OW 5824   2.674   1.586   0.687
 1605SOL    HW1 5825   2.706   1.596   0.593
 1605SOL    HW2 5826   2.595   1.524   0.689
 1606SOL     OW 5827   3.286   0.214   1.112
 1606SOL    HW1 5828   3.338   0.149   1.167
 1606SOL    HW2 5829   3.237   0.277   1.173
 1607SOL     OW 5830   2.863   0.034   1.154
 1607SOL    HW1 5831   2.800  -0.038   1.123
 1607SOL    HW2 5832   2.956  -0.002   1.154
 1608SOL     OW 5833   2.632   1.330   0.301
 1608SOL    HW1 5834   2.586   1.243   0.318
 1608SOL    HW2 5835   2.723   1.327   0.342
 1609SOL     OW 5836   2.480   1.567   1.284
 1609SOL    HW1 5837   2.475   1.649   1.341
 1609SOL    HW2 5838   2.569   1.564   1.239
 1610SOL     OW 5839   3.214   0.052   0.168
 1610SOL    HW1 5840   3.249   0.011   0.084
 1610SOL    HW2 5841   3.124   0.014   0.188
 1611SOL     OW 5842   3.162   0.453   0.691
 1611SOL    HW1 5843   3.103   0.533   0.695
 1611SOL    HW2 5844   3.177   0.418   0.784
 1612SOL     OW 5845   3.455   0.221   0.882
 1612SOL    HW1 5846   3.371   0.220   0.936
 1612SOL    HW2 5847   3.457   0.304   0.826
 1613SOL     OW 5848   1.901   1.077   0.300
 1613SOL    HW1 5849   2.000   1.066   0.291
 1613SOL    HW2 5850   1.861   0.991   0.332
 1614SOL     OW 5851   2.737   1.646   0.337
 1614SOL    HW1 5852   2.660   1.611   0.283
 1614SOL    HW2 5853   2.705   1.717   0.399
 1615SOL     OW 5854   2.092   0.628   1.975
 1615SOL    HW1 5855   1.999   0.626   2.012
 1615SOL    HW2 5856   2.093   0.589   1.883
 1616SOL     OW 5857   2.087   0.275   2.858
 1616SOL    HW1 5858   2.122   0.258   2.950
 1616SOL    HW2 5859   1.999   0.230   2.846
 1617SOL     OW 5860   1.881   0.368   2.509
 1617SOL    HW1 5861   1.799   0.411   2.548
 1617SOL    HW2 5862   1.853   0.295   2.446
 1618SOL     OW 5863   2.431   1.275   3.027
 1618SOL    HW1 5864   2.338   1.268   2.990
 1618SOL    HW2 5865   2.442   1.364   3.071
 1619SOL     OW 5866   3.417   1.511   2.565
 1619SOL    HW1 5867   3.360   1.495   2.646
 1619SOL    HW2 5868   3.358   1.521   2.485
 1620SOL     OW 5869   2.997   0.703   2.579
 1620SOL    HW1 5870   3.054   0.781   2.554
 1620SOL    HW2 5871   2.937   0.729   2.655
 1621SOL     OW 5872   3.617   0.607   2.093
 1621SOL    HW1 5873   3.605   0.594   1.994
 1621SOL    HW2 5874   3.587   0.526   2.142
 1622SOL     OW 5875   2.630   1.144   2.885
 1622SOL    HW1 5876   2.552   1.161   2.945
 1622SOL    HW2 5877   2.664   1.231   2.849
 1623SOL     OW 5878   2.712   0.798   3.685
 1623SOL    HW1 5879   2.708   0.874   3.750
 1623SOL    HW2 5880   2.734   0.834   3.594
 1624SOL     OW 5881   2.547   1.012   2.527
 1624SOL    HW1 5882   2.616   0.996   2.597
 1624SOL    HW2 5883   2.474   1.069   2.565
 1625SOL     OW 5884   2.548   1.161   3.665
 1625SOL    HW1 5885   2.608   1.240   3.679
 1625SOL    HW2 5886   2.462   1.192   3.624
 1626SOL     OW 5887   2.197   1.435   2.923
 1626SOL    HW1 5888   2.119   1.404   2.870
 1626SOL    HW2 5889   2.255   1.493   2.866
 1627SOL     OW 5890   3.322   1.505   3.201
 1627SOL    HW1 5891   3.346   1.599   3.227
 1627SOL    HW2 5892   3.306   1.451   3.283
 1628SOL     OW 5893   2.300   0.392   3.361
 1628SOL    HW1 5894   2.382   0.336   3.370
 1628SOL    HW2 5895   2.219   0.334   3.365
 1629SOL     OW 5896   3.465   0.447   2.599
 1629SOL    HW1 5897   3.391   0.493   2.549
 1629SOL    HW2 5898   3.516   0.515   2.652
 1630SOL     OW 5899   2.093   1.713   2.345
 1630SOL    HW1 5900   2.127   1.790   2.399
 1630SOL    HW2 5901   2.137   1.713   2.255
 1631SOL     OW 5902   2.989   1.341   3.552
 1631SOL    HW1 5903   3.036   1.341   3.640
 1631SOL    HW2 5904   2.941   1.254   3.541
 1632SOL     OW 5905   2.092   1.434   2.400
 1632SOL    HW1 5906   2.066   1.530   2.400
 1632SOL    HW2 5907   2.021   1.380   2.445
 1633SOL     OW 5908   2.102   1.091   2.748
 1633SOL    HW1 5909   2.116   1.007   2.800
 1633SOL    HW2 5910   2.047   1.155   2.803
 1634SOL     OW 5911   2.482   1.786   3.301
 1634SOL    HW1 5912   2.390   1.769   3.336
 1634SOL    HW2 5913   2.510   1.878   3.327
 1635SOL     OW 5914   3.456   0.114   3.342
 1635SOL    HW1 5915   3.438   0.181   3.270
 1635SOL    HW2 5916   3.453   0.160   3.431
 1636SOL     OW 5917   1.984   0.643   2.425
 1636SOL    HW1 5918   1.939   0.555   2.442
 1636SOL    HW2 5919   1.983   0.697   2.509
 1637SOL     OW 5920   3.704   1.767   2.221
 1637SOL    HW1 5921   3.758   1.738   2.301
 1637SOL    HW2 5922   3.734   1.857   2.192
 1638SOL     OW 5923   1.889   1.596   1.979
 1638SOL    HW1 5924   1.870   1.500   2.000
 1638SOL    HW2 5925   1.856   1.654   2.054
 1639SOL     OW 5926   3.551   0.922   2.474
 1639SOL    HW1 5927   3.646   0.893   2.482
 1639SOL    HW2 5928   3.543   0.987   2.399
 1640SOL     OW 5929   3.503   1.108   2.294
 1640SOL    HW1 5930   3.589   1.110   2.242
 1640SOL    HW2 5931   3.517   1.155   2.382
 1641SOL     OW 5932   1.975   0.737   3.459
 1641SOL    HW1 5933   2.063   0.724   3.504
 1641SOL    HW2 5934   1.962   0.834   3.437
 1642SOL     OW 5935   2.475   1.365   2.588
 1642SOL    HW1 5936   2.426   1.278   2.597
 1642SOL    HW2 5937   2.452   1.408   2.501
 1643SOL     OW 5938   3.155   1.228   3.285
 1643SOL    HW1 5939   3.192   1.155   3.227
 1643SOL    HW2 5940   3.207   1.233   3.370
 1644SOL     OW 5941   2.671   0.004   2.364
 1644SOL    HW1 5942   2.711   0.095   2.355
 1644SOL    HW2 5943   2.571   0.012   2.370
 1645SOL     OW 5944   2.059   0.976   3.126
 1645SOL    HW1 5945   2.148   0.931   3.112
 1645SOL    HW2 5946   1.986   0.911   3.107
 1646SOL     OW 5947   3.387   0.999   2.052
 1646SOL    HW1 5948   3.324   0.923   2.065
 1646SOL    HW2 5949   3.435   1.017   2.138
 1647SOL     OW 5950   3.049   1.792   3.478
 1647SOL    HW1 5951   3.073   1.852   3.402
 1647SOL    HW2 5952   3.056   1.697   3.448
 1648SOL     OW 5953   2.179   0.251   3.663
 1648SOL    HW1 5954   2.250   0.322   3.669
 1648SOL    HW2 5955   2.091   0.290   3.691
 1649SOL     OW 5956   3.328   1.417   2.815
 1649SOL    HW1 5957   3.269   1.423   2.895
 1649SOL    HW2 5958   3.313   1.329   2.769
 1650SOL     OW 5959   3.529   1.714   2.434
 1650SOL    HW1 5960   3.488   1.691   2.346
 1650SOL    HW2 5961   3.511   1.640   2.499
 1651SOL     OW 5962   2.460   0.729   2.132
 1651SOL    HW1 5963   2.484   0.798   2.064
 1651SOL    HW2 5964   2.382   0.762   2.186
 1652SOL     OW 5965   3.143   0.345   2.806
 1652SOL    HW1 5966   3.057   0.295   2.793
 1652SOL    HW2 5967   3.205   0.291   2.862
 1653SOL     OW 5968   3.438   1.662   2.169
 1653SOL    HW1 5969   3.527   1.708   2.172
 1653SOL    HW2 5970   3.417   1.638   2.074
 1654SOL     OW 5971   2.669   0.605   3.327
 1654SOL    HW1 5972   2.622   0.602   3.416
 1654SOL    HW2 5973   2.618   0.550   3.261
 1655SOL     OW 5974   3.256   0.469   3.536
 1655SOL    HW1 5975   3.236   0.512   3.624
 1655SOL    HW2 5976   3.334   0.407   3.545
 1656SOL     OW 5977   2.835   0.890   3.434
 1656SOL    HW1 5978   2.881   0.806   3.405
 1656SOL    HW2 5979   2.779   0.924   3.359
 1657SOL     OW 5980   2.853   0.410   3.104
 1657SOL    HW1 5981   2.776   0.444   3.158
 1657SOL    HW2 5982   2.819   0.359   3.025
 1658SOL     OW 5983   2.903   0.701   2.291
 1658SOL    HW1 5984   2.929   0.697   2.387
 1658SOL    HW2 5985   2.818   0.650   2.277
 1659SOL     OW 5986   1.938   0.811   2.651
 1659SOL    HW1 5987   2.037   0.799   2.660
 1659SOL    HW2 5988   1.914   0.906   2.672
 1660SOL     OW 5989   1.992   1.821   3.433
 1660SOL    HW1 5990   1.982   1.806   3.532
 1660SOL    HW2 5991   1.906   1.857   3.397
 1661SOL     OW 5992   2.727   0.348   2.057
 1661SOL    HW1 5993   2.786   0.411   2.008
 1661SOL    HW2 5994   2.746   0.254   2.028
 1662SOL     OW 5995   3.581   0.585   3.693
 1662SOL    HW1 5996   3.555   0.674   3.657
 1662SOL    HW2 5997   3.579   0.517   3.620
 1663SOL     OW 5998   3.224   1.144   2.407
 1663SOL    HW1 5999   3.307   1.115   2.359
 1663SOL    HW2 6000   3.175   1.211   2.351
 1664SOL     OW 6001   2.412   0.196   2.747
 1664SOL    HW1 6002   2.407   0.191   2.847
 1664SOL    HW2 6003   2.414   0.292   2.718
 1665SOL     OW 6004   2.870   1.456   2.339
 1665SOL    HW1 6005   2.824   1.528   2.287
 1665SOL    HW2 6006   2.866   1.476   2.437
 1666SOL     OW 6007   2.213   1.801   2.715
 1666SOL    HW1 6008   2.263   1.715   2.721
 1666SOL    HW2 6009   2.278   1.878   2.712
 1667SOL     OW 6010   3.657   1.066   2.735
 1667SOL    HW1 6011   3.595   1.051   2.659
 1667SOL    HW2 6012   3.605   1.077   2.820
 1668SOL     OW 6013   3.089   1.550   3.368
 1668SOL    HW1 6014   3.095   1.473   3.432
 1668SOL    HW2 6015   3.037   1.524   3.288
 1669SOL     OW 6016   2.183   0.943   2.104
 1669SOL    HW1 6017   2.265   0.982   2.062
 1669SOL    HW2 6018   2.156   0.861   2.055
 1670SOL     OW 6019   3.320   0.735   2.590
 1670SOL    HW1 6020   3.315   0.670   2.665
 1670SOL    HW2 6021   3.400   0.794   2.603
 1671SOL     OW 6022   2.323   1.266   3.589
 1671SOL    HW1 6023   2.273   1.267   3.503
 1671SOL    HW2 6024   2.260   1.248   3.665
 1672SOL     OW 6025   2.973   1.776   2.099
 1672SOL    HW1 6026   2.913   1.714   2.149
 1672SOL    HW2 6027   3.004   1.732   2.014
 1673SOL     OW 6028   2.064   0.285   3.360
 1673SOL    HW1 6029   1.984   0.345   3.347
 1673SOL    HW2 6030   2.054   0.236   3.446
 1674SOL     OW 6031   3.494   1.377   1.943
 1674SOL    HW1 6032   3.462   1.471   1.933
 1674SOL    HW2 6033   3.418   1.314   1.931
 1675SOL     OW 6034   2.326   1.743   2.185
 1675SOL    HW1 6035   2.359   1.782   2.271
 1675SOL    HW2 6036   2.402   1.736   2.120
 1676SOL     OW 6037   3.262   0.107   2.288
 1676SOL    HW1 6038   3.238   0.070   2.198
 1676SOL    HW2 6039   3.361   0.123   2.292
 1677SOL     OW 6040   2.111   1.785   3.103
 1677SOL    HW1 6041   2.168   1.720   3.153
 1677SOL    HW2 6042   2.095   1.752   3.010
 1678SOL     OW 6043   2.802   1.698   2.766
 1678SOL    HW1 6044   2.882   1.641   2.787
 1678SOL    HW2 6045   2.753   1.658   2.689
 1679SOL     OW 6046   2.244   0.700   2.342
 1679SOL    HW1 6047   2.289   0.610   2.339
 1679SOL    HW2 6048   2.150   0.689   2.375
 1680SOL     OW 6049   3.409   0.222   3.591
 1680SOL    HW1 6050   3.404   0.259   3.683
 1680SOL    HW2 6051   3.337   0.153   3.579
 1681SOL     OW 6052   2.476   0.122   1.979
 1681SOL    HW1 6053   2.574   0.100   1.986
 1681SOL    HW2 6054   2.445   0.105   1.886
 1682SOL     OW 6055   2.643   0.264   3.611
 1682SOL    HW1 6056   2.710   0.203   3.654
 1682SOL    HW2 6057   2.570   0.283   3.676
 1683SOL     OW 6058   2.750   1.514   3.057
 1683SOL    HW1 6059   2.727   1.489   2.963
 1683SOL    HW2 6060   2.811   1.445   3.096
 1684SOL     OW 6061   3.213   0.590   3.295
 1684SOL    HW1 6062   3.241   0.547   3.380
 1684SOL    HW2 6063   3.238   0.686   3.296
 1685SOL     OW 6064   2.665   1.402   2.786
 1685SOL    HW1 6065   2.755   1.416   2.744
 1685SOL    HW2 6066   2.594   1.404   2.715
 1686SOL     OW 6067   2.784   0.503   2.761
 1686SOL    HW1 6068   2.759   0.494   2.665
 1686SOL    HW2 6069   2.832   0.421   2.792
 1687SOL     OW 6070   2.401   0.064   2.374
 1687SOL    HW1 6071   2.320   0.065   2.432
 1687SOL    HW2 6072   2.404   0.147   2.319
 1688SOL     OW 6073   3.296   1.188   1.903
 1688SOL    HW1 6074   3.328   1.112   1.960
 1688SOL    HW2 6075   3.204   1.215   1.933
 1689SOL     OW 6076   2.159   0.035   2.033
 1689SOL    HW1 6077   2.208   0.119   2.012
 1689SOL    HW2 6078   2.221  -0.030   2.078
 1690SOL     OW 6079   2.797   0.236   2.342
 1690SOL    HW1 6080   2.749   0.277   2.264
 1690SOL    HW2 6081   2.896   0.234   2.323
 1691SOL     OW 6082   2.938   0.683   3.326
 1691SOL    HW1 6083   2.858   0.622   3.329
 1691SOL    HW2 6084   3.019   0.630   3.302
 1692SOL     OW 6085   3.089   1.570   2.655
 1692SOL    HW1 6086   3.110   1.644   2.590
 1692SOL    HW2 6087   3.157   1.570   2.728
 1693SOL     OW 6088   2.321   1.152   2.603
 1693SOL    HW1 6089   2.250   1.125   2.668
 1693SOL    HW2 6090   2.295   1.124   2.510
 1694SOL     OW 6091   3.133   1.797   2.453
 1694SOL    HW1 6092   3.177   1.861   2.389
 1694SOL    HW2 6093   3.083   1.849   2.523
 1695SOL     OW 6094   2.894   0.549   1.878
 1695SOL    HW1 6095   2.853   0.631   1.839
 1695SOL    HW2 6096   2.958   0.575   1.951
 1696SOL     OW 6097   1.940   0.556   3.248
 1696SOL    HW1 6098   2.032   0.555   3.207
 1696SOL    HW2 6099   1.934   0.630   3.315
 1697SOL     OW 6100   2.423   0.222   3.009
 1697SOL    HW1 6101   2.461   0.138   3.046
 1697SOL    HW2 6102   2.335   0.241   3.053
 1698SOL     OW 6103   2.728   0.454   2.504
 1698SOL    HW1 6104   2.696   0.526   2.442
 1698SOL    HW2 6105   2.752   0.373   2.451
 1699SOL     OW 6106   2.879   0.039   2.615
 1699SOL    HW1 6107   2.807   0.044   2.546
 1699SOL    HW2 6108   2.855  -0.030   2.684
 1700SOL     OW 6109   3.291   1.173   2.729
 1700SOL    HW1 6110   3.236   1.089   2.722
 1700SOL    HW2 6111   3.317   1.202   2.637
 1701SOL     OW 6112   3.328   0.590   2.854
 1701SOL    HW1 6113   3.298   0.495   2.861
 1701SOL    HW2 6114   3.401   0.606   2.920
 1702SOL     OW 6115   3.719   0.833   2.239
 1702SOL    HW1 6116   3.761   0.769   2.303
 1702SOL    HW2 6117   3.681   0.782   2.161
 1703SOL     OW 6118   3.526   1.280   2.519
 1703SOL    HW1 6119   3.625   1.288   2.533
 1703SOL    HW2 6120   3.481   1.364   2.550
 1704SOL     OW 6121   3.252   0.575   1.940
 1704SOL    HW1 6122   3.198   0.554   2.021
 1704SOL    HW2 6123   3.343   0.534   1.949
 1705SOL     OW 6124   2.389   0.256   2.190
 1705SOL    HW1 6125   2.416   0.197   2.115
 1705SOL    HW2 6126   2.389   0.351   2.159
 1706SOL     OW 6127   2.926   1.347   3.202
 1706SOL    HW1 6128   2.846   1.324   3.257
 1706SOL    HW2 6129   3.009   1.321   3.251
 1707SOL     OW 6130   3.454   1.629   3.487
 1707SOL    HW1 6131   3.481   1.663   3.397
 1707SOL    HW2 6132   3.533   1.591   3.533
 1708SOL     OW 6133   2.973   1.195   2.962
 1708SOL    HW1 6134   2.933   1.239   3.043
 1708SOL    HW2 6135   2.932   1.232   2.879
 1709SOL     OW 6136   3.500   1.099   2.941
 1709SOL    HW1 6137   3.505   1.180   3.000
 1709SOL    HW2 6138   3.414   1.101   2.890
 1710SOL     OW 6139   2.777   0.089   3.264
 1710SOL    HW1 6140   2.802   0.069   3.169
 1710SOL    HW2 6141   2.849   0.145   3.306
 1711SOL     OW 6142   2.842   1.116   3.581
 1711SOL    HW1 6143   2.743   1.122   3.591
 1711SOL    HW2 6144   2.865   1.036   3.525
 1712SOL     OW 6145   2.567   1.050   2.230
 1712SOL    HW1 6146   2.553   1.057   2.329
 1712SOL    HW2 6147   2.651   0.999   2.212
 1713SOL     OW 6148   2.272   0.813   3.113
 1713SOL    HW1 6149   2.358   0.825   3.163
 1713SOL    HW2 6150   2.230   0.726   3.140
 1714SOL     OW 6151   3.136   0.386   3.124
 1714SOL    HW1 6152   3.157   0.460   3.188
 1714SOL    HW2 6153   3.047   0.403   3.081
 1715SOL     OW 6154   1.926   1.564   3.193
 1715SOL    HW1 6155   1.880   1.646   3.159
 1715SOL    HW2 6156   2.024   1.583   3.202
 1716SOL     OW 6157   2.229   1.100   2.363
 1716SOL    HW1 6158   2.222   1.183   2.307
 1716SOL    HW2 6159   2.233   1.020   2.303
 1717SOL     OW 6160   2.428   0.537   2.727
 1717SOL    HW1 6161   2.440   0.603   2.653
 1717SOL    HW2 6162   2.474   0.571   2.810
 1718SOL     OW 6163   3.114   1.348   2.250
 1718SOL    HW1 6164   3.164   1.425   2.290
 1718SOL    HW2 6165   3.019   1.350   2.282
 1719SOL     OW 6166   3.134   1.445   3.004
 1719SOL    HW1 6167   3.181   1.458   3.091
 1719SOL    HW2 6168   3.068   1.371   3.013
 1720SOL     OW 6169   3.444   0.639   2.334
 1720SOL    HW1 6170   3.413   0.700   2.407
 1720SOL    HW2 6171   3.494   0.691   2.265
 1721SOL     OW 6172   2.216   1.510   3.191
 1721SOL    HW1 6173   2.195   1.466   3.104
 1721SOL    HW2 6174   2.313   1.536   3.194
 1722SOL     OW 6175   2.264   0.751   3.460
 1722SOL    HW1 6176   2.332   0.806   3.413
 1722SOL    HW2 6177   2.304   0.663   3.487
 1723SOL     OW 6178   3.449   0.779   3.532
 1723SOL    HW1 6179   3.357   0.817   3.527
 1723SOL    HW2 6180   3.509   0.826   3.467
 1724SOL     OW 6181   2.875   0.105   3.632
 1724SOL    HW1 6182   2.881   0.190   3.580
 1724SOL    HW2 6183   2.907   0.029   3.575
 1725SOL     OW 6184   2.366   0.050   3.602
 1725SOL    HW1 6185   2.324  -0.007   3.532
 1725SOL    HW2 6186   2.300   0.119   3.634
 1726SOL     OW 6187   2.435   0.870   2.891
 1726SOL    HW1 6188   2.479   0.959   2.882
 1726SOL    HW2 6189   2.372   0.870   2.968
 1727SOL     OW 6190   3.222   0.862   2.907
 1727SOL    HW1 6191   3.147   0.862   2.841
 1727SOL    HW2 6192   3.259   0.770   2.916
 1728SOL     OW 6193   3.071   0.525   2.137
 1728SOL    HW1 6194   3.084   0.441   2.191
 1728SOL    HW2 6195   3.042   0.599   2.197
 1729SOL     OW 6196   2.169   0.213   3.093
 1729SOL    HW1 6197   2.146   0.250   3.183
 1729SOL    HW2 6198   2.139   0.118   3.087
 1730SOL     OW 6199   1.899   1.310   3.144
 1730SOL    HW1 6200   1.952   1.261   3.212
 1730SOL    HW2 6201   1.921   1.408   3.149
 1731SOL     OW 6202   2.594   0.634   2.926
 1731SOL    HW1 6203   2.653   0.608   2.850
 1731SOL    HW2 6204   2.566   0.730   2.915
 1732SOL     OW 6205   2.169   0.063   2.480
 1732SOL    HW1 6206   2.158   0.157   2.513
 1732SOL    HW2 6207   2.164   0.000   2.557
 1733SOL     OW 6208   3.484   0.367   2.236
 1733SOL    HW1 6209   3.486   0.291   2.300
 1733SOL    HW2 6210   3.436   0.444   2.276
 1734SOL     OW 6211   2.885   0.766   2.828
 1734SOL    HW1 6212   2.900   0.787   2.924
 1734SOL    HW2 6213   2.855   0.671   2.819
 1735SOL     OW 6214   2.842   1.573   3.562
 1735SOL    HW1 6215   2.822   1.617   3.474
 1735SOL    HW2 6216   2.881   1.482   3.546
 1736SOL     OW 6217   2.212   0.898   3.666
 1736SOL    HW1 6218   2.288   0.942   3.714
 1736SOL    HW2 6219   2.247   0.851   3.584
 1737SOL     OW 6220   3.402   0.274   1.987
 1737SOL    HW1 6221   3.341   0.199   2.010
 1737SOL    HW2 6222   3.424   0.326   2.070
 1738SOL     OW 6223   3.165   0.838   1.904
 1738SOL    HW1 6224   3.199   0.745   1.919
 1738SOL    HW2 6225   3.183   0.865   1.809
 1739SOL     OW 6226   2.930   1.333   2.711
 1739SOL    HW1 6227   2.937   1.249   2.656
 1739SOL    HW2 6228   2.992   1.402   2.675
 1740SOL     OW 6229   2.181   0.810   2.811
 1740SOL    HW1 6230   2.274   0.846   2.816
 1740SOL    HW2 6231   2.175   0.725   2.863
 1741SOL     OW 6232   2.201   0.509   2.868
 1741SOL    HW1 6233   2.149   0.426   2.851
 1741SOL    HW2 6234   2.278   0.514   2.804
 1742SOL     OW 6235   3.000   0.380   3.540
 1742SOL    HW1 6236   2.955   0.443   3.604
 1742SOL    HW2 6237   3.093   0.411   3.523
 1743SOL     OW 6238   3.022   0.207   3.339
 1743SOL    HW1 6239   3.022   0.271   3.416
 1743SOL    HW2 6240   3.050   0.255   3.256
 1744SOL     OW 6241   1.870   1.326   2.062
 1744SOL    HW1 6242   1.777   1.347   2.031
 1744SOL    HW2 6243   1.880   1.227   2.075
 1745SOL     OW 6244   1.950   1.801   2.789
 1745SOL    HW1 6245   1.908   1.715   2.762
 1745SOL    HW2 6246   2.044   1.804   2.755
 1746SOL     OW 6247   2.366   1.568   2.772
 1746SOL    HW1 6248   2.432   1.642   2.781
 1746SOL    HW2 6249   2.410   1.489   2.730
 1747SOL     OW 6250   2.864   0.796   3.100
 1747SOL    HW1 6251   2.905   0.764   3.186
 1747SOL    HW2 6252   2.768   0.769   3.097
 1748SOL     OW 6253   1.902   0.544   2.976
 1748SOL    HW1 6254   1.987   0.511   2.935
 1748SOL    HW2 6255   1.915   0.559   3.074
 1749SOL     OW 6256   2.051   0.520   3.584
 1749SOL    HW1 6257   2.110   0.480   3.514
 1749SOL    HW2 6258   1.993   0.591   3.543
 1750SOL     OW 6259   3.231   0.950   3.522
 1750SOL    HW1 6260   3.270   1.039   3.542
 1750SOL    HW2 6261   3.241   0.930   3.425
 1751SOL     OW 6262   2.677   0.572   2.187
 1751SOL    HW1 6263   2.684   0.483   2.141
 1751SOL    HW2 6264   2.583   0.606   2.179
 1752SOL     OW 6265   3.519   0.604   3.068
 1752SOL    HW1 6266   3.481   0.535   3.130
 1752SOL    HW2 6267   3.601   0.568   3.024
 1753SOL     OW 6268   2.114   1.564   3.606
 1753SOL    HW1 6269   2.084   1.621   3.682
 1753SOL    HW2 6270   2.107   1.467   3.632
 1754SOL     OW 6271   2.533   0.464   3.131
 1754SOL    HW1 6272   2.499   0.375   3.101
 1754SOL    HW2 6273   2.559   0.518   3.051
 1755SOL     OW 6274   2.792   1.678   3.327
 1755SOL    HW1 6275   2.768   1.660   3.232
 1755SOL    HW2 6276   2.822   1.772   3.337
 1756SOL     OW 6277   2.335   0.500   2.053
 1756SOL    HW1 6278   2.396   0.580   2.057
 1756SOL    HW2 6279   2.240   0.531   2.060
 1757SOL     OW 6280   2.021   1.137   3.328
 1757SOL    HW1 6281   2.043   1.076   3.404
 1757SOL    HW2 6282   2.031   1.088   3.242
 1758SOL     OW 6283   3.209   1.059   3.096
 1758SOL    HW1 6284   3.233   0.996   3.022
 1758SOL    HW2 6285   3.119   1.099   3.078
 1759SOL     OW 6286   3.164   0.855   2.171
 1759SOL    HW1 6287   3.078   0.824   2.213
 1759SOL    HW2 6288   3.160   0.841   2.072
 1760SOL     OW 6289   3.621   1.747   3.016
 1760SOL    HW1 6290   3.682   1.777   2.943
 1760SOL    HW2 6291   3.583   1.658   2.994
 1761SOL     OW 6292   3.114   1.731   2.990
 1761SOL    HW1 6293   3.198   1.736   2.936
 1761SOL    HW2 6294   3.091   1.635   3.008
 1762SOL     OW 6295   1.945   1.258   2.884
 1762SOL    HW1 6296   1.940   1.257   2.984
 1762SOL    HW2 6297   1.862   1.217   2.846
 1763SOL     OW 6298   2.550   1.662   3.578
 1763SOL    HW1 6299   2.494   1.743   3.587
 1763SOL    HW2 6300   2.602   1.666   3.492
 1764SOL     OW 6301   3.588   0.135   2.385
 1764SOL    HW1 6302   3.661   0.118   2.318
 1764SOL    HW2 6303   3.557   0.048   2.423
 1765SOL     OW 6304   3.250   1.573   2.339
 1765SOL    HW1 6305   3.317   1.585   2.265
 1765SOL    HW2 6306   3.210   1.662   2.362
 1766SOL     OW 6307   1.992   1.794   3.713
 1766SOL    HW1 6308   1.951   1.720   3.766
 1766SOL    HW2 6309   2.056   1.845   3.771
 1767SOL     OW 6310   3.142   0.927   2.534
 1767SOL    HW1 6311   3.202   0.846   2.536
 1767SOL    HW2 6312   3.182   0.996   2.474
 1768SOL     OW 6313   2.692   1.273   3.284
 1768SOL    HW1 6314   2.687   1.306   3.379
 1768SOL    HW2 6315   2.606   1.292   3.238
 1769SOL     OW 6316   3.512   1.720   3.256
 1769SOL    HW1 6317   3.565   1.730   3.172
 1769SOL    HW2 6318   3.485   1.810   3.290
 1770SOL     OW 6319   3.703   0.175   2.825
 1770SOL    HW1 6320   3.742   0.090   2.789
 1770SOL    HW2 6321   3.605   0.177   2.806
 1771SOL     OW 6322   2.125   0.326   2.582
 1771SOL    HW1 6323   2.046   0.377   2.548
 1771SOL    HW2 6324   2.116   0.311   2.680
 1772SOL     OW 6325   3.056   1.612   1.893
 1772SOL    HW1 6326   3.062   1.519   1.930
 1772SOL    HW2 6327   2.997   1.612   1.813
 1773SOL     OW 6328   2.684   1.002   3.234
 1773SOL    HW1 6329   2.724   1.001   3.142
 1773SOL    HW2 6330   2.694   1.094   3.274
 1774SOL     OW 6331   2.778   0.910   2.153
 1774SOL    HW1 6332   2.841   0.948   2.085
 1774SOL    HW2 6333   2.818   0.827   2.192
 1775SOL     OW 6334   3.366   1.607   1.906
 1775SOL    HW1 6335   3.274   1.644   1.913
 1775SOL    HW2 6336   3.404   1.627   1.816
 1776SOL     OW 6337   2.234   1.288   3.352
 1776SOL    HW1 6338   2.221   1.381   3.318
 1776SOL    HW2 6339   2.150   1.236   3.339
 1777SOL     OW 6340   3.476   1.292   3.151
 1777SOL    HW1 6341   3.536   1.295   3.231
 1777SOL    HW2 6342   3.401   1.356   3.164
 1778SOL     OW 6343   2.901   1.098   2.558
 1778SOL    HW1 6344   2.831   1.051   2.612
 1778SOL    HW2 6345   2.960   1.030   2.515
 1779SOL     OW 6346   2.876   0.236   2.833
 1779SOL    HW1 6347   2.868   0.200   2.740
 1779SOL    HW2 6348   2.874   0.160   2.898
 1780SOL     OW 6349   2.452   1.487   2.353
 1780SOL    HW1 6350   2.494   1.429   2.283
 1780SOL    HW2 6351   2.408   1.566   2.309
 1781SOL     OW 6352   3.571   0.385   3.243
 1781SOL    HW1 6353   3.644   0.454   3.247
 1781SOL    HW2 6354   3.599   0.310   3.184
 1782SOL     OW 6355   2.117   1.348   2.152
 1782SOL    HW1 6356   2.021   1.349   2.125
 1782SOL    HW2 6357   2.129   1.401   2.236
 1783SOL     OW 6358   1.967   1.013   3.588
 1783SOL    HW1 6359   1.890   0.980   3.642
 1783SOL    HW2 6360   2.052   0.983   3.630
 1784SOL     OW 6361   2.534   0.203   3.351
 1784SOL    HW1 6362   2.624   0.187   3.311
 1784SOL    HW2 6363   2.542   0.208   3.450
 1785SOL     OW 6364   1.937   0.345   1.895
 1785SOL    HW1 6365   1.845   0.317   1.866
 1785SOL    HW2 6366   1.968   0.422   1.839
 1786SOL     OW 6367   3.302   0.856   3.260
 1786SOL    HW1 6368   3.245   0.908   3.197
 1786SOL    HW2 6369   3.398   0.868   3.236
 1787SOL     OW 6370   1.934   0.166   2.180
 1787SOL    HW1 6371   1.917   0.249   2.126
 1787SOL    HW2 6372   2.024   0.129   2.158
 1788SOL     OW 6373   3.045   1.335   1.981
 1788SOL    HW1 6374   2.946   1.324   1.983
 1788SOL    HW2 6375   3.079   1.350   2.074
 1789SOL     OW 6376   2.475   0.842   3.293
 1789SOL    HW1 6377   2.531   0.923   3.276
 1789SOL    HW2 6378   2.534   0.762   3.296
 1790SOL     OW 6379   3.355   1.767   2.821
 1790SOL    HW1 6380   3.388   1.831   2.752
 1790SOL    HW2 6381   3.421   1.761   2.896
 1791SOL     OW 6382   2.578   0.565   3.570
 1791SOL    HW1 6383   2.597   0.630   3.644
 1791SOL    HW2 6384   2.638   0.485   3.579
 1792SOL     OW 6385   3.312   1.220   3.495
 1792SOL    HW1 6386   3.303   1.210   3.594
 1792SOL    HW2 6387   3.408   1.213   3.469
 1793SOL     OW 6388   2.252   1.741   3.422
 1793SOL    HW1 6389   2.161   1.782   3.420
 1793SOL    HW2 6390   2.245   1.647   3.454
 1794SOL     OW 6391   3.536   0.883   3.116
 1794SOL    HW1 6392   3.509   0.794   3.079
 1794SOL    HW2 6393   3.537   0.951   3.043
 1795SOL     OW 6394   3.087   0.325   2.311
 1795SOL    HW1 6395   3.152   0.251   2.300
 1795SOL    HW2 6396   3.107   0.375   2.395
 1796SOL     OW 6397   2.456   0.745   2.514
 1796SOL    HW1 6398   2.506   0.830   2.495
 1796SOL    HW2 6399   2.368   0.747   2.466
 1797SOL     OW 6400   3.639   0.342   3.504
 1797SOL    HW1 6401   3.622   0.373   3.410
 1797SOL    HW2 6402   3.555   0.305   3.542
 1798SOL     OW 6403   3.592   0.934   3.379
 1798SOL    HW1 6404   3.630   1.025   3.394
 1798SOL    HW2 6405   3.584   0.917   3.280
 1799SOL     OW 6406   2.523   1.790   2.815
 1799SOL    HW1 6407   2.477   1.878   2.802
 1799SOL    HW2 6408   2.622   1.802   2.808
 1800SOL     OW 6409   2.721   0.956   2.723
 1800SOL    HW1 6410   2.775   0.887   2.771
 1800SOL    HW2 6411   2.689   1.025   2.789
 1801SOL     OW 6412   2.945   0.984   1.949
 1801SOL    HW1 6413   2.922   1.037   1.867
 1801SOL    HW2 6414   3.026   0.928   1.930
 1802SOL     OW 6415   3.723   1.569   2.713
 1802SOL    HW1 6416   3.652   1.557   2.643
 1802SOL    HW2 6417   3.724   1.490   2.773
 1803SOL     OW 6418   2.083   1.314   3.706
 1803SOL    HW1 6419   2.018   1.241   3.685
 1803SOL    HW2 6420   2.087   1.328   3.804
 1804SOL     OW 6421   1.941   1.240   2.515
 1804SOL    HW1 6422   1.940   1.193   2.603
 1804SOL    HW2 6423   2.023   1.212   2.464
 1805SOL     OW 6424   2.534   1.391   3.486
 1805SOL    HW1 6425   2.456   1.341   3.524
 1805SOL    HW2 6426   2.531   1.486   3.517
 1806SOL     OW 6427   3.686   0.192   3.089
 1806SOL    HW1 6428   3.682   0.102   3.133
 1806SOL    HW2 6429   3.689   0.181   2.990
 1807SOL     OW 6430   2.290   0.424   2.382
 1807SOL    HW1 6431   2.320   0.352   2.320
 1807SOL    HW2 6432   2.251   0.384   2.465
 1808SOL     OW 6433   2.179   0.547   3.142
 1808SOL    HW1 6434   2.217   0.488   3.214
 1808SOL    HW2 6435   2.219   0.521   3.054
 1809SOL     OW 6436   2.674   1.586   2.549
 1809SOL    HW1 6437   2.706   1.596   2.455
 1809SOL    HW2 6438   2.595   1.524   2.551
 1810SOL     OW 6439   3.286   0.214   2.974
 1810SOL    HW1 6440   3.338   0.149   3.029
 1810SOL    HW2 6441   3.237   0.277   3.035
 1811SOL     OW 6442   2.863   0.034   3.016
 1811SOL    HW1 6443   2.800  -0.038   2.985
 1811SOL    HW2 6444   2.956  -0.002   3.016
 1812SOL     OW 6445   2.480   1.567   3.146
 1812SOL    HW1 6446   2.475   1.649   3.203
 1812SOL    HW2 6447   2.569   1.564   3.101
 1813SOL     OW 6448   3.214   0.052   2.030
 1813SOL    HW1 6449   3.249   0.011   1.946
 1813SOL    HW2 6450   3.124   0.014   2.050
 1814SOL     OW 6451   3.162   0.453   2.553
 1814SOL    HW1 6452   3.103   0.533   2.557
 1814SOL    HW2 6453   3.177   0.418   2.646
 1815SOL     OW 6454   3.455   0.221   2.744
 1815SOL    HW1 6455   3.371   0.220   2.798
 1815SOL    HW2 6456   3.457   0.304   2.688
 1816SOL     OW 6457   1.901   1.077   2.162
 1816SOL    HW1 6458   2.000   1.066   2.153
 1816SOL    HW2 6459   1.861   0.991   2.194
 1817SOL     OW 6460   2.737   1.646   2.199
 1817SOL    HW1 6461   2.660   1.611   2.145
 1817SOL    HW2 6462   2.705   1.717   2.261
 1818SOL     OW 6463   2.092   0.628   3.837
 1818SOL    HW1 6464   1.999   0.626   3.874
 1818SOL    HW2 6465   2.093   0.589   3.745
 1819SOL     OW 6466   2.087   0.275   4.720
 1819SOL    HW1 6467   2.122   0.258   4.812
 1819SOL    HW2 6468   1.999   0.230   4.708
 1820SOL     OW 6469   1.881   0.368   4.371
 1820SOL    HW1 6470   1.799   0.411   4.410
 1820SOL    HW2 6471   1.853   0.295   4.308
 1821SOL     OW 6472   2.431   1.275   4.889
 1821SOL    HW1 6473   2.338   1.268   4.852
 1821SOL    HW2 6474   2.442   1.364   4.933
 1822SOL     OW 6475   3.417   1.511   4.427
 1822SOL    HW1 6476   3.360   1.495   4.508
 1822SOL    HW2 6477   3.358   1.521   4.347
 1823SOL     OW 6478   2.997   0.703   4.441
 1823SOL    HW1 6479   3.054   0.781   4.416
 1823SOL    HW2 6480   2.937   0.729   4.517
 1824SOL     OW 6481   3.617   0.607   3.955
 1824SOL    HW1 6482   3.605   0.594   3.856
 1824SOL    HW2 6483   3.587   0.526   4.004
 1825SOL     OW 6484   2.630   1.144   4.747
 1825SOL    HW1 6485   2.552   1.161   4.807
 1825SOL    HW2 6486   2.664   1.231   4.711
 1826SOL     OW 6487   2.547   1.012   4.389
 1826SOL    HW1 6488   2.616   0.996   4.459
 1826SOL    HW2 6489   2.474   1.069   4.427
 1827SOL     OW 6490   2.197   1.435   4.785
 1827SOL    HW1 6491   2.119   1.404   4.732
 1827SOL    HW2 6492   2.255   1.493   4.728
 1828SOL     OW 6493   3.465   0.447   4.461
 1828SOL    HW1 6494   3.391   0.493   4.411
 1828SOL    HW2 6495   3.516   0.515   4.514
 1829SOL     OW 6496   2.093   1.713   4.207
 1829SOL    HW1 6497   2.127   1.790   4.261
 1829SOL    HW2 6498   2.137   1.713   4.117
 1830SOL     OW 6499   2.092   1.434   4.262
 1830SOL    HW1 6500   2.066   1.530   4.262
 1830SOL    HW2 6501   2.021   1.380   4.307
 1831SOL     OW 6502   2.102   1.091   4.610
 1831SOL    HW1 6503   2.116   1.007   4.662
 1831SOL    HW2 6504   2.047   1.155   4.665
 1832SOL     OW 6505   2.482   1.786   5.163
 1832SOL    HW1 6506   2.390   1.769   5.198
 1832SOL    HW2 6507   2.510   1.878   5.189
 1833SOL     OW 6508   2.468   0.964   3.847
 1833SOL    HW1 6509   2.475   1.048   3.793
 1833SOL    HW2 6510   2.514   0.977   3.935
 1834SOL     OW 6511   1.984   0.643   4.287
 1834SOL    HW1 6512   1.939   0.555   4.304
 1834SOL    HW2 6513   1.983   0.697   4.371
 1835SOL     OW 6514   3.704   1.767   4.083
 1835SOL    HW1 6515   3.758   1.738   4.163
 1835SOL    HW2 6516   3.734   1.857   4.054
 1836SOL     OW 6517   1.889   1.596   3.841
 1836SOL    HW1 6518   1.870   1.500   3.862
 1836SOL    HW2 6519   1.856   1.654   3.916
 1837SOL     OW 6520   3.551   0.922   4.336
 1837SOL    HW1 6521   3.646   0.893   4.344
 1837SOL    HW2 6522   3.543   0.987   4.261
 1838SOL     OW 6523   3.503   1.108   4.156
 1838SOL    HW1 6524   3.589   1.110   4.104
 1838SOL    HW2 6525   3.517   1.155   4.244
 1839SOL     OW 6526   2.475   1.365   4.450
 1839SOL    HW1 6527   2.426   1.278   4.459
 1839SOL    HW2 6528   2.452   1.408   4.363
 1840SOL     OW 6529   2.059   0.976   4.988
 1840SOL    HW1 6530   2.148   0.931   4.974
 1840SOL    HW2 6531   1.986   0.911   4.969
 1841SOL     OW 6532   3.387   0.999   3.914
 1841SOL    HW1 6533   3.324   0.923   3.927
 1841SOL    HW2 6534   3.435   1.017   4.000
 1842SOL     OW 6535   3.529   1.714   4.296
 1842SOL    HW1 6536   3.488   1.691   4.208
 1842SOL    HW2 6537   3.511   1.640   4.361
 1843SOL     OW 6538   2.460   0.729   3.994
 1843SOL    HW1 6539   2.484   0.798   3.926
 1843SOL    HW2 6540   2.382   0.762   4.048
 1844SOL     OW 6541   3.143   0.345   4.668
 1844SOL    HW1 6542   3.057   0.295   4.655
 1844SOL    HW2 6543   3.205   0.291   4.724
 1845SOL     OW 6544   3.438   1.662   4.031
 1845SOL    HW1 6545   3.527   1.708   4.034
 1845SOL    HW2 6546   3.417   1.638   3.936
 1846SOL     OW 6547   2.853   0.410   4.966
 1846SOL    HW1 6548   2.776   0.444   5.020
 1846SOL    HW2 6549   2.819   0.359   4.887
 1847SOL     OW 6550   2.903   0.701   4.153
 1847SOL    HW1 6551   2.929   0.697   4.249
 1847SOL    HW2 6552   2.818   0.650   4.139
 1848SOL     OW 6553   1.938   0.811   4.513
 1848SOL    HW1 6554   2.037   0.799   4.522
 1848SOL    HW2 6555   1.914   0.906   4.534
 1849SOL     OW 6556   2.727   0.348   3.919
 1849SOL    HW1 6557   2.786   0.411   3.870
 1849SOL    HW2 6558   2.746   0.254   3.890
 1850SOL     OW 6559   3.224   1.144   4.269
 1850SOL    HW1 6560   3.307   1.115   4.221
 1850SOL    HW2 6561   3.175   1.211   4.213
 1851SOL     OW 6562   2.412   0.196   4.609
 1851SOL    HW1 6563   2.407   0.191   4.709
 1851SOL    HW2 6564   2.414   0.292   4.580
 1852SOL     OW 6565   2.870   1.456   4.201
 1852SOL    HW1 6566   2.824   1.528   4.149
 1852SOL    HW2 6567   2.866   1.476   4.299
 1853SOL     OW 6568   2.213   1.801   4.577
 1853SOL    HW1 6569   2.263   1.715   4.583
 1853SOL    HW2 6570   2.278   1.878   4.574
 1854SOL     OW 6571   3.657   1.066   4.597
 1854SOL    HW1 6572   3.595   1.051   4.521
 1854SOL    HW2 6573   3.605   1.077   4.682
 1855SOL     OW 6574   2.183   0.943   3.966
 1855SOL    HW1 6575   2.265   0.982   3.924
 1855SOL    HW2 6576   2.156   0.861   3.917
 1856SOL     OW 6577   3.320   0.735   4.452
 1856SOL    HW1 6578   3.315   0.670   4.527
 1856SOL    HW2 6579   3.400   0.794   4.465
 1857SOL     OW 6580   2.973   1.776   3.961
 1857SOL    HW1 6581   2.913   1.714   4.011
 1857SOL    HW2 6582   3.004   1.732   3.876
 1858SOL     OW 6583   2.326   1.743   4.047
 1858SOL    HW1 6584   2.359   1.782   4.133
 1858SOL    HW2 6585   2.402   1.736   3.982
 1859SOL     OW 6586   2.111   1.785   4.965
 1859SOL    HW1 6587   2.168   1.720   5.015
 1859SOL    HW2 6588   2.095   1.752   4.872
 1860SOL     OW 6589   2.802   1.698   4.628
 1860SOL    HW1 6590   2.882   1.641   4.649
 1860SOL    HW2 6591   2.753   1.658   4.551
 1861SOL     OW 6592   2.244   0.700   4.204
 1861SOL    HW1 6593   2.289   0.610   4.201
 1861SOL    HW2 6594   2.150   0.689   4.237
 1862SOL     OW 6595   2.476   0.122   3.841
 1862SOL    HW1 6596   2.574   0.100   3.848
 1862SOL    HW2 6597   2.445   0.105   3.748
 1863SOL     OW 6598   2.665   1.402   4.648
 1863SOL    HW1 6599   2.755   1.416   4.606
 1863SOL    HW2 6600   2.594   1.404   4.577
 1864SOL     OW 6601   2.784   0.503   4.623
 1864SOL    HW1 6602   2.759   0.494   4.527
 1864SOL    HW2 6603   2.832   0.421   4.654
 1865SOL     OW 6604   2.401   0.064   4.236
 1865SOL    HW1 6605   2.320   0.065   4.294
 1865SOL    HW2 6606   2.404   0.147   4.181
 1866SOL     OW 6607   3.296   1.188   3.765
 1866SOL    HW1 6608   3.328   1.112   3.822
 1866SOL    HW2 6609   3.204   1.215   3.795
 1867SOL     OW 6610   2.159   0.035   3.895
 1867SOL    HW1 6611   2.208   0.119   3.874
 1867SOL    HW2 6612   2.221  -0.030   3.940
 1868SOL     OW 6613   2.321   1.152   4.465
 1868SOL    HW1 6614   2.250   1.125   4.530
 1868SOL    HW2 6615   2.295   1.124   4.372
 1869SOL     OW 6616   3.133   1.797   4.315
 1869SOL    HW1 6617   3.177   1.861   4.251
 1869SOL    HW2 6618   3.083   1.849   4.385
 1870SOL     OW 6619   2.894   0.549   3.740
 1870SOL    HW1 6620   2.853   0.631   3.701
 1870SOL    HW2 6621   2.958   0.575   3.813
 1871SOL     OW 6622   2.423   0.222   4.871
 1871SOL    HW1 6623   2.461   0.138   4.908
 1871SOL    HW2 6624   2.335   0.241   4.915
 1872SOL     OW 6625   3.291   1.173   4.591
 1872SOL    HW1 6626   3.236   1.089   4.584
 1872SOL    HW2 6627   3.317   1.202   4.499
 1873SOL     OW 6628   3.328   0.590   4.716
 1873SOL    HW1 6629   3.298   0.495   4.723
 1873SOL    HW2 6630   3.401   0.606   4.782
 1874SOL     OW 6631   3.719   0.833   4.101
 1874SOL    HW1 6632   3.761   0.769   4.165
 1874SOL    HW2 6633   3.681   0.782   4.023
 1875SOL     OW 6634   2.350   1.385   3.898
 1875SOL    HW1 6635   2.263   1.370   3.945
 1875SOL    HW2 6636   2.333   1.411   3.803
 1876SOL     OW 6637   3.526   1.280   4.381
 1876SOL    HW1 6638   3.625   1.288   4.395
 1876SOL    HW2 6639   3.481   1.364   4.412
 1877SOL     OW 6640   3.252   0.575   3.802
 1877SOL    HW1 6641   3.198   0.554   3.883
 1877SOL    HW2 6642   3.343   0.534   3.811
 1878SOL     OW 6643   2.389   0.256   4.052
 1878SOL    HW1 6644   2.416   0.197   3.977
 1878SOL    HW2 6645   2.389   0.351   4.021
 1879SOL     OW 6646   2.973   1.195   4.824
 1879SOL    HW1 6647   2.933   1.239   4.905
 1879SOL    HW2 6648   2.932   1.232   4.741
 1880SOL     OW 6649   3.500   1.099   4.803
 1880SOL    HW1 6650   3.505   1.180   4.862
 1880SOL    HW2 6651   3.414   1.101   4.752
 1881SOL     OW 6652   2.567   1.050   4.092
 1881SOL    HW1 6653   2.553   1.057   4.191
 1881SOL    HW2 6654   2.651   0.999   4.074
 1882SOL     OW 6655   2.272   0.813   4.975
 1882SOL    HW1 6656   2.358   0.825   5.025
 1882SOL    HW2 6657   2.230   0.726   5.002
 1883SOL     OW 6658   3.136   0.386   4.986
 1883SOL    HW1 6659   3.157   0.460   5.050
 1883SOL    HW2 6660   3.047   0.403   4.943
 1884SOL     OW 6661   2.229   1.100   4.225
 1884SOL    HW1 6662   2.222   1.183   4.169
 1884SOL    HW2 6663   2.233   1.020   4.165
 1885SOL     OW 6664   2.428   0.537   4.589
 1885SOL    HW1 6665   2.440   0.603   4.515
 1885SOL    HW2 6666   2.474   0.571   4.672
 1886SOL     OW 6667   3.114   1.348   4.112
 1886SOL    HW1 6668   3.164   1.425   4.152
 1886SOL    HW2 6669   3.019   1.350   4.144
 1887SOL     OW 6670   3.134   1.445   4.866
 1887SOL    HW1 6671   3.181   1.458   4.953
 1887SOL    HW2 6672   3.068   1.371   4.875
 1888SOL     OW 6673   3.444   0.639   4.196
 1888SOL    HW1 6674   3.413   0.700   4.269
 1888SOL    HW2 6675   3.494   0.691   4.127
 1889SOL     OW 6676   2.216   1.510   5.053
 1889SOL    HW1 6677   2.195   1.466   4.966
 1889SOL    HW2 6678   2.313   1.536   5.056
 1890SOL     OW 6679   2.435   0.870   4.753
 1890SOL    HW1 6680   2.479   0.959   4.744
 1890SOL    HW2 6681   2.372   0.870   4.830
 1891SOL     OW 6682   3.222   0.862   4.769
 1891SOL    HW1 6683   3.147   0.862   4.703
 1891SOL    HW2 6684   3.259   0.770   4.778
 1892SOL     OW 6685   3.071   0.525   3.999
 1892SOL    HW1 6686   3.084   0.441   4.053
 1892SOL    HW2 6687   3.042   0.599   4.059
 1893SOL     OW 6688   2.169   0.213   4.955
 1893SOL    HW1 6689   2.146   0.250   5.045
 1893SOL    HW2 6690   2.139   0.118   4.949
 1894SOL     OW 6691   1.899   1.310   5.006
 1894SOL    HW1 6692   1.952   1.261   5.074
 1894SOL    HW2 6693   1.921   1.408   5.011
 1895SOL     OW 6694   2.594   0.634   4.788
 1895SOL    HW1 6695   2.653   0.608   4.712
 1895SOL    HW2 6696   2.566   0.730   4.777
 1896SOL     OW 6697   2.169   0.063   4.342
 1896SOL    HW1 6698   2.158   0.157   4.375
 1896SOL    HW2 6699   2.164   0.000   4.419
 1897SOL     OW 6700   3.484   0.367   4.098
 1897SOL    HW1 6701   3.486   0.291   4.162
 1897SOL    HW2 6702   3.436   0.444   4.138
 1898SOL     OW 6703   2.885   0.766   4.690
 1898SOL    HW1 6704   2.900   0.787   4.786
 1898SOL    HW2 6705   2.855   0.671   4.681
 1899SOL     OW 6706   3.402   0.274   3.849
 1899SOL    HW1 6707   3.341   0.199   3.872
 1899SOL    HW2 6708   3.424   0.326   3.932
 1900SOL     OW 6709   3.165   0.838   3.766
 1900SOL    HW1 6710   3.199   0.745   3.781
 1900SOL    HW2 6711   3.183   0.865   3.671
 1901SOL     OW 6712   2.930   1.333   4.573
 1901SOL    HW1 6713   2.937   1.249   4.518
 1901SOL    HW2 6714   2.992   1.402   4.537
 1902SOL     OW 6715   2.181   0.810   4.673
 1902SOL    HW1 6716   2.274   0.846   4.678
 1902SOL    HW2 6717   2.175   0.725   4.725
 1903SOL     OW 6718   2.201   0.509   4.730
 1903SOL    HW1 6719   2.149   0.426   4.713
 1903SOL    HW2 6720   2.278   0.514   4.666
 1904SOL     OW 6721   3.022   0.207   5.201
 1904SOL    HW1 6722   3.022   0.271   5.278
 1904SOL    HW2 6723   3.050   0.255   5.118
 1905SOL     OW 6724   1.870   1.326   3.924
 1905SOL    HW1 6725   1.777   1.347   3.893
 1905SOL    HW2 6726   1.880   1.227   3.937
 1906SOL     OW 6727   1.950   1.801   4.651
 1906SOL    HW1 6728   1.908   1.715   4.624
 1906SOL    HW2 6729   2.044   1.804   4.617
 1907SOL     OW 6730   2.366   1.568   4.634
 1907SOL    HW1 6731   2.432   1.642   4.643
 1907SOL    HW2 6732   2.410   1.489   4.592
 1908SOL     OW 6733   2.864   0.796   4.962
 1908SOL    HW1 6734   2.905   0.764   5.048
 1908SOL    HW2 6735   2.768   0.769   4.959
 1909SOL     OW 6736   1.902   0.544   4.838
 1909SOL    HW1 6737   1.987   0.511   4.797
 1909SOL    HW2 6738   1.915   0.559   4.936
 1910SOL     OW 6739   2.677   0.572   4.049
 1910SOL    HW1 6740   2.684   0.483   4.003
 1910SOL    HW2 6741   2.583   0.606   4.041
 1911SOL     OW 6742   3.519   0.604   4.930
 1911SOL    HW1 6743   3.481   0.535   4.992
 1911SOL    HW2 6744   3.601   0.568   4.886
 1912SOL     OW 6745   2.533   0.464   4.993
 1912SOL    HW1 6746   2.499   0.375   4.963
 1912SOL    HW2 6747   2.559   0.518   4.913
 1913SOL     OW 6748   2.792   1.678   5.189
 1913SOL    HW1 6749   2.768   1.660   5.094
 1913SOL    HW2 6750   2.822   1.772   5.199
 1914SOL     OW 6751   2.335   0.500   3.915
 1914SOL    HW1 6752   2.396   0.580   3.919
 1914SOL    HW2 6753   2.240   0.531   3.922
 1915SOL     OW 6754   3.209   1.059   4.958
 1915SOL    HW1 6755   3.233   0.996   4.884
 1915SOL    HW2 6756   3.119   1.099   4.940
 1916SOL     OW 6757   3.164   0.855   4.033
 1916SOL    HW1 6758   3.078   0.824   4.075
 1916SOL    HW2 6759   3.160   0.841   3.934
 1917SOL     OW 6760   1.945   1.258   4.746
 1917SOL    HW1 6761   1.940   1.257   4.846
 1917SOL    HW2 6762   1.862   1.217   4.708
 1918SOL     OW 6763   3.588   0.135   4.247
 1918SOL    HW1 6764   3.661   0.118   4.180
 1918SOL    HW2 6765   3.557   0.048   4.285
 1919SOL     OW 6766   3.250   1.573   4.201
 1919SOL    HW1 6767   3.317   1.585   4.127
 1919SOL    HW2 6768   3.210   1.662   4.224
 1920SOL     OW 6769   3.142   0.927   4.396
 1920SOL    HW1 6770   3.202   0.846   4.398
 1920SOL    HW2 6771   3.182   0.996   4.336
 1921SOL     OW 6772   2.534   1.616   3.878
 1921SOL    HW1 6773   2.543   1.626   3.779
 1921SOL    HW2 6774   2.494   1.527   3.899
 1922SOL     OW 6775   3.703   0.175   4.687
 1922SOL    HW1 6776   3.742   0.090   4.651
 1922SOL    HW2 6777   3.605   0.177   4.668
 1923SOL     OW 6778   2.125   0.326   4.444
 1923SOL    HW1 6779   2.046   0.377   4.410
 1923SOL    HW2 6780   2.116   0.311   4.542
 1924SOL     OW 6781   3.056   1.612   3.755
 1924SOL    HW1 6782   3.062   1.519   3.792
 1924SOL    HW2 6783   2.997   1.612   3.675
 1925SOL     OW 6784   2.684   1.002   5.096
 1925SOL    HW1 6785   2.724   1.001   5.004
 1925SOL    HW2 6786   2.694   1.094   5.136
 1926SOL     OW 6787   2.778   0.910   4.015
 1926SOL    HW1 6788   2.841   0.948   3.947
 1926SOL    HW2 6789   2.818   0.827   4.054
 1927SOL     OW 6790   3.366   1.607   3.768
 1927SOL    HW1 6791   3.274   1.644   3.775
 1927SOL    HW2 6792   3.404   1.627   3.678
 1928SOL     OW 6793   2.901   1.098   4.420
 1928SOL    HW1 6794   2.831   1.051   4.474
 1928SOL    HW2 6795   2.960   1.030   4.377
 1929SOL     OW 6796   2.452   1.487   4.215
 1929SOL    HW1 6797   2.494   1.429   4.145
 1929SOL    HW2 6798   2.408   1.566   4.171
 1930SOL     OW 6799   3.571   0.385   5.105
 1930SOL    HW1 6800   3.644   0.454   5.109
 1930SOL    HW2 6801   3.599   0.310   5.046
 1931SOL     OW 6802   2.117   1.348   4.014
 1931SOL    HW1 6803   2.021   1.349   3.987
 1931SOL    HW2 6804   2.129   1.401   4.098
 1932SOL     OW 6805   1.937   0.345   3.757
 1932SOL    HW1 6806   1.845   0.317   3.728
 1932SOL    HW2 6807   1.968   0.422   3.701
 1933SOL     OW 6808   1.934   0.166   4.042
 1933SOL    HW1 6809   1.917   0.249   3.988
 1933SOL    HW2 6810   2.024   0.129   4.020
 1934SOL     OW 6811   3.045   1.335   3.843
 1934SOL    HW1 6812   2.946   1.324   3.845
 1934SOL    HW2 6813   3.079   1.350   3.936
 1935SOL     OW 6814   3.312   1.220   5.357
 1935SOL    HW1 6815   3.303   1.210   5.456
 1935SOL    HW2 6816   3.408   1.213   5.331
 1936SOL     OW 6817   3.536   0.883   4.978
 1936SOL    HW1 6818   3.509   0.794   4.941
 1936SOL    HW2 6819   3.537   0.951   4.905
 1937SOL     OW 6820   2.456   0.745   4.376
 1937SOL    HW1 6821   2.506   0.830   4.357
 1937SOL    HW2 6822   2.368   0.747   4.328
 1938SOL     OW 6823   3.592   0.934   5.241
 1938SOL    HW1 6824   3.630   1.025   5.256
 1938SOL    HW2 6825   3.584   0.917   5.142
 1939SOL     OW 6826   2.721   1.374   3.740
 1939SOL    HW1 6827   2.675   1.389   3.828
 1939SOL    HW2 6828   2.765   1.459   3.710
 1940SOL     OW 6829   2.523   1.790   4.677
 1940SOL    HW1 6830   2.477   1.878   4.664
 1940SOL    HW2 6831   2.622   1.802   4.670
 1941SOL     OW 6832   2.721   0.956   4.585
 1941SOL    HW1 6833   2.775   0.887   4.633
 1941SOL    HW2 6834   2.689   1.025   4.651
 1942SOL     OW 6835   2.945   0.984   3.811
 1942SOL    HW1 6836   2.922   1.037   3.729
 1942SOL    HW2 6837   3.026   0.928   3.792
 1943SOL     OW 6838   3.723   1.569   4.575
 1943SOL    HW1 6839   3.652   1.557   4.505
 1943SOL    HW2 6840   3.724   1.490   4.635
 1944SOL     OW 6841   1.941   1.240   4.377
 1944SOL    HW1 6842   1.940   1.193   4.465
 1944SOL    HW2 6843   2.023   1.212   4.326
 1945SOL     OW 6844   3.686   0.192   4.951
 1945SOL    HW1 6845   3.682   0.102   4.995
 1945SOL    HW2 6846   3.689   0.181   4.852
 1946SOL     OW 6847   2.290   0.424   4.244
 1946SOL    HW1 6848   2.320   0.352   4.182
 1946SOL    HW2 6849   2.251   0.384   4.327
 1947SOL     OW 6850   3.567   1.487   4.828
 1947SOL    HW1 6851   3.474   1.462   4.801
 1947SOL    HW2 6852   3.593   1.437   4.910
 1948SOL     OW 6853   2.674   1.586   4.411
 1948SOL    HW1 6854   2.706   1.596   4.317
 1948SOL    HW2 6855   2.595   1.524   4.413
 1949SOL     OW 6856   3.286   0.214   4.836
 1949SOL    HW1 6857   3.338   0.149   4.891
 1949SOL    HW2 6858   3.237   0.277   4.897
 1950SOL     OW 6859   2.863   0.034   4.878
 1950SOL    HW1 6860   2.800  -0.038   4.847
 1950SOL    HW2 6861   2.956  -0.002   4.878
 1951SOL     OW 6862   2.632   1.330   4.025
 1951SOL    HW1 6863   2.586   1.243   4.042
 1951SOL    HW2 6864   2.723   1.327   4.066
 1952SOL     OW 6865   3.214   0.052   3.892
 1952SOL    HW1 6866   3.249   0.011   3.808
 1952SOL    HW2 6867   3.124   0.014   3.912
 1953SOL     OW 6868   3.162   0.453   4.415
 1953SOL    HW1 6869   3.103   0.533   4.419
 1953SOL    HW2 6870   3.177   0.418   4.508
 1954SOL     OW 6871   3.455   0.221   4.606
 1954SOL    HW1 6872   3.371   0.220   4.660
 1954SOL    HW2 6873   3.457   0.304   4.550
 1955SOL     OW 6874   1.901   1.077   4.024
 1955SOL    HW1 6875   2.000   1.066   4.015
 1955SOL    HW2 6876   1.861   0.991   4.056
 1956SOL     OW 6877   2.737   1.646   4.061
 1956SOL    HW1 6878   2.660   1.611   4.007
 1956SOL    HW2 6879   2.705   1.717   4.123
 1957SOL     OW 6880   2.092   2.490   0.113
 1957SOL    HW1 6881   1.999   2.488   0.150
 1957SOL    HW2 6882   2.093   2.451   0.021
 1958SOL     OW 6883   2.087   2.137   0.996
 1958SOL    HW1 6884   2.122   2.120   1.088
 1958SOL    HW2 6885   1.999   2.092   0.984
 1959SOL     OW 6886   1.881   2.230   0.647
 1959SOL    HW1 6887   1.799   2.273   0.686
 1959SOL    HW2 6888   1.853   2.157   0.584
 1960SOL     OW 6889   2.431   3.137   1.165
 1960SOL    HW1 6890   2.338   3.130   1.128
 1960SOL    HW2 6891   2.442   3.226   1.209
 1961SOL     OW 6892   3.417   3.373   0.703
 1961SOL    HW1 6893   3.360   3.357   0.784
 1961SOL    HW2 6894   3.358   3.383   0.623
 1962SOL     OW 6895   2.997   2.565   0.717
 1962SOL    HW1 6896   3.054   2.643   0.692
 1962SOL    HW2 6897   2.937   2.591   0.793
 1963SOL     OW 6898   3.617   2.469   0.231
 1963SOL    HW1 6899   3.605   2.456   0.132
 1963SOL    HW2 6900   3.587   2.388   0.280
 1964SOL     OW 6901   2.630   3.006   1.023
 1964SOL    HW1 6902   2.552   3.023   1.083
 1964SOL    HW2 6903   2.664   3.093   0.987
 1965SOL     OW 6904   2.712   2.660   1.823
 1965SOL    HW1 6905   2.708   2.736   1.888
 1965SOL    HW2 6906   2.734   2.696   1.732
 1966SOL     OW 6907   2.547   2.874   0.665
 1966SOL    HW1 6908   2.616   2.858   0.735
 1966SOL    HW2 6909   2.474   2.931   0.703
 1967SOL     OW 6910   2.548   3.023   1.803
 1967SOL    HW1 6911   2.608   3.102   1.817
 1967SOL    HW2 6912   2.462   3.054   1.762
 1968SOL     OW 6913   2.197   3.297   1.061
 1968SOL    HW1 6914   2.119   3.266   1.008
 1968SOL    HW2 6915   2.255   3.355   1.004
 1969SOL     OW 6916   2.300   2.254   1.499
 1969SOL    HW1 6917   2.382   2.198   1.508
 1969SOL    HW2 6918   2.219   2.196   1.503
 1970SOL     OW 6919   3.465   2.309   0.737
 1970SOL    HW1 6920   3.391   2.355   0.687
 1970SOL    HW2 6921   3.516   2.377   0.790
 1971SOL     OW 6922   2.093   3.575   0.483
 1971SOL    HW1 6923   2.127   3.652   0.537
 1971SOL    HW2 6924   2.137   3.575   0.393
 1972SOL     OW 6925   2.092   3.296   0.538
 1972SOL    HW1 6926   2.066   3.392   0.538
 1972SOL    HW2 6927   2.021   3.242   0.583
 1973SOL     OW 6928   2.102   2.953   0.886
 1973SOL    HW1 6929   2.116   2.869   0.938
 1973SOL    HW2 6930   2.047   3.017   0.941
 1974SOL     OW 6931   2.482   3.648   1.439
 1974SOL    HW1 6932   2.390   3.631   1.474
 1974SOL    HW2 6933   2.510   3.740   1.465
 1975SOL     OW 6934   2.468   2.826   0.123
 1975SOL    HW1 6935   2.475   2.910   0.069
 1975SOL    HW2 6936   2.514   2.839   0.211
 1976SOL     OW 6937   3.456   1.976   1.480
 1976SOL    HW1 6938   3.438   2.043   1.408
 1976SOL    HW2 6939   3.453   2.022   1.569
 1977SOL     OW 6940   1.984   2.505   0.563
 1977SOL    HW1 6941   1.939   2.417   0.580
 1977SOL    HW2 6942   1.983   2.559   0.647
 1978SOL     OW 6943   3.704   3.629   0.359
 1978SOL    HW1 6944   3.758   3.600   0.439
 1978SOL    HW2 6945   3.734   3.719   0.330
 1979SOL     OW 6946   1.889   3.458   0.117
 1979SOL    HW1 6947   1.870   3.362   0.138
 1979SOL    HW2 6948   1.856   3.516   0.192
 1980SOL     OW 6949   3.551   2.784   0.612
 1980SOL    HW1 6950   3.646   2.755   0.620
 1980SOL    HW2 6951   3.543   2.849   0.537
 1981SOL     OW 6952   3.503   2.970   0.432
 1981SOL    HW1 6953   3.589   2.972   0.380
 1981SOL    HW2 6954   3.517   3.017   0.520
 1982SOL     OW 6955   1.975   2.599   1.597
 1982SOL    HW1 6956   2.063   2.586   1.642
 1982SOL    HW2 6957   1.962   2.696   1.575
 1983SOL     OW 6958   2.475   3.227   0.726
 1983SOL    HW1 6959   2.426   3.140   0.735
 1983SOL    HW2 6960   2.452   3.270   0.639
 1984SOL     OW 6961   2.671   1.866   0.502
 1984SOL    HW1 6962   2.711   1.957   0.493
 1984SOL    HW2 6963   2.571   1.874   0.508
 1985SOL     OW 6964   2.059   2.838   1.264
 1985SOL    HW1 6965   2.148   2.793   1.250
 1985SOL    HW2 6966   1.986   2.773   1.245
 1986SOL     OW 6967   3.387   2.861   0.190
 1986SOL    HW1 6968   3.324   2.785   0.203
 1986SOL    HW2 6969   3.435   2.879   0.276
 1987SOL     OW 6970   3.049   3.654   1.616
 1987SOL    HW1 6971   3.073   3.714   1.540
 1987SOL    HW2 6972   3.056   3.559   1.586
 1988SOL     OW 6973   2.179   2.113   1.801
 1988SOL    HW1 6974   2.250   2.184   1.807
 1988SOL    HW2 6975   2.091   2.152   1.829
 1989SOL     OW 6976   3.529   3.576   0.572
 1989SOL    HW1 6977   3.488   3.553   0.484
 1989SOL    HW2 6978   3.511   3.502   0.637
 1990SOL     OW 6979   2.460   2.591   0.270
 1990SOL    HW1 6980   2.484   2.660   0.202
 1990SOL    HW2 6981   2.382   2.624   0.324
 1991SOL     OW 6982   3.143   2.207   0.944
 1991SOL    HW1 6983   3.057   2.157   0.931
 1991SOL    HW2 6984   3.205   2.153   1.000
 1992SOL     OW 6985   3.438   3.524   0.307
 1992SOL    HW1 6986   3.527   3.570   0.310
 1992SOL    HW2 6987   3.417   3.500   0.212
 1993SOL     OW 6988   2.669   2.467   1.465
 1993SOL    HW1 6989   2.622   2.464   1.554
 1993SOL    HW2 6990   2.618   2.412   1.399
 1994SOL     OW 6991   3.256   2.331   1.674
 1994SOL    HW1 6992   3.236   2.374   1.762
 1994SOL    HW2 6993   3.334   2.269   1.683
 1995SOL     OW 6994   2.835   2.752   1.572
 1995SOL    HW1 6995   2.881   2.668   1.543
 1995SOL    HW2 6996   2.779   2.786   1.497
 1996SOL     OW 6997   2.853   2.272   1.242
 1996SOL    HW1 6998   2.776   2.306   1.296
 1996SOL    HW2 6999   2.819   2.221   1.163
 1997SOL     OW 7000   2.903   2.563   0.429
 1997SOL    HW1 7001   2.929   2.559   0.525
 1997SOL    HW2 7002   2.818   2.512   0.415
 1998SOL     OW 7003   1.938   2.673   0.789
 1998SOL    HW1 7004   2.037   2.661   0.798
 1998SOL    HW2 7005   1.914   2.768   0.810
 1999SOL     OW 7006   1.992   3.683   1.571
 1999SOL    HW1 7007   1.982   3.668   1.670
 1999SOL    HW2 7008   1.906   3.719   1.535
 2000SOL     OW 7009   2.727   2.210   0.195
 2000SOL    HW1 7010   2.786   2.273   0.146
 2000SOL    HW2 7011   2.746   2.116   0.166
 2001SOL     OW 7012   3.581   2.447   1.831
 2001SOL    HW1 7013   3.555   2.536   1.795
 2001SOL    HW2 7014   3.579   2.379   1.758
 2002SOL     OW 7015   3.224   3.006   0.545
 2002SOL    HW1 7016   3.307   2.977   0.497
 2002SOL    HW2 7017   3.175   3.073   0.489
 2003SOL     OW 7018   2.412   2.058   0.885
 2003SOL    HW1 7019   2.407   2.053   0.985
 2003SOL    HW2 7020   2.414   2.154   0.856
 2004SOL     OW 7021   2.870   3.318   0.477
 2004SOL    HW1 7022   2.824   3.390   0.425
 2004SOL    HW2 7023   2.866   3.338   0.575
 2005SOL     OW 7024   2.213   3.663   0.853
 2005SOL    HW1 7025   2.263   3.577   0.859
 2005SOL    HW2 7026   2.278   3.740   0.850
 2006SOL     OW 7027   3.657   2.928   0.873
 2006SOL    HW1 7028   3.595   2.913   0.797
 2006SOL    HW2 7029   3.605   2.939   0.958
 2007SOL     OW 7030   2.183   2.805   0.242
 2007SOL    HW1 7031   2.265   2.844   0.200
 2007SOL    HW2 7032   2.156   2.723   0.193
 2008SOL     OW 7033   3.320   2.597   0.728
 2008SOL    HW1 7034   3.315   2.532   0.803
 2008SOL    HW2 7035   3.400   2.656   0.741
 2009SOL     OW 7036   2.323   3.128   1.727
 2009SOL    HW1 7037   2.273   3.129   1.641
 2009SOL    HW2 7038   2.260   3.110   1.803
 2010SOL     OW 7039   2.973   3.638   0.237
 2010SOL    HW1 7040   2.913   3.576   0.287
 2010SOL    HW2 7041   3.004   3.594   0.152
 2011SOL     OW 7042   2.064   2.147   1.498
 2011SOL    HW1 7043   1.984   2.207   1.485
 2011SOL    HW2 7044   2.054   2.098   1.584
 2012SOL     OW 7045   3.494   3.239   0.081
 2012SOL    HW1 7046   3.462   3.333   0.071
 2012SOL    HW2 7047   3.418   3.176   0.069
 2013SOL     OW 7048   2.326   3.605   0.323
 2013SOL    HW1 7049   2.359   3.644   0.409
 2013SOL    HW2 7050   2.402   3.598   0.258
 2014SOL     OW 7051   3.262   1.969   0.426
 2014SOL    HW1 7052   3.238   1.932   0.336
 2014SOL    HW2 7053   3.361   1.985   0.430
 2015SOL     OW 7054   2.111   3.647   1.241
 2015SOL    HW1 7055   2.168   3.582   1.291
 2015SOL    HW2 7056   2.095   3.614   1.148
 2016SOL     OW 7057   2.802   3.560   0.904
 2016SOL    HW1 7058   2.882   3.503   0.925
 2016SOL    HW2 7059   2.753   3.520   0.827
 2017SOL     OW 7060   2.244   2.562   0.480
 2017SOL    HW1 7061   2.289   2.472   0.477
 2017SOL    HW2 7062   2.150   2.551   0.513
 2018SOL     OW 7063   3.409   2.084   1.729
 2018SOL    HW1 7064   3.404   2.121   1.821
 2018SOL    HW2 7065   3.337   2.015   1.717
 2019SOL     OW 7066   2.643   2.126   1.749
 2019SOL    HW1 7067   2.710   2.065   1.792
 2019SOL    HW2 7068   2.570   2.145   1.814
 2020SOL     OW 7069   2.750   3.376   1.195
 2020SOL    HW1 7070   2.727   3.351   1.101
 2020SOL    HW2 7071   2.811   3.307   1.234
 2021SOL     OW 7072   3.213   2.452   1.433
 2021SOL    HW1 7073   3.241   2.409   1.518
 2021SOL    HW2 7074   3.238   2.548   1.434
 2022SOL     OW 7075   2.665   3.264   0.924
 2022SOL    HW1 7076   2.755   3.278   0.882
 2022SOL    HW2 7077   2.594   3.266   0.853
 2023SOL     OW 7078   2.784   2.365   0.899
 2023SOL    HW1 7079   2.759   2.356   0.803
 2023SOL    HW2 7080   2.832   2.283   0.930
 2024SOL     OW 7081   2.401   1.926   0.512
 2024SOL    HW1 7082   2.320   1.927   0.570
 2024SOL    HW2 7083   2.404   2.009   0.457
 2025SOL     OW 7084   3.296   3.050   0.041
 2025SOL    HW1 7085   3.328   2.974   0.098
 2025SOL    HW2 7086   3.204   3.077   0.071
 2026SOL     OW 7087   2.159   1.897   0.171
 2026SOL    HW1 7088   2.208   1.981   0.150
 2026SOL    HW2 7089   2.221   1.832   0.216
 2027SOL     OW 7090   2.797   2.098   0.480
 2027SOL    HW1 7091   2.749   2.139   0.402
 2027SOL    HW2 7092   2.896   2.096   0.461
 2028SOL     OW 7093   2.938   2.545   1.464
 2028SOL    HW1 7094   2.858   2.484   1.467
 2028SOL    HW2 7095   3.019   2.492   1.440
 2029SOL     OW 7096   3.089   3.432   0.793
 2029SOL    HW1 7097   3.110   3.506   0.728
 2029SOL    HW2 7098   3.157   3.432   0.866
 2030SOL     OW 7099   2.321   3.014   0.741
 2030SOL    HW1 7100   2.250   2.987   0.806
 2030SOL    HW2 7101   2.295   2.986   0.648
 2031SOL     OW 7102   3.133   3.659   0.591
 2031SOL    HW1 7103   3.177   3.723   0.527
 2031SOL    HW2 7104   3.083   3.711   0.661
 2032SOL     OW 7105   2.894   2.411   0.016
 2032SOL    HW1 7106   2.853   2.493  -0.023
 2032SOL    HW2 7107   2.958   2.437   0.089
 2033SOL     OW 7108   1.940   2.418   1.386
 2033SOL    HW1 7109   2.032   2.417   1.345
 2033SOL    HW2 7110   1.934   2.492   1.453
 2034SOL     OW 7111   2.423   2.084   1.147
 2034SOL    HW1 7112   2.461   2.000   1.184
 2034SOL    HW2 7113   2.335   2.103   1.191
 2035SOL     OW 7114   2.728   2.316   0.642
 2035SOL    HW1 7115   2.696   2.388   0.580
 2035SOL    HW2 7116   2.752   2.235   0.589
 2036SOL     OW 7117   2.879   1.901   0.753
 2036SOL    HW1 7118   2.807   1.906   0.684
 2036SOL    HW2 7119   2.855   1.832   0.822
 2037SOL     OW 7120   3.291   3.035   0.867
 2037SOL    HW1 7121   3.236   2.951   0.860
 2037SOL    HW2 7122   3.317   3.064   0.775
 2038SOL     OW 7123   3.328   2.452   0.992
 2038SOL    HW1 7124   3.298   2.357   0.999
 2038SOL    HW2 7125   3.401   2.468   1.058
 2039SOL     OW 7126   3.719   2.695   0.377
 2039SOL    HW1 7127   3.761   2.631   0.441
 2039SOL    HW2 7128   3.681   2.644   0.299
 2040SOL     OW 7129   2.350   3.247   0.174
 2040SOL    HW1 7130   2.263   3.232   0.221
 2040SOL    HW2 7131   2.333   3.273   0.079
 2041SOL     OW 7132   3.526   3.142   0.657
 2041SOL    HW1 7133   3.625   3.150   0.671
 2041SOL    HW2 7134   3.481   3.226   0.688
 2042SOL     OW 7135   3.252   2.437   0.078
 2042SOL    HW1 7136   3.198   2.416   0.159
 2042SOL    HW2 7137   3.343   2.396   0.087
 2043SOL     OW 7138   2.389   2.118   0.328
 2043SOL    HW1 7139   2.416   2.059   0.253
 2043SOL    HW2 7140   2.389   2.213   0.297
 2044SOL     OW 7141   3.616   3.085   1.588
 2044SOL    HW1 7142   3.707   3.046   1.575
 2044SOL    HW2 7143   3.624   3.181   1.612
 2045SOL     OW 7144   2.926   3.209   1.340
 2045SOL    HW1 7145   2.846   3.186   1.395
 2045SOL    HW2 7146   3.009   3.183   1.389
 2046SOL     OW 7147   3.454   3.491   1.625
 2046SOL    HW1 7148   3.481   3.525   1.535
 2046SOL    HW2 7149   3.533   3.453   1.671
 2047SOL     OW 7150   2.777   1.951   1.402
 2047SOL    HW1 7151   2.802   1.931   1.307
 2047SOL    HW2 7152   2.849   2.007   1.444
 2048SOL     OW 7153   2.842   2.978   1.719
 2048SOL    HW1 7154   2.743   2.984   1.729
 2048SOL    HW2 7155   2.865   2.898   1.663
 2049SOL     OW 7156   2.567   2.912   0.368
 2049SOL    HW1 7157   2.553   2.919   0.467
 2049SOL    HW2 7158   2.651   2.861   0.350
 2050SOL     OW 7159   2.272   2.675   1.251
 2050SOL    HW1 7160   2.358   2.687   1.301
 2050SOL    HW2 7161   2.230   2.588   1.278
 2051SOL     OW 7162   3.136   2.248   1.262
 2051SOL    HW1 7163   3.157   2.322   1.326
 2051SOL    HW2 7164   3.047   2.265   1.219
 2052SOL     OW 7165   1.926   3.426   1.331
 2052SOL    HW1 7166   1.880   3.508   1.297
 2052SOL    HW2 7167   2.024   3.445   1.340
 2053SOL     OW 7168   2.229   2.962   0.501
 2053SOL    HW1 7169   2.222   3.045   0.445
 2053SOL    HW2 7170   2.233   2.882   0.441
 2054SOL     OW 7171   2.428   2.399   0.865
 2054SOL    HW1 7172   2.440   2.465   0.791
 2054SOL    HW2 7173   2.474   2.433   0.948
 2055SOL     OW 7174   3.114   3.210   0.388
 2055SOL    HW1 7175   3.164   3.287   0.428
 2055SOL    HW2 7176   3.019   3.212   0.420
 2056SOL     OW 7177   3.444   2.501   0.472
 2056SOL    HW1 7178   3.413   2.562   0.545
 2056SOL    HW2 7179   3.494   2.553   0.403
 2057SOL     OW 7180   2.216   3.372   1.329
 2057SOL    HW1 7181   2.195   3.328   1.242
 2057SOL    HW2 7182   2.313   3.398   1.332
 2058SOL     OW 7183   2.264   2.613   1.598
 2058SOL    HW1 7184   2.332   2.668   1.551
 2058SOL    HW2 7185   2.304   2.525   1.625
 2059SOL     OW 7186   2.875   1.967   1.770
 2059SOL    HW1 7187   2.881   2.052   1.718
 2059SOL    HW2 7188   2.907   1.891   1.713
 2060SOL     OW 7189   2.366   1.912   1.740
 2060SOL    HW1 7190   2.324   1.855   1.670
 2060SOL    HW2 7191   2.300   1.981   1.772
 2061SOL     OW 7192   2.435   2.732   1.029
 2061SOL    HW1 7193   2.479   2.821   1.020
 2061SOL    HW2 7194   2.372   2.732   1.106
 2062SOL     OW 7195   3.222   2.724   1.045
 2062SOL    HW1 7196   3.147   2.724   0.979
 2062SOL    HW2 7197   3.259   2.632   1.054
 2063SOL     OW 7198   3.071   2.387   0.275
 2063SOL    HW1 7199   3.084   2.303   0.329
 2063SOL    HW2 7200   3.042   2.461   0.335
 2064SOL     OW 7201   2.169   2.075   1.231
 2064SOL    HW1 7202   2.146   2.112   1.321
 2064SOL    HW2 7203   2.139   1.980   1.225
 2065SOL     OW 7204   1.899   3.172   1.282
 2065SOL    HW1 7205   1.952   3.123   1.350
 2065SOL    HW2 7206   1.921   3.270   1.287
 2066SOL     OW 7207   2.594   2.496   1.064
 2066SOL    HW1 7208   2.653   2.470   0.988
 2066SOL    HW2 7209   2.566   2.592   1.053
 2067SOL     OW 7210   3.590   2.797   1.854
 2067SOL    HW1 7211   3.544   2.790   1.765
 2067SOL    HW2 7212   3.528   2.841   1.920
 2068SOL     OW 7213   2.169   1.925   0.618
 2068SOL    HW1 7214   2.158   2.019   0.651
 2068SOL    HW2 7215   2.164   1.862   0.695
 2069SOL     OW 7216   3.484   2.229   0.374
 2069SOL    HW1 7217   3.486   2.153   0.438
 2069SOL    HW2 7218   3.436   2.306   0.414
 2070SOL     OW 7219   2.885   2.628   0.966
 2070SOL    HW1 7220   2.900   2.649   1.062
 2070SOL    HW2 7221   2.855   2.533   0.957
 2071SOL     OW 7222   2.842   3.435   1.700
 2071SOL    HW1 7223   2.822   3.479   1.612
 2071SOL    HW2 7224   2.881   3.344   1.684
 2072SOL     OW 7225   3.721   3.380   1.605
 2072SOL    HW1 7226   3.735   3.407   1.510
 2072SOL    HW2 7227   3.804   3.402   1.658
 2073SOL     OW 7228   2.212   2.760   1.804
 2073SOL    HW1 7229   2.288   2.804   1.852
 2073SOL    HW2 7230   2.247   2.713   1.722
 2074SOL     OW 7231   3.402   2.136   0.125
 2074SOL    HW1 7232   3.341   2.061   0.148
 2074SOL    HW2 7233   3.424   2.188   0.208
 2075SOL     OW 7234   3.165   2.700   0.042
 2075SOL    HW1 7235   3.199   2.607   0.057
 2075SOL    HW2 7236   3.183   2.727  -0.053
 2076SOL     OW 7237   2.930   3.195   0.849
 2076SOL    HW1 7238   2.937   3.111   0.794
 2076SOL    HW2 7239   2.992   3.264   0.813
 2077SOL     OW 7240   2.181   2.672   0.949
 2077SOL    HW1 7241   2.274   2.708   0.954
 2077SOL    HW2 7242   2.175   2.587   1.001
 2078SOL     OW 7243   2.201   2.371   1.006
 2078SOL    HW1 7244   2.149   2.288   0.989
 2078SOL    HW2 7245   2.278   2.376   0.942
 2079SOL     OW 7246   3.000   2.242   1.678
 2079SOL    HW1 7247   2.955   2.305   1.742
 2079SOL    HW2 7248   3.093   2.273   1.661
 2080SOL     OW 7249   3.022   2.069   1.477
 2080SOL    HW1 7250   3.022   2.133   1.554
 2080SOL    HW2 7251   3.050   2.117   1.394
 2081SOL     OW 7252   1.950   3.663   0.927
 2081SOL    HW1 7253   1.908   3.577   0.900
 2081SOL    HW2 7254   2.044   3.666   0.893
 2082SOL     OW 7255   2.366   3.430   0.910
 2082SOL    HW1 7256   2.432   3.504   0.919
 2082SOL    HW2 7257   2.410   3.351   0.868
 2083SOL     OW 7258   2.864   2.658   1.238
 2083SOL    HW1 7259   2.905   2.626   1.324
 2083SOL    HW2 7260   2.768   2.631   1.235
 2084SOL     OW 7261   1.902   2.406   1.114
 2084SOL    HW1 7262   1.987   2.373   1.073
 2084SOL    HW2 7263   1.915   2.421   1.212
 2085SOL     OW 7264   2.051   2.382   1.722
 2085SOL    HW1 7265   2.110   2.342   1.652
 2085SOL    HW2 7266   1.993   2.453   1.681
 2086SOL     OW 7267   2.677   2.434   0.325
 2086SOL    HW1 7268   2.684   2.345   0.279
 2086SOL    HW2 7269   2.583   2.468   0.317
 2087SOL     OW 7270   3.519   2.466   1.206
 2087SOL    HW1 7271   3.481   2.397   1.268
 2087SOL    HW2 7272   3.601   2.430   1.162
 2088SOL     OW 7273   2.114   3.426   1.744
 2088SOL    HW1 7274   2.084   3.483   1.820
 2088SOL    HW2 7275   2.107   3.329   1.770
 2089SOL     OW 7276   2.533   2.326   1.269
 2089SOL    HW1 7277   2.499   2.237   1.239
 2089SOL    HW2 7278   2.559   2.380   1.189
 2090SOL     OW 7279   2.792   3.540   1.465
 2090SOL    HW1 7280   2.768   3.522   1.370
 2090SOL    HW2 7281   2.822   3.634   1.475
 2091SOL     OW 7282   2.335   2.362   0.191
 2091SOL    HW1 7283   2.396   2.442   0.195
 2091SOL    HW2 7284   2.240   2.393   0.198
 2092SOL     OW 7285   2.021   2.999   1.466
 2092SOL    HW1 7286   2.043   2.938   1.542
 2092SOL    HW2 7287   2.031   2.950   1.380
 2093SOL     OW 7288   3.209   2.921   1.234
 2093SOL    HW1 7289   3.233   2.858   1.160
 2093SOL    HW2 7290   3.119   2.961   1.216
 2094SOL     OW 7291   3.164   2.717   0.309
 2094SOL    HW1 7292   3.078   2.686   0.351
 2094SOL    HW2 7293   3.160   2.703   0.210
 2095SOL     OW 7294   3.621   3.609   1.154
 2095SOL    HW1 7295   3.682   3.639   1.081
 2095SOL    HW2 7296   3.583   3.520   1.132
 2096SOL     OW 7297   1.945   3.120   1.022
 2096SOL    HW1 7298   1.940   3.119   1.122
 2096SOL    HW2 7299   1.862   3.079   0.984
 2097SOL     OW 7300   2.550   3.524   1.716
 2097SOL    HW1 7301   2.494   3.605   1.725
 2097SOL    HW2 7302   2.602   3.528   1.630
 2098SOL     OW 7303   2.765   1.948   0.133
 2098SOL    HW1 7304   2.816   1.949   0.047
 2098SOL    HW2 7305   2.821   1.906   0.204
 2099SOL     OW 7306   3.588   1.997   0.523
 2099SOL    HW1 7307   3.661   1.980   0.456
 2099SOL    HW2 7308   3.557   1.910   0.561
 2100SOL     OW 7309   3.250   3.435   0.477
 2100SOL    HW1 7310   3.317   3.447   0.403
 2100SOL    HW2 7311   3.210   3.524   0.500
 2101SOL     OW 7312   1.992   3.656   1.851
 2101SOL    HW1 7313   1.951   3.582   1.904
 2101SOL    HW2 7314   2.056   3.707   1.909
 2102SOL     OW 7315   3.142   2.789   0.672
 2102SOL    HW1 7316   3.202   2.708   0.674
 2102SOL    HW2 7317   3.182   2.858   0.612
 2103SOL     OW 7318   2.692   3.135   1.422
 2103SOL    HW1 7319   2.687   3.168   1.517
 2103SOL    HW2 7320   2.606   3.154   1.376
 2104SOL     OW 7321   2.534   3.478   0.154
 2104SOL    HW1 7322   2.543   3.488   0.055
 2104SOL    HW2 7323   2.494   3.389   0.175
 2105SOL     OW 7324   3.512   3.582   1.394
 2105SOL    HW1 7325   3.565   3.592   1.310
 2105SOL    HW2 7326   3.485   3.672   1.428
 2106SOL     OW 7327   3.703   2.037   0.963
 2106SOL    HW1 7328   3.742   1.952   0.927
 2106SOL    HW2 7329   3.605   2.039   0.944
 2107SOL     OW 7330   2.125   2.188   0.720
 2107SOL    HW1 7331   2.046   2.239   0.686
 2107SOL    HW2 7332   2.116   2.173   0.818
 2108SOL     OW 7333   2.684   2.864   1.372
 2108SOL    HW1 7334   2.724   2.863   1.280
 2108SOL    HW2 7335   2.694   2.956   1.412
 2109SOL     OW 7336   2.778   2.772   0.291
 2109SOL    HW1 7337   2.841   2.810   0.223
 2109SOL    HW2 7338   2.818   2.689   0.330
 2110SOL     OW 7339   3.366   3.469   0.044
 2110SOL    HW1 7340   3.274   3.506   0.051
 2110SOL    HW2 7341   3.404   3.489  -0.046
 2111SOL     OW 7342   2.234   3.150   1.490
 2111SOL    HW1 7343   2.221   3.243   1.456
 2111SOL    HW2 7344   2.150   3.098   1.477
 2112SOL     OW 7345   2.901   2.960   0.696
 2112SOL    HW1 7346   2.831   2.913   0.750
 2112SOL    HW2 7347   2.960   2.892   0.653
 2113SOL     OW 7348   2.876   2.098   0.971
 2113SOL    HW1 7349   2.868   2.062   0.878
 2113SOL    HW2 7350   2.874   2.022   1.036
 2114SOL     OW 7351   2.452   3.349   0.491
 2114SOL    HW1 7352   2.494   3.291   0.421
 2114SOL    HW2 7353   2.408   3.428   0.447
 2115SOL     OW 7354   3.571   2.247   1.381
 2115SOL    HW1 7355   3.644   2.316   1.385
 2115SOL    HW2 7356   3.599   2.172   1.322
 2116SOL     OW 7357   2.117   3.210   0.290
 2116SOL    HW1 7358   2.021   3.211   0.263
 2116SOL    HW2 7359   2.129   3.263   0.374
 2117SOL     OW 7360   1.967   2.875   1.726
 2117SOL    HW1 7361   1.890   2.842   1.780
 2117SOL    HW2 7362   2.052   2.845   1.768
 2118SOL     OW 7363   2.534   2.065   1.489
 2118SOL    HW1 7364   2.624   2.049   1.449
 2118SOL    HW2 7365   2.542   2.070   1.588
 2119SOL     OW 7366   1.934   2.028   0.318
 2119SOL    HW1 7367   1.917   2.111   0.264
 2119SOL    HW2 7368   2.024   1.991   0.296
 2120SOL     OW 7369   2.475   2.704   1.431
 2120SOL    HW1 7370   2.531   2.785   1.414
 2120SOL    HW2 7371   2.534   2.624   1.434
 2121SOL     OW 7372   3.355   3.629   0.959
 2121SOL    HW1 7373   3.388   3.693   0.890
 2121SOL    HW2 7374   3.421   3.623   1.034
 2122SOL     OW 7375   2.578   2.427   1.708
 2122SOL    HW1 7376   2.597   2.492   1.782
 2122SOL    HW2 7377   2.638   2.347   1.717
 2123SOL     OW 7378   2.252   3.603   1.560
 2123SOL    HW1 7379   2.161   3.644   1.558
 2123SOL    HW2 7380   2.245   3.509   1.592
 2124SOL     OW 7381   3.536   2.745   1.254
 2124SOL    HW1 7382   3.509   2.656   1.217
 2124SOL    HW2 7383   3.537   2.813   1.181
 2125SOL     OW 7384   3.087   2.187   0.449
 2125SOL    HW1 7385   3.152   2.113   0.438
 2125SOL    HW2 7386   3.107   2.237   0.533
 2126SOL     OW 7387   2.456   2.607   0.652
 2126SOL    HW1 7388   2.506   2.692   0.633
 2126SOL    HW2 7389   2.368   2.609   0.604
 2127SOL     OW 7390   3.639   2.204   1.642
 2127SOL    HW1 7391   3.622   2.235   1.548
 2127SOL    HW2 7392   3.555   2.167   1.680
 2128SOL     OW 7393   3.592   2.796   1.517
 2128SOL    HW1 7394   3.630   2.887   1.532
 2128SOL    HW2 7395   3.584   2.779   1.418
 2129SOL     OW 7396   2.721   3.236   0.016
 2129SOL    HW1 7397   2.675   3.251   0.104
 2129SOL    HW2 7398   2.765   3.321  -0.014
 2130SOL     OW 7399   2.523   3.652   0.953
 2130SOL    HW1 7400   2.477   3.740   0.940
 2130SOL    HW2 7401   2.622   3.664   0.946
 2131SOL     OW 7402   2.721   2.818   0.861
 2131SOL    HW1 7403   2.775   2.749   0.909
 2131SOL    HW2 7404   2.689   2.887   0.927
 2132SOL     OW 7405   2.945   2.846   0.087
 2132SOL    HW1 7406   2.922   2.899   0.005
 2132SOL    HW2 7407   3.026   2.790   0.068
 2133SOL     OW 7408   3.723   3.431   0.851
 2133SOL    HW1 7409   3.652   3.419   0.781
 2133SOL    HW2 7410   3.724   3.352   0.911
 2134SOL     OW 7411   2.083   3.176   1.844
 2134SOL    HW1 7412   2.018   3.103   1.823
 2134SOL    HW2 7413   2.087   3.190   1.942
 2135SOL     OW 7414   1.941   3.102   0.653
 2135SOL    HW1 7415   1.940   3.055   0.741
 2135SOL    HW2 7416   2.023   3.074   0.602
 2136SOL     OW 7417   2.534   3.253   1.624
 2136SOL    HW1 7418   2.456   3.203   1.662
 2136SOL    HW2 7419   2.531   3.348   1.655
 2137SOL     OW 7420   3.686   2.054   1.227
 2137SOL    HW1 7421   3.682   1.964   1.271
 2137SOL    HW2 7422   3.689   2.043   1.128
 2138SOL     OW 7423   2.290   2.286   0.520
 2138SOL    HW1 7424   2.320   2.214   0.458
 2138SOL    HW2 7425   2.251   2.246   0.603
 2139SOL     OW 7426   2.179   2.409   1.280
 2139SOL    HW1 7427   2.217   2.350   1.352
 2139SOL    HW2 7428   2.219   2.383   1.192
 2140SOL     OW 7429   2.674   3.448   0.687
 2140SOL    HW1 7430   2.706   3.458   0.593
 2140SOL    HW2 7431   2.595   3.386   0.689
 2141SOL     OW 7432   3.286   2.076   1.112
 2141SOL    HW1 7433   3.338   2.011   1.167
 2141SOL    HW2 7434   3.237   2.139   1.173
 2142SOL     OW 7435   2.863   1.896   1.154
 2142SOL    HW1 7436   2.800   1.824   1.123
 2142SOL    HW2 7437   2.956   1.860   1.154
 2143SOL     OW 7438   2.632   3.192   0.301
 2143SOL    HW1 7439   2.586   3.105   0.318
 2143SOL    HW2 7440   2.723   3.189   0.342
 2144SOL     OW 7441   2.480   3.429   1.284
 2144SOL    HW1 7442   2.475   3.511   1.341
 2144SOL    HW2 7443   2.569   3.426   1.239
 2145SOL     OW 7444   3.214   1.914   0.168
 2145SOL    HW1 7445   3.249   1.873   0.084
 2145SOL    HW2 7446   3.124   1.876   0.188
 2146SOL     OW 7447   3.162   2.315   0.691
 2146SOL    HW1 7448   3.103   2.395   0.695
 2146SOL    HW2 7449   3.177   2.280   0.784
 2147SOL     OW 7450   3.455   2.083   0.882
 2147SOL    HW1 7451   3.371   2.082   0.936
 2147SOL    HW2 7452   3.457   2.166   0.826
 2148SOL     OW 7453   1.901   2.939   0.300
 2148SOL    HW1 7454   2.000   2.928   0.291
 2148SOL    HW2 7455   1.861   2.853   0.332
 2149SOL     OW 7456   2.737   3.508   0.337
 2149SOL    HW1 7457   2.660   3.473   0.283
 2149SOL    HW2 7458   2.705   3.579   0.399
 2150SOL     OW 7459   2.092   2.490   1.975
 2150SOL    HW1 7460   1.999   2.488   2.012
 2150SOL    HW2 7461   2.093   2.451   1.883
 2151SOL     OW 7462   1.881   2.230   2.509
 2151SOL    HW1 7463   1.799   2.273   2.548
 2151SOL    HW2 7464   1.853   2.157   2.446
 2152SOL     OW 7465   2.431   3.137   3.027
 2152SOL    HW1 7466   2.338   3.130   2.990
 2152SOL    HW2 7467   2.442   3.226   3.071
 2153SOL     OW 7468   3.417   3.373   2.565
 2153SOL    HW1 7469   3.360   3.357   2.646
 2153SOL    HW2 7470   3.358   3.383   2.485
 2154SOL     OW 7471   3.617   2.469   2.093
 2154SOL    HW1 7472   3.605   2.456   1.994
 2154SOL    HW2 7473   3.587   2.388   2.142
 2155SOL     OW 7474   2.630   3.006   2.885
 2155SOL    HW1 7475   2.552   3.023   2.945
 2155SOL    HW2 7476   2.664   3.093   2.849
 2156SOL     OW 7477   2.712   2.660   3.685
 2156SOL    HW1 7478   2.708   2.736   3.750
 2156SOL    HW2 7479   2.734   2.696   3.594
 2157SOL     OW 7480   2.548   3.023   3.665
 2157SOL    HW1 7481   2.608   3.102   3.679
 2157SOL    HW2 7482   2.462   3.054   3.624
 2158SOL     OW 7483   2.197   3.297   2.923
 2158SOL    HW1 7484   2.119   3.266   2.870
 2158SOL    HW2 7485   2.255   3.355   2.866
 2159SOL     OW 7486   3.322   3.367   3.201
 2159SOL    HW1 7487   3.346   3.461   3.227
 2159SOL    HW2 7488   3.306   3.313   3.283
 2160SOL     OW 7489   2.300   2.254   3.361
 2160SOL    HW1 7490   2.382   2.198   3.370
 2160SOL    HW2 7491   2.219   2.196   3.365
 2161SOL     OW 7492   3.465   2.309   2.599
 2161SOL    HW1 7493   3.391   2.355   2.549
 2161SOL    HW2 7494   3.516   2.377   2.652
 2162SOL     OW 7495   2.093   3.575   2.345
 2162SOL    HW1 7496   2.127   3.652   2.399
 2162SOL    HW2 7497   2.137   3.575   2.255
 2163SOL     OW 7498   2.092   3.296   2.400
 2163SOL    HW1 7499   2.066   3.392   2.400
 2163SOL    HW2 7500   2.021   3.242   2.445
 2164SOL     OW 7501   2.102   2.953   2.748
 2164SOL    HW1 7502   2.116   2.869   2.800
 2164SOL    HW2 7503   2.047   3.017   2.803
 2165SOL     OW 7504   2.468   2.826   1.985
 2165SOL    HW1 7505   2.475   2.910   1.931
 2165SOL    HW2 7506   2.514   2.839   2.073
 2166SOL     OW 7507   3.456   1.976   3.342
 2166SOL    HW1 7508   3.438   2.043   3.270
 2166SOL    HW2 7509   3.453   2.022   3.431
 2167SOL     OW 7510   3.704   3.629   2.221
 2167SOL    HW1 7511   3.758   3.600   2.301
 2167SOL    HW2 7512   3.734   3.719   2.192
 2168SOL     OW 7513   1.889   3.458   1.979
 2168SOL    HW1 7514   1.870   3.362   2.000
 2168SOL    HW2 7515   1.856   3.516   2.054
 2169SOL     OW 7516   3.551   2.784   2.474
 2169SOL    HW1 7517   3.646   2.755   2.482
 2169SOL    HW2 7518   3.543   2.849   2.399
 2170SOL     OW 7519   3.503   2.970   2.294
 2170SOL    HW1 7520   3.589   2.972   2.242
 2170SOL    HW2 7521   3.517   3.017   2.382
 2171SOL     OW 7522   1.975   2.599   3.459
 2171SOL    HW1 7523   2.063   2.586   3.504
 2171SOL    HW2 7524   1.962   2.696   3.437
 2172SOL     OW 7525   2.475   3.227   2.588
 2172SOL    HW1 7526   2.426   3.140   2.597
 2172SOL    HW2 7527   2.452   3.270   2.501
 2173SOL     OW 7528   3.155   3.090   3.285
 2173SOL    HW1 7529   3.192   3.017   3.227
 2173SOL    HW2 7530   3.207   3.095   3.370
 2174SOL     OW 7531   2.671   1.866   2.364
 2174SOL    HW1 7532   2.711   1.957   2.355
 2174SOL    HW2 7533   2.571   1.874   2.370
 2175SOL     OW 7534   2.059   2.838   3.126
 2175SOL    HW1 7535   2.148   2.793   3.112
 2175SOL    HW2 7536   1.986   2.773   3.107
 2176SOL     OW 7537   3.387   2.861   2.052
 2176SOL    HW1 7538   3.324   2.785   2.065
 2176SOL    HW2 7539   3.435   2.879   2.138
 2177SOL     OW 7540   3.049   3.654   3.478
 2177SOL    HW1 7541   3.073   3.714   3.402
 2177SOL    HW2 7542   3.056   3.559   3.448
 2178SOL     OW 7543   2.179   2.113   3.663
 2178SOL    HW1 7544   2.250   2.184   3.669
 2178SOL    HW2 7545   2.091   2.152   3.691
 2179SOL     OW 7546   3.328   3.279   2.815
 2179SOL    HW1 7547   3.269   3.285   2.895
 2179SOL    HW2 7548   3.313   3.191   2.769
 2180SOL     OW 7549   3.529   3.576   2.434
 2180SOL    HW1 7550   3.488   3.553   2.346
 2180SOL    HW2 7551   3.511   3.502   2.499
 2181SOL     OW 7552   2.460   2.591   2.132
 2181SOL    HW1 7553   2.484   2.660   2.064
 2181SOL    HW2 7554   2.382   2.624   2.186
 2182SOL     OW 7555   3.143   2.207   2.806
 2182SOL    HW1 7556   3.057   2.157   2.793
 2182SOL    HW2 7557   3.205   2.153   2.862
 2183SOL     OW 7558   3.438   3.524   2.169
 2183SOL    HW1 7559   3.527   3.570   2.172
 2183SOL    HW2 7560   3.417   3.500   2.074
 2184SOL     OW 7561   2.669   2.467   3.327
 2184SOL    HW1 7562   2.622   2.464   3.416
 2184SOL    HW2 7563   2.618   2.412   3.261
 2185SOL     OW 7564   3.256   2.331   3.536
 2185SOL    HW1 7565   3.236   2.374   3.624
 2185SOL    HW2 7566   3.334   2.269   3.545
 2186SOL     OW 7567   2.853   2.272   3.104
 2186SOL    HW1 7568   2.776   2.306   3.158
 2186SOL    HW2 7569   2.819   2.221   3.025
 2187SOL     OW 7570   2.903   2.563   2.291
 2187SOL    HW1 7571   2.929   2.559   2.387
 2187SOL    HW2 7572   2.818   2.512   2.277
 2188SOL     OW 7573   1.938   2.673   2.651
 2188SOL    HW1 7574   2.037   2.661   2.660
 2188SOL    HW2 7575   1.914   2.768   2.672
 2189SOL     OW 7576   1.992   3.683   3.433
 2189SOL    HW1 7577   1.982   3.668   3.532
 2189SOL    HW2 7578   1.906   3.719   3.397
 2190SOL     OW 7579   2.727   2.210   2.057
 2190SOL    HW1 7580   2.786   2.273   2.008
 2190SOL    HW2 7581   2.746   2.116   2.028
 2191SOL     OW 7582   3.581   2.447   3.693
 2191SOL    HW1 7583   3.555   2.536   3.657
 2191SOL    HW2 7584   3.579   2.379   3.620
 2192SOL     OW 7585   3.224   3.006   2.407
 2192SOL    HW1 7586   3.307   2.977   2.359
 2192SOL    HW2 7587   3.175   3.073   2.351
 2193SOL     OW 7588   2.412   2.058   2.747
 2193SOL    HW1 7589   2.407   2.053   2.847
 2193SOL    HW2 7590   2.414   2.154   2.718
 2194SOL     OW 7591   2.870   3.318   2.339
 2194SOL    HW1 7592   2.824   3.390   2.287
 2194SOL    HW2 7593   2.866   3.338   2.437
 2195SOL     OW 7594   2.213   3.663   2.715
 2195SOL    HW1 7595   2.263   3.577   2.721
 2195SOL    HW2 7596   2.278   3.740   2.712
 2196SOL     OW 7597   3.657   2.928   2.735
 2196SOL    HW1 7598   3.595   2.913   2.659
 2196SOL    HW2 7599   3.605   2.939   2.820
 2197SOL     OW 7600   3.089   3.412   3.368
 2197SOL    HW1 7601   3.095   3.335   3.432
 2197SOL    HW2 7602   3.037   3.386   3.288
 2198SOL     OW 7603   2.183   2.805   2.104
 2198SOL    HW1 7604   2.265   2.844   2.062
 2198SOL    HW2 7605   2.156   2.723   2.055
 2199SOL     OW 7606   3.320   2.597   2.590
 2199SOL    HW1 7607   3.315   2.532   2.665
 2199SOL    HW2 7608   3.400   2.656   2.603
 2200SOL     OW 7609   2.323   3.128   3.589
 2200SOL    HW1 7610   2.273   3.129   3.503
 2200SOL    HW2 7611   2.260   3.110   3.665
 2201SOL     OW 7612   2.973   3.638   2.099
 2201SOL    HW1 7613   2.913   3.576   2.149
 2201SOL    HW2 7614   3.004   3.594   2.014
 2202SOL     OW 7615   2.064   2.147   3.360
 2202SOL    HW1 7616   1.984   2.207   3.347
 2202SOL    HW2 7617   2.054   2.098   3.446
 2203SOL     OW 7618   3.494   3.239   1.943
 2203SOL    HW1 7619   3.462   3.333   1.933
 2203SOL    HW2 7620   3.418   3.176   1.931
 2204SOL     OW 7621   2.326   3.605   2.185
 2204SOL    HW1 7622   2.359   3.644   2.271
 2204SOL    HW2 7623   2.402   3.598   2.120
 2205SOL     OW 7624   3.262   1.969   2.288
 2205SOL    HW1 7625   3.238   1.932   2.198
 2205SOL    HW2 7626   3.361   1.985   2.292
 2206SOL     OW 7627   2.111   3.647   3.103
 2206SOL    HW1 7628   2.168   3.582   3.153
 2206SOL    HW2 7629   2.095   3.614   3.010
 2207SOL     OW 7630   2.802   3.560   2.766
 2207SOL    HW1 7631   2.882   3.503   2.787
 2207SOL    HW2 7632   2.753   3.520   2.689
 2208SOL     OW 7633   2.244   2.562   2.342
 2208SOL    HW1 7634   2.289   2.472   2.339
 2208SOL    HW2 7635   2.150   2.551   2.375
 2209SOL     OW 7636   3.409   2.084   3.591
 2209SOL    HW1 7637   3.404   2.121   3.683
 2209SOL    HW2 7638   3.337   2.015   3.579
 2210SOL     OW 7639   2.476   1.984   1.979
 2210SOL    HW1 7640   2.574   1.962   1.986
 2210SOL    HW2 7641   2.445   1.967   1.886
 2211SOL     OW 7642   2.643   2.126   3.611
 2211SOL    HW1 7643   2.710   2.065   3.654
 2211SOL    HW2 7644   2.570   2.145   3.676
 2212SOL     OW 7645   3.213   2.452   3.295
 2212SOL    HW1 7646   3.241   2.409   3.380
 2212SOL    HW2 7647   3.238   2.548   3.296
 2213SOL     OW 7648   2.665   3.264   2.786
 2213SOL    HW1 7649   2.755   3.278   2.744
 2213SOL    HW2 7650   2.594   3.266   2.715
 2214SOL     OW 7651   2.401   1.926   2.374
 2214SOL    HW1 7652   2.320   1.927   2.432
 2214SOL    HW2 7653   2.404   2.009   2.319
 2215SOL     OW 7654   2.159   1.897   2.033
 2215SOL    HW1 7655   2.208   1.981   2.012
 2215SOL    HW2 7656   2.221   1.832   2.078
 2216SOL     OW 7657   2.797   2.098   2.342
 2216SOL    HW1 7658   2.749   2.139   2.264
 2216SOL    HW2 7659   2.896   2.096   2.323
 2217SOL     OW 7660   2.938   2.545   3.326
 2217SOL    HW1 7661   2.858   2.484   3.329
 2217SOL    HW2 7662   3.019   2.492   3.302
 2218SOL     OW 7663   3.089   3.432   2.655
 2218SOL    HW1 7664   3.110   3.506   2.590
 2218SOL    HW2 7665   3.157   3.432   2.728
 2219SOL     OW 7666   2.321   3.014   2.603
 2219SOL    HW1 7667   2.250   2.987   2.668
 2219SOL    HW2 7668   2.295   2.986   2.510
 2220SOL     OW 7669   3.133   3.659   2.453
 2220SOL    HW1 7670   3.177   3.723   2.389
 2220SOL    HW2 7671   3.083   3.711   2.523
 2221SOL     OW 7672   2.894   2.411   1.878
 2221SOL    HW1 7673   2.853   2.493   1.839
 2221SOL    HW2 7674   2.958   2.437   1.951
 2222SOL     OW 7675   1.940   2.418   3.248
 2222SOL    HW1 7676   2.032   2.417   3.207
 2222SOL    HW2 7677   1.934   2.492   3.315
 2223SOL     OW 7678   2.423   2.084   3.009
 2223SOL    HW1 7679   2.461   2.000   3.046
 2223SOL    HW2 7680   2.335   2.103   3.053
 2224SOL     OW 7681   2.879   1.901   2.615
 2224SOL    HW1 7682   2.807   1.906   2.546
 2224SOL    HW2 7683   2.855   1.832   2.684
 2225SOL     OW 7684   3.291   3.035   2.729
 2225SOL    HW1 7685   3.236   2.951   2.722
 2225SOL    HW2 7686   3.317   3.064   2.637
 2226SOL     OW 7687   3.328   2.452   2.854
 2226SOL    HW1 7688   3.298   2.357   2.861
 2226SOL    HW2 7689   3.401   2.468   2.920
 2227SOL     OW 7690   3.719   2.695   2.239
 2227SOL    HW1 7691   3.761   2.631   2.303
 2227SOL    HW2 7692   3.681   2.644   2.161
 2228SOL     OW 7693   2.350   3.247   2.036
 2228SOL    HW1 7694   2.263   3.232   2.083
 2228SOL    HW2 7695   2.333   3.273   1.941
 2229SOL     OW 7696   3.526   3.142   2.519
 2229SOL    HW1 7697   3.625   3.150   2.533
 2229SOL    HW2 7698   3.481   3.226   2.550
 2230SOL     OW 7699   3.252   2.437   1.940
 2230SOL    HW1 7700   3.198   2.416   2.021
 2230SOL    HW2 7701   3.343   2.396   1.949
 2231SOL     OW 7702   2.389   2.118   2.190
 2231SOL    HW1 7703   2.416   2.059   2.115
 2231SOL    HW2 7704   2.389   2.213   2.159
 2232SOL     OW 7705   3.616   3.085   3.450
 2232SOL    HW1 7706   3.707   3.046   3.437
 2232SOL    HW2 7707   3.624   3.181   3.474
 2233SOL     OW 7708   3.454   3.491   3.487
 2233SOL    HW1 7709   3.481   3.525   3.397
 2233SOL    HW2 7710   3.533   3.453   3.533
 2234SOL     OW 7711   2.973   3.057   2.962
 2234SOL    HW1 7712   2.933   3.101   3.043
 2234SOL    HW2 7713   2.932   3.094   2.879
 2235SOL     OW 7714   3.500   2.961   2.941
 2235SOL    HW1 7715   3.505   3.042   3.000
 2235SOL    HW2 7716   3.414   2.963   2.890
 2236SOL     OW 7717   2.777   1.951   3.264
 2236SOL    HW1 7718   2.802   1.931   3.169
 2236SOL    HW2 7719   2.849   2.007   3.306
 2237SOL     OW 7720   2.272   2.675   3.113
 2237SOL    HW1 7721   2.358   2.687   3.163
 2237SOL    HW2 7722   2.230   2.588   3.140
 2238SOL     OW 7723   3.136   2.248   3.124
 2238SOL    HW1 7724   3.157   2.322   3.188
 2238SOL    HW2 7725   3.047   2.265   3.081
 2239SOL     OW 7726   1.926   3.426   3.193
 2239SOL    HW1 7727   1.880   3.508   3.159
 2239SOL    HW2 7728   2.024   3.445   3.202
 2240SOL     OW 7729   2.229   2.962   2.363
 2240SOL    HW1 7730   2.222   3.045   2.307
 2240SOL    HW2 7731   2.233   2.882   2.303
 2241SOL     OW 7732   3.114   3.210   2.250
 2241SOL    HW1 7733   3.164   3.287   2.290
 2241SOL    HW2 7734   3.019   3.212   2.282
 2242SOL     OW 7735   3.444   2.501   2.334
 2242SOL    HW1 7736   3.413   2.562   2.407
 2242SOL    HW2 7737   3.494   2.553   2.265
 2243SOL     OW 7738   2.216   3.372   3.191
 2243SOL    HW1 7739   2.195   3.328   3.104
 2243SOL    HW2 7740   2.313   3.398   3.194
 2244SOL     OW 7741   2.264   2.613   3.460
 2244SOL    HW1 7742   2.332   2.668   3.413
 2244SOL    HW2 7743   2.304   2.525   3.487
 2245SOL     OW 7744   3.449   2.641   3.532
 2245SOL    HW1 7745   3.357   2.679   3.527
 2245SOL    HW2 7746   3.509   2.688   3.467
 2246SOL     OW 7747   2.875   1.967   3.632
 2246SOL    HW1 7748   2.881   2.052   3.580
 2246SOL    HW2 7749   2.907   1.891   3.575
 2247SOL     OW 7750   2.366   1.912   3.602
 2247SOL    HW1 7751   2.324   1.855   3.532
 2247SOL    HW2 7752   2.300   1.981   3.634
 2248SOL     OW 7753   2.435   2.732   2.891
 2248SOL    HW1 7754   2.479   2.821   2.882
 2248SOL    HW2 7755   2.372   2.732   2.968
 2249SOL     OW 7756   3.222   2.724   2.907
 2249SOL    HW1 7757   3.147   2.724   2.841
 2249SOL    HW2 7758   3.259   2.632   2.916
 2250SOL     OW 7759   3.071   2.387   2.137
 2250SOL    HW1 7760   3.084   2.303   2.191
 2250SOL    HW2 7761   3.042   2.461   2.197
 2251SOL     OW 7762   2.169   2.075   3.093
 2251SOL    HW1 7763   2.146   2.112   3.183
 2251SOL    HW2 7764   2.139   1.980   3.087
 2252SOL     OW 7765   1.899   3.172   3.144
 2252SOL    HW1 7766   1.952   3.123   3.212
 2252SOL    HW2 7767   1.921   3.270   3.149
 2253SOL     OW 7768   3.590   2.797   3.716
 2253SOL    HW1 7769   3.544   2.790   3.627
 2253SOL    HW2 7770   3.528   2.841   3.782
 2254SOL     OW 7771   2.169   1.925   2.480
 2254SOL    HW1 7772   2.158   2.019   2.513
 2254SOL    HW2 7773   2.164   1.862   2.557
 2255SOL     OW 7774   3.484   2.229   2.236
 2255SOL    HW1 7775   3.486   2.153   2.300
 2255SOL    HW2 7776   3.436   2.306   2.276
 2256SOL     OW 7777   2.885   2.628   2.828
 2256SOL    HW1 7778   2.900   2.649   2.924
 2256SOL    HW2 7779   2.855   2.533   2.819
 2257SOL     OW 7780   3.721   3.380   3.467
 2257SOL    HW1 7781   3.735   3.407   3.372
 2257SOL    HW2 7782   3.804   3.402   3.520
 2258SOL     OW 7783   2.212   2.760   3.666
 2258SOL    HW1 7784   2.288   2.804   3.714
 2258SOL    HW2 7785   2.247   2.713   3.584
 2259SOL     OW 7786   3.402   2.136   1.987
 2259SOL    HW1 7787   3.341   2.061   2.010
 2259SOL    HW2 7788   3.424   2.188   2.070
 2260SOL     OW 7789   2.930   3.195   2.711
 2260SOL    HW1 7790   2.937   3.111   2.656
 2260SOL    HW2 7791   2.992   3.264   2.675
 2261SOL     OW 7792   2.181   2.672   2.811
 2261SOL    HW1 7793   2.274   2.708   2.816
 2261SOL    HW2 7794   2.175   2.587   2.863
 2262SOL     OW 7795   2.201   2.371   2.868
 2262SOL    HW1 7796   2.149   2.288   2.851
 2262SOL    HW2 7797   2.278   2.376   2.804
 2263SOL     OW 7798   3.000   2.242   3.540
 2263SOL    HW1 7799   2.955   2.305   3.604
 2263SOL    HW2 7800   3.093   2.273   3.523
 2264SOL     OW 7801   3.022   2.069   3.339
 2264SOL    HW1 7802   3.022   2.133   3.416
 2264SOL    HW2 7803   3.050   2.117   3.256
 2265SOL     OW 7804   1.870   3.188   2.062
 2265SOL    HW1 7805   1.777   3.209   2.031
 2265SOL    HW2 7806   1.880   3.089   2.075
 2266SOL     OW 7807   1.950   3.663   2.789
 2266SOL    HW1 7808   1.908   3.577   2.762
 2266SOL    HW2 7809   2.044   3.666   2.755
 2267SOL     OW 7810   2.366   3.430   2.772
 2267SOL    HW1 7811   2.432   3.504   2.781
 2267SOL    HW2 7812   2.410   3.351   2.730
 2268SOL     OW 7813   1.902   2.406   2.976
 2268SOL    HW1 7814   1.987   2.373   2.935
 2268SOL    HW2 7815   1.915   2.421   3.074
 2269SOL     OW 7816   2.051   2.382   3.584
 2269SOL    HW1 7817   2.110   2.342   3.514
 2269SOL    HW2 7818   1.993   2.453   3.543
 2270SOL     OW 7819   3.231   2.812   3.522
 2270SOL    HW1 7820   3.270   2.901   3.542
 2270SOL    HW2 7821   3.241   2.792   3.425
 2271SOL     OW 7822   2.677   2.434   2.187
 2271SOL    HW1 7823   2.684   2.345   2.141
 2271SOL    HW2 7824   2.583   2.468   2.179
 2272SOL     OW 7825   3.519   2.466   3.068
 2272SOL    HW1 7826   3.481   2.397   3.130
 2272SOL    HW2 7827   3.601   2.430   3.024
 2273SOL     OW 7828   2.114   3.426   3.606
 2273SOL    HW1 7829   2.084   3.483   3.682
 2273SOL    HW2 7830   2.107   3.329   3.632
 2274SOL     OW 7831   2.533   2.326   3.131
 2274SOL    HW1 7832   2.499   2.237   3.101
 2274SOL    HW2 7833   2.559   2.380   3.051
 2275SOL     OW 7834   2.335   2.362   2.053
 2275SOL    HW1 7835   2.396   2.442   2.057
 2275SOL    HW2 7836   2.240   2.393   2.060
 2276SOL     OW 7837   2.021   2.999   3.328
 2276SOL    HW1 7838   2.043   2.938   3.404
 2276SOL    HW2 7839   2.031   2.950   3.242
 2277SOL     OW 7840   3.209   2.921   3.096
 2277SOL    HW1 7841   3.233   2.858   3.022
 2277SOL    HW2 7842   3.119   2.961   3.078
 2278SOL     OW 7843   3.164   2.717   2.171
 2278SOL    HW1 7844   3.078   2.686   2.213
 2278SOL    HW2 7845   3.160   2.703   2.072
 2279SOL     OW 7846   3.621   3.609   3.016
 2279SOL    HW1 7847   3.682   3.639   2.943
 2279SOL    HW2 7848   3.583   3.520   2.994
 2280SOL     OW 7849   3.114   3.593   2.990
 2280SOL    HW1 7850   3.198   3.598   2.936
 2280SOL    HW2 7851   3.091   3.497   3.008
 2281SOL     OW 7852   1.945   3.120   2.884
 2281SOL    HW1 7853   1.940   3.119   2.984
 2281SOL    HW2 7854   1.862   3.079   2.846
 2282SOL     OW 7855   3.588   1.997   2.385
 2282SOL    HW1 7856   3.661   1.980   2.318
 2282SOL    HW2 7857   3.557   1.910   2.423
 2283SOL     OW 7858   3.250   3.435   2.339
 2283SOL    HW1 7859   3.317   3.447   2.265
 2283SOL    HW2 7860   3.210   3.524   2.362
 2284SOL     OW 7861   1.992   3.656   3.713
 2284SOL    HW1 7862   1.951   3.582   3.766
 2284SOL    HW2 7863   2.056   3.707   3.771
 2285SOL     OW 7864   3.142   2.789   2.534
 2285SOL    HW1 7865   3.202   2.708   2.536
 2285SOL    HW2 7866   3.182   2.858   2.474
 2286SOL     OW 7867   2.534   3.478   2.016
 2286SOL    HW1 7868   2.543   3.488   1.917
 2286SOL    HW2 7869   2.494   3.389   2.037
 2287SOL     OW 7870   3.512   3.582   3.256
 2287SOL    HW1 7871   3.565   3.592   3.172
 2287SOL    HW2 7872   3.485   3.672   3.290
 2288SOL     OW 7873   3.703   2.037   2.825
 2288SOL    HW1 7874   3.742   1.952   2.789
 2288SOL    HW2 7875   3.605   2.039   2.806
 2289SOL     OW 7876   3.056   3.474   1.893
 2289SOL    HW1 7877   3.062   3.381   1.930
 2289SOL    HW2 7878   2.997   3.474   1.813
 2290SOL     OW 7879   2.684   2.864   3.234
 2290SOL    HW1 7880   2.724   2.863   3.142
 2290SOL    HW2 7881   2.694   2.956   3.274
 2291SOL     OW 7882   2.778   2.772   2.153
 2291SOL    HW1 7883   2.841   2.810   2.085
 2291SOL    HW2 7884   2.818   2.689   2.192
 2292SOL     OW 7885   3.366   3.469   1.906
 2292SOL    HW1 7886   3.274   3.506   1.913
 2292SOL    HW2 7887   3.404   3.489   1.816
 2293SOL     OW 7888   2.234   3.150   3.352
 2293SOL    HW1 7889   2.221   3.243   3.318
 2293SOL    HW2 7890   2.150   3.098   3.339
 2294SOL     OW 7891   3.476   3.154   3.151
 2294SOL    HW1 7892   3.536   3.157   3.231
 2294SOL    HW2 7893   3.401   3.218   3.164
 2295SOL     OW 7894   2.901   2.960   2.558
 2295SOL    HW1 7895   2.831   2.913   2.612
 2295SOL    HW2 7896   2.960   2.892   2.515
 2296SOL     OW 7897   2.876   2.098   2.833
 2296SOL    HW1 7898   2.868   2.062   2.740
 2296SOL    HW2 7899   2.874   2.022   2.898
 2297SOL     OW 7900   2.452   3.349   2.353
 2297SOL    HW1 7901   2.494   3.291   2.283
 2297SOL    HW2 7902   2.408   3.428   2.309
 2298SOL     OW 7903   3.571   2.247   3.243
 2298SOL    HW1 7904   3.644   2.316   3.247
 2298SOL    HW2 7905   3.599   2.172   3.184
 2299SOL     OW 7906   2.117   3.210   2.152
 2299SOL    HW1 7907   2.021   3.211   2.125
 2299SOL    HW2 7908   2.129   3.263   2.236
 2300SOL     OW 7909   1.967   2.875   3.588
 2300SOL    HW1 7910   1.890   2.842   3.642
 2300SOL    HW2 7911   2.052   2.845   3.630
 2301SOL     OW 7912   2.534   2.065   3.351
 2301SOL    HW1 7913   2.624   2.049   3.311
 2301SOL    HW2 7914   2.542   2.070   3.450
 2302SOL     OW 7915   1.937   2.207   1.895
 2302SOL    HW1 7916   1.845   2.179   1.866
 2302SOL    HW2 7917   1.968   2.284   1.839
 2303SOL     OW 7918   3.302   2.718   3.260
 2303SOL    HW1 7919   3.245   2.770   3.197
 2303SOL    HW2 7920   3.398   2.730   3.236
 2304SOL     OW 7921   1.934   2.028   2.180
 2304SOL    HW1 7922   1.917   2.111   2.126
 2304SOL    HW2 7923   2.024   1.991   2.158
 2305SOL     OW 7924   3.045   3.197   1.981
 2305SOL    HW1 7925   2.946   3.186   1.983
 2305SOL    HW2 7926   3.079   3.212   2.074
 2306SOL     OW 7927   2.475   2.704   3.293
 2306SOL    HW1 7928   2.531   2.785   3.276
 2306SOL    HW2 7929   2.534   2.624   3.296
 2307SOL     OW 7930   3.355   3.629   2.821
 2307SOL    HW1 7931   3.388   3.693   2.752
 2307SOL    HW2 7932   3.421   3.623   2.896
 2308SOL     OW 7933   2.578   2.427   3.570
 2308SOL    HW1 7934   2.597   2.492   3.644
 2308SOL    HW2 7935   2.638   2.347   3.579
 2309SOL     OW 7936   3.312   3.082   3.495
 2309SOL    HW1 7937   3.303   3.072   3.594
 2309SOL    HW2 7938   3.408   3.075   3.469
 2310SOL     OW 7939   2.252   3.603   3.422
 2310SOL    HW1 7940   2.161   3.644   3.420
 2310SOL    HW2 7941   2.245   3.509   3.454
 2311SOL     OW 7942   3.536   2.745   3.116
 2311SOL    HW1 7943   3.509   2.656   3.079
 2311SOL    HW2 7944   3.537   2.813   3.043
 2312SOL     OW 7945   3.087   2.187   2.311
 2312SOL    HW1 7946   3.152   2.113   2.300
 2312SOL    HW2 7947   3.107   2.237   2.395
 2313SOL     OW 7948   3.639   2.204   3.504
 2313SOL    HW1 7949   3.622   2.235   3.410
 2313SOL    HW2 7950   3.555   2.167   3.542
 2314SOL     OW 7951   3.592   2.796   3.379
 2314SOL    HW1 7952   3.630   2.887   3.394
 2314SOL    HW2 7953   3.584   2.779   3.280
 2315SOL     OW 7954   2.721   3.236   1.878
 2315SOL    HW1 7955   2.675   3.251   1.966
 2315SOL    HW2 7956   2.765   3.321   1.848
 2316SOL     OW 7957   2.523   3.652   2.815
 2316SOL    HW1 7958   2.477   3.740   2.802
 2316SOL    HW2 7959   2.622   3.664   2.808
 2317SOL     OW 7960   2.945   2.846   1.949
 2317SOL    HW1 7961   2.922   2.899   1.867
 2317SOL    HW2 7962   3.026   2.790   1.930
 2318SOL     OW 7963   3.723   3.431   2.713
 2318SOL    HW1 7964   3.652   3.419   2.643
 2318SOL    HW2 7965   3.724   3.352   2.773
 2319SOL     OW 7966   2.083   3.176   3.706
 2319SOL    HW1 7967   2.018   3.103   3.685
 2319SOL    HW2 7968   2.087   3.190   3.804
 2320SOL     OW 7969   1.941   3.102   2.515
 2320SOL    HW1 7970   1.940   3.055   2.603
 2320SOL    HW2 7971   2.023   3.074   2.464
 2321SOL     OW 7972   3.686   2.054   3.089
 2321SOL    HW1 7973   3.682   1.964   3.133
 2321SOL    HW2 7974   3.689   2.043   2.990
 2322SOL     OW 7975   3.567   3.349   2.966
 2322SOL    HW1 7976   3.474   3.324   2.939
 2322SOL    HW2 7977   3.593   3.299   3.048
 2323SOL     OW 7978   2.179   2.409   3.142
 2323SOL    HW1 7979   2.217   2.350   3.214
 2323SOL    HW2 7980   2.219   2.383   3.054
 2324SOL     OW 7981   2.674   3.448   2.549
 2324SOL    HW1 7982   2.706   3.458   2.455
 2324SOL    HW2 7983   2.595   3.386   2.551
 2325SOL     OW 7984   3.286   2.076   2.974
 2325SOL    HW1 7985   3.338   2.011   3.029
 2325SOL    HW2 7986   3.237   2.139   3.035
 2326SOL     OW 7987   2.863   1.896   3.016
 2326SOL    HW1 7988   2.800   1.824   2.985
 2326SOL    HW2 7989   2.956   1.860   3.016
 2327SOL     OW 7990   2.632   3.192   2.163
 2327SOL    HW1 7991   2.586   3.105   2.180
 2327SOL    HW2 7992   2.723   3.189   2.204
 2328SOL     OW 7993   2.480   3.429   3.146
 2328SOL    HW1 7994   2.475   3.511   3.203
 2328SOL    HW2 7995   2.569   3.426   3.101
 2329SOL     OW 7996   3.214   1.914   2.030
 2329SOL    HW1 7997   3.249   1.873   1.946
 2329SOL    HW2 7998   3.124   1.876   2.050
 2330SOL     OW 7999   3.455   2.083   2.744
 2330SOL    HW1 8000   3.371   2.082   2.798
 2330SOL    HW2 8001   3.457   2.166   2.688
 2331SOL     OW 8002   1.901   2.939   2.162
 2331SOL    HW1 8003   2.000   2.928   2.153
 2331SOL    HW2 8004   1.861   2.853   2.194
 2332SOL     OW 8005   2.737   3.508   2.199
 2332SOL    HW1 8006   2.660   3.473   2.145
 2332SOL    HW2 8007   2.705   3.579   2.261
 2333SOL     OW 8008   2.092   2.490   3.837
 2333SOL    HW1 8009   1.999   2.488   3.874
 2333SOL    HW2 8010   2.093   2.451   3.745
 2334SOL     OW 8011   2.087   2.137   4.720
 2334SOL    HW1 8012   2.122   2.120   4.812
 2334SOL    HW2 8013   1.999   2.092   4.708
 2335SOL     OW 8014   1.881   2.230   4.371
 2335SOL    HW1 8015   1.799   2.273   4.410
 2335SOL    HW2 8016   1.853   2.157   4.308
 2336SOL     OW 8017   2.431   3.137   4.889
 2336SOL    HW1 8018   2.338   3.130   4.852
 2336SOL    HW2 8019   2.442   3.226   4.933
 2337SOL     OW 8020   3.417   3.373   4.427
 2337SOL    HW1 8021   3.360   3.357   4.508
 2337SOL    HW2 8022   3.358   3.383   4.347
 2338SOL     OW 8023   2.997   2.565   4.441
 2338SOL    HW1 8024   3.054   2.643   4.416
 2338SOL    HW2 8025   2.937   2.591   4.517
 2339SOL     OW 8026   3.617   2.469   3.955
 2339SOL    HW1 8027   3.605   2.456   3.856
 2339SOL    HW2 8028   3.587   2.388   4.004
 2340SOL     OW 8029   2.630   3.006   4.747
 2340SOL    HW1 8030   2.552   3.023   4.807
 2340SOL    HW2 8031   2.664   3.093   4.711
 2341SOL     OW 8032   2.547   2.874   4.389
 2341SOL    HW1 8033   2.616   2.858   4.459
 2341SOL    HW2 8034   2.474   2.931   4.427
 2342SOL     OW 8035   2.197   3.297   4.785
 2342SOL    HW1 8036   2.119   3.266   4.732
 2342SOL    HW2 8037   2.255   3.355   4.728
 2343SOL     OW 8038   3.465   2.309   4.461
 2343SOL    HW1 8039   3.391   2.355   4.411
 2343SOL    HW2 8040   3.516   2.377   4.514
 2344SOL     OW 8041   2.093   3.575   4.207
 2344SOL    HW1 8042   2.127   3.652   4.261
 2344SOL    HW2 8043   2.137   3.575   4.117
 2345SOL     OW 8044   2.092   3.296   4.262
 2345SOL    HW1 8045   2.066   3.392   4.262
 2345SOL    HW2 8046   2.021   3.242   4.307
 2346SOL     OW 8047   2.102   2.953   4.610
 2346SOL    HW1 8048   2.116   2.869   4.662
 2346SOL    HW2 8049   2.047   3.017   4.665
 2347SOL     OW 8050   2.482   3.648   5.163
 2347SOL    HW1 8051   2.390   3.631   5.198
 2347SOL    HW2 8052   2.510   3.740   5.189
 2348SOL     OW 8053   2.468   2.826   3.847
 2348SOL    HW1 8054   2.475   2.910   3.793
 2348SOL    HW2 8055   2.514   2.839   3.935
 2349SOL     OW 8056   1.984   2.505   4.287
 2349SOL    HW1 8057   1.939   2.417   4.304
 2349SOL    HW2 8058   1.983   2.559   4.371
 2350SOL     OW 8059   3.704   3.629   4.083
 2350SOL    HW1 8060   3.758   3.600   4.163
 2350SOL    HW2 8061   3.734   3.719   4.054
 2351SOL     OW 8062   1.889   3.458   3.841
 2351SOL    HW1 8063   1.870   3.362   3.862
 2351SOL    HW2 8064   1.856   3.516   3.916
 2352SOL     OW 8065   3.551   2.784   4.336
 2352SOL    HW1 8066   3.646   2.755   4.344
 2352SOL    HW2 8067   3.543   2.849   4.261
 2353SOL     OW 8068   3.503   2.970   4.156
 2353SOL    HW1 8069   3.589   2.972   4.104
 2353SOL    HW2 8070   3.517   3.017   4.244
 2354SOL     OW 8071   2.475   3.227   4.450
 2354SOL    HW1 8072   2.426   3.140   4.459
 2354SOL    HW2 8073   2.452   3.270   4.363
 2355SOL     OW 8074   2.671   1.866   4.226
 2355SOL    HW1 8075   2.711   1.957   4.217
 2355SOL    HW2 8076   2.571   1.874   4.232
 2356SOL     OW 8077   2.059   2.838   4.988
 2356SOL    HW1 8078   2.148   2.793   4.974
 2356SOL    HW2 8079   1.986   2.773   4.969
 2357SOL     OW 8080   3.387   2.861   3.914
 2357SOL    HW1 8081   3.324   2.785   3.927
 2357SOL    HW2 8082   3.435   2.879   4.000
 2358SOL     OW 8083   3.529   3.576   4.296
 2358SOL    HW1 8084   3.488   3.553   4.208
 2358SOL    HW2 8085   3.511   3.502   4.361
 2359SOL     OW 8086   2.460   2.591   3.994
 2359SOL    HW1 8087   2.484   2.660   3.926
 2359SOL    HW2 8088   2.382   2.624   4.048
 2360SOL     OW 8089   3.143   2.207   4.668
 2360SOL    HW1 8090   3.057   2.157   4.655
 2360SOL    HW2 8091   3.205   2.153   4.724
 2361SOL     OW 8092   3.438   3.524   4.031
 2361SOL    HW1 8093   3.527   3.570   4.034
 2361SOL    HW2 8094   3.417   3.500   3.936
 2362SOL     OW 8095   2.853   2.272   4.966
 2362SOL    HW1 8096   2.776   2.306   5.020
 2362SOL    HW2 8097   2.819   2.221   4.887
 2363SOL     OW 8098   2.903   2.563   4.153
 2363SOL    HW1 8099   2.929   2.559   4.249
 2363SOL    HW2 8100   2.818   2.512   4.139
 2364SOL     OW 8101   1.938   2.673   4.513
 2364SOL    HW1 8102   2.037   2.661   4.522
 2364SOL    HW2 8103   1.914   2.768   4.534
 2365SOL     OW 8104   2.727   2.210   3.919
 2365SOL    HW1 8105   2.786   2.273   3.870
 2365SOL    HW2 8106   2.746   2.116   3.890
 2366SOL     OW 8107   3.224   3.006   4.269
 2366SOL    HW1 8108   3.307   2.977   4.221
 2366SOL    HW2 8109   3.175   3.073   4.213
 2367SOL     OW 8110   2.412   2.058   4.609
 2367SOL    HW1 8111   2.407   2.053   4.709
 2367SOL    HW2 8112   2.414   2.154   4.580
 2368SOL     OW 8113   2.213   3.663   4.577
 2368SOL    HW1 8114   2.263   3.577   4.583
 2368SOL    HW2 8115   2.278   3.740   4.574
 2369SOL     OW 8116   3.657   2.928   4.597
 2369SOL    HW1 8117   3.595   2.913   4.521
 2369SOL    HW2 8118   3.605   2.939   4.682
 2370SOL     OW 8119   2.183   2.805   3.966
 2370SOL    HW1 8120   2.265   2.844   3.924
 2370SOL    HW2 8121   2.156   2.723   3.917
 2371SOL     OW 8122   3.320   2.597   4.452
 2371SOL    HW1 8123   3.315   2.532   4.527
 2371SOL    HW2 8124   3.400   2.656   4.465
 2372SOL     OW 8125   2.973   3.638   3.961
 2372SOL    HW1 8126   2.913   3.576   4.011
 2372SOL    HW2 8127   3.004   3.594   3.876
 2373SOL     OW 8128   3.494   3.239   3.805
 2373SOL    HW1 8129   3.462   3.333   3.795
 2373SOL    HW2 8130   3.418   3.176   3.793
 2374SOL     OW 8131   2.326   3.605   4.047
 2374SOL    HW1 8132   2.359   3.644   4.133
 2374SOL    HW2 8133   2.402   3.598   3.982
 2375SOL     OW 8134   3.262   1.969   4.150
 2375SOL    HW1 8135   3.238   1.932   4.060
 2375SOL    HW2 8136   3.361   1.985   4.154
 2376SOL     OW 8137   2.111   3.647   4.965
 2376SOL    HW1 8138   2.168   3.582   5.015
 2376SOL    HW2 8139   2.095   3.614   4.872
 2377SOL     OW 8140   2.244   2.562   4.204
 2377SOL    HW1 8141   2.289   2.472   4.201
 2377SOL    HW2 8142   2.150   2.551   4.237
 2378SOL     OW 8143   2.476   1.984   3.841
 2378SOL    HW1 8144   2.574   1.962   3.848
 2378SOL    HW2 8145   2.445   1.967   3.748
 2379SOL     OW 8146   2.665   3.264   4.648
 2379SOL    HW1 8147   2.755   3.278   4.606
 2379SOL    HW2 8148   2.594   3.266   4.577
 2380SOL     OW 8149   2.784   2.365   4.623
 2380SOL    HW1 8150   2.759   2.356   4.527
 2380SOL    HW2 8151   2.832   2.283   4.654
 2381SOL     OW 8152   2.401   1.926   4.236
 2381SOL    HW1 8153   2.320   1.927   4.294
 2381SOL    HW2 8154   2.404   2.009   4.181
 2382SOL     OW 8155   3.296   3.050   3.765
 2382SOL    HW1 8156   3.328   2.974   3.822
 2382SOL    HW2 8157   3.204   3.077   3.795
 2383SOL     OW 8158   2.159   1.897   3.895
 2383SOL    HW1 8159   2.208   1.981   3.874
 2383SOL    HW2 8160   2.221   1.832   3.940
 2384SOL     OW 8161   2.797   2.098   4.204
 2384SOL    HW1 8162   2.749   2.139   4.126
 2384SOL    HW2 8163   2.896   2.096   4.185
 2385SOL     OW 8164   2.321   3.014   4.465
 2385SOL    HW1 8165   2.250   2.987   4.530
 2385SOL    HW2 8166   2.295   2.986   4.372
 2386SOL     OW 8167   2.894   2.411   3.740
 2386SOL    HW1 8168   2.853   2.493   3.701
 2386SOL    HW2 8169   2.958   2.437   3.813
 2387SOL     OW 8170   2.423   2.084   4.871
 2387SOL    HW1 8171   2.461   2.000   4.908
 2387SOL    HW2 8172   2.335   2.103   4.915
 2388SOL     OW 8173   2.728   2.316   4.366
 2388SOL    HW1 8174   2.696   2.388   4.304
 2388SOL    HW2 8175   2.752   2.235   4.313
 2389SOL     OW 8176   2.879   1.901   4.477
 2389SOL    HW1 8177   2.807   1.906   4.408
 2389SOL    HW2 8178   2.855   1.832   4.546
 2390SOL     OW 8179   3.291   3.035   4.591
 2390SOL    HW1 8180   3.236   2.951   4.584
 2390SOL    HW2 8181   3.317   3.064   4.499
 2391SOL     OW 8182   3.328   2.452   4.716
 2391SOL    HW1 8183   3.298   2.357   4.723
 2391SOL    HW2 8184   3.401   2.468   4.782
 2392SOL     OW 8185   3.719   2.695   4.101
 2392SOL    HW1 8186   3.761   2.631   4.165
 2392SOL    HW2 8187   3.681   2.644   4.023
 2393SOL     OW 8188   2.350   3.247   3.898
 2393SOL    HW1 8189   2.263   3.232   3.945
 2393SOL    HW2 8190   2.333   3.273   3.803
 2394SOL     OW 8191   3.526   3.142   4.381
 2394SOL    HW1 8192   3.625   3.150   4.395
 2394SOL    HW2 8193   3.481   3.226   4.412
 2395SOL     OW 8194   3.252   2.437   3.802
 2395SOL    HW1 8195   3.198   2.416   3.883
 2395SOL    HW2 8196   3.343   2.396   3.811
 2396SOL     OW 8197   2.389   2.118   4.052
 2396SOL    HW1 8198   2.416   2.059   3.977
 2396SOL    HW2 8199   2.389   2.213   4.021
 2397SOL     OW 8200   3.500   2.961   4.803
 2397SOL    HW1 8201   3.505   3.042   4.862
 2397SOL    HW2 8202   3.414   2.963   4.752
 2398SOL     OW 8203   2.567   2.912   4.092
 2398SOL    HW1 8204   2.553   2.919   4.191
 2398SOL    HW2 8205   2.651   2.861   4.074
 2399SOL     OW 8206   2.272   2.675   4.975
 2399SOL    HW1 8207   2.358   2.687   5.025
 2399SOL    HW2 8208   2.230   2.588   5.002
 2400SOL     OW 8209   3.136   2.248   4.986
 2400SOL    HW1 8210   3.157   2.322   5.050
 2400SOL    HW2 8211   3.047   2.265   4.943
 2401SOL     OW 8212   2.229   2.962   4.225
 2401SOL    HW1 8213   2.222   3.045   4.169
 2401SOL    HW2 8214   2.233   2.882   4.165
 2402SOL     OW 8215   2.428   2.399   4.589
 2402SOL    HW1 8216   2.440   2.465   4.515
 2402SOL    HW2 8217   2.474   2.433   4.672
 2403SOL     OW 8218   3.444   2.501   4.196
 2403SOL    HW1 8219   3.413   2.562   4.269
 2403SOL    HW2 8220   3.494   2.553   4.127
 2404SOL     OW 8221   2.216   3.372   5.053
 2404SOL    HW1 8222   2.195   3.328   4.966
 2404SOL    HW2 8223   2.313   3.398   5.056
 2405SOL     OW 8224   2.435   2.732   4.753
 2405SOL    HW1 8225   2.479   2.821   4.744
 2405SOL    HW2 8226   2.372   2.732   4.830
 2406SOL     OW 8227   3.222   2.724   4.769
 2406SOL    HW1 8228   3.147   2.724   4.703
 2406SOL    HW2 8229   3.259   2.632   4.778
 2407SOL     OW 8230   3.071   2.387   3.999
 2407SOL    HW1 8231   3.084   2.303   4.053
 2407SOL    HW2 8232   3.042   2.461   4.059
 2408SOL     OW 8233   2.169   2.075   4.955
 2408SOL    HW1 8234   2.146   2.112   5.045
 2408SOL    HW2 8235   2.139   1.980   4.949
 2409SOL     OW 8236   1.899   3.172   5.006
 2409SOL    HW1 8237   1.952   3.123   5.074
 2409SOL    HW2 8238   1.921   3.270   5.011
 2410SOL     OW 8239   2.594   2.496   4.788
 2410SOL    HW1 8240   2.653   2.470   4.712
 2410SOL    HW2 8241   2.566   2.592   4.777
 2411SOL     OW 8242   2.169   1.925   4.342
 2411SOL    HW1 8243   2.158   2.019   4.375
 2411SOL    HW2 8244   2.164   1.862   4.419
 2412SOL     OW 8245   3.484   2.229   4.098
 2412SOL    HW1 8246   3.486   2.153   4.162
 2412SOL    HW2 8247   3.436   2.306   4.138
 2413SOL     OW 8248   2.885   2.628   4.690
 2413SOL    HW1 8249   2.900   2.649   4.786
 2413SOL    HW2 8250   2.855   2.533   4.681
 2414SOL     OW 8251   3.402   2.136   3.849
 2414SOL    HW1 8252   3.341   2.061   3.872
 2414SOL    HW2 8253   3.424   2.188   3.932
 2415SOL     OW 8254   3.165   2.700   3.766
 2415SOL    HW1 8255   3.199   2.607   3.781
 2415SOL    HW2 8256   3.183   2.727   3.671
 2416SOL     OW 8257   2.181   2.672   4.673
 2416SOL    HW1 8258   2.274   2.708   4.678
 2416SOL    HW2 8259   2.175   2.587   4.725
 2417SOL     OW 8260   2.201   2.371   4.730
 2417SOL    HW1 8261   2.149   2.288   4.713
 2417SOL    HW2 8262   2.278   2.376   4.666
 2418SOL     OW 8263   3.022   2.069   5.201
 2418SOL    HW1 8264   3.022   2.133   5.278
 2418SOL    HW2 8265   3.050   2.117   5.118
 2419SOL     OW 8266   1.870   3.188   3.924
 2419SOL    HW1 8267   1.777   3.209   3.893
 2419SOL    HW2 8268   1.880   3.089   3.937
 2420SOL     OW 8269   2.366   3.430   4.634
 2420SOL    HW1 8270   2.432   3.504   4.643
 2420SOL    HW2 8271   2.410   3.351   4.592
 2421SOL     OW 8272   2.864   2.658   4.962
 2421SOL    HW1 8273   2.905   2.626   5.048
 2421SOL    HW2 8274   2.768   2.631   4.959
 2422SOL     OW 8275   1.902   2.406   4.838
 2422SOL    HW1 8276   1.987   2.373   4.797
 2422SOL    HW2 8277   1.915   2.421   4.936
 2423SOL     OW 8278   2.677   2.434   4.049
 2423SOL    HW1 8279   2.684   2.345   4.003
 2423SOL    HW2 8280   2.583   2.468   4.041
 2424SOL     OW 8281   3.519   2.466   4.930
 2424SOL    HW1 8282   3.481   2.397   4.992
 2424SOL    HW2 8283   3.601   2.430   4.886
 2425SOL     OW 8284   2.533   2.326   4.993
 2425SOL    HW1 8285   2.499   2.237   4.963
 2425SOL    HW2 8286   2.559   2.380   4.913
 2426SOL     OW 8287   2.792   3.540   5.189
 2426SOL    HW1 8288   2.768   3.522   5.094
 2426SOL    HW2 8289   2.822   3.634   5.199
 2427SOL     OW 8290   2.335   2.362   3.915
 2427SOL    HW1 8291   2.396   2.442   3.919
 2427SOL    HW2 8292   2.240   2.393   3.922
 2428SOL     OW 8293   3.209   2.921   4.958
 2428SOL    HW1 8294   3.233   2.858   4.884
 2428SOL    HW2 8295   3.119   2.961   4.940
 2429SOL     OW 8296   3.164   2.717   4.033
 2429SOL    HW1 8297   3.078   2.686   4.075
 2429SOL    HW2 8298   3.160   2.703   3.934
 2430SOL     OW 8299   3.621   3.609   4.878
 2430SOL    HW1 8300   3.682   3.639   4.805
 2430SOL    HW2 8301   3.583   3.520   4.856
 2431SOL     OW 8302   1.945   3.120   4.746
 2431SOL    HW1 8303   1.940   3.119   4.846
 2431SOL    HW2 8304   1.862   3.079   4.708
 2432SOL     OW 8305   3.588   1.997   4.247
 2432SOL    HW1 8306   3.661   1.980   4.180
 2432SOL    HW2 8307   3.557   1.910   4.285
 2433SOL     OW 8308   3.142   2.789   4.396
 2433SOL    HW1 8309   3.202   2.708   4.398
 2433SOL    HW2 8310   3.182   2.858   4.336
 2434SOL     OW 8311   2.534   3.478   3.878
 2434SOL    HW1 8312   2.543   3.488   3.779
 2434SOL    HW2 8313   2.494   3.389   3.899
 2435SOL     OW 8314   3.512   3.582   5.118
 2435SOL    HW1 8315   3.565   3.592   5.034
 2435SOL    HW2 8316   3.485   3.672   5.152
 2436SOL     OW 8317   3.703   2.037   4.687
 2436SOL    HW1 8318   3.742   1.952   4.651
 2436SOL    HW2 8319   3.605   2.039   4.668
 2437SOL     OW 8320   2.125   2.188   4.444
 2437SOL    HW1 8321   2.046   2.239   4.410
 2437SOL    HW2 8322   2.116   2.173   4.542
 2438SOL     OW 8323   3.056   3.474   3.755
 2438SOL    HW1 8324   3.062   3.381   3.792
 2438SOL    HW2 8325   2.997   3.474   3.675
 2439SOL     OW 8326   2.684   2.864   5.096
 2439SOL    HW1 8327   2.724   2.863   5.004
 2439SOL    HW2 8328   2.694   2.956   5.136
 2440SOL     OW 8329   2.778   2.772   4.015
 2440SOL    HW1 8330   2.841   2.810   3.947
 2440SOL    HW2 8331   2.818   2.689   4.054
 2441SOL     OW 8332   3.366   3.469   3.768
 2441SOL    HW1 8333   3.274   3.506   3.775
 2441SOL    HW2 8334   3.404   3.489   3.678
 2442SOL     OW 8335   2.901   2.960   4.420
 2442SOL    HW1 8336   2.831   2.913   4.474
 2442SOL    HW2 8337   2.960   2.892   4.377
 2443SOL     OW 8338   2.876   2.098   4.695
 2443SOL    HW1 8339   2.868   2.062   4.602
 2443SOL    HW2 8340   2.874   2.022   4.760
 2444SOL     OW 8341   2.452   3.349   4.215
 2444SOL    HW1 8342   2.494   3.291   4.145
 2444SOL    HW2 8343   2.408   3.428   4.171
 2445SOL     OW 8344   3.571   2.247   5.105
 2445SOL    HW1 8345   3.644   2.316   5.109
 2445SOL    HW2 8346   3.599   2.172   5.046
 2446SOL     OW 8347   2.117   3.210   4.014
 2446SOL    HW1 8348   2.021   3.211   3.987
 2446SOL    HW2 8349   2.129   3.263   4.098
 2447SOL     OW 8350   1.937   2.207   3.757
 2447SOL    HW1 8351   1.845   2.179   3.728
 2447SOL    HW2 8352   1.968   2.284   3.701
 2448SOL     OW 8353   1.934   2.028   4.042
 2448SOL    HW1 8354   1.917   2.111   3.988
 2448SOL    HW2 8355   2.024   1.991   4.020
 2449SOL     OW 8356   3.045   3.197   3.843
 2449SOL    HW1 8357   2.946   3.186   3.845
 2449SOL    HW2 8358   3.079   3.212   3.936
 2450SOL     OW 8359   3.312   3.082   5.357
 2450SOL    HW1 8360   3.303   3.072   5.456
 2450SOL    HW2 8361   3.408   3.075   5.331
 2451SOL     OW 8362   3.536   2.745   4.978
 2451SOL    HW1 8363   3.509   2.656   4.941
 2451SOL    HW2 8364   3.537   2.813   4.905
 2452SOL     OW 8365   3.087   2.187   4.173
 2452SOL    HW1 8366   3.152   2.113   4.162
 2452SOL    HW2 8367   3.107   2.237   4.257
 2453SOL     OW 8368   2.456   2.607   4.376
 2453SOL    HW1 8369   2.506   2.692   4.357
 2453SOL    HW2 8370   2.368   2.609   4.328
 2454SOL     OW 8371   3.592   2.796   5.241
 2454SOL    HW1 8372   3.630   2.887   5.256
 2454SOL    HW2 8373   3.584   2.779   5.142
 2455SOL     OW 8374   2.523   3.652   4.677
 2455SOL    HW1 8375   2.477   3.740   4.664
 2455SOL    HW2 8376   2.622   3.664   4.670
 2456SOL     OW 8377   2.721   2.818   4.585
 2456SOL    HW1 8378   2.775   2.749   4.633
 2456SOL    HW2 8379   2.689   2.887   4.651
 2457SOL     OW 8380   2.945   2.846   3.811
 2457SOL    HW1 8381   2.922   2.899   3.729
 2457SOL    HW2 8382   3.026   2.790   3.792
 2458SOL     OW 8383   3.723   3.431   4.575
 2458SOL    HW1 8384   3.652   3.419   4.505
 2458SOL    HW2 8385   3.724   3.352   4.635
 2459SOL     OW 8386   1.941   3.102   4.377
 2459SOL    HW1 8387   1.940   3.055   4.465
 2459SOL    HW2 8388   2.023   3.074   4.326
 2460SOL     OW 8389   2.290   2.286   4.244
 2460SOL    HW1 8390   2.320   2.214   4.182
 2460SOL    HW2 8391   2.251   2.246   4.327
 2461SOL     OW 8392   3.567   3.349   4.828
 2461SOL    HW1 8393   3.474   3.324   4.801
 2461SOL    HW2 8394   3.593   3.299   4.910
 2462SOL     OW 8395   2.674   3.448   4.411
 2462SOL    HW1 8396   2.706   3.458   4.317
 2462SOL    HW2 8397   2.595   3.386   4.413
 2463SOL     OW 8398   2.863   1.896   4.878
 2463SOL    HW1 8399   2.800   1.824   4.847
 2463SOL    HW2 8400   2.956   1.860   4.878
 2464SOL     OW 8401   2.632   3.192   4.025
 2464SOL    HW1 8402   2.586   3.105   4.042
 2464SOL    HW2 8403   2.723   3.189   4.066
 2465SOL     OW 8404   3.214   1.914   3.892
 2465SOL    HW1 8405   3.249   1.873   3.808
 2465SOL    HW2 8406   3.124   1.876   3.912
 2466SOL     OW 8407   3.162   2.315   4.415
 2466SOL    HW1 8408   3.103   2.395   4.419
 2466SOL    HW2 8409   3.177   2.280   4.508
 2467SOL     OW 8410   1.901   2.939   4.024
 2467SOL    HW1 8411   2.000   2.928   4.015
 2467SOL    HW2 8412   1.861   2.853   4.056
 2468SOL     OW 8413   2.737   3.508   4.061
 2468SOL    HW1 8414   2.660   3.473   4.007
 2468SOL    HW2 8415   2.705   3.579   4.123
 2469SOL     OW 8416   2.092   4.352   0.113
 2469SOL    HW1 8417   1.999   4.350   0.150
 2469SOL    HW2 8418   2.093   4.313   0.021
 2470SOL     OW 8419   2.087   3.999   0.996
 2470SOL    HW1 8420   2.122   3.982   1.088
 2470SOL    HW2 8421   1.999   3.954   0.984
 2471SOL     OW 8422   1.881   4.092   0.647
 2471SOL    HW1 8423   1.799   4.135   0.686
 2471SOL    HW2 8424   1.853   4.019   0.584
 2472SOL     OW 8425   2.431   4.999   1.165
 2472SOL    HW1 8426   2.338   4.992   1.128
 2472SOL    HW2 8427   2.442   5.088   1.209
 2473SOL     OW 8428   3.417   5.235   0.703
 2473SOL    HW1 8429   3.360   5.219   0.784
 2473SOL    HW2 8430   3.358   5.245   0.623
 2474SOL     OW 8431   2.997   4.427   0.717
 2474SOL    HW1 8432   3.054   4.505   0.692
 2474SOL    HW2 8433   2.937   4.453   0.793
 2475SOL     OW 8434   3.617   4.331   0.231
 2475SOL    HW1 8435   3.605   4.318   0.132
 2475SOL    HW2 8436   3.587   4.250   0.280
 2476SOL     OW 8437   2.630   4.868   1.023
 2476SOL    HW1 8438   2.552   4.885   1.083
 2476SOL    HW2 8439   2.664   4.955   0.987
 2477SOL     OW 8440   2.712   4.522   1.823
 2477SOL    HW1 8441   2.708   4.598   1.888
 2477SOL    HW2 8442   2.734   4.558   1.732
 2478SOL     OW 8443   2.548   4.885   1.803
 2478SOL    HW1 8444   2.608   4.964   1.817
 2478SOL    HW2 8445   2.462   4.916   1.762
 2479SOL     OW 8446   2.197   5.159   1.061
 2479SOL    HW1 8447   2.119   5.128   1.008
 2479SOL    HW2 8448   2.255   5.217   1.004
 2480SOL     OW 8449   2.300   4.116   1.499
 2480SOL    HW1 8450   2.382   4.060   1.508
 2480SOL    HW2 8451   2.219   4.058   1.503
 2481SOL     OW 8452   2.102   4.815   0.886
 2481SOL    HW1 8453   2.116   4.731   0.938
 2481SOL    HW2 8454   2.047   4.879   0.941
 2482SOL     OW 8455   3.456   3.838   1.480
 2482SOL    HW1 8456   3.438   3.905   1.408
 2482SOL    HW2 8457   3.453   3.884   1.569
 2483SOL     OW 8458   1.984   4.367   0.563
 2483SOL    HW1 8459   1.939   4.279   0.580
 2483SOL    HW2 8460   1.983   4.421   0.647
 2484SOL     OW 8461   3.551   4.646   0.612
 2484SOL    HW1 8462   3.646   4.617   0.620
 2484SOL    HW2 8463   3.543   4.711   0.537
 2485SOL     OW 8464   3.503   4.832   0.432
 2485SOL    HW1 8465   3.589   4.834   0.380
 2485SOL    HW2 8466   3.517   4.879   0.520
 2486SOL     OW 8467   1.975   4.461   1.597
 2486SOL    HW1 8468   2.063   4.448   1.642
 2486SOL    HW2 8469   1.962   4.558   1.575
 2487SOL     OW 8470   2.671   3.728   0.502
 2487SOL    HW1 8471   2.711   3.819   0.493
 2487SOL    HW2 8472   2.571   3.736   0.508
 2488SOL     OW 8473   2.059   4.700   1.264
 2488SOL    HW1 8474   2.148   4.655   1.250
 2488SOL    HW2 8475   1.986   4.635   1.245
 2489SOL     OW 8476   3.387   4.723   0.190
 2489SOL    HW1 8477   3.324   4.647   0.203
 2489SOL    HW2 8478   3.435   4.741   0.276
 2490SOL     OW 8479   2.179   3.975   1.801
 2490SOL    HW1 8480   2.250   4.046   1.807
 2490SOL    HW2 8481   2.091   4.014   1.829
 2491SOL     OW 8482   3.328   5.141   0.953
 2491SOL    HW1 8483   3.269   5.147   1.033
 2491SOL    HW2 8484   3.313   5.053   0.907
 2492SOL     OW 8485   3.143   4.069   0.944
 2492SOL    HW1 8486   3.057   4.019   0.931
 2492SOL    HW2 8487   3.205   4.015   1.000
 2493SOL     OW 8488   2.669   4.329   1.465
 2493SOL    HW1 8489   2.622   4.326   1.554
 2493SOL    HW2 8490   2.618   4.274   1.399
 2494SOL     OW 8491   3.256   4.193   1.674
 2494SOL    HW1 8492   3.236   4.236   1.762
 2494SOL    HW2 8493   3.334   4.131   1.683
 2495SOL     OW 8494   2.835   4.614   1.572
 2495SOL    HW1 8495   2.881   4.530   1.543
 2495SOL    HW2 8496   2.779   4.648   1.497
 2496SOL     OW 8497   2.853   4.134   1.242
 2496SOL    HW1 8498   2.776   4.168   1.296
 2496SOL    HW2 8499   2.819   4.083   1.163
 2497SOL     OW 8500   2.903   4.425   0.429
 2497SOL    HW1 8501   2.929   4.421   0.525
 2497SOL    HW2 8502   2.818   4.374   0.415
 2498SOL     OW 8503   1.938   4.535   0.789
 2498SOL    HW1 8504   2.037   4.523   0.798
 2498SOL    HW2 8505   1.914   4.630   0.810
 2499SOL     OW 8506   2.727   4.072   0.195
 2499SOL    HW1 8507   2.786   4.135   0.146
 2499SOL    HW2 8508   2.746   3.978   0.166
 2500SOL     OW 8509   3.581   4.309   1.831
 2500SOL    HW1 8510   3.555   4.398   1.795
 2500SOL    HW2 8511   3.579   4.241   1.758
 2501SOL     OW 8512   3.224   4.868   0.545
 2501SOL    HW1 8513   3.307   4.839   0.497
 2501SOL    HW2 8514   3.175   4.935   0.489
 2502SOL     OW 8515   2.412   3.920   0.885
 2502SOL    HW1 8516   2.407   3.915   0.985
 2502SOL    HW2 8517   2.414   4.016   0.856
 2503SOL     OW 8518   3.657   4.790   0.873
 2503SOL    HW1 8519   3.595   4.775   0.797
 2503SOL    HW2 8520   3.605   4.801   0.958
 2504SOL     OW 8521   2.183   4.667   0.242
 2504SOL    HW1 8522   2.265   4.706   0.200
 2504SOL    HW2 8523   2.156   4.585   0.193
 2505SOL     OW 8524   2.064   4.009   1.498
 2505SOL    HW1 8525   1.984   4.069   1.485
 2505SOL    HW2 8526   2.054   3.960   1.584
 2506SOL     OW 8527   3.494   5.101   0.081
 2506SOL    HW1 8528   3.462   5.195   0.071
 2506SOL    HW2 8529   3.418   5.038   0.069
 2507SOL     OW 8530   2.244   4.424   0.480
 2507SOL    HW1 8531   2.289   4.334   0.477
 2507SOL    HW2 8532   2.150   4.413   0.513
 2508SOL     OW 8533   3.409   3.946   1.729
 2508SOL    HW1 8534   3.404   3.983   1.821
 2508SOL    HW2 8535   3.337   3.877   1.717
 2509SOL     OW 8536   2.643   3.988   1.749
 2509SOL    HW1 8537   2.710   3.927   1.792
 2509SOL    HW2 8538   2.570   4.007   1.814
 2510SOL     OW 8539   3.213   4.314   1.433
 2510SOL    HW1 8540   3.241   4.271   1.518
 2510SOL    HW2 8541   3.238   4.410   1.434
 2511SOL     OW 8542   2.665   5.126   0.924
 2511SOL    HW1 8543   2.755   5.140   0.882
 2511SOL    HW2 8544   2.594   5.128   0.853
 2512SOL     OW 8545   2.401   3.788   0.512
 2512SOL    HW1 8546   2.320   3.789   0.570
 2512SOL    HW2 8547   2.404   3.871   0.457
 2513SOL     OW 8548   3.296   4.912   0.041
 2513SOL    HW1 8549   3.328   4.836   0.098
 2513SOL    HW2 8550   3.204   4.939   0.071
 2514SOL     OW 8551   2.159   3.759   0.171
 2514SOL    HW1 8552   2.208   3.843   0.150
 2514SOL    HW2 8553   2.221   3.694   0.216
 2515SOL     OW 8554   2.938   4.407   1.464
 2515SOL    HW1 8555   2.858   4.346   1.467
 2515SOL    HW2 8556   3.019   4.354   1.440
 2516SOL     OW 8557   3.089   5.294   0.793
 2516SOL    HW1 8558   3.110   5.368   0.728
 2516SOL    HW2 8559   3.157   5.294   0.866
 2517SOL     OW 8560   2.894   4.273   0.016
 2517SOL    HW1 8561   2.853   4.355  -0.023
 2517SOL    HW2 8562   2.958   4.299   0.089
 2518SOL     OW 8563   1.940   4.280   1.386
 2518SOL    HW1 8564   2.032   4.279   1.345
 2518SOL    HW2 8565   1.934   4.354   1.453
 2519SOL     OW 8566   2.423   3.946   1.147
 2519SOL    HW1 8567   2.461   3.862   1.184
 2519SOL    HW2 8568   2.335   3.965   1.191
 2520SOL     OW 8569   2.879   3.763   0.753
 2520SOL    HW1 8570   2.807   3.768   0.684
 2520SOL    HW2 8571   2.855   3.694   0.822
 2521SOL     OW 8572   3.291   4.897   0.867
 2521SOL    HW1 8573   3.236   4.813   0.860
 2521SOL    HW2 8574   3.317   4.926   0.775
 2522SOL     OW 8575   3.719   4.557   0.377
 2522SOL    HW1 8576   3.761   4.493   0.441
 2522SOL    HW2 8577   3.681   4.506   0.299
 2523SOL     OW 8578   3.526   5.004   0.657
 2523SOL    HW1 8579   3.625   5.012   0.671
 2523SOL    HW2 8580   3.481   5.088   0.688
 2524SOL     OW 8581   3.252   4.299   0.078
 2524SOL    HW1 8582   3.198   4.278   0.159
 2524SOL    HW2 8583   3.343   4.258   0.087
 2525SOL     OW 8584   2.389   3.980   0.328
 2525SOL    HW1 8585   2.416   3.921   0.253
 2525SOL    HW2 8586   2.389   4.075   0.297
 2526SOL     OW 8587   3.500   4.823   1.079
 2526SOL    HW1 8588   3.505   4.904   1.138
 2526SOL    HW2 8589   3.414   4.825   1.028
 2527SOL     OW 8590   2.777   3.813   1.402
 2527SOL    HW1 8591   2.802   3.793   1.307
 2527SOL    HW2 8592   2.849   3.869   1.444
 2528SOL     OW 8593   2.842   4.840   1.719
 2528SOL    HW1 8594   2.743   4.846   1.729
 2528SOL    HW2 8595   2.865   4.760   1.663
 2529SOL     OW 8596   2.272   4.537   1.251
 2529SOL    HW1 8597   2.358   4.549   1.301
 2529SOL    HW2 8598   2.230   4.450   1.278
 2530SOL     OW 8599   3.136   4.110   1.262
 2530SOL    HW1 8600   3.157   4.184   1.326
 2530SOL    HW2 8601   3.047   4.127   1.219
 2531SOL     OW 8602   2.229   4.824   0.501
 2531SOL    HW1 8603   2.222   4.907   0.445
 2531SOL    HW2 8604   2.233   4.744   0.441
 2532SOL     OW 8605   3.444   4.363   0.472
 2532SOL    HW1 8606   3.413   4.424   0.545
 2532SOL    HW2 8607   3.494   4.415   0.403
 2533SOL     OW 8608   2.264   4.475   1.598
 2533SOL    HW1 8609   2.332   4.530   1.551
 2533SOL    HW2 8610   2.304   4.387   1.625
 2534SOL     OW 8611   2.875   3.829   1.770
 2534SOL    HW1 8612   2.881   3.914   1.718
 2534SOL    HW2 8613   2.907   3.753   1.713
 2535SOL     OW 8614   2.366   3.774   1.740
 2535SOL    HW1 8615   2.324   3.717   1.670
 2535SOL    HW2 8616   2.300   3.843   1.772
 2536SOL     OW 8617   3.071   4.249   0.275
 2536SOL    HW1 8618   3.084   4.165   0.329
 2536SOL    HW2 8619   3.042   4.323   0.335
 2537SOL     OW 8620   2.169   3.937   1.231
 2537SOL    HW1 8621   2.146   3.974   1.321
 2537SOL    HW2 8622   2.139   3.842   1.225
 2538SOL     OW 8623   2.169   3.787   0.618
 2538SOL    HW1 8624   2.158   3.881   0.651
 2538SOL    HW2 8625   2.164   3.724   0.695
 2539SOL     OW 8626   2.885   4.490   0.966
 2539SOL    HW1 8627   2.900   4.511   1.062
 2539SOL    HW2 8628   2.855   4.395   0.957
 2540SOL     OW 8629   3.721   5.242   1.605
 2540SOL    HW1 8630   3.735   5.269   1.510
 2540SOL    HW2 8631   3.804   5.264   1.658
 2541SOL     OW 8632   2.212   4.622   1.804
 2541SOL    HW1 8633   2.288   4.666   1.852
 2541SOL    HW2 8634   2.247   4.575   1.722
 2542SOL     OW 8635   3.402   3.998   0.125
 2542SOL    HW1 8636   3.341   3.923   0.148
 2542SOL    HW2 8637   3.424   4.050   0.208
 2543SOL     OW 8638   3.165   4.562   0.042
 2543SOL    HW1 8639   3.199   4.469   0.057
 2543SOL    HW2 8640   3.183   4.589  -0.053
 2544SOL     OW 8641   2.201   4.233   1.006
 2544SOL    HW1 8642   2.149   4.150   0.989
 2544SOL    HW2 8643   2.278   4.238   0.942
 2545SOL     OW 8644   3.000   4.104   1.678
 2545SOL    HW1 8645   2.955   4.167   1.742
 2545SOL    HW2 8646   3.093   4.135   1.661
 2546SOL     OW 8647   3.022   3.931   1.477
 2546SOL    HW1 8648   3.022   3.995   1.554
 2546SOL    HW2 8649   3.050   3.979   1.394
 2547SOL     OW 8650   2.864   4.520   1.238
 2547SOL    HW1 8651   2.905   4.488   1.324
 2547SOL    HW2 8652   2.768   4.493   1.235
 2548SOL     OW 8653   1.902   4.268   1.114
 2548SOL    HW1 8654   1.987   4.235   1.073
 2548SOL    HW2 8655   1.915   4.283   1.212
 2549SOL     OW 8656   2.051   4.244   1.722
 2549SOL    HW1 8657   2.110   4.204   1.652
 2549SOL    HW2 8658   1.993   4.315   1.681
 2550SOL     OW 8659   3.231   4.674   1.660
 2550SOL    HW1 8660   3.270   4.763   1.680
 2550SOL    HW2 8661   3.241   4.654   1.563
 2551SOL     OW 8662   3.519   4.328   1.206
 2551SOL    HW1 8663   3.481   4.259   1.268
 2551SOL    HW2 8664   3.601   4.292   1.162
 2552SOL     OW 8665   2.021   4.861   1.466
 2552SOL    HW1 8666   2.043   4.800   1.542
 2552SOL    HW2 8667   2.031   4.812   1.380
 2553SOL     OW 8668   3.209   4.783   1.234
 2553SOL    HW1 8669   3.233   4.720   1.160
 2553SOL    HW2 8670   3.119   4.823   1.216
 2554SOL     OW 8671   3.164   4.579   0.309
 2554SOL    HW1 8672   3.078   4.548   0.351
 2554SOL    HW2 8673   3.160   4.565   0.210
 2555SOL     OW 8674   1.945   4.982   1.022
 2555SOL    HW1 8675   1.940   4.981   1.122
 2555SOL    HW2 8676   1.862   4.941   0.984
 2556SOL     OW 8677   2.765   3.810   0.133
 2556SOL    HW1 8678   2.816   3.811   0.047
 2556SOL    HW2 8679   2.821   3.768   0.204
 2557SOL     OW 8680   3.142   4.651   0.672
 2557SOL    HW1 8681   3.202   4.570   0.674
 2557SOL    HW2 8682   3.182   4.720   0.612
 2558SOL     OW 8683   2.692   4.997   1.422
 2558SOL    HW1 8684   2.687   5.030   1.517
 2558SOL    HW2 8685   2.606   5.016   1.376
 2559SOL     OW 8686   3.703   3.899   0.963
 2559SOL    HW1 8687   3.742   3.814   0.927
 2559SOL    HW2 8688   3.605   3.901   0.944
 2560SOL     OW 8689   2.125   4.050   0.720
 2560SOL    HW1 8690   2.046   4.101   0.686
 2560SOL    HW2 8691   2.116   4.035   0.818
 2561SOL     OW 8692   2.684   4.726   1.372
 2561SOL    HW1 8693   2.724   4.725   1.280
 2561SOL    HW2 8694   2.694   4.818   1.412
 2562SOL     OW 8695   2.778   4.634   0.291
 2562SOL    HW1 8696   2.841   4.672   0.223
 2562SOL    HW2 8697   2.818   4.551   0.330
 2563SOL     OW 8698   2.234   5.012   1.490
 2563SOL    HW1 8699   2.221   5.105   1.456
 2563SOL    HW2 8700   2.150   4.960   1.477
 2564SOL     OW 8701   2.876   3.960   0.971
 2564SOL    HW1 8702   2.868   3.924   0.878
 2564SOL    HW2 8703   2.874   3.884   1.036
 2565SOL     OW 8704   3.571   4.109   1.381
 2565SOL    HW1 8705   3.644   4.178   1.385
 2565SOL    HW2 8706   3.599   4.034   1.322
 2566SOL     OW 8707   1.967   4.737   1.726
 2566SOL    HW1 8708   1.890   4.704   1.780
 2566SOL    HW2 8709   2.052   4.707   1.768
 2567SOL     OW 8710   2.534   3.927   1.489
 2567SOL    HW1 8711   2.624   3.911   1.449
 2567SOL    HW2 8712   2.542   3.932   1.588
 2568SOL     OW 8713   1.934   3.890   0.318
 2568SOL    HW1 8714   1.917   3.973   0.264
 2568SOL    HW2 8715   2.024   3.853   0.296
 2569SOL     OW 8716   2.475   4.566   1.431
 2569SOL    HW1 8717   2.531   4.647   1.414
 2569SOL    HW2 8718   2.534   4.486   1.434
 2570SOL     OW 8719   2.578   4.289   1.708
 2570SOL    HW1 8720   2.597   4.354   1.782
 2570SOL    HW2 8721   2.638   4.209   1.717
 2571SOL     OW 8722   3.639   4.066   1.642
 2571SOL    HW1 8723   3.622   4.097   1.548
 2571SOL    HW2 8724   3.555   4.029   1.680
 2572SOL     OW 8725   2.945   4.708   0.087
 2572SOL    HW1 8726   2.922   4.761   0.005
 2572SOL    HW2 8727   3.026   4.652   0.068
 2573SOL     OW 8728   1.941   4.964   0.653
 2573SOL    HW1 8729   1.940   4.917   0.741
 2573SOL    HW2 8730   2.023   4.936   0.602
 2574SOL     OW 8731   3.686   3.916   1.227
 2574SOL    HW1 8732   3.682   3.826   1.271
 2574SOL    HW2 8733   3.689   3.905   1.128
 2575SOL     OW 8734   2.290   4.148   0.520
 2575SOL    HW1 8735   2.320   4.076   0.458
 2575SOL    HW2 8736   2.251   4.108   0.603
 2576SOL     OW 8737   2.179   4.271   1.280
 2576SOL    HW1 8738   2.217   4.212   1.352
 2576SOL    HW2 8739   2.219   4.245   1.192
 2577SOL     OW 8740   3.286   3.938   1.112
 2577SOL    HW1 8741   3.338   3.873   1.167
 2577SOL    HW2 8742   3.237   4.001   1.173
 2578SOL     OW 8743   2.863   3.758   1.154
 2578SOL    HW1 8744   2.800   3.686   1.123
 2578SOL    HW2 8745   2.956   3.722   1.154
 2579SOL     OW 8746   2.632   5.054   0.301
 2579SOL    HW1 8747   2.586   4.967   0.318
 2579SOL    HW2 8748   2.723   5.051   0.342
 2580SOL     OW 8749   3.214   3.776   0.168
 2580SOL    HW1 8750   3.249   3.735   0.084
 2580SOL    HW2 8751   3.124   3.738   0.188
 2581SOL     OW 8752   1.901   4.801   0.300
 2581SOL    HW1 8753   2.000   4.790   0.291
 2581SOL    HW2 8754   1.861   4.715   0.332
 2582SOL     OW 8755   2.092   4.352   1.975
 2582SOL    HW1 8756   1.999   4.350   2.012
 2582SOL    HW2 8757   2.093   4.313   1.883
 2583SOL     OW 8758   2.087   3.999   2.858
 2583SOL    HW1 8759   2.122   3.982   2.950
 2583SOL    HW2 8760   1.999   3.954   2.846
 2584SOL     OW 8761   1.881   4.092   2.509
 2584SOL    HW1 8762   1.799   4.135   2.548
 2584SOL    HW2 8763   1.853   4.019   2.446
 2585SOL     OW 8764   2.431   4.999   3.027
 2585SOL    HW1 8765   2.338   4.992   2.990
 2585SOL    HW2 8766   2.442   5.088   3.071
 2586SOL     OW 8767   3.417   5.235   2.565
 2586SOL    HW1 8768   3.360   5.219   2.646
 2586SOL    HW2 8769   3.358   5.245   2.485
 2587SOL     OW 8770   2.997   4.427   2.579
 2587SOL    HW1 8771   3.054   4.505   2.554
 2587SOL    HW2 8772   2.937   4.453   2.655
 2588SOL     OW 8773   3.617   4.331   2.093
 2588SOL    HW1 8774   3.605   4.318   1.994
 2588SOL    HW2 8775   3.587   4.250   2.142
 2589SOL     OW 8776   2.630   4.868   2.885
 2589SOL    HW1 8777   2.552   4.885   2.945
 2589SOL    HW2 8778   2.664   4.955   2.849
 2590SOL     OW 8779   2.712   4.522   3.685
 2590SOL    HW1 8780   2.708   4.598   3.750
 2590SOL    HW2 8781   2.734   4.558   3.594
 2591SOL     OW 8782   2.547   4.736   2.527
 2591SOL    HW1 8783   2.616   4.720   2.597
 2591SOL    HW2 8784   2.474   4.793   2.565
 2592SOL     OW 8785   2.548   4.885   3.665
 2592SOL    HW1 8786   2.608   4.964   3.679
 2592SOL    HW2 8787   2.462   4.916   3.624
 2593SOL     OW 8788   2.197   5.159   2.923
 2593SOL    HW1 8789   2.119   5.128   2.870
 2593SOL    HW2 8790   2.255   5.217   2.866
 2594SOL     OW 8791   2.300   4.116   3.361
 2594SOL    HW1 8792   2.382   4.060   3.370
 2594SOL    HW2 8793   2.219   4.058   3.365
 2595SOL     OW 8794   3.465   4.171   2.599
 2595SOL    HW1 8795   3.391   4.217   2.549
 2595SOL    HW2 8796   3.516   4.239   2.652
 2596SOL     OW 8797   2.102   4.815   2.748
 2596SOL    HW1 8798   2.116   4.731   2.800
 2596SOL    HW2 8799   2.047   4.879   2.803
 2597SOL     OW 8800   2.468   4.688   1.985
 2597SOL    HW1 8801   2.475   4.772   1.931
 2597SOL    HW2 8802   2.514   4.701   2.073
 2598SOL     OW 8803   3.456   3.838   3.342
 2598SOL    HW1 8804   3.438   3.905   3.270
 2598SOL    HW2 8805   3.453   3.884   3.431
 2599SOL     OW 8806   1.984   4.367   2.425
 2599SOL    HW1 8807   1.939   4.279   2.442
 2599SOL    HW2 8808   1.983   4.421   2.509
 2600SOL     OW 8809   3.551   4.646   2.474
 2600SOL    HW1 8810   3.646   4.617   2.482
 2600SOL    HW2 8811   3.543   4.711   2.399
 2601SOL     OW 8812   3.503   4.832   2.294
 2601SOL    HW1 8813   3.589   4.834   2.242
 2601SOL    HW2 8814   3.517   4.879   2.382
 2602SOL     OW 8815   1.975   4.461   3.459
 2602SOL    HW1 8816   2.063   4.448   3.504
 2602SOL    HW2 8817   1.962   4.558   3.437
 2603SOL     OW 8818   3.155   4.952   3.285
 2603SOL    HW1 8819   3.192   4.879   3.227
 2603SOL    HW2 8820   3.207   4.957   3.370
 2604SOL     OW 8821   2.671   3.728   2.364
 2604SOL    HW1 8822   2.711   3.819   2.355
 2604SOL    HW2 8823   2.571   3.736   2.370
 2605SOL     OW 8824   2.059   4.700   3.126
 2605SOL    HW1 8825   2.148   4.655   3.112
 2605SOL    HW2 8826   1.986   4.635   3.107
 2606SOL     OW 8827   3.387   4.723   2.052
 2606SOL    HW1 8828   3.324   4.647   2.065
 2606SOL    HW2 8829   3.435   4.741   2.138
 2607SOL     OW 8830   2.179   3.975   3.663
 2607SOL    HW1 8831   2.250   4.046   3.669
 2607SOL    HW2 8832   2.091   4.014   3.691
 2608SOL     OW 8833   3.328   5.141   2.815
 2608SOL    HW1 8834   3.269   5.147   2.895
 2608SOL    HW2 8835   3.313   5.053   2.769
 2609SOL     OW 8836   2.460   4.453   2.132
 2609SOL    HW1 8837   2.484   4.522   2.064
 2609SOL    HW2 8838   2.382   4.486   2.186
 2610SOL     OW 8839   3.143   4.069   2.806
 2610SOL    HW1 8840   3.057   4.019   2.793
 2610SOL    HW2 8841   3.205   4.015   2.862
 2611SOL     OW 8842   2.669   4.329   3.327
 2611SOL    HW1 8843   2.622   4.326   3.416
 2611SOL    HW2 8844   2.618   4.274   3.261
 2612SOL     OW 8845   3.256   4.193   3.536
 2612SOL    HW1 8846   3.236   4.236   3.624
 2612SOL    HW2 8847   3.334   4.131   3.545
 2613SOL     OW 8848   2.835   4.614   3.434
 2613SOL    HW1 8849   2.881   4.530   3.405
 2613SOL    HW2 8850   2.779   4.648   3.359
 2614SOL     OW 8851   2.853   4.134   3.104
 2614SOL    HW1 8852   2.776   4.168   3.158
 2614SOL    HW2 8853   2.819   4.083   3.025
 2615SOL     OW 8854   2.903   4.425   2.291
 2615SOL    HW1 8855   2.929   4.421   2.387
 2615SOL    HW2 8856   2.818   4.374   2.277
 2616SOL     OW 8857   1.938   4.535   2.651
 2616SOL    HW1 8858   2.037   4.523   2.660
 2616SOL    HW2 8859   1.914   4.630   2.672
 2617SOL     OW 8860   2.727   4.072   2.057
 2617SOL    HW1 8861   2.786   4.135   2.008
 2617SOL    HW2 8862   2.746   3.978   2.028
 2618SOL     OW 8863   3.581   4.309   3.693
 2618SOL    HW1 8864   3.555   4.398   3.657
 2618SOL    HW2 8865   3.579   4.241   3.620
 2619SOL     OW 8866   3.224   4.868   2.407
 2619SOL    HW1 8867   3.307   4.839   2.359
 2619SOL    HW2 8868   3.175   4.935   2.351
 2620SOL     OW 8869   2.412   3.920   2.747
 2620SOL    HW1 8870   2.407   3.915   2.847
 2620SOL    HW2 8871   2.414   4.016   2.718
 2621SOL     OW 8872   3.657   4.790   2.735
 2621SOL    HW1 8873   3.595   4.775   2.659
 2621SOL    HW2 8874   3.605   4.801   2.820
 2622SOL     OW 8875   2.183   4.667   2.104
 2622SOL    HW1 8876   2.265   4.706   2.062
 2622SOL    HW2 8877   2.156   4.585   2.055
 2623SOL     OW 8878   3.320   4.459   2.590
 2623SOL    HW1 8879   3.315   4.394   2.665
 2623SOL    HW2 8880   3.400   4.518   2.603
 2624SOL     OW 8881   2.064   4.009   3.360
 2624SOL    HW1 8882   1.984   4.069   3.347
 2624SOL    HW2 8883   2.054   3.960   3.446
 2625SOL     OW 8884   3.494   5.101   1.943
 2625SOL    HW1 8885   3.462   5.195   1.933
 2625SOL    HW2 8886   3.418   5.038   1.931
 2626SOL     OW 8887   3.262   3.831   2.288
 2626SOL    HW1 8888   3.238   3.794   2.198
 2626SOL    HW2 8889   3.361   3.847   2.292
 2627SOL     OW 8890   2.244   4.424   2.342
 2627SOL    HW1 8891   2.289   4.334   2.339
 2627SOL    HW2 8892   2.150   4.413   2.375
 2628SOL     OW 8893   3.409   3.946   3.591
 2628SOL    HW1 8894   3.404   3.983   3.683
 2628SOL    HW2 8895   3.337   3.877   3.579
 2629SOL     OW 8896   2.476   3.846   1.979
 2629SOL    HW1 8897   2.574   3.824   1.986
 2629SOL    HW2 8898   2.445   3.829   1.886
 2630SOL     OW 8899   2.643   3.988   3.611
 2630SOL    HW1 8900   2.710   3.927   3.654
 2630SOL    HW2 8901   2.570   4.007   3.676
 2631SOL     OW 8902   3.213   4.314   3.295
 2631SOL    HW1 8903   3.241   4.271   3.380
 2631SOL    HW2 8904   3.238   4.410   3.296
 2632SOL     OW 8905   2.665   5.126   2.786
 2632SOL    HW1 8906   2.755   5.140   2.744
 2632SOL    HW2 8907   2.594   5.128   2.715
 2633SOL     OW 8908   2.784   4.227   2.761
 2633SOL    HW1 8909   2.759   4.218   2.665
 2633SOL    HW2 8910   2.832   4.145   2.792
 2634SOL     OW 8911   2.401   3.788   2.374
 2634SOL    HW1 8912   2.320   3.789   2.432
 2634SOL    HW2 8913   2.404   3.871   2.319
 2635SOL     OW 8914   3.296   4.912   1.903
 2635SOL    HW1 8915   3.328   4.836   1.960
 2635SOL    HW2 8916   3.204   4.939   1.933
 2636SOL     OW 8917   2.159   3.759   2.033
 2636SOL    HW1 8918   2.208   3.843   2.012
 2636SOL    HW2 8919   2.221   3.694   2.078
 2637SOL     OW 8920   2.797   3.960   2.342
 2637SOL    HW1 8921   2.749   4.001   2.264
 2637SOL    HW2 8922   2.896   3.958   2.323
 2638SOL     OW 8923   2.938   4.407   3.326
 2638SOL    HW1 8924   2.858   4.346   3.329
 2638SOL    HW2 8925   3.019   4.354   3.302
 2639SOL     OW 8926   3.089   5.294   2.655
 2639SOL    HW1 8927   3.110   5.368   2.590
 2639SOL    HW2 8928   3.157   5.294   2.728
 2640SOL     OW 8929   2.321   4.876   2.603
 2640SOL    HW1 8930   2.250   4.849   2.668
 2640SOL    HW2 8931   2.295   4.848   2.510
 2641SOL     OW 8932   2.894   4.273   1.878
 2641SOL    HW1 8933   2.853   4.355   1.839
 2641SOL    HW2 8934   2.958   4.299   1.951
 2642SOL     OW 8935   1.940   4.280   3.248
 2642SOL    HW1 8936   2.032   4.279   3.207
 2642SOL    HW2 8937   1.934   4.354   3.315
 2643SOL     OW 8938   2.423   3.946   3.009
 2643SOL    HW1 8939   2.461   3.862   3.046
 2643SOL    HW2 8940   2.335   3.965   3.053
 2644SOL     OW 8941   2.728   4.178   2.504
 2644SOL    HW1 8942   2.696   4.250   2.442
 2644SOL    HW2 8943   2.752   4.097   2.451
 2645SOL     OW 8944   2.879   3.763   2.615
 2645SOL    HW1 8945   2.807   3.768   2.546
 2645SOL    HW2 8946   2.855   3.694   2.684
 2646SOL     OW 8947   3.291   4.897   2.729
 2646SOL    HW1 8948   3.236   4.813   2.722
 2646SOL    HW2 8949   3.317   4.926   2.637
 2647SOL     OW 8950   3.328   4.314   2.854
 2647SOL    HW1 8951   3.298   4.219   2.861
 2647SOL    HW2 8952   3.401   4.330   2.920
 2648SOL     OW 8953   3.719   4.557   2.239
 2648SOL    HW1 8954   3.761   4.493   2.303
 2648SOL    HW2 8955   3.681   4.506   2.161
 2649SOL     OW 8956   3.526   5.004   2.519
 2649SOL    HW1 8957   3.625   5.012   2.533
 2649SOL    HW2 8958   3.481   5.088   2.550
 2650SOL     OW 8959   3.252   4.299   1.940
 2650SOL    HW1 8960   3.198   4.278   2.021
 2650SOL    HW2 8961   3.343   4.258   1.949
 2651SOL     OW 8962   2.389   3.980   2.190
 2651SOL    HW1 8963   2.416   3.921   2.115
 2651SOL    HW2 8964   2.389   4.075   2.159
 2652SOL     OW 8965   3.616   4.947   3.450
 2652SOL    HW1 8966   3.707   4.908   3.437
 2652SOL    HW2 8967   3.624   5.043   3.474
 2653SOL     OW 8968   3.500   4.823   2.941
 2653SOL    HW1 8969   3.505   4.904   3.000
 2653SOL    HW2 8970   3.414   4.825   2.890
 2654SOL     OW 8971   2.842   4.840   3.581
 2654SOL    HW1 8972   2.743   4.846   3.591
 2654SOL    HW2 8973   2.865   4.760   3.525
 2655SOL     OW 8974   2.567   4.774   2.230
 2655SOL    HW1 8975   2.553   4.781   2.329
 2655SOL    HW2 8976   2.651   4.723   2.212
 2656SOL     OW 8977   2.272   4.537   3.113
 2656SOL    HW1 8978   2.358   4.549   3.163
 2656SOL    HW2 8979   2.230   4.450   3.140
 2657SOL     OW 8980   3.136   4.110   3.124
 2657SOL    HW1 8981   3.157   4.184   3.188
 2657SOL    HW2 8982   3.047   4.127   3.081
 2658SOL     OW 8983   2.229   4.824   2.363
 2658SOL    HW1 8984   2.222   4.907   2.307
 2658SOL    HW2 8985   2.233   4.744   2.303
 2659SOL     OW 8986   2.428   4.261   2.727
 2659SOL    HW1 8987   2.440   4.327   2.653
 2659SOL    HW2 8988   2.474   4.295   2.810
 2660SOL     OW 8989   3.444   4.363   2.334
 2660SOL    HW1 8990   3.413   4.424   2.407
 2660SOL    HW2 8991   3.494   4.415   2.265
 2661SOL     OW 8992   2.264   4.475   3.460
 2661SOL    HW1 8993   2.332   4.530   3.413
 2661SOL    HW2 8994   2.304   4.387   3.487
 2662SOL     OW 8995   3.449   4.503   3.532
 2662SOL    HW1 8996   3.357   4.541   3.527
 2662SOL    HW2 8997   3.509   4.550   3.467
 2663SOL     OW 8998   2.875   3.829   3.632
 2663SOL    HW1 8999   2.881   3.914   3.580
 2663SOL    HW2 9000   2.907   3.753   3.575
 2664SOL     OW 9001   2.366   3.774   3.602
 2664SOL    HW1 9002   2.324   3.717   3.532
 2664SOL    HW2 9003   2.300   3.843   3.634
 2665SOL     OW 9004   2.435   4.594   2.891
 2665SOL    HW1 9005   2.479   4.683   2.882
 2665SOL    HW2 9006   2.372   4.594   2.968
 2666SOL     OW 9007   3.222   4.586   2.907
 2666SOL    HW1 9008   3.147   4.586   2.841
 2666SOL    HW2 9009   3.259   4.494   2.916
 2667SOL     OW 9010   3.071   4.249   2.137
 2667SOL    HW1 9011   3.084   4.165   2.191
 2667SOL    HW2 9012   3.042   4.323   2.197
 2668SOL     OW 9013   2.169   3.937   3.093
 2668SOL    HW1 9014   2.146   3.974   3.183
 2668SOL    HW2 9015   2.139   3.842   3.087
 2669SOL     OW 9016   2.594   4.358   2.926
 2669SOL    HW1 9017   2.653   4.332   2.850
 2669SOL    HW2 9018   2.566   4.454   2.915
 2670SOL     OW 9019   3.590   4.659   3.716
 2670SOL    HW1 9020   3.544   4.652   3.627
 2670SOL    HW2 9021   3.528   4.703   3.782
 2671SOL     OW 9022   2.169   3.787   2.480
 2671SOL    HW1 9023   2.158   3.881   2.513
 2671SOL    HW2 9024   2.164   3.724   2.557
 2672SOL     OW 9025   3.484   4.091   2.236
 2672SOL    HW1 9026   3.486   4.015   2.300
 2672SOL    HW2 9027   3.436   4.168   2.276
 2673SOL     OW 9028   2.885   4.490   2.828
 2673SOL    HW1 9029   2.900   4.511   2.924
 2673SOL    HW2 9030   2.855   4.395   2.819
 2674SOL     OW 9031   3.721   5.242   3.467
 2674SOL    HW1 9032   3.735   5.269   3.372
 2674SOL    HW2 9033   3.804   5.264   3.520
 2675SOL     OW 9034   2.212   4.622   3.666
 2675SOL    HW1 9035   2.288   4.666   3.714
 2675SOL    HW2 9036   2.247   4.575   3.584
 2676SOL     OW 9037   3.402   3.998   1.987
 2676SOL    HW1 9038   3.341   3.923   2.010
 2676SOL    HW2 9039   3.424   4.050   2.070
 2677SOL     OW 9040   3.165   4.562   1.904
 2677SOL    HW1 9041   3.199   4.469   1.919
 2677SOL    HW2 9042   3.183   4.589   1.809
 2678SOL     OW 9043   2.181   4.534   2.811
 2678SOL    HW1 9044   2.274   4.570   2.816
 2678SOL    HW2 9045   2.175   4.449   2.863
 2679SOL     OW 9046   2.201   4.233   2.868
 2679SOL    HW1 9047   2.149   4.150   2.851
 2679SOL    HW2 9048   2.278   4.238   2.804
 2680SOL     OW 9049   3.000   4.104   3.540
 2680SOL    HW1 9050   2.955   4.167   3.604
 2680SOL    HW2 9051   3.093   4.135   3.523
 2681SOL     OW 9052   3.022   3.931   3.339
 2681SOL    HW1 9053   3.022   3.995   3.416
 2681SOL    HW2 9054   3.050   3.979   3.256
 2682SOL     OW 9055   1.870   5.050   2.062
 2682SOL    HW1 9056   1.777   5.071   2.031
 2682SOL    HW2 9057   1.880   4.951   2.075
 2683SOL     OW 9058   2.864   4.520   3.100
 2683SOL    HW1 9059   2.905   4.488   3.186
 2683SOL    HW2 9060   2.768   4.493   3.097
 2684SOL     OW 9061   1.902   4.268   2.976
 2684SOL    HW1 9062   1.987   4.235   2.935
 2684SOL    HW2 9063   1.915   4.283   3.074
 2685SOL     OW 9064   2.051   4.244   3.584
 2685SOL    HW1 9065   2.110   4.204   3.514
 2685SOL    HW2 9066   1.993   4.315   3.543
 2686SOL     OW 9067   3.231   4.674   3.522
 2686SOL    HW1 9068   3.270   4.763   3.542
 2686SOL    HW2 9069   3.241   4.654   3.425
 2687SOL     OW 9070   2.677   4.296   2.187
 2687SOL    HW1 9071   2.684   4.207   2.141
 2687SOL    HW2 9072   2.583   4.330   2.179
 2688SOL     OW 9073   3.519   4.328   3.068
 2688SOL    HW1 9074   3.481   4.259   3.130
 2688SOL    HW2 9075   3.601   4.292   3.024
 2689SOL     OW 9076   2.533   4.188   3.131
 2689SOL    HW1 9077   2.499   4.099   3.101
 2689SOL    HW2 9078   2.559   4.242   3.051
 2690SOL     OW 9079   2.335   4.224   2.053
 2690SOL    HW1 9080   2.396   4.304   2.057
 2690SOL    HW2 9081   2.240   4.255   2.060
 2691SOL     OW 9082   2.021   4.861   3.328
 2691SOL    HW1 9083   2.043   4.800   3.404
 2691SOL    HW2 9084   2.031   4.812   3.242
 2692SOL     OW 9085   3.209   4.783   3.096
 2692SOL    HW1 9086   3.233   4.720   3.022
 2692SOL    HW2 9087   3.119   4.823   3.078
 2693SOL     OW 9088   3.164   4.579   2.171
 2693SOL    HW1 9089   3.078   4.548   2.213
 2693SOL    HW2 9090   3.160   4.565   2.072
 2694SOL     OW 9091   1.945   4.982   2.884
 2694SOL    HW1 9092   1.940   4.981   2.984
 2694SOL    HW2 9093   1.862   4.941   2.846
 2695SOL     OW 9094   3.588   3.859   2.385
 2695SOL    HW1 9095   3.661   3.842   2.318
 2695SOL    HW2 9096   3.557   3.772   2.423
 2696SOL     OW 9097   3.142   4.651   2.534
 2696SOL    HW1 9098   3.202   4.570   2.536
 2696SOL    HW2 9099   3.182   4.720   2.474
 2697SOL     OW 9100   2.692   4.997   3.284
 2697SOL    HW1 9101   2.687   5.030   3.379
 2697SOL    HW2 9102   2.606   5.016   3.238
 2698SOL     OW 9103   3.703   3.899   2.825
 2698SOL    HW1 9104   3.742   3.814   2.789
 2698SOL    HW2 9105   3.605   3.901   2.806
 2699SOL     OW 9106   2.125   4.050   2.582
 2699SOL    HW1 9107   2.046   4.101   2.548
 2699SOL    HW2 9108   2.116   4.035   2.680
 2700SOL     OW 9109   3.056   5.336   1.893
 2700SOL    HW1 9110   3.062   5.243   1.930
 2700SOL    HW2 9111   2.997   5.336   1.813
 2701SOL     OW 9112   2.684   4.726   3.234
 2701SOL    HW1 9113   2.724   4.725   3.142
 2701SOL    HW2 9114   2.694   4.818   3.274
 2702SOL     OW 9115   2.778   4.634   2.153
 2702SOL    HW1 9116   2.841   4.672   2.085
 2702SOL    HW2 9117   2.818   4.551   2.192
 2703SOL     OW 9118   2.234   5.012   3.352
 2703SOL    HW1 9119   2.221   5.105   3.318
 2703SOL    HW2 9120   2.150   4.960   3.339
 2704SOL     OW 9121   3.476   5.016   3.151
 2704SOL    HW1 9122   3.536   5.019   3.231
 2704SOL    HW2 9123   3.401   5.080   3.164
 2705SOL     OW 9124   2.901   4.822   2.558
 2705SOL    HW1 9125   2.831   4.775   2.612
 2705SOL    HW2 9126   2.960   4.754   2.515
 2706SOL     OW 9127   2.876   3.960   2.833
 2706SOL    HW1 9128   2.868   3.924   2.740
 2706SOL    HW2 9129   2.874   3.884   2.898
 2707SOL     OW 9130   3.571   4.109   3.243
 2707SOL    HW1 9131   3.644   4.178   3.247
 2707SOL    HW2 9132   3.599   4.034   3.184
 2708SOL     OW 9133   1.967   4.737   3.588
 2708SOL    HW1 9134   1.890   4.704   3.642
 2708SOL    HW2 9135   2.052   4.707   3.630
 2709SOL     OW 9136   2.534   3.927   3.351
 2709SOL    HW1 9137   2.624   3.911   3.311
 2709SOL    HW2 9138   2.542   3.932   3.450
 2710SOL     OW 9139   1.937   4.069   1.895
 2710SOL    HW1 9140   1.845   4.041   1.866
 2710SOL    HW2 9141   1.968   4.146   1.839
 2711SOL     OW 9142   3.302   4.580   3.260
 2711SOL    HW1 9143   3.245   4.632   3.197
 2711SOL    HW2 9144   3.398   4.592   3.236
 2712SOL     OW 9145   1.934   3.890   2.180
 2712SOL    HW1 9146   1.917   3.973   2.126
 2712SOL    HW2 9147   2.024   3.853   2.158
 2713SOL     OW 9148   2.475   4.566   3.293
 2713SOL    HW1 9149   2.531   4.647   3.276
 2713SOL    HW2 9150   2.534   4.486   3.296
 2714SOL     OW 9151   2.578   4.289   3.570
 2714SOL    HW1 9152   2.597   4.354   3.644
 2714SOL    HW2 9153   2.638   4.209   3.579
 2715SOL     OW 9154   3.312   4.944   3.495
 2715SOL    HW1 9155   3.303   4.934   3.594
 2715SOL    HW2 9156   3.408   4.937   3.469
 2716SOL     OW 9157   3.536   4.607   3.116
 2716SOL    HW1 9158   3.509   4.518   3.079
 2716SOL    HW2 9159   3.537   4.675   3.043
 2717SOL     OW 9160   3.087   4.049   2.311
 2717SOL    HW1 9161   3.152   3.975   2.300
 2717SOL    HW2 9162   3.107   4.099   2.395
 2718SOL     OW 9163   2.456   4.469   2.514
 2718SOL    HW1 9164   2.506   4.554   2.495
 2718SOL    HW2 9165   2.368   4.471   2.466
 2719SOL     OW 9166   3.639   4.066   3.504
 2719SOL    HW1 9167   3.622   4.097   3.410
 2719SOL    HW2 9168   3.555   4.029   3.542
 2720SOL     OW 9169   3.592   4.658   3.379
 2720SOL    HW1 9170   3.630   4.749   3.394
 2720SOL    HW2 9171   3.584   4.641   3.280
 2721SOL     OW 9172   2.721   4.680   2.723
 2721SOL    HW1 9173   2.775   4.611   2.771
 2721SOL    HW2 9174   2.689   4.749   2.789
 2722SOL     OW 9175   2.945   4.708   1.949
 2722SOL    HW1 9176   2.922   4.761   1.867
 2722SOL    HW2 9177   3.026   4.652   1.930
 2723SOL     OW 9178   1.941   4.964   2.515
 2723SOL    HW1 9179   1.940   4.917   2.603
 2723SOL    HW2 9180   2.023   4.936   2.464
 2724SOL     OW 9181   3.686   3.916   3.089
 2724SOL    HW1 9182   3.682   3.826   3.133
 2724SOL    HW2 9183   3.689   3.905   2.990
 2725SOL     OW 9184   2.290   4.148   2.382
 2725SOL    HW1 9185   2.320   4.076   2.320
 2725SOL    HW2 9186   2.251   4.108   2.465
 2726SOL     OW 9187   2.179   4.271   3.142
 2726SOL    HW1 9188   2.217   4.212   3.214
 2726SOL    HW2 9189   2.219   4.245   3.054
 2727SOL     OW 9190   3.286   3.938   2.974
 2727SOL    HW1 9191   3.338   3.873   3.029
 2727SOL    HW2 9192   3.237   4.001   3.035
 2728SOL     OW 9193   2.632   5.054   2.163
 2728SOL    HW1 9194   2.586   4.967   2.180
 2728SOL    HW2 9195   2.723   5.051   2.204
 2729SOL     OW 9196   3.214   3.776   2.030
 2729SOL    HW1 9197   3.249   3.735   1.946
 2729SOL    HW2 9198   3.124   3.738   2.050
 2730SOL     OW 9199   3.162   4.177   2.553
 2730SOL    HW1 9200   3.103   4.257   2.557
 2730SOL    HW2 9201   3.177   4.142   2.646
 2731SOL     OW 9202   3.455   3.945   2.744
 2731SOL    HW1 9203   3.371   3.944   2.798
 2731SOL    HW2 9204   3.457   4.028   2.688
 2732SOL     OW 9205   1.901   4.801   2.162
 2732SOL    HW1 9206   2.000   4.790   2.153
 2732SOL    HW2 9207   1.861   4.715   2.194
 2733SOL     OW 9208   2.092   4.352   3.837
 2733SOL    HW1 9209   1.999   4.350   3.874
 2733SOL    HW2 9210   2.093   4.313   3.745
 2734SOL     OW 9211   2.087   3.999   4.720
 2734SOL    HW1 9212   2.122   3.982   4.812
 2734SOL    HW2 9213   1.999   3.954   4.708
 2735SOL     OW 9214   2.431   4.999   4.889
 2735SOL    HW1 9215   2.338   4.992   4.852
 2735SOL    HW2 9216   2.442   5.088   4.933
 2736SOL     OW 9217   3.417   5.235   4.427
 2736SOL    HW1 9218   3.360   5.219   4.508
 2736SOL    HW2 9219   3.358   5.245   4.347
 2737SOL     OW 9220   2.997   4.427   4.441
 2737SOL    HW1 9221   3.054   4.505   4.416
 2737SOL    HW2 9222   2.937   4.453   4.517
 2738SOL     OW 9223   2.630   4.868   4.747
 2738SOL    HW1 9224   2.552   4.885   4.807
 2738SOL    HW2 9225   2.664   4.955   4.711
 2739SOL     OW 9226   2.197   5.159   4.785
 2739SOL    HW1 9227   2.119   5.128   4.732
 2739SOL    HW2 9228   2.255   5.217   4.728
 2740SOL     OW 9229   3.465   4.171   4.461
 2740SOL    HW1 9230   3.391   4.217   4.411
 2740SOL    HW2 9231   3.516   4.239   4.514
 2741SOL     OW 9232   2.102   4.815   4.610
 2741SOL    HW1 9233   2.116   4.731   4.662
 2741SOL    HW2 9234   2.047   4.879   4.665
 2742SOL     OW 9235   2.468   4.688   3.847
 2742SOL    HW1 9236   2.475   4.772   3.793
 2742SOL    HW2 9237   2.514   4.701   3.935
 2743SOL     OW 9238   1.984   4.367   4.287
 2743SOL    HW1 9239   1.939   4.279   4.304
 2743SOL    HW2 9240   1.983   4.421   4.371
 2744SOL     OW 9241   3.551   4.646   4.336
 2744SOL    HW1 9242   3.646   4.617   4.344
 2744SOL    HW2 9243   3.543   4.711   4.261
 2745SOL     OW 9244   3.503   4.832   4.156
 2745SOL    HW1 9245   3.589   4.834   4.104
 2745SOL    HW2 9246   3.517   4.879   4.244
 2746SOL     OW 9247   2.671   3.728   4.226
 2746SOL    HW1 9248   2.711   3.819   4.217
 2746SOL    HW2 9249   2.571   3.736   4.232
 2747SOL     OW 9250   2.059   4.700   4.988
 2747SOL    HW1 9251   2.148   4.655   4.974
 2747SOL    HW2 9252   1.986   4.635   4.969
 2748SOL     OW 9253   3.387   4.723   3.914
 2748SOL    HW1 9254   3.324   4.647   3.927
 2748SOL    HW2 9255   3.435   4.741   4.000
 2749SOL     OW 9256   3.328   5.141   4.677
 2749SOL    HW1 9257   3.269   5.147   4.757
 2749SOL    HW2 9258   3.313   5.053   4.631
 2750SOL     OW 9259   2.460   4.453   3.994
 2750SOL    HW1 9260   2.484   4.522   3.926
 2750SOL    HW2 9261   2.382   4.486   4.048
 2751SOL     OW 9262   3.143   4.069   4.668
 2751SOL    HW1 9263   3.057   4.019   4.655
 2751SOL    HW2 9264   3.205   4.015   4.724
 2752SOL     OW 9265   2.853   4.134   4.966
 2752SOL    HW1 9266   2.776   4.168   5.020
 2752SOL    HW2 9267   2.819   4.083   4.887
 2753SOL     OW 9268   2.903   4.425   4.153
 2753SOL    HW1 9269   2.929   4.421   4.249
 2753SOL    HW2 9270   2.818   4.374   4.139
 2754SOL     OW 9271   1.938   4.535   4.513
 2754SOL    HW1 9272   2.037   4.523   4.522
 2754SOL    HW2 9273   1.914   4.630   4.534
 2755SOL     OW 9274   2.727   4.072   3.919
 2755SOL    HW1 9275   2.786   4.135   3.870
 2755SOL    HW2 9276   2.746   3.978   3.890
 2756SOL     OW 9277   2.412   3.920   4.609
 2756SOL    HW1 9278   2.407   3.915   4.709
 2756SOL    HW2 9279   2.414   4.016   4.580
 2757SOL     OW 9280   3.657   4.790   4.597
 2757SOL    HW1 9281   3.595   4.775   4.521
 2757SOL    HW2 9282   3.605   4.801   4.682
 2758SOL     OW 9283   2.183   4.667   3.966
 2758SOL    HW1 9284   2.265   4.706   3.924
 2758SOL    HW2 9285   2.156   4.585   3.917
 2759SOL     OW 9286   3.320   4.459   4.452
 2759SOL    HW1 9287   3.315   4.394   4.527
 2759SOL    HW2 9288   3.400   4.518   4.465
 2760SOL     OW 9289   3.494   5.101   3.805
 2760SOL    HW1 9290   3.462   5.195   3.795
 2760SOL    HW2 9291   3.418   5.038   3.793
 2761SOL     OW 9292   3.262   3.831   4.150
 2761SOL    HW1 9293   3.238   3.794   4.060
 2761SOL    HW2 9294   3.361   3.847   4.154
 2762SOL     OW 9295   2.244   4.424   4.204
 2762SOL    HW1 9296   2.289   4.334   4.201
 2762SOL    HW2 9297   2.150   4.413   4.237
 2763SOL     OW 9298   2.476   3.846   3.841
 2763SOL    HW1 9299   2.574   3.824   3.848
 2763SOL    HW2 9300   2.445   3.829   3.748
 2764SOL     OW 9301   2.784   4.227   4.623
 2764SOL    HW1 9302   2.759   4.218   4.527
 2764SOL    HW2 9303   2.832   4.145   4.654
 2765SOL     OW 9304   2.401   3.788   4.236
 2765SOL    HW1 9305   2.320   3.789   4.294
 2765SOL    HW2 9306   2.404   3.871   4.181
 2766SOL     OW 9307   3.296   4.912   3.765
 2766SOL    HW1 9308   3.328   4.836   3.822
 2766SOL    HW2 9309   3.204   4.939   3.795
 2767SOL     OW 9310   2.159   3.759   3.895
 2767SOL    HW1 9311   2.208   3.843   3.874
 2767SOL    HW2 9312   2.221   3.694   3.940
 2768SOL     OW 9313   2.797   3.960   4.204
 2768SOL    HW1 9314   2.749   4.001   4.126
 2768SOL    HW2 9315   2.896   3.958   4.185
 2769SOL     OW 9316   3.089   5.294   4.517
 2769SOL    HW1 9317   3.110   5.368   4.452
 2769SOL    HW2 9318   3.157   5.294   4.590
 2770SOL     OW 9319   2.321   4.876   4.465
 2770SOL    HW1 9320   2.250   4.849   4.530
 2770SOL    HW2 9321   2.295   4.848   4.372
 2771SOL     OW 9322   2.894   4.273   3.740
 2771SOL    HW1 9323   2.853   4.355   3.701
 2771SOL    HW2 9324   2.958   4.299   3.813
 2772SOL     OW 9325   2.423   3.946   4.871
 2772SOL    HW1 9326   2.461   3.862   4.908
 2772SOL    HW2 9327   2.335   3.965   4.915
 2773SOL     OW 9328   2.728   4.178   4.366
 2773SOL    HW1 9329   2.696   4.250   4.304
 2773SOL    HW2 9330   2.752   4.097   4.313
 2774SOL     OW 9331   2.879   3.763   4.477
 2774SOL    HW1 9332   2.807   3.768   4.408
 2774SOL    HW2 9333   2.855   3.694   4.546
 2775SOL     OW 9334   3.291   4.897   4.591
 2775SOL    HW1 9335   3.236   4.813   4.584
 2775SOL    HW2 9336   3.317   4.926   4.499
 2776SOL     OW 9337   3.328   4.314   4.716
 2776SOL    HW1 9338   3.298   4.219   4.723
 2776SOL    HW2 9339   3.401   4.330   4.782
 2777SOL     OW 9340   3.526   5.004   4.381
 2777SOL    HW1 9341   3.625   5.012   4.395
 2777SOL    HW2 9342   3.481   5.088   4.412
 2778SOL     OW 9343   3.252   4.299   3.802
 2778SOL    HW1 9344   3.198   4.278   3.883
 2778SOL    HW2 9345   3.343   4.258   3.811
 2779SOL     OW 9346   2.389   3.980   4.052
 2779SOL    HW1 9347   2.416   3.921   3.977
 2779SOL    HW2 9348   2.389   4.075   4.021
 2780SOL     OW 9349   3.500   4.823   4.803
 2780SOL    HW1 9350   3.505   4.904   4.862
 2780SOL    HW2 9351   3.414   4.825   4.752
 2781SOL     OW 9352   2.567   4.774   4.092
 2781SOL    HW1 9353   2.553   4.781   4.191
 2781SOL    HW2 9354   2.651   4.723   4.074
 2782SOL     OW 9355   2.272   4.537   4.975
 2782SOL    HW1 9356   2.358   4.549   5.025
 2782SOL    HW2 9357   2.230   4.450   5.002
 2783SOL     OW 9358   3.136   4.110   4.986
 2783SOL    HW1 9359   3.157   4.184   5.050
 2783SOL    HW2 9360   3.047   4.127   4.943
 2784SOL     OW 9361   2.229   4.824   4.225
 2784SOL    HW1 9362   2.222   4.907   4.169
 2784SOL    HW2 9363   2.233   4.744   4.165
 2785SOL     OW 9364   2.428   4.261   4.589
 2785SOL    HW1 9365   2.440   4.327   4.515
 2785SOL    HW2 9366   2.474   4.295   4.672
 2786SOL     OW 9367   3.444   4.363   4.196
 2786SOL    HW1 9368   3.413   4.424   4.269
 2786SOL    HW2 9369   3.494   4.415   4.127
 2787SOL     OW 9370   2.435   4.594   4.753
 2787SOL    HW1 9371   2.479   4.683   4.744
 2787SOL    HW2 9372   2.372   4.594   4.830
 2788SOL     OW 9373   3.222   4.586   4.769
 2788SOL    HW1 9374   3.147   4.586   4.703
 2788SOL    HW2 9375   3.259   4.494   4.778
 2789SOL     OW 9376   3.071   4.249   3.999
 2789SOL    HW1 9377   3.084   4.165   4.053
 2789SOL    HW2 9378   3.042   4.323   4.059
 2790SOL     OW 9379   2.169   3.937   4.955
 2790SOL    HW1 9380   2.146   3.974   5.045
 2790SOL    HW2 9381   2.139   3.842   4.949
 2791SOL     OW 9382   2.594   4.358   4.788
 2791SOL    HW1 9383   2.653   4.332   4.712
 2791SOL    HW2 9384   2.566   4.454   4.777
 2792SOL     OW 9385   2.169   3.787   4.342
 2792SOL    HW1 9386   2.158   3.881   4.375
 2792SOL    HW2 9387   2.164   3.724   4.419
 2793SOL     OW 9388   2.885   4.490   4.690
 2793SOL    HW1 9389   2.900   4.511   4.786
 2793SOL    HW2 9390   2.855   4.395   4.681
 2794SOL     OW 9391   3.402   3.998   3.849
 2794SOL    HW1 9392   3.341   3.923   3.872
 2794SOL    HW2 9393   3.424   4.050   3.932
 2795SOL     OW 9394   3.165   4.562   3.766
 2795SOL    HW1 9395   3.199   4.469   3.781
 2795SOL    HW2 9396   3.183   4.589   3.671
 2796SOL     OW 9397   2.181   4.534   4.673
 2796SOL    HW1 9398   2.274   4.570   4.678
 2796SOL    HW2 9399   2.175   4.449   4.725
 2797SOL     OW 9400   2.201   4.233   4.730
 2797SOL    HW1 9401   2.149   4.150   4.713
 2797SOL    HW2 9402   2.278   4.238   4.666
 2798SOL     OW 9403   3.022   3.931   5.201
 2798SOL    HW1 9404   3.022   3.995   5.278
 2798SOL    HW2 9405   3.050   3.979   5.118
 2799SOL     OW 9406   1.870   5.050   3.924
 2799SOL    HW1 9407   1.777   5.071   3.893
 2799SOL    HW2 9408   1.880   4.951   3.937
 2800SOL     OW 9409   2.864   4.520   4.962
 2800SOL    HW1 9410   2.905   4.488   5.048
 2800SOL    HW2 9411   2.768   4.493   4.959
 2801SOL     OW 9412   1.902   4.268   4.838
 2801SOL    HW1 9413   1.987   4.235   4.797
 2801SOL    HW2 9414   1.915   4.283   4.936
 2802SOL     OW 9415   2.677   4.296   4.049
 2802SOL    HW1 9416   2.684   4.207   4.003
 2802SOL    HW2 9417   2.583   4.330   4.041
 2803SOL     OW 9418   3.519   4.328   4.930
 2803SOL    HW1 9419   3.481   4.259   4.992
 2803SOL    HW2 9420   3.601   4.292   4.886
 2804SOL     OW 9421   2.533   4.188   4.993
 2804SOL    HW1 9422   2.499   4.099   4.963
 2804SOL    HW2 9423   2.559   4.242   4.913
 2805SOL     OW 9424   2.335   4.224   3.915
 2805SOL    HW1 9425   2.396   4.304   3.919
 2805SOL    HW2 9426   2.240   4.255   3.922
 2806SOL     OW 9427   3.209   4.783   4.958
 2806SOL    HW1 9428   3.233   4.720   4.884
 2806SOL    HW2 9429   3.119   4.823   4.940
 2807SOL     OW 9430   3.164   4.579   4.033
 2807SOL    HW1 9431   3.078   4.548   4.075
 2807SOL    HW2 9432   3.160   4.565   3.934
 2808SOL     OW 9433   1.945   4.982   4.746
 2808SOL    HW1 9434   1.940   4.981   4.846
 2808SOL    HW2 9435   1.862   4.941   4.708
 2809SOL     OW 9436   3.588   3.859   4.247
 2809SOL    HW1 9437   3.661   3.842   4.180
 2809SOL    HW2 9438   3.557   3.772   4.285
 2810SOL     OW 9439   3.142   4.651   4.396
 2810SOL    HW1 9440   3.202   4.570   4.398
 2810SOL    HW2 9441   3.182   4.720   4.336
 2811SOL     OW 9442   2.692   4.997   5.146
 2811SOL    HW1 9443   2.687   5.030   5.241
 2811SOL    HW2 9444   2.606   5.016   5.100
 2812SOL     OW 9445   3.703   3.899   4.687
 2812SOL    HW1 9446   3.742   3.814   4.651
 2812SOL    HW2 9447   3.605   3.901   4.668
 2813SOL     OW 9448   2.125   4.050   4.444
 2813SOL    HW1 9449   2.046   4.101   4.410
 2813SOL    HW2 9450   2.116   4.035   4.542
 2814SOL     OW 9451   3.056   5.336   3.755
 2814SOL    HW1 9452   3.062   5.243   3.792
 2814SOL    HW2 9453   2.997   5.336   3.675
 2815SOL     OW 9454   2.684   4.726   5.096
 2815SOL    HW1 9455   2.724   4.725   5.004
 2815SOL    HW2 9456   2.694   4.818   5.136
 2816SOL     OW 9457   2.778   4.634   4.015
 2816SOL    HW1 9458   2.841   4.672   3.947
 2816SOL    HW2 9459   2.818   4.551   4.054
 2817SOL     OW 9460   2.876   3.960   4.695
 2817SOL    HW1 9461   2.868   3.924   4.602
 2817SOL    HW2 9462   2.874   3.884   4.760
 2818SOL     OW 9463   3.571   4.109   5.105
 2818SOL    HW1 9464   3.644   4.178   5.109
 2818SOL    HW2 9465   3.599   4.034   5.046
 2819SOL     OW 9466   1.937   4.069   3.757
 2819SOL    HW1 9467   1.845   4.041   3.728
 2819SOL    HW2 9468   1.968   4.146   3.701
 2820SOL     OW 9469   1.934   3.890   4.042
 2820SOL    HW1 9470   1.917   3.973   3.988
 2820SOL    HW2 9471   2.024   3.853   4.020
 2821SOL     OW 9472   3.312   4.944   5.357
 2821SOL    HW1 9473   3.303   4.934   5.456
 2821SOL    HW2 9474   3.408   4.937   5.331
 2822SOL     OW 9475   3.536   4.607   4.978
 2822SOL    HW1 9476   3.509   4.518   4.941
 2822SOL    HW2 9477   3.537   4.675   4.905
 2823SOL     OW 9478   3.087   4.049   4.173
 2823SOL    HW1 9479   3.152   3.975   4.162
 2823SOL    HW2 9480   3.107   4.099   4.257
 2824SOL     OW 9481   2.456   4.469   4.376
 2824SOL    HW1 9482   2.506   4.554   4.357
 2824SOL    HW2 9483   2.368   4.471   4.328
 2825SOL     OW 9484   3.592   4.658   5.241
 2825SOL    HW1 9485   3.630   4.749   5.256
 2825SOL    HW2 9486   3.584   4.641   5.142
 2826SOL     OW 9487   2.721   4.680   4.585
 2826SOL    HW1 9488   2.775   4.611   4.633
 2826SOL    HW2 9489   2.689   4.749   4.651
 2827SOL     OW 9490   2.945   4.708   3.811
 2827SOL    HW1 9491   2.922   4.761   3.729
 2827SOL    HW2 9492   3.026   4.652   3.792
 2828SOL     OW 9493   1.941   4.964   4.377
 2828SOL    HW1 9494   1.940   4.917   4.465
 2828SOL    HW2 9495   2.023   4.936   4.326
 2829SOL     OW 9496   3.686   3.916   4.951
 2829SOL    HW1 9497   3.682   3.826   4.995
 2829SOL    HW2 9498   3.689   3.905   4.852
 2830SOL     OW 9499   2.290   4.148   4.244
 2830SOL    HW1 9500   2.320   4.076   4.182
 2830SOL    HW2 9501   2.251   4.108   4.327
 2831SOL     OW 9502   3.286   3.938   4.836
 2831SOL    HW1 9503   3.338   3.873   4.891
 2831SOL    HW2 9504   3.237   4.001   4.897
 2832SOL     OW 9505   3.214   3.776   3.892
 2832SOL    HW1 9506   3.249   3.735   3.808
 2832SOL    HW2 9507   3.124   3.738   3.912
 2833SOL     OW 9508   3.162   4.177   4.415
 2833SOL    HW1 9509   3.103   4.257   4.419
 2833SOL    HW2 9510   3.177   4.142   4.508
 2834SOL     OW 9511   3.455   3.945   4.606
 2834SOL    HW1 9512   3.371   3.944   4.660
 2834SOL    HW2 9513   3.457   4.028   4.550
 2835SOL     OW 9514   1.901   4.801   4.024
 2835SOL    HW1 9515   2.000   4.790   4.015
 2835SOL    HW2 9516   1.861   4.715   4.056
 2836SOL     OW 9517   3.954   0.628   0.113
 2836SOL    HW1 9518   3.861   0.626   0.150
 2836SOL    HW2 9519   3.955   0.589   0.021
 2837SOL     OW 9520   3.949   0.275   0.996
 2837SOL    HW1 9521   3.984   0.258   1.088
 2837SOL    HW2 9522   3.861   0.230   0.984
 2838SOL     OW 9523   3.743   0.368   0.647
 2838SOL    HW1 9524   3.661   0.411   0.686
 2838SOL    HW2 9525   3.715   0.295   0.584
 2839SOL     OW 9526   4.293   1.275   1.165
 2839SOL    HW1 9527   4.200   1.268   1.128
 2839SOL    HW2 9528   4.304   1.364   1.209
 2840SOL     OW 9529   4.859   0.703   0.717
 2840SOL    HW1 9530   4.916   0.781   0.692
 2840SOL    HW2 9531   4.799   0.729   0.793
 2841SOL     OW 9532   4.492   1.144   1.023
 2841SOL    HW1 9533   4.414   1.161   1.083
 2841SOL    HW2 9534   4.526   1.231   0.987
 2842SOL     OW 9535   4.409   1.012   0.665
 2842SOL    HW1 9536   4.478   0.996   0.735
 2842SOL    HW2 9537   4.336   1.069   0.703
 2843SOL     OW 9538   4.410   1.161   1.803
 2843SOL    HW1 9539   4.470   1.240   1.817
 2843SOL    HW2 9540   4.324   1.192   1.762
 2844SOL     OW 9541   4.059   1.435   1.061
 2844SOL    HW1 9542   3.981   1.404   1.008
 2844SOL    HW2 9543   4.117   1.493   1.004
 2845SOL     OW 9544   3.955   1.713   0.483
 2845SOL    HW1 9545   3.989   1.790   0.537
 2845SOL    HW2 9546   3.999   1.713   0.393
 2846SOL     OW 9547   4.851   1.341   1.690
 2846SOL    HW1 9548   4.898   1.341   1.778
 2846SOL    HW2 9549   4.803   1.254   1.679
 2847SOL     OW 9550   3.954   1.434   0.538
 2847SOL    HW1 9551   3.928   1.530   0.538
 2847SOL    HW2 9552   3.883   1.380   0.583
 2848SOL     OW 9553   3.964   1.091   0.886
 2848SOL    HW1 9554   3.978   1.007   0.938
 2848SOL    HW2 9555   3.909   1.155   0.941
 2849SOL     OW 9556   4.344   1.786   1.439
 2849SOL    HW1 9557   4.252   1.769   1.474
 2849SOL    HW2 9558   4.372   1.878   1.465
 2850SOL     OW 9559   4.330   0.964   0.123
 2850SOL    HW1 9560   4.337   1.048   0.069
 2850SOL    HW2 9561   4.376   0.977   0.211
 2851SOL     OW 9562   3.846   0.643   0.563
 2851SOL    HW1 9563   3.801   0.555   0.580
 2851SOL    HW2 9564   3.845   0.697   0.647
 2852SOL     OW 9565   4.337   1.365   0.726
 2852SOL    HW1 9566   4.288   1.278   0.735
 2852SOL    HW2 9567   4.314   1.408   0.639
 2853SOL     OW 9568   5.017   1.228   1.423
 2853SOL    HW1 9569   5.054   1.155   1.365
 2853SOL    HW2 9570   5.069   1.233   1.508
 2854SOL     OW 9571   4.533   0.004   0.502
 2854SOL    HW1 9572   4.573   0.095   0.493
 2854SOL    HW2 9573   4.433   0.012   0.508
 2855SOL     OW 9574   3.921   0.976   1.264
 2855SOL    HW1 9575   4.010   0.931   1.250
 2855SOL    HW2 9576   3.848   0.911   1.245
 2856SOL     OW 9577   4.911   1.792   1.616
 2856SOL    HW1 9578   4.935   1.852   1.540
 2856SOL    HW2 9579   4.918   1.697   1.586
 2857SOL     OW 9580   4.041   0.251   1.801
 2857SOL    HW1 9581   4.112   0.322   1.807
 2857SOL    HW2 9582   3.953   0.290   1.829
 2858SOL     OW 9583   4.765   0.701   0.429
 2858SOL    HW1 9584   4.791   0.697   0.525
 2858SOL    HW2 9585   4.680   0.650   0.415
 2859SOL     OW 9586   3.800   0.811   0.789
 2859SOL    HW1 9587   3.899   0.799   0.798
 2859SOL    HW2 9588   3.776   0.906   0.810
 2860SOL     OW 9589   3.854   1.821   1.571
 2860SOL    HW1 9590   3.844   1.806   1.670
 2860SOL    HW2 9591   3.768   1.857   1.535
 2861SOL     OW 9592   4.274   0.196   0.885
 2861SOL    HW1 9593   4.269   0.191   0.985
 2861SOL    HW2 9594   4.276   0.292   0.856
 2862SOL     OW 9595   4.732   1.456   0.477
 2862SOL    HW1 9596   4.686   1.528   0.425
 2862SOL    HW2 9597   4.728   1.476   0.575
 2863SOL     OW 9598   4.075   1.801   0.853
 2863SOL    HW1 9599   4.125   1.715   0.859
 2863SOL    HW2 9600   4.140   1.878   0.850
 2864SOL     OW 9601   4.951   1.550   1.506
 2864SOL    HW1 9602   4.957   1.473   1.570
 2864SOL    HW2 9603   4.899   1.524   1.426
 2865SOL     OW 9604   4.185   1.266   1.727
 2865SOL    HW1 9605   4.135   1.267   1.641
 2865SOL    HW2 9606   4.122   1.248   1.803
 2866SOL     OW 9607   4.835   1.776   0.237
 2866SOL    HW1 9608   4.775   1.714   0.287
 2866SOL    HW2 9609   4.866   1.732   0.152
 2867SOL     OW 9610   3.926   0.285   1.498
 2867SOL    HW1 9611   3.846   0.345   1.485
 2867SOL    HW2 9612   3.916   0.236   1.584
 2868SOL     OW 9613   5.356   1.377   0.081
 2868SOL    HW1 9614   5.324   1.471   0.071
 2868SOL    HW2 9615   5.280   1.314   0.069
 2869SOL     OW 9616   4.188   1.743   0.323
 2869SOL    HW1 9617   4.221   1.782   0.409
 2869SOL    HW2 9618   4.264   1.736   0.258
 2870SOL     OW 9619   3.973   1.785   1.241
 2870SOL    HW1 9620   4.030   1.720   1.291
 2870SOL    HW2 9621   3.957   1.752   1.148
 2871SOL     OW 9622   4.664   1.698   0.904
 2871SOL    HW1 9623   4.744   1.641   0.925
 2871SOL    HW2 9624   4.615   1.658   0.827
 2872SOL     OW 9625   4.505   0.264   1.749
 2872SOL    HW1 9626   4.572   0.203   1.792
 2872SOL    HW2 9627   4.432   0.283   1.814
 2873SOL     OW 9628   4.612   1.514   1.195
 2873SOL    HW1 9629   4.589   1.489   1.101
 2873SOL    HW2 9630   4.673   1.445   1.234
 2874SOL     OW 9631   4.527   1.402   0.924
 2874SOL    HW1 9632   4.617   1.416   0.882
 2874SOL    HW2 9633   4.456   1.404   0.853
 2875SOL     OW 9634   4.021   0.035   0.171
 2875SOL    HW1 9635   4.070   0.119   0.150
 2875SOL    HW2 9636   4.083  -0.030   0.216
 2876SOL     OW 9637   4.951   1.570   0.793
 2876SOL    HW1 9638   4.972   1.644   0.728
 2876SOL    HW2 9639   5.019   1.570   0.866
 2877SOL     OW 9640   4.183   1.152   0.741
 2877SOL    HW1 9641   4.112   1.125   0.806
 2877SOL    HW2 9642   4.157   1.124   0.648
 2878SOL     OW 9643   4.995   1.797   0.591
 2878SOL    HW1 9644   5.039   1.861   0.527
 2878SOL    HW2 9645   4.945   1.849   0.661
 2879SOL     OW 9646   4.756   0.549   0.016
 2879SOL    HW1 9647   4.715   0.631  -0.023
 2879SOL    HW2 9648   4.820   0.575   0.089
 2880SOL     OW 9649   4.285   0.222   1.147
 2880SOL    HW1 9650   4.323   0.138   1.184
 2880SOL    HW2 9651   4.197   0.241   1.191
 2881SOL     OW 9652   4.741   0.039   0.753
 2881SOL    HW1 9653   4.669   0.044   0.684
 2881SOL    HW2 9654   4.717  -0.030   0.822
 2882SOL     OW 9655   5.388   1.280   0.657
 2882SOL    HW1 9656   5.487   1.288   0.671
 2882SOL    HW2 9657   5.343   1.364   0.688
 2883SOL     OW 9658   4.788   1.347   1.340
 2883SOL    HW1 9659   4.708   1.324   1.395
 2883SOL    HW2 9660   4.871   1.321   1.389
 2884SOL     OW 9661   4.835   1.195   1.100
 2884SOL    HW1 9662   4.795   1.239   1.181
 2884SOL    HW2 9663   4.794   1.232   1.017
 2885SOL     OW 9664   4.639   0.089   1.402
 2885SOL    HW1 9665   4.664   0.069   1.307
 2885SOL    HW2 9666   4.711   0.145   1.444
 2886SOL     OW 9667   4.704   1.116   1.719
 2886SOL    HW1 9668   4.605   1.122   1.729
 2886SOL    HW2 9669   4.727   1.036   1.663
 2887SOL     OW 9670   4.429   1.050   0.368
 2887SOL    HW1 9671   4.415   1.057   0.467
 2887SOL    HW2 9672   4.513   0.999   0.350
 2888SOL     OW 9673   4.134   0.813   1.251
 2888SOL    HW1 9674   4.220   0.825   1.301
 2888SOL    HW2 9675   4.092   0.726   1.278
 2889SOL     OW 9676   4.998   0.386   1.262
 2889SOL    HW1 9677   5.019   0.460   1.326
 2889SOL    HW2 9678   4.909   0.403   1.219
 2890SOL     OW 9679   3.788   1.564   1.331
 2890SOL    HW1 9680   3.742   1.646   1.297
 2890SOL    HW2 9681   3.886   1.583   1.340
 2891SOL     OW 9682   4.091   1.100   0.501
 2891SOL    HW1 9683   4.084   1.183   0.445
 2891SOL    HW2 9684   4.095   1.020   0.441
 2892SOL     OW 9685   4.976   1.348   0.388
 2892SOL    HW1 9686   5.026   1.425   0.428
 2892SOL    HW2 9687   4.881   1.350   0.420
 2893SOL     OW 9688   4.078   1.510   1.329
 2893SOL    HW1 9689   4.057   1.466   1.242
 2893SOL    HW2 9690   4.175   1.536   1.332
 2894SOL     OW 9691   4.737   0.105   1.770
 2894SOL    HW1 9692   4.743   0.190   1.718
 2894SOL    HW2 9693   4.769   0.029   1.713
 2895SOL     OW 9694   4.228   0.050   1.740
 2895SOL    HW1 9695   4.186  -0.007   1.670
 2895SOL    HW2 9696   4.162   0.119   1.772
 2896SOL     OW 9697   4.297   0.870   1.029
 2896SOL    HW1 9698   4.341   0.959   1.020
 2896SOL    HW2 9699   4.234   0.870   1.106
 2897SOL     OW 9700   5.084   0.862   1.045
 2897SOL    HW1 9701   5.009   0.862   0.979
 2897SOL    HW2 9702   5.121   0.770   1.054
 2898SOL     OW 9703   4.031   0.213   1.231
 2898SOL    HW1 9704   4.008   0.250   1.321
 2898SOL    HW2 9705   4.001   0.118   1.225
 2899SOL     OW 9706   3.761   1.310   1.282
 2899SOL    HW1 9707   3.814   1.261   1.350
 2899SOL    HW2 9708   3.783   1.408   1.287
 2900SOL     OW 9709   4.031   0.063   0.618
 2900SOL    HW1 9710   4.020   0.157   0.651
 2900SOL    HW2 9711   4.026   0.000   0.695
 2901SOL     OW 9712   4.704   1.573   1.700
 2901SOL    HW1 9713   4.684   1.617   1.612
 2901SOL    HW2 9714   4.743   1.482   1.684
 2902SOL     OW 9715   4.074   0.898   1.804
 2902SOL    HW1 9716   4.150   0.942   1.852
 2902SOL    HW2 9717   4.109   0.851   1.722
 2903SOL     OW 9718   4.792   1.333   0.849
 2903SOL    HW1 9719   4.799   1.249   0.794
 2903SOL    HW2 9720   4.854   1.402   0.813
 2904SOL     OW 9721   4.043   0.810   0.949
 2904SOL    HW1 9722   4.136   0.846   0.954
 2904SOL    HW2 9723   4.037   0.725   1.001
 2905SOL     OW 9724   4.063   0.509   1.006
 2905SOL    HW1 9725   4.011   0.426   0.989
 2905SOL    HW2 9726   4.140   0.514   0.942
 2906SOL     OW 9727   4.862   0.380   1.678
 2906SOL    HW1 9728   4.817   0.443   1.742
 2906SOL    HW2 9729   4.955   0.411   1.661
 2907SOL     OW 9730   4.884   0.207   1.477
 2907SOL    HW1 9731   4.884   0.271   1.554
 2907SOL    HW2 9732   4.912   0.255   1.394
 2908SOL     OW 9733   3.812   1.801   0.927
 2908SOL    HW1 9734   3.770   1.715   0.900
 2908SOL    HW2 9735   3.906   1.804   0.893
 2909SOL     OW 9736   4.228   1.568   0.910
 2909SOL    HW1 9737   4.294   1.642   0.919
 2909SOL    HW2 9738   4.272   1.489   0.868
 2910SOL     OW 9739   3.764   0.544   1.114
 2910SOL    HW1 9740   3.849   0.511   1.073
 2910SOL    HW2 9741   3.777   0.559   1.212
 2911SOL     OW 9742   3.976   1.564   1.744
 2911SOL    HW1 9743   3.946   1.621   1.820
 2911SOL    HW2 9744   3.969   1.467   1.770
 2912SOL     OW 9745   4.654   1.678   1.465
 2912SOL    HW1 9746   4.630   1.660   1.370
 2912SOL    HW2 9747   4.684   1.772   1.475
 2913SOL     OW 9748   3.883   1.137   1.466
 2913SOL    HW1 9749   3.905   1.076   1.542
 2913SOL    HW2 9750   3.893   1.088   1.380
 2914SOL     OW 9751   5.071   1.059   1.234
 2914SOL    HW1 9752   5.095   0.996   1.160
 2914SOL    HW2 9753   4.981   1.099   1.216
 2915SOL     OW 9754   4.976   1.731   1.128
 2915SOL    HW1 9755   5.060   1.736   1.074
 2915SOL    HW2 9756   4.953   1.635   1.146
 2916SOL     OW 9757   3.807   1.258   1.022
 2916SOL    HW1 9758   3.802   1.257   1.122
 2916SOL    HW2 9759   3.724   1.217   0.984
 2917SOL     OW 9760   4.412   1.662   1.716
 2917SOL    HW1 9761   4.356   1.743   1.725
 2917SOL    HW2 9762   4.464   1.666   1.630
 2918SOL     OW 9763   4.627   0.086   0.133
 2918SOL    HW1 9764   4.678   0.087   0.047
 2918SOL    HW2 9765   4.683   0.044   0.204
 2919SOL     OW 9766   5.112   1.573   0.477
 2919SOL    HW1 9767   5.179   1.585   0.403
 2919SOL    HW2 9768   5.072   1.662   0.500
 2920SOL     OW 9769   3.854   1.794   1.851
 2920SOL    HW1 9770   3.813   1.720   1.904
 2920SOL    HW2 9771   3.918   1.845   1.909
 2921SOL     OW 9772   5.004   0.927   0.672
 2921SOL    HW1 9773   5.064   0.846   0.674
 2921SOL    HW2 9774   5.044   0.996   0.612
 2922SOL     OW 9775   4.554   1.273   1.422
 2922SOL    HW1 9776   4.549   1.306   1.517
 2922SOL    HW2 9777   4.468   1.292   1.376
 2923SOL     OW 9778   4.396   1.616   0.154
 2923SOL    HW1 9779   4.405   1.626   0.055
 2923SOL    HW2 9780   4.356   1.527   0.175
 2924SOL     OW 9781   3.987   0.326   0.720
 2924SOL    HW1 9782   3.908   0.377   0.686
 2924SOL    HW2 9783   3.978   0.311   0.818
 2925SOL     OW 9784   4.918   1.612   0.031
 2925SOL    HW1 9785   4.924   1.519   0.068
 2925SOL    HW2 9786   4.859   1.612  -0.049
 2926SOL     OW 9787   4.546   1.002   1.372
 2926SOL    HW1 9788   4.586   1.001   1.280
 2926SOL    HW2 9789   4.556   1.094   1.412
 2927SOL     OW 9790   4.640   0.910   0.291
 2927SOL    HW1 9791   4.703   0.948   0.223
 2927SOL    HW2 9792   4.680   0.827   0.330
 2928SOL     OW 9793   4.096   1.288   1.490
 2928SOL    HW1 9794   4.083   1.381   1.456
 2928SOL    HW2 9795   4.012   1.236   1.477
 2929SOL     OW 9796   4.763   1.098   0.696
 2929SOL    HW1 9797   4.693   1.051   0.750
 2929SOL    HW2 9798   4.822   1.030   0.653
 2930SOL     OW 9799   4.738   0.236   0.971
 2930SOL    HW1 9800   4.730   0.200   0.878
 2930SOL    HW2 9801   4.736   0.160   1.036
 2931SOL     OW 9802   4.314   1.487   0.491
 2931SOL    HW1 9803   4.356   1.429   0.421
 2931SOL    HW2 9804   4.270   1.566   0.447
 2932SOL     OW 9805   3.979   1.348   0.290
 2932SOL    HW1 9806   3.883   1.349   0.263
 2932SOL    HW2 9807   3.991   1.401   0.374
 2933SOL     OW 9808   3.829   1.013   1.726
 2933SOL    HW1 9809   3.752   0.980   1.780
 2933SOL    HW2 9810   3.914   0.983   1.768
 2934SOL     OW 9811   4.396   0.203   1.489
 2934SOL    HW1 9812   4.486   0.187   1.449
 2934SOL    HW2 9813   4.404   0.208   1.588
 2935SOL     OW 9814   5.164   0.856   1.398
 2935SOL    HW1 9815   5.107   0.908   1.335
 2935SOL    HW2 9816   5.260   0.868   1.374
 2936SOL     OW 9817   3.796   0.166   0.318
 2936SOL    HW1 9818   3.779   0.249   0.264
 2936SOL    HW2 9819   3.886   0.129   0.296
 2937SOL     OW 9820   4.114   1.741   1.560
 2937SOL    HW1 9821   4.023   1.782   1.558
 2937SOL    HW2 9822   4.107   1.647   1.592
 2938SOL     OW 9823   4.949   0.325   0.449
 2938SOL    HW1 9824   5.014   0.251   0.438
 2938SOL    HW2 9825   4.969   0.375   0.533
 2939SOL     OW 9826   4.385   1.790   0.953
 2939SOL    HW1 9827   4.339   1.878   0.940
 2939SOL    HW2 9828   4.484   1.802   0.946
 2940SOL     OW 9829   4.583   0.956   0.861
 2940SOL    HW1 9830   4.637   0.887   0.909
 2940SOL    HW2 9831   4.551   1.025   0.927
 2941SOL     OW 9832   4.807   0.984   0.087
 2941SOL    HW1 9833   4.784   1.037   0.005
 2941SOL    HW2 9834   4.888   0.928   0.068
 2942SOL     OW 9835   3.945   1.314   1.844
 2942SOL    HW1 9836   3.880   1.241   1.823
 2942SOL    HW2 9837   3.949   1.328   1.942
 2943SOL     OW 9838   3.803   1.240   0.653
 2943SOL    HW1 9839   3.802   1.193   0.741
 2943SOL    HW2 9840   3.885   1.212   0.602
 2944SOL     OW 9841   4.396   1.391   1.624
 2944SOL    HW1 9842   4.318   1.341   1.662
 2944SOL    HW2 9843   4.393   1.486   1.655
 2945SOL     OW 9844   4.536   1.586   0.687
 2945SOL    HW1 9845   4.568   1.596   0.593
 2945SOL    HW2 9846   4.457   1.524   0.689
 2946SOL     OW 9847   4.725   0.034   1.154
 2946SOL    HW1 9848   4.662  -0.038   1.123
 2946SOL    HW2 9849   4.818  -0.002   1.154
 2947SOL     OW 9850   4.494   1.330   0.301
 2947SOL    HW1 9851   4.448   1.243   0.318
 2947SOL    HW2 9852   4.585   1.327   0.342
 2948SOL     OW 9853   4.342   1.567   1.284
 2948SOL    HW1 9854   4.337   1.649   1.341
 2948SOL    HW2 9855   4.431   1.564   1.239
 2949SOL     OW 9856   3.763   1.077   0.300
 2949SOL    HW1 9857   3.862   1.066   0.291
 2949SOL    HW2 9858   3.723   0.991   0.332
 2950SOL     OW 9859   4.599   1.646   0.337
 2950SOL    HW1 9860   4.522   1.611   0.283
 2950SOL    HW2 9861   4.567   1.717   0.399
 2951SOL     OW 9862   3.954   0.628   1.975
 2951SOL    HW1 9863   3.861   0.626   2.012
 2951SOL    HW2 9864   3.955   0.589   1.883
 2952SOL     OW 9865   3.949   0.275   2.858
 2952SOL    HW1 9866   3.984   0.258   2.950
 2952SOL    HW2 9867   3.861   0.230   2.846
 2953SOL     OW 9868   3.743   0.368   2.509
 2953SOL    HW1 9869   3.661   0.411   2.548
 2953SOL    HW2 9870   3.715   0.295   2.446
 2954SOL     OW 9871   4.293   1.275   3.027
 2954SOL    HW1 9872   4.200   1.268   2.990
 2954SOL    HW2 9873   4.304   1.364   3.071
 2955SOL     OW 9874   4.859   0.703   2.579
 2955SOL    HW1 9875   4.916   0.781   2.554
 2955SOL    HW2 9876   4.799   0.729   2.655
 2956SOL     OW 9877   4.492   1.144   2.885
 2956SOL    HW1 9878   4.414   1.161   2.945
 2956SOL    HW2 9879   4.526   1.231   2.849
 2957SOL     OW 9880   4.574   0.798   3.685
 2957SOL    HW1 9881   4.570   0.874   3.750
 2957SOL    HW2 9882   4.596   0.834   3.594
 2958SOL     OW 9883   4.409   1.012   2.527
 2958SOL    HW1 9884   4.478   0.996   2.597
 2958SOL    HW2 9885   4.336   1.069   2.565
 2959SOL     OW 9886   4.410   1.161   3.665
 2959SOL    HW1 9887   4.470   1.240   3.679
 2959SOL    HW2 9888   4.324   1.192   3.624
 2960SOL     OW 9889   4.059   1.435   2.923
 2960SOL    HW1 9890   3.981   1.404   2.870
 2960SOL    HW2 9891   4.117   1.493   2.866
 2961SOL     OW 9892   4.162   0.392   3.361
 2961SOL    HW1 9893   4.244   0.336   3.370
 2961SOL    HW2 9894   4.081   0.334   3.365
 2962SOL     OW 9895   3.955   1.713   2.345
 2962SOL    HW1 9896   3.989   1.790   2.399
 2962SOL    HW2 9897   3.999   1.713   2.255
 2963SOL     OW 9898   4.851   1.341   3.552
 2963SOL    HW1 9899   4.898   1.341   3.640
 2963SOL    HW2 9900   4.803   1.254   3.541
 2964SOL     OW 9901   3.954   1.434   2.400
 2964SOL    HW1 9902   3.928   1.530   2.400
 2964SOL    HW2 9903   3.883   1.380   2.445
 2965SOL     OW 9904   3.964   1.091   2.748
 2965SOL    HW1 9905   3.978   1.007   2.800
 2965SOL    HW2 9906   3.909   1.155   2.803
 2966SOL     OW 9907   4.330   0.964   1.985
 2966SOL    HW1 9908   4.337   1.048   1.931
 2966SOL    HW2 9909   4.376   0.977   2.073
 2967SOL     OW 9910   3.846   0.643   2.425
 2967SOL    HW1 9911   3.801   0.555   2.442
 2967SOL    HW2 9912   3.845   0.697   2.509
 2968SOL     OW 9913   3.751   1.596   1.979
 2968SOL    HW1 9914   3.732   1.500   2.000
 2968SOL    HW2 9915   3.718   1.654   2.054
 2969SOL     OW 9916   3.837   0.737   3.459
 2969SOL    HW1 9917   3.925   0.724   3.504
 2969SOL    HW2 9918   3.824   0.834   3.437
 2970SOL     OW 9919   5.017   1.228   3.285
 2970SOL    HW1 9920   5.054   1.155   3.227
 2970SOL    HW2 9921   5.069   1.233   3.370
 2971SOL     OW 9922   4.533   0.004   2.364
 2971SOL    HW1 9923   4.573   0.095   2.355
 2971SOL    HW2 9924   4.433   0.012   2.370
 2972SOL     OW 9925   4.911   1.792   3.478
 2972SOL    HW1 9926   4.935   1.852   3.402
 2972SOL    HW2 9927   4.918   1.697   3.448
 2973SOL     OW 9928   4.041   0.251   3.663
 2973SOL    HW1 9929   4.112   0.322   3.669
 2973SOL    HW2 9930   3.953   0.290   3.691
 2974SOL     OW 9931   4.322   0.729   2.132
 2974SOL    HW1 9932   4.346   0.798   2.064
 2974SOL    HW2 9933   4.244   0.762   2.186
 2975SOL     OW 9934   5.005   0.345   2.806
 2975SOL    HW1 9935   4.919   0.295   2.793
 2975SOL    HW2 9936   5.067   0.291   2.862
 2976SOL     OW 9937   4.531   0.605   3.327
 2976SOL    HW1 9938   4.484   0.602   3.416
 2976SOL    HW2 9939   4.480   0.550   3.261
 2977SOL     OW 9940   4.697   0.890   3.434
 2977SOL    HW1 9941   4.743   0.806   3.405
 2977SOL    HW2 9942   4.641   0.924   3.359
 2978SOL     OW 9943   4.715   0.410   3.104
 2978SOL    HW1 9944   4.638   0.444   3.158
 2978SOL    HW2 9945   4.681   0.359   3.025
 2979SOL     OW 9946   4.765   0.701   2.291
 2979SOL    HW1 9947   4.791   0.697   2.387
 2979SOL    HW2 9948   4.680   0.650   2.277
 2980SOL     OW 9949   3.800   0.811   2.651
 2980SOL    HW1 9950   3.899   0.799   2.660
 2980SOL    HW2 9951   3.776   0.906   2.672
 2981SOL     OW 9952   3.854   1.821   3.433
 2981SOL    HW1 9953   3.844   1.806   3.532
 2981SOL    HW2 9954   3.768   1.857   3.397
 2982SOL     OW 9955   4.589   0.348   2.057
 2982SOL    HW1 9956   4.648   0.411   2.008
 2982SOL    HW2 9957   4.608   0.254   2.028
 2983SOL     OW 9958   4.274   0.196   2.747
 2983SOL    HW1 9959   4.269   0.191   2.847
 2983SOL    HW2 9960   4.276   0.292   2.718
 2984SOL     OW 9961   4.732   1.456   2.339
 2984SOL    HW1 9962   4.686   1.528   2.287
 2984SOL    HW2 9963   4.728   1.476   2.437
 2985SOL     OW 9964   4.951   1.550   3.368
 2985SOL    HW1 9965   4.957   1.473   3.432
 2985SOL    HW2 9966   4.899   1.524   3.288
 2986SOL     OW 9967   4.045   0.943   2.104
 2986SOL    HW1 9968   4.127   0.982   2.062
 2986SOL    HW2 9969   4.018   0.861   2.055
 2987SOL     OW 9970   4.835   1.776   2.099
 2987SOL    HW1 9971   4.775   1.714   2.149
 2987SOL    HW2 9972   4.866   1.732   2.014
 2988SOL     OW 9973   3.926   0.285   3.360
 2988SOL    HW1 9974   3.846   0.345   3.347
 2988SOL    HW2 9975   3.916   0.236   3.446
 2989SOL     OW 9976   4.188   1.743   2.185
 2989SOL    HW1 9977   4.221   1.782   2.271
 2989SOL    HW2 9978   4.264   1.736   2.120
 2990SOL     OW 9979   3.973   1.785   3.103
 2990SOL    HW1 9980   4.030   1.720   3.153
 2990SOL    HW2 9981   3.957   1.752   3.010
 2991SOL     OW 9982   4.664   1.698   2.766
 2991SOL    HW1 9983   4.744   1.641   2.787
 2991SOL    HW2 9984   4.615   1.658   2.689
 2992SOL     OW 9985   4.106   0.700   2.342
 2992SOL    HW1 9986   4.151   0.610   2.339
 2992SOL    HW2 9987   4.012   0.689   2.375
 2993SOL     OW 9988   4.338   0.122   1.979
 2993SOL    HW1 9989   4.436   0.100   1.986
 2993SOL    HW2 9990   4.307   0.105   1.886
 2994SOL     OW 9991   4.612   1.514   3.057
 2994SOL    HW1 9992   4.589   1.489   2.963
 2994SOL    HW2 9993   4.673   1.445   3.096
 2995SOL     OW 9994   4.527   1.402   2.786
 2995SOL    HW1 9995   4.617   1.416   2.744
 2995SOL    HW2 9996   4.456   1.404   2.715
 2996SOL     OW 9997   4.646   0.503   2.761
 2996SOL    HW1 9998   4.621   0.494   2.665
 2996SOL    HW2 9999   4.694   0.421   2.792
 2997SOL     OW10000   4.263   0.064   2.374
 2997SOL    HW110001   4.182   0.065   2.432
 2997SOL    HW210002   4.266   0.147   2.319
 2998SOL     OW10003   4.021   0.035   2.033
 2998SOL    HW110004   4.070   0.119   2.012
 2998SOL    HW210005   4.083  -0.030   2.078
 2999SOL     OW10006   4.659   0.236   2.342
 2999SOL    HW110007   4.611   0.277   2.264
 2999SOL    HW210008   4.758   0.234   2.323
 3000SOL     OW10009   4.800   0.683   3.326
 3000SOL    HW110010   4.720   0.622   3.329
 3000SOL    HW210011   4.881   0.630   3.302
 3001SOL     OW10012   4.951   1.570   2.655
 3001SOL    HW110013   4.972   1.644   2.590
 3001SOL    HW210014   5.019   1.570   2.728
 3002SOL     OW10015   4.183   1.152   2.603
 3002SOL    HW110016   4.112   1.125   2.668
 3002SOL    HW210017   4.157   1.124   2.510
 3003SOL     OW10018   4.995   1.797   2.453
 3003SOL    HW110019   5.039   1.861   2.389
 3003SOL    HW210020   4.945   1.849   2.523
 3004SOL     OW10021   4.756   0.549   1.878
 3004SOL    HW110022   4.715   0.631   1.839
 3004SOL    HW210023   4.820   0.575   1.951
 3005SOL     OW10024   3.802   0.556   3.248
 3005SOL    HW110025   3.894   0.555   3.207
 3005SOL    HW210026   3.796   0.630   3.315
 3006SOL     OW10027   4.285   0.222   3.009
 3006SOL    HW110028   4.323   0.138   3.046
 3006SOL    HW210029   4.197   0.241   3.053
 3007SOL     OW10030   4.590   0.454   2.504
 3007SOL    HW110031   4.558   0.526   2.442
 3007SOL    HW210032   4.614   0.373   2.451
 3008SOL     OW10033   4.741   0.039   2.615
 3008SOL    HW110034   4.669   0.044   2.546
 3008SOL    HW210035   4.717  -0.030   2.684
 3009SOL     OW10036   4.212   1.385   2.036
 3009SOL    HW110037   4.125   1.370   2.083
 3009SOL    HW210038   4.195   1.411   1.941
 3010SOL     OW10039   5.388   1.280   2.519
 3010SOL    HW110040   5.487   1.288   2.533
 3010SOL    HW210041   5.343   1.364   2.550
 3011SOL     OW10042   4.251   0.256   2.190
 3011SOL    HW110043   4.278   0.197   2.115
 3011SOL    HW210044   4.251   0.351   2.159
 3012SOL     OW10045   4.788   1.347   3.202
 3012SOL    HW110046   4.708   1.324   3.257
 3012SOL    HW210047   4.871   1.321   3.251
 3013SOL     OW10048   4.835   1.195   2.962
 3013SOL    HW110049   4.795   1.239   3.043
 3013SOL    HW210050   4.794   1.232   2.879
 3014SOL     OW10051   4.639   0.089   3.264
 3014SOL    HW110052   4.664   0.069   3.169
 3014SOL    HW210053   4.711   0.145   3.306
 3015SOL     OW10054   4.704   1.116   3.581
 3015SOL    HW110055   4.605   1.122   3.591
 3015SOL    HW210056   4.727   1.036   3.525
 3016SOL     OW10057   4.429   1.050   2.230
 3016SOL    HW110058   4.415   1.057   2.329
 3016SOL    HW210059   4.513   0.999   2.212
 3017SOL     OW10060   4.134   0.813   3.113
 3017SOL    HW110061   4.220   0.825   3.163
 3017SOL    HW210062   4.092   0.726   3.140
 3018SOL     OW10063   4.998   0.386   3.124
 3018SOL    HW110064   5.019   0.460   3.188
 3018SOL    HW210065   4.909   0.403   3.081
 3019SOL     OW10066   4.091   1.100   2.363
 3019SOL    HW110067   4.084   1.183   2.307
 3019SOL    HW210068   4.095   1.020   2.303
 3020SOL     OW10069   4.290   0.537   2.727
 3020SOL    HW110070   4.302   0.603   2.653
 3020SOL    HW210071   4.336   0.571   2.810
 3021SOL     OW10072   4.976   1.348   2.250
 3021SOL    HW110073   5.026   1.425   2.290
 3021SOL    HW210074   4.881   1.350   2.282
 3022SOL     OW10075   4.078   1.510   3.191
 3022SOL    HW110076   4.057   1.466   3.104
 3022SOL    HW210077   4.175   1.536   3.194
 3023SOL     OW10078   4.126   0.751   3.460
 3023SOL    HW110079   4.194   0.806   3.413
 3023SOL    HW210080   4.166   0.663   3.487
 3024SOL     OW10081   4.228   0.050   3.602
 3024SOL    HW110082   4.186  -0.007   3.532
 3024SOL    HW210083   4.162   0.119   3.634
 3025SOL     OW10084   4.297   0.870   2.891
 3025SOL    HW110085   4.341   0.959   2.882
 3025SOL    HW210086   4.234   0.870   2.968
 3026SOL     OW10087   5.084   0.862   2.907
 3026SOL    HW110088   5.009   0.862   2.841
 3026SOL    HW210089   5.121   0.770   2.916
 3027SOL     OW10090   4.933   0.525   2.137
 3027SOL    HW110091   4.946   0.441   2.191
 3027SOL    HW210092   4.904   0.599   2.197
 3028SOL     OW10093   4.031   0.213   3.093
 3028SOL    HW110094   4.008   0.250   3.183
 3028SOL    HW210095   4.001   0.118   3.087
 3029SOL     OW10096   4.456   0.634   2.926
 3029SOL    HW110097   4.515   0.608   2.850
 3029SOL    HW210098   4.428   0.730   2.915
 3030SOL     OW10099   4.031   0.063   2.480
 3030SOL    HW110100   4.020   0.157   2.513
 3030SOL    HW210101   4.026   0.000   2.557
 3031SOL     OW10102   5.346   0.367   2.236
 3031SOL    HW110103   5.348   0.291   2.300
 3031SOL    HW210104   5.298   0.444   2.276
 3032SOL     OW10105   4.747   0.766   2.828
 3032SOL    HW110106   4.762   0.787   2.924
 3032SOL    HW210107   4.717   0.671   2.819
 3033SOL     OW10108   4.704   1.573   3.562
 3033SOL    HW110109   4.684   1.617   3.474
 3033SOL    HW210110   4.743   1.482   3.546
 3034SOL     OW10111   4.074   0.898   3.666
 3034SOL    HW110112   4.150   0.942   3.714
 3034SOL    HW210113   4.109   0.851   3.584
 3035SOL     OW10114   5.027   0.838   1.904
 3035SOL    HW110115   5.061   0.745   1.919
 3035SOL    HW210116   5.045   0.865   1.809
 3036SOL     OW10117   4.792   1.333   2.711
 3036SOL    HW110118   4.799   1.249   2.656
 3036SOL    HW210119   4.854   1.402   2.675
 3037SOL     OW10120   4.043   0.810   2.811
 3037SOL    HW110121   4.136   0.846   2.816
 3037SOL    HW210122   4.037   0.725   2.863
 3038SOL     OW10123   4.063   0.509   2.868
 3038SOL    HW110124   4.011   0.426   2.851
 3038SOL    HW210125   4.140   0.514   2.804
 3039SOL     OW10126   4.862   0.380   3.540
 3039SOL    HW110127   4.817   0.443   3.604
 3039SOL    HW210128   4.955   0.411   3.523
 3040SOL     OW10129   4.884   0.207   3.339
 3040SOL    HW110130   4.884   0.271   3.416
 3040SOL    HW210131   4.912   0.255   3.256
 3041SOL     OW10132   3.732   1.326   2.062
 3041SOL    HW110133   3.639   1.347   2.031
 3041SOL    HW210134   3.742   1.227   2.075
 3042SOL     OW10135   4.726   0.796   3.100
 3042SOL    HW110136   4.767   0.764   3.186
 3042SOL    HW210137   4.630   0.769   3.097
 3043SOL     OW10138   3.764   0.544   2.976
 3043SOL    HW110139   3.849   0.511   2.935
 3043SOL    HW210140   3.777   0.559   3.074
 3044SOL     OW10141   3.913   0.520   3.584
 3044SOL    HW110142   3.972   0.480   3.514
 3044SOL    HW210143   3.855   0.591   3.543
 3045SOL     OW10144   4.539   0.572   2.187
 3045SOL    HW110145   4.546   0.483   2.141
 3045SOL    HW210146   4.445   0.606   2.179
 3046SOL     OW10147   3.976   1.564   3.606
 3046SOL    HW110148   3.946   1.621   3.682
 3046SOL    HW210149   3.969   1.467   3.632
 3047SOL     OW10150   4.395   0.464   3.131
 3047SOL    HW110151   4.361   0.375   3.101
 3047SOL    HW210152   4.421   0.518   3.051
 3048SOL     OW10153   4.654   1.678   3.327
 3048SOL    HW110154   4.630   1.660   3.232
 3048SOL    HW210155   4.684   1.772   3.337
 3049SOL     OW10156   4.197   0.500   2.053
 3049SOL    HW110157   4.258   0.580   2.057
 3049SOL    HW210158   4.102   0.531   2.060
 3050SOL     OW10159   5.071   1.059   3.096
 3050SOL    HW110160   5.095   0.996   3.022
 3050SOL    HW210161   4.981   1.099   3.078
 3051SOL     OW10162   4.976   1.731   2.990
 3051SOL    HW110163   5.060   1.736   2.936
 3051SOL    HW210164   4.953   1.635   3.008
 3052SOL     OW10165   4.412   1.662   3.578
 3052SOL    HW110166   4.356   1.743   3.587
 3052SOL    HW210167   4.464   1.666   3.492
 3053SOL     OW10168   5.112   1.573   2.339
 3053SOL    HW110169   5.179   1.585   2.265
 3053SOL    HW210170   5.072   1.662   2.362
 3054SOL     OW10171   3.854   1.794   3.713
 3054SOL    HW110172   3.813   1.720   3.766
 3054SOL    HW210173   3.918   1.845   3.771
 3055SOL     OW10174   5.004   0.927   2.534
 3055SOL    HW110175   5.064   0.846   2.536
 3055SOL    HW210176   5.044   0.996   2.474
 3056SOL     OW10177   3.987   0.326   2.582
 3056SOL    HW110178   3.908   0.377   2.548
 3056SOL    HW210179   3.978   0.311   2.680
 3057SOL     OW10180   4.918   1.612   1.893
 3057SOL    HW110181   4.924   1.519   1.930
 3057SOL    HW210182   4.859   1.612   1.813
 3058SOL     OW10183   4.546   1.002   3.234
 3058SOL    HW110184   4.586   1.001   3.142
 3058SOL    HW210185   4.556   1.094   3.274
 3059SOL     OW10186   4.640   0.910   2.153
 3059SOL    HW110187   4.703   0.948   2.085
 3059SOL    HW210188   4.680   0.827   2.192
 3060SOL     OW10189   4.763   1.098   2.558
 3060SOL    HW110190   4.693   1.051   2.612
 3060SOL    HW210191   4.822   1.030   2.515
 3061SOL     OW10192   4.738   0.236   2.833
 3061SOL    HW110193   4.730   0.200   2.740
 3061SOL    HW210194   4.736   0.160   2.898
 3062SOL     OW10195   3.979   1.348   2.152
 3062SOL    HW110196   3.883   1.349   2.125
 3062SOL    HW210197   3.991   1.401   2.236
 3063SOL     OW10198   4.396   0.203   3.351
 3063SOL    HW110199   4.486   0.187   3.311
 3063SOL    HW210200   4.404   0.208   3.450
 3064SOL     OW10201   3.799   0.345   1.895
 3064SOL    HW110202   3.707   0.317   1.866
 3064SOL    HW210203   3.830   0.422   1.839
 3065SOL     OW10204   5.164   0.856   3.260
 3065SOL    HW110205   5.107   0.908   3.197
 3065SOL    HW210206   5.260   0.868   3.236
 3066SOL     OW10207   3.796   0.166   2.180
 3066SOL    HW110208   3.779   0.249   2.126
 3066SOL    HW210209   3.886   0.129   2.158
 3067SOL     OW10210   4.337   0.842   3.293
 3067SOL    HW110211   4.393   0.923   3.276
 3067SOL    HW210212   4.396   0.762   3.296
 3068SOL     OW10213   4.440   0.565   3.570
 3068SOL    HW110214   4.459   0.630   3.644
 3068SOL    HW210215   4.500   0.485   3.579
 3069SOL     OW10216   4.114   1.741   3.422
 3069SOL    HW110217   4.023   1.782   3.420
 3069SOL    HW210218   4.107   1.647   3.454
 3070SOL     OW10219   4.949   0.325   2.311
 3070SOL    HW110220   5.014   0.251   2.300
 3070SOL    HW210221   4.969   0.375   2.395
 3071SOL     OW10222   4.318   0.745   2.514
 3071SOL    HW110223   4.368   0.830   2.495
 3071SOL    HW210224   4.230   0.747   2.466
 3072SOL     OW10225   4.583   1.374   1.878
 3072SOL    HW110226   4.537   1.389   1.966
 3072SOL    HW210227   4.627   1.459   1.848
 3073SOL     OW10228   4.583   0.956   2.723
 3073SOL    HW110229   4.637   0.887   2.771
 3073SOL    HW210230   4.551   1.025   2.789
 3074SOL     OW10231   4.807   0.984   1.949
 3074SOL    HW110232   4.784   1.037   1.867
 3074SOL    HW210233   4.888   0.928   1.930
 3075SOL     OW10234   3.945   1.314   3.706
 3075SOL    HW110235   3.880   1.241   3.685
 3075SOL    HW210236   3.949   1.328   3.804
 3076SOL     OW10237   3.803   1.240   2.515
 3076SOL    HW110238   3.802   1.193   2.603
 3076SOL    HW210239   3.885   1.212   2.464
 3077SOL     OW10240   4.396   1.391   3.486
 3077SOL    HW110241   4.318   1.341   3.524
 3077SOL    HW210242   4.393   1.486   3.517
 3078SOL     OW10243   4.152   0.424   2.382
 3078SOL    HW110244   4.182   0.352   2.320
 3078SOL    HW210245   4.113   0.384   2.465
 3079SOL     OW10246   4.041   0.547   3.142
 3079SOL    HW110247   4.079   0.488   3.214
 3079SOL    HW210248   4.081   0.521   3.054
 3080SOL     OW10249   4.725   0.034   3.016
 3080SOL    HW110250   4.662  -0.038   2.985
 3080SOL    HW210251   4.818  -0.002   3.016
 3081SOL     OW10252   4.494   1.330   2.163
 3081SOL    HW110253   4.448   1.243   2.180
 3081SOL    HW210254   4.585   1.327   2.204
 3082SOL     OW10255   3.763   1.077   2.162
 3082SOL    HW110256   3.862   1.066   2.153
 3082SOL    HW210257   3.723   0.991   2.194
 3083SOL     OW10258   4.599   1.646   2.199
 3083SOL    HW110259   4.522   1.611   2.145
 3083SOL    HW210260   4.567   1.717   2.261
 3084SOL     OW10261   3.954   0.628   3.837
 3084SOL    HW110262   3.861   0.626   3.874
 3084SOL    HW210263   3.955   0.589   3.745
 3085SOL     OW10264   3.949   0.275   4.720
 3085SOL    HW110265   3.984   0.258   4.812
 3085SOL    HW210266   3.861   0.230   4.708
 3086SOL     OW10267   3.743   0.368   4.371
 3086SOL    HW110268   3.661   0.411   4.410
 3086SOL    HW210269   3.715   0.295   4.308
 3087SOL     OW10270   4.859   0.703   4.441
 3087SOL    HW110271   4.916   0.781   4.416
 3087SOL    HW210272   4.799   0.729   4.517
 3088SOL     OW10273   4.492   1.144   4.747
 3088SOL    HW110274   4.414   1.161   4.807
 3088SOL    HW210275   4.526   1.231   4.711
 3089SOL     OW10276   4.409   1.012   4.389
 3089SOL    HW110277   4.478   0.996   4.459
 3089SOL    HW210278   4.336   1.069   4.427
 3090SOL     OW10279   4.059   1.435   4.785
 3090SOL    HW110280   3.981   1.404   4.732
 3090SOL    HW210281   4.117   1.493   4.728
 3091SOL     OW10282   3.955   1.713   4.207
 3091SOL    HW110283   3.989   1.790   4.261
 3091SOL    HW210284   3.999   1.713   4.117
 3092SOL     OW10285   3.954   1.434   4.262
 3092SOL    HW110286   3.928   1.530   4.262
 3092SOL    HW210287   3.883   1.380   4.307
 3093SOL     OW10288   4.344   1.786   5.163
 3093SOL    HW110289   4.252   1.769   5.198
 3093SOL    HW210290   4.372   1.878   5.189
 3094SOL     OW10291   4.330   0.964   3.847
 3094SOL    HW110292   4.337   1.048   3.793
 3094SOL    HW210293   4.376   0.977   3.935
 3095SOL     OW10294   3.846   0.643   4.287
 3095SOL    HW110295   3.801   0.555   4.304
 3095SOL    HW210296   3.845   0.697   4.371
 3096SOL     OW10297   3.751   1.596   3.841
 3096SOL    HW110298   3.732   1.500   3.862
 3096SOL    HW210299   3.718   1.654   3.916
 3097SOL     OW10300   4.337   1.365   4.450
 3097SOL    HW110301   4.288   1.278   4.459
 3097SOL    HW210302   4.314   1.408   4.363
 3098SOL     OW10303   4.533   0.004   4.226
 3098SOL    HW110304   4.573   0.095   4.217
 3098SOL    HW210305   4.433   0.012   4.232
 3099SOL     OW10306   4.322   0.729   3.994
 3099SOL    HW110307   4.346   0.798   3.926
 3099SOL    HW210308   4.244   0.762   4.048
 3100SOL     OW10309   5.005   0.345   4.668
 3100SOL    HW110310   4.919   0.295   4.655
 3100SOL    HW210311   5.067   0.291   4.724
 3101SOL     OW10312   4.715   0.410   4.966
 3101SOL    HW110313   4.638   0.444   5.020
 3101SOL    HW210314   4.681   0.359   4.887
 3102SOL     OW10315   4.765   0.701   4.153
 3102SOL    HW110316   4.791   0.697   4.249
 3102SOL    HW210317   4.680   0.650   4.139
 3103SOL     OW10318   4.589   0.348   3.919
 3103SOL    HW110319   4.648   0.411   3.870
 3103SOL    HW210320   4.608   0.254   3.890
 3104SOL     OW10321   4.274   0.196   4.609
 3104SOL    HW110322   4.269   0.191   4.709
 3104SOL    HW210323   4.276   0.292   4.580
 3105SOL     OW10324   4.732   1.456   4.201
 3105SOL    HW110325   4.686   1.528   4.149
 3105SOL    HW210326   4.728   1.476   4.299
 3106SOL     OW10327   4.075   1.801   4.577
 3106SOL    HW110328   4.125   1.715   4.583
 3106SOL    HW210329   4.140   1.878   4.574
 3107SOL     OW10330   4.045   0.943   3.966
 3107SOL    HW110331   4.127   0.982   3.924
 3107SOL    HW210332   4.018   0.861   3.917
 3108SOL     OW10333   4.188   1.743   4.047
 3108SOL    HW110334   4.221   1.782   4.133
 3108SOL    HW210335   4.264   1.736   3.982
 3109SOL     OW10336   3.973   1.785   4.965
 3109SOL    HW110337   4.030   1.720   5.015
 3109SOL    HW210338   3.957   1.752   4.872
 3110SOL     OW10339   4.664   1.698   4.628
 3110SOL    HW110340   4.744   1.641   4.649
 3110SOL    HW210341   4.615   1.658   4.551
 3111SOL     OW10342   4.106   0.700   4.204
 3111SOL    HW110343   4.151   0.610   4.201
 3111SOL    HW210344   4.012   0.689   4.237
 3112SOL     OW10345   4.338   0.122   3.841
 3112SOL    HW110346   4.436   0.100   3.848
 3112SOL    HW210347   4.307   0.105   3.748
 3113SOL     OW10348   4.527   1.402   4.648
 3113SOL    HW110349   4.617   1.416   4.606
 3113SOL    HW210350   4.456   1.404   4.577
 3114SOL     OW10351   4.646   0.503   4.623
 3114SOL    HW110352   4.621   0.494   4.527
 3114SOL    HW210353   4.694   0.421   4.654
 3115SOL     OW10354   4.263   0.064   4.236
 3115SOL    HW110355   4.182   0.065   4.294
 3115SOL    HW210356   4.266   0.147   4.181
 3116SOL     OW10357   4.021   0.035   3.895
 3116SOL    HW110358   4.070   0.119   3.874
 3116SOL    HW210359   4.083  -0.030   3.940
 3117SOL     OW10360   4.659   0.236   4.204
 3117SOL    HW110361   4.611   0.277   4.126
 3117SOL    HW210362   4.758   0.234   4.185
 3118SOL     OW10363   4.183   1.152   4.465
 3118SOL    HW110364   4.112   1.125   4.530
 3118SOL    HW210365   4.157   1.124   4.372
 3119SOL     OW10366   4.756   0.549   3.740
 3119SOL    HW110367   4.715   0.631   3.701
 3119SOL    HW210368   4.820   0.575   3.813
 3120SOL     OW10369   4.285   0.222   4.871
 3120SOL    HW110370   4.323   0.138   4.908
 3120SOL    HW210371   4.197   0.241   4.915
 3121SOL     OW10372   4.590   0.454   4.366
 3121SOL    HW110373   4.558   0.526   4.304
 3121SOL    HW210374   4.614   0.373   4.313
 3122SOL     OW10375   4.741   0.039   4.477
 3122SOL    HW110376   4.669   0.044   4.408
 3122SOL    HW210377   4.717  -0.030   4.546
 3123SOL     OW10378   4.212   1.385   3.898
 3123SOL    HW110379   4.125   1.370   3.945
 3123SOL    HW210380   4.195   1.411   3.803
 3124SOL     OW10381   5.388   1.280   4.381
 3124SOL    HW110382   5.487   1.288   4.395
 3124SOL    HW210383   5.343   1.364   4.412
 3125SOL     OW10384   4.251   0.256   4.052
 3125SOL    HW110385   4.278   0.197   3.977
 3125SOL    HW210386   4.251   0.351   4.021
 3126SOL     OW10387   5.316   1.629   5.349
 3126SOL    HW110388   5.343   1.663   5.259
 3126SOL    HW210389   5.395   1.591   5.395
 3127SOL     OW10390   4.835   1.195   4.824
 3127SOL    HW110391   4.795   1.239   4.905
 3127SOL    HW210392   4.794   1.232   4.741
 3128SOL     OW10393   4.429   1.050   4.092
 3128SOL    HW110394   4.415   1.057   4.191
 3128SOL    HW210395   4.513   0.999   4.074
 3129SOL     OW10396   4.134   0.813   4.975
 3129SOL    HW110397   4.220   0.825   5.025
 3129SOL    HW210398   4.092   0.726   5.002
 3130SOL     OW10399   4.091   1.100   4.225
 3130SOL    HW110400   4.084   1.183   4.169
 3130SOL    HW210401   4.095   1.020   4.165
 3131SOL     OW10402   4.290   0.537   4.589
 3131SOL    HW110403   4.302   0.603   4.515
 3131SOL    HW210404   4.336   0.571   4.672
 3132SOL     OW10405   4.976   1.348   4.112
 3132SOL    HW110406   5.026   1.425   4.152
 3132SOL    HW210407   4.881   1.350   4.144
 3133SOL     OW10408   4.297   0.870   4.753
 3133SOL    HW110409   4.341   0.959   4.744
 3133SOL    HW210410   4.234   0.870   4.830
 3134SOL     OW10411   5.084   0.862   4.769
 3134SOL    HW110412   5.009   0.862   4.703
 3134SOL    HW210413   5.121   0.770   4.778
 3135SOL     OW10414   4.933   0.525   3.999
 3135SOL    HW110415   4.946   0.441   4.053
 3135SOL    HW210416   4.904   0.599   4.059
 3136SOL     OW10417   4.031   0.213   4.955
 3136SOL    HW110418   4.008   0.250   5.045
 3136SOL    HW210419   4.001   0.118   4.949
 3137SOL     OW10420   4.456   0.634   4.788
 3137SOL    HW110421   4.515   0.608   4.712
 3137SOL    HW210422   4.428   0.730   4.777
 3138SOL     OW10423   4.031   0.063   4.342
 3138SOL    HW110424   4.020   0.157   4.375
 3138SOL    HW210425   4.026   0.000   4.419
 3139SOL     OW10426   5.346   0.367   4.098
 3139SOL    HW110427   5.348   0.291   4.162
 3139SOL    HW210428   5.298   0.444   4.138
 3140SOL     OW10429   4.747   0.766   4.690
 3140SOL    HW110430   4.762   0.787   4.786
 3140SOL    HW210431   4.717   0.671   4.681
 3141SOL     OW10432   5.027   0.838   3.766
 3141SOL    HW110433   5.061   0.745   3.781
 3141SOL    HW210434   5.045   0.865   3.671
 3142SOL     OW10435   4.792   1.333   4.573
 3142SOL    HW110436   4.799   1.249   4.518
 3142SOL    HW210437   4.854   1.402   4.537
 3143SOL     OW10438   4.043   0.810   4.673
 3143SOL    HW110439   4.136   0.846   4.678
 3143SOL    HW210440   4.037   0.725   4.725
 3144SOL     OW10441   4.063   0.509   4.730
 3144SOL    HW110442   4.011   0.426   4.713
 3144SOL    HW210443   4.140   0.514   4.666
 3145SOL     OW10444   4.884   0.207   5.201
 3145SOL    HW110445   4.884   0.271   5.278
 3145SOL    HW210446   4.912   0.255   5.118
 3146SOL     OW10447   4.228   1.568   4.634
 3146SOL    HW110448   4.294   1.642   4.643
 3146SOL    HW210449   4.272   1.489   4.592
 3147SOL     OW10450   4.726   0.796   4.962
 3147SOL    HW110451   4.767   0.764   5.048
 3147SOL    HW210452   4.630   0.769   4.959
 3148SOL     OW10453   3.764   0.544   4.838
 3148SOL    HW110454   3.849   0.511   4.797
 3148SOL    HW210455   3.777   0.559   4.936
 3149SOL     OW10456   4.539   0.572   4.049
 3149SOL    HW110457   4.546   0.483   4.003
 3149SOL    HW210458   4.445   0.606   4.041
 3150SOL     OW10459   4.395   0.464   4.993
 3150SOL    HW110460   4.361   0.375   4.963
 3150SOL    HW210461   4.421   0.518   4.913
 3151SOL     OW10462   4.654   1.678   5.189
 3151SOL    HW110463   4.630   1.660   5.094
 3151SOL    HW210464   4.684   1.772   5.199
 3152SOL     OW10465   4.197   0.500   3.915
 3152SOL    HW110466   4.258   0.580   3.919
 3152SOL    HW210467   4.102   0.531   3.922
 3153SOL     OW10468   5.071   1.059   4.958
 3153SOL    HW110469   5.095   0.996   4.884
 3153SOL    HW210470   4.981   1.099   4.940
 3154SOL     OW10471   4.976   1.731   4.852
 3154SOL    HW110472   5.060   1.736   4.798
 3154SOL    HW210473   4.953   1.635   4.870
 3155SOL     OW10474   3.807   1.258   4.746
 3155SOL    HW110475   3.802   1.257   4.846
 3155SOL    HW210476   3.724   1.217   4.708
 3156SOL     OW10477   5.004   0.927   4.396
 3156SOL    HW110478   5.064   0.846   4.398
 3156SOL    HW210479   5.044   0.996   4.336
 3157SOL     OW10480   4.396   1.616   3.878
 3157SOL    HW110481   4.405   1.626   3.779
 3157SOL    HW210482   4.356   1.527   3.899
 3158SOL     OW10483   3.987   0.326   4.444
 3158SOL    HW110484   3.908   0.377   4.410
 3158SOL    HW210485   3.978   0.311   4.542
 3159SOL     OW10486   4.918   1.612   3.755
 3159SOL    HW110487   4.924   1.519   3.792
 3159SOL    HW210488   4.859   1.612   3.675
 3160SOL     OW10489   4.546   1.002   5.096
 3160SOL    HW110490   4.586   1.001   5.004
 3160SOL    HW210491   4.556   1.094   5.136
 3161SOL     OW10492   4.640   0.910   4.015
 3161SOL    HW110493   4.703   0.948   3.947
 3161SOL    HW210494   4.680   0.827   4.054
 3162SOL     OW10495   4.763   1.098   4.420
 3162SOL    HW110496   4.693   1.051   4.474
 3162SOL    HW210497   4.822   1.030   4.377
 3163SOL     OW10498   4.738   0.236   4.695
 3163SOL    HW110499   4.730   0.200   4.602
 3163SOL    HW210500   4.736   0.160   4.760
 3164SOL     OW10501   4.314   1.487   4.215
 3164SOL    HW110502   4.356   1.429   4.145
 3164SOL    HW210503   4.270   1.566   4.171
 3165SOL     OW10504   3.979   1.348   4.014
 3165SOL    HW110505   3.883   1.349   3.987
 3165SOL    HW210506   3.991   1.401   4.098
 3166SOL     OW10507   3.799   0.345   3.757
 3166SOL    HW110508   3.707   0.317   3.728
 3166SOL    HW210509   3.830   0.422   3.701
 3167SOL     OW10510   3.796   0.166   4.042
 3167SOL    HW110511   3.779   0.249   3.988
 3167SOL    HW210512   3.886   0.129   4.020
 3168SOL     OW10513   4.949   0.325   4.173
 3168SOL    HW110514   5.014   0.251   4.162
 3168SOL    HW210515   4.969   0.375   4.257
 3169SOL     OW10516   4.318   0.745   4.376
 3169SOL    HW110517   4.368   0.830   4.357
 3169SOL    HW210518   4.230   0.747   4.328
 3170SOL     OW10519   4.583   1.374   3.740
 3170SOL    HW110520   4.537   1.389   3.828
 3170SOL    HW210521   4.627   1.459   3.710
 3171SOL     OW10522   4.385   1.790   4.677
 3171SOL    HW110523   4.339   1.878   4.664
 3171SOL    HW210524   4.484   1.802   4.670
 3172SOL     OW10525   4.583   0.956   4.585
 3172SOL    HW110526   4.637   0.887   4.633
 3172SOL    HW210527   4.551   1.025   4.651
 3173SOL     OW10528   4.807   0.984   3.811
 3173SOL    HW110529   4.784   1.037   3.729
 3173SOL    HW210530   4.888   0.928   3.792
 3174SOL     OW10531   3.803   1.240   4.377
 3174SOL    HW110532   3.802   1.193   4.465
 3174SOL    HW210533   3.885   1.212   4.326
 3175SOL     OW10534   4.152   0.424   4.244
 3175SOL    HW110535   4.182   0.352   4.182
 3175SOL    HW210536   4.113   0.384   4.327
 3176SOL     OW10537   4.536   1.586   4.411
 3176SOL    HW110538   4.568   1.596   4.317
 3176SOL    HW210539   4.457   1.524   4.413
 3177SOL     OW10540   4.725   0.034   4.878
 3177SOL    HW110541   4.662  -0.038   4.847
 3177SOL    HW210542   4.818  -0.002   4.878
 3178SOL     OW10543   4.494   1.330   4.025
 3178SOL    HW110544   4.448   1.243   4.042
 3178SOL    HW210545   4.585   1.327   4.066
 3179SOL     OW10546   3.763   1.077   4.024
 3179SOL    HW110547   3.862   1.066   4.015
 3179SOL    HW210548   3.723   0.991   4.056
 3180SOL     OW10549   4.599   1.646   4.061
 3180SOL    HW110550   4.522   1.611   4.007
 3180SOL    HW210551   4.567   1.717   4.123
 3181SOL     OW10552   3.954   2.490   0.113
 3181SOL    HW110553   3.861   2.488   0.150
 3181SOL    HW210554   3.955   2.451   0.021
 3182SOL     OW10555   3.949   2.137   0.996
 3182SOL    HW110556   3.984   2.120   1.088
 3182SOL    HW210557   3.861   2.092   0.984
 3183SOL     OW10558   3.743   2.230   0.647
 3183SOL    HW110559   3.661   2.273   0.686
 3183SOL    HW210560   3.715   2.157   0.584
 3184SOL     OW10561   4.293   3.137   1.165
 3184SOL    HW110562   4.200   3.130   1.128
 3184SOL    HW210563   4.304   3.226   1.209
 3185SOL     OW10564   4.859   2.565   0.717
 3185SOL    HW110565   4.916   2.643   0.692
 3185SOL    HW210566   4.799   2.591   0.793
 3186SOL     OW10567   4.492   3.006   1.023
 3186SOL    HW110568   4.414   3.023   1.083
 3186SOL    HW210569   4.526   3.093   0.987
 3187SOL     OW10570   4.409   2.874   0.665
 3187SOL    HW110571   4.478   2.858   0.735
 3187SOL    HW210572   4.336   2.931   0.703
 3188SOL     OW10573   4.410   3.023   1.803
 3188SOL    HW110574   4.470   3.102   1.817
 3188SOL    HW210575   4.324   3.054   1.762
 3189SOL     OW10576   4.059   3.297   1.061
 3189SOL    HW110577   3.981   3.266   1.008
 3189SOL    HW210578   4.117   3.355   1.004
 3190SOL     OW10579   4.162   2.254   1.499
 3190SOL    HW110580   4.244   2.198   1.508
 3190SOL    HW210581   4.081   2.196   1.503
 3191SOL     OW10582   3.955   3.575   0.483
 3191SOL    HW110583   3.989   3.652   0.537
 3191SOL    HW210584   3.999   3.575   0.393
 3192SOL     OW10585   4.851   3.203   1.690
 3192SOL    HW110586   4.898   3.203   1.778
 3192SOL    HW210587   4.803   3.116   1.679
 3193SOL     OW10588   3.954   3.296   0.538
 3193SOL    HW110589   3.928   3.392   0.538
 3193SOL    HW210590   3.883   3.242   0.583
 3194SOL     OW10591   3.964   2.953   0.886
 3194SOL    HW110592   3.978   2.869   0.938
 3194SOL    HW210593   3.909   3.017   0.941
 3195SOL     OW10594   4.344   3.648   1.439
 3195SOL    HW110595   4.252   3.631   1.474
 3195SOL    HW210596   4.372   3.740   1.465
 3196SOL     OW10597   4.330   2.826   0.123
 3196SOL    HW110598   4.337   2.910   0.069
 3196SOL    HW210599   4.376   2.839   0.211
 3197SOL     OW10600   3.846   2.505   0.563
 3197SOL    HW110601   3.801   2.417   0.580
 3197SOL    HW210602   3.845   2.559   0.647
 3198SOL     OW10603   3.751   3.458   0.117
 3198SOL    HW110604   3.732   3.362   0.138
 3198SOL    HW210605   3.718   3.516   0.192
 3199SOL     OW10606   3.837   2.599   1.597
 3199SOL    HW110607   3.925   2.586   1.642
 3199SOL    HW210608   3.824   2.696   1.575
 3200SOL     OW10609   4.337   3.227   0.726
 3200SOL    HW110610   4.288   3.140   0.735
 3200SOL    HW210611   4.314   3.270   0.639
 3201SOL     OW10612   5.017   3.090   1.423
 3201SOL    HW110613   5.054   3.017   1.365
 3201SOL    HW210614   5.069   3.095   1.508
 3202SOL     OW10615   4.533   1.866   0.502
 3202SOL    HW110616   4.573   1.957   0.493
 3202SOL    HW210617   4.433   1.874   0.508
 3203SOL     OW10618   3.921   2.838   1.264
 3203SOL    HW110619   4.010   2.793   1.250
 3203SOL    HW210620   3.848   2.773   1.245
 3204SOL     OW10621   4.322   2.591   0.270
 3204SOL    HW110622   4.346   2.660   0.202
 3204SOL    HW210623   4.244   2.624   0.324
 3205SOL     OW10624   5.005   2.207   0.944
 3205SOL    HW110625   4.919   2.157   0.931
 3205SOL    HW210626   5.067   2.153   1.000
 3206SOL     OW10627   4.715   2.272   1.242
 3206SOL    HW110628   4.638   2.306   1.296
 3206SOL    HW210629   4.681   2.221   1.163
 3207SOL     OW10630   3.800   2.673   0.789
 3207SOL    HW110631   3.899   2.661   0.798
 3207SOL    HW210632   3.776   2.768   0.810
 3208SOL     OW10633   3.854   3.683   1.571
 3208SOL    HW110634   3.844   3.668   1.670
 3208SOL    HW210635   3.768   3.719   1.535
 3209SOL     OW10636   4.589   2.210   0.195
 3209SOL    HW110637   4.648   2.273   0.146
 3209SOL    HW210638   4.608   2.116   0.166
 3210SOL     OW10639   4.274   2.058   0.885
 3210SOL    HW110640   4.269   2.053   0.985
 3210SOL    HW210641   4.276   2.154   0.856
 3211SOL     OW10642   4.732   3.318   0.477
 3211SOL    HW110643   4.686   3.390   0.425
 3211SOL    HW210644   4.728   3.338   0.575
 3212SOL     OW10645   4.075   3.663   0.853
 3212SOL    HW110646   4.125   3.577   0.859
 3212SOL    HW210647   4.140   3.740   0.850
 3213SOL     OW10648   4.045   2.805   0.242
 3213SOL    HW110649   4.127   2.844   0.200
 3213SOL    HW210650   4.018   2.723   0.193
 3214SOL     OW10651   4.185   3.128   1.727
 3214SOL    HW110652   4.135   3.129   1.641
 3214SOL    HW210653   4.122   3.110   1.803
 3215SOL     OW10654   4.835   3.638   0.237
 3215SOL    HW110655   4.775   3.576   0.287
 3215SOL    HW210656   4.866   3.594   0.152
 3216SOL     OW10657   3.926   2.147   1.498
 3216SOL    HW110658   3.846   2.207   1.485
 3216SOL    HW210659   3.916   2.098   1.584
 3217SOL     OW10660   5.356   3.239   0.081
 3217SOL    HW110661   5.324   3.333   0.071
 3217SOL    HW210662   5.280   3.176   0.069
 3218SOL     OW10663   4.188   3.605   0.323
 3218SOL    HW110664   4.221   3.644   0.409
 3218SOL    HW210665   4.264   3.598   0.258
 3219SOL     OW10666   3.973   3.647   1.241
 3219SOL    HW110667   4.030   3.582   1.291
 3219SOL    HW210668   3.957   3.614   1.148
 3220SOL     OW10669   4.664   3.560   0.904
 3220SOL    HW110670   4.744   3.503   0.925
 3220SOL    HW210671   4.615   3.520   0.827
 3221SOL     OW10672   4.106   2.562   0.480
 3221SOL    HW110673   4.151   2.472   0.477
 3221SOL    HW210674   4.012   2.551   0.513
 3222SOL     OW10675   4.612   3.376   1.195
 3222SOL    HW110676   4.589   3.351   1.101
 3222SOL    HW210677   4.673   3.307   1.234
 3223SOL     OW10678   4.527   3.264   0.924
 3223SOL    HW110679   4.617   3.278   0.882
 3223SOL    HW210680   4.456   3.266   0.853
 3224SOL     OW10681   4.646   2.365   0.899
 3224SOL    HW110682   4.621   2.356   0.803
 3224SOL    HW210683   4.694   2.283   0.930
 3225SOL     OW10684   4.263   1.926   0.512
 3225SOL    HW110685   4.182   1.927   0.570
 3225SOL    HW210686   4.266   2.009   0.457
 3226SOL     OW10687   4.021   1.897   0.171
 3226SOL    HW110688   4.070   1.981   0.150
 3226SOL    HW210689   4.083   1.832   0.216
 3227SOL     OW10690   4.659   2.098   0.480
 3227SOL    HW110691   4.611   2.139   0.402
 3227SOL    HW210692   4.758   2.096   0.461
 3228SOL     OW10693   4.951   3.432   0.793
 3228SOL    HW110694   4.972   3.506   0.728
 3228SOL    HW210695   5.019   3.432   0.866
 3229SOL     OW10696   4.183   3.014   0.741
 3229SOL    HW110697   4.112   2.987   0.806
 3229SOL    HW210698   4.157   2.986   0.648
 3230SOL     OW10699   3.802   2.418   1.386
 3230SOL    HW110700   3.894   2.417   1.345
 3230SOL    HW210701   3.796   2.492   1.453
 3231SOL     OW10702   4.285   2.084   1.147
 3231SOL    HW110703   4.323   2.000   1.184
 3231SOL    HW210704   4.197   2.103   1.191
 3232SOL     OW10705   4.590   2.316   0.642
 3232SOL    HW110706   4.558   2.388   0.580
 3232SOL    HW210707   4.614   2.235   0.589
 3233SOL     OW10708   4.741   1.901   0.753
 3233SOL    HW110709   4.669   1.906   0.684
 3233SOL    HW210710   4.717   1.832   0.822
 3234SOL     OW10711   4.212   3.247   0.174
 3234SOL    HW110712   4.125   3.232   0.221
 3234SOL    HW210713   4.195   3.273   0.079
 3235SOL     OW10714   5.388   3.142   0.657
 3235SOL    HW110715   5.487   3.150   0.671
 3235SOL    HW210716   5.343   3.226   0.688
 3236SOL     OW10717   4.251   2.118   0.328
 3236SOL    HW110718   4.278   2.059   0.253
 3236SOL    HW210719   4.251   2.213   0.297
 3237SOL     OW10720   4.788   3.209   1.340
 3237SOL    HW110721   4.708   3.186   1.395
 3237SOL    HW210722   4.871   3.183   1.389
 3238SOL     OW10723   4.835   3.057   1.100
 3238SOL    HW110724   4.795   3.101   1.181
 3238SOL    HW210725   4.794   3.094   1.017
 3239SOL     OW10726   4.639   1.951   1.402
 3239SOL    HW110727   4.664   1.931   1.307
 3239SOL    HW210728   4.711   2.007   1.444
 3240SOL     OW10729   4.704   2.978   1.719
 3240SOL    HW110730   4.605   2.984   1.729
 3240SOL    HW210731   4.727   2.898   1.663
 3241SOL     OW10732   4.429   2.912   0.368
 3241SOL    HW110733   4.415   2.919   0.467
 3241SOL    HW210734   4.513   2.861   0.350
 3242SOL     OW10735   4.134   2.675   1.251
 3242SOL    HW110736   4.220   2.687   1.301
 3242SOL    HW210737   4.092   2.588   1.278
 3243SOL     OW10738   4.998   2.248   1.262
 3243SOL    HW110739   5.019   2.322   1.326
 3243SOL    HW210740   4.909   2.265   1.219
 3244SOL     OW10741   3.788   3.426   1.331
 3244SOL    HW110742   3.742   3.508   1.297
 3244SOL    HW210743   3.886   3.445   1.340
 3245SOL     OW10744   4.091   2.962   0.501
 3245SOL    HW110745   4.084   3.045   0.445
 3245SOL    HW210746   4.095   2.882   0.441
 3246SOL     OW10747   4.290   2.399   0.865
 3246SOL    HW110748   4.302   2.465   0.791
 3246SOL    HW210749   4.336   2.433   0.948
 3247SOL     OW10750   4.976   3.210   0.388
 3247SOL    HW110751   5.026   3.287   0.428
 3247SOL    HW210752   4.881   3.212   0.420
 3248SOL     OW10753   4.078   3.372   1.329
 3248SOL    HW110754   4.057   3.328   1.242
 3248SOL    HW210755   4.175   3.398   1.332
 3249SOL     OW10756   4.126   2.613   1.598
 3249SOL    HW110757   4.194   2.668   1.551
 3249SOL    HW210758   4.166   2.525   1.625
 3250SOL     OW10759   4.737   1.967   1.770
 3250SOL    HW110760   4.743   2.052   1.718
 3250SOL    HW210761   4.769   1.891   1.713
 3251SOL     OW10762   4.297   2.732   1.029
 3251SOL    HW110763   4.341   2.821   1.020
 3251SOL    HW210764   4.234   2.732   1.106
 3252SOL     OW10765   5.084   2.724   1.045
 3252SOL    HW110766   5.009   2.724   0.979
 3252SOL    HW210767   5.121   2.632   1.054
 3253SOL     OW10768   4.031   2.075   1.231
 3253SOL    HW110769   4.008   2.112   1.321
 3253SOL    HW210770   4.001   1.980   1.225
 3254SOL     OW10771   3.761   3.172   1.282
 3254SOL    HW110772   3.814   3.123   1.350
 3254SOL    HW210773   3.783   3.270   1.287
 3255SOL     OW10774   4.456   2.496   1.064
 3255SOL    HW110775   4.515   2.470   0.988
 3255SOL    HW210776   4.428   2.592   1.053
 3256SOL     OW10777   4.031   1.925   0.618
 3256SOL    HW110778   4.020   2.019   0.651
 3256SOL    HW210779   4.026   1.862   0.695
 3257SOL     OW10780   5.346   2.229   0.374
 3257SOL    HW110781   5.348   2.153   0.438
 3257SOL    HW210782   5.298   2.306   0.414
 3258SOL     OW10783   4.747   2.628   0.966
 3258SOL    HW110784   4.762   2.649   1.062
 3258SOL    HW210785   4.717   2.533   0.957
 3259SOL     OW10786   4.704   3.435   1.700
 3259SOL    HW110787   4.684   3.479   1.612
 3259SOL    HW210788   4.743   3.344   1.684
 3260SOL     OW10789   4.074   2.760   1.804
 3260SOL    HW110790   4.150   2.804   1.852
 3260SOL    HW210791   4.109   2.713   1.722
 3261SOL     OW10792   5.027   2.700   0.042
 3261SOL    HW110793   5.061   2.607   0.057
 3261SOL    HW210794   5.045   2.727  -0.053
 3262SOL     OW10795   4.792   3.195   0.849
 3262SOL    HW110796   4.799   3.111   0.794
 3262SOL    HW210797   4.854   3.264   0.813
 3263SOL     OW10798   4.043   2.672   0.949
 3263SOL    HW110799   4.136   2.708   0.954
 3263SOL    HW210800   4.037   2.587   1.001
 3264SOL     OW10801   4.063   2.371   1.006
 3264SOL    HW110802   4.011   2.288   0.989
 3264SOL    HW210803   4.140   2.376   0.942
 3265SOL     OW10804   4.862   2.242   1.678
 3265SOL    HW110805   4.817   2.305   1.742
 3265SOL    HW210806   4.955   2.273   1.661
 3266SOL     OW10807   4.884   2.069   1.477
 3266SOL    HW110808   4.884   2.133   1.554
 3266SOL    HW210809   4.912   2.117   1.394
 3267SOL     OW10810   3.812   3.663   0.927
 3267SOL    HW110811   3.770   3.577   0.900
 3267SOL    HW210812   3.906   3.666   0.893
 3268SOL     OW10813   4.228   3.430   0.910
 3268SOL    HW110814   4.294   3.504   0.919
 3268SOL    HW210815   4.272   3.351   0.868
 3269SOL     OW10816   4.726   2.658   1.238
 3269SOL    HW110817   4.767   2.626   1.324
 3269SOL    HW210818   4.630   2.631   1.235
 3270SOL     OW10819   3.764   2.406   1.114
 3270SOL    HW110820   3.849   2.373   1.073
 3270SOL    HW210821   3.777   2.421   1.212
 3271SOL     OW10822   3.913   2.382   1.722
 3271SOL    HW110823   3.972   2.342   1.652
 3271SOL    HW210824   3.855   2.453   1.681
 3272SOL     OW10825   3.976   3.426   1.744
 3272SOL    HW110826   3.946   3.483   1.820
 3272SOL    HW210827   3.969   3.329   1.770
 3273SOL     OW10828   4.395   2.326   1.269
 3273SOL    HW110829   4.361   2.237   1.239
 3273SOL    HW210830   4.421   2.380   1.189
 3274SOL     OW10831   4.654   3.540   1.465
 3274SOL    HW110832   4.630   3.522   1.370
 3274SOL    HW210833   4.684   3.634   1.475
 3275SOL     OW10834   4.197   2.362   0.191
 3275SOL    HW110835   4.258   2.442   0.195
 3275SOL    HW210836   4.102   2.393   0.198
 3276SOL     OW10837   3.883   2.999   1.466
 3276SOL    HW110838   3.905   2.938   1.542
 3276SOL    HW210839   3.893   2.950   1.380
 3277SOL     OW10840   5.071   2.921   1.234
 3277SOL    HW110841   5.095   2.858   1.160
 3277SOL    HW210842   4.981   2.961   1.216
 3278SOL     OW10843   4.976   3.593   1.128
 3278SOL    HW110844   5.060   3.598   1.074
 3278SOL    HW210845   4.953   3.497   1.146
 3279SOL     OW10846   3.807   3.120   1.022
 3279SOL    HW110847   3.802   3.119   1.122
 3279SOL    HW210848   3.724   3.079   0.984
 3280SOL     OW10849   4.412   3.524   1.716
 3280SOL    HW110850   4.356   3.605   1.725
 3280SOL    HW210851   4.464   3.528   1.630
 3281SOL     OW10852   4.627   1.948   0.133
 3281SOL    HW110853   4.678   1.949   0.047
 3281SOL    HW210854   4.683   1.906   0.204
 3282SOL     OW10855   5.112   3.435   0.477
 3282SOL    HW110856   5.179   3.447   0.403
 3282SOL    HW210857   5.072   3.524   0.500
 3283SOL     OW10858   3.854   3.656   1.851
 3283SOL    HW110859   3.813   3.582   1.904
 3283SOL    HW210860   3.918   3.707   1.909
 3284SOL     OW10861   5.004   2.789   0.672
 3284SOL    HW110862   5.064   2.708   0.674
 3284SOL    HW210863   5.044   2.858   0.612
 3285SOL     OW10864   4.554   3.135   1.422
 3285SOL    HW110865   4.549   3.168   1.517
 3285SOL    HW210866   4.468   3.154   1.376
 3286SOL     OW10867   4.396   3.478   0.154
 3286SOL    HW110868   4.405   3.488   0.055
 3286SOL    HW210869   4.356   3.389   0.175
 3287SOL     OW10870   3.987   2.188   0.720
 3287SOL    HW110871   3.908   2.239   0.686
 3287SOL    HW210872   3.978   2.173   0.818
 3288SOL     OW10873   4.918   3.474   0.031
 3288SOL    HW110874   4.924   3.381   0.068
 3288SOL    HW210875   4.859   3.474  -0.049
 3289SOL     OW10876   4.546   2.864   1.372
 3289SOL    HW110877   4.586   2.863   1.280
 3289SOL    HW210878   4.556   2.956   1.412
 3290SOL     OW10879   4.640   2.772   0.291
 3290SOL    HW110880   4.703   2.810   0.223
 3290SOL    HW210881   4.680   2.689   0.330
 3291SOL     OW10882   4.096   3.150   1.490
 3291SOL    HW110883   4.083   3.243   1.456
 3291SOL    HW210884   4.012   3.098   1.477
 3292SOL     OW10885   4.763   2.960   0.696
 3292SOL    HW110886   4.693   2.913   0.750
 3292SOL    HW210887   4.822   2.892   0.653
 3293SOL     OW10888   4.738   2.098   0.971
 3293SOL    HW110889   4.730   2.062   0.878
 3293SOL    HW210890   4.736   2.022   1.036
 3294SOL     OW10891   4.314   3.349   0.491
 3294SOL    HW110892   4.356   3.291   0.421
 3294SOL    HW210893   4.270   3.428   0.447
 3295SOL     OW10894   3.979   3.210   0.290
 3295SOL    HW110895   3.883   3.211   0.263
 3295SOL    HW210896   3.991   3.263   0.374
 3296SOL     OW10897   3.829   2.875   1.726
 3296SOL    HW110898   3.752   2.842   1.780
 3296SOL    HW210899   3.914   2.845   1.768
 3297SOL     OW10900   4.396   2.065   1.489
 3297SOL    HW110901   4.486   2.049   1.449
 3297SOL    HW210902   4.404   2.070   1.588
 3298SOL     OW10903   5.164   2.718   1.398
 3298SOL    HW110904   5.107   2.770   1.335
 3298SOL    HW210905   5.260   2.730   1.374
 3299SOL     OW10906   3.796   2.028   0.318
 3299SOL    HW110907   3.779   2.111   0.264
 3299SOL    HW210908   3.886   1.991   0.296
 3300SOL     OW10909   4.337   2.704   1.431
 3300SOL    HW110910   4.393   2.785   1.414
 3300SOL    HW210911   4.396   2.624   1.434
 3301SOL     OW10912   4.114   3.603   1.560
 3301SOL    HW110913   4.023   3.644   1.558
 3301SOL    HW210914   4.107   3.509   1.592
 3302SOL     OW10915   4.949   2.187   0.449
 3302SOL    HW110916   5.014   2.113   0.438
 3302SOL    HW210917   4.969   2.237   0.533
 3303SOL     OW10918   4.318   2.607   0.652
 3303SOL    HW110919   4.368   2.692   0.633
 3303SOL    HW210920   4.230   2.609   0.604
 3304SOL     OW10921   4.583   3.236   0.016
 3304SOL    HW110922   4.537   3.251   0.104
 3304SOL    HW210923   4.627   3.321  -0.014
 3305SOL     OW10924   4.385   3.652   0.953
 3305SOL    HW110925   4.339   3.740   0.940
 3305SOL    HW210926   4.484   3.664   0.946
 3306SOL     OW10927   4.583   2.818   0.861
 3306SOL    HW110928   4.637   2.749   0.909
 3306SOL    HW210929   4.551   2.887   0.927
 3307SOL     OW10930   4.807   2.846   0.087
 3307SOL    HW110931   4.784   2.899   0.005
 3307SOL    HW210932   4.888   2.790   0.068
 3308SOL     OW10933   3.945   3.176   1.844
 3308SOL    HW110934   3.880   3.103   1.823
 3308SOL    HW210935   3.949   3.190   1.942
 3309SOL     OW10936   3.803   3.102   0.653
 3309SOL    HW110937   3.802   3.055   0.741
 3309SOL    HW210938   3.885   3.074   0.602
 3310SOL     OW10939   4.396   3.253   1.624
 3310SOL    HW110940   4.318   3.203   1.662
 3310SOL    HW210941   4.393   3.348   1.655
 3311SOL     OW10942   4.152   2.286   0.520
 3311SOL    HW110943   4.182   2.214   0.458
 3311SOL    HW210944   4.113   2.246   0.603
 3312SOL     OW10945   4.041   2.409   1.280
 3312SOL    HW110946   4.079   2.350   1.352
 3312SOL    HW210947   4.081   2.383   1.192
 3313SOL     OW10948   4.536   3.448   0.687
 3313SOL    HW110949   4.568   3.458   0.593
 3313SOL    HW210950   4.457   3.386   0.689
 3314SOL     OW10951   4.725   1.896   1.154
 3314SOL    HW110952   4.662   1.824   1.123
 3314SOL    HW210953   4.818   1.860   1.154
 3315SOL     OW10954   4.494   3.192   0.301
 3315SOL    HW110955   4.448   3.105   0.318
 3315SOL    HW210956   4.585   3.189   0.342
 3316SOL     OW10957   4.342   3.429   1.284
 3316SOL    HW110958   4.337   3.511   1.341
 3316SOL    HW210959   4.431   3.426   1.239
 3317SOL     OW10960   3.763   2.939   0.300
 3317SOL    HW110961   3.862   2.928   0.291
 3317SOL    HW210962   3.723   2.853   0.332
 3318SOL     OW10963   4.599   3.508   0.337
 3318SOL    HW110964   4.522   3.473   0.283
 3318SOL    HW210965   4.567   3.579   0.399
 3319SOL     OW10966   3.954   2.490   1.975
 3319SOL    HW110967   3.861   2.488   2.012
 3319SOL    HW210968   3.955   2.451   1.883
 3320SOL     OW10969   3.949   2.137   2.858
 3320SOL    HW110970   3.984   2.120   2.950
 3320SOL    HW210971   3.861   2.092   2.846
 3321SOL     OW10972   3.743   2.230   2.509
 3321SOL    HW110973   3.661   2.273   2.548
 3321SOL    HW210974   3.715   2.157   2.446
 3322SOL     OW10975   4.293   3.137   3.027
 3322SOL    HW110976   4.200   3.130   2.990
 3322SOL    HW210977   4.304   3.226   3.071
 3323SOL     OW10978   4.859   2.565   2.579
 3323SOL    HW110979   4.916   2.643   2.554
 3323SOL    HW210980   4.799   2.591   2.655
 3324SOL     OW10981   4.492   3.006   2.885
 3324SOL    HW110982   4.414   3.023   2.945
 3324SOL    HW210983   4.526   3.093   2.849
 3325SOL     OW10984   4.574   2.660   3.685
 3325SOL    HW110985   4.570   2.736   3.750
 3325SOL    HW210986   4.596   2.696   3.594
 3326SOL     OW10987   4.409   2.874   2.527
 3326SOL    HW110988   4.478   2.858   2.597
 3326SOL    HW210989   4.336   2.931   2.565
 3327SOL     OW10990   4.410   3.023   3.665
 3327SOL    HW110991   4.470   3.102   3.679
 3327SOL    HW210992   4.324   3.054   3.624
 3328SOL     OW10993   4.059   3.297   2.923
 3328SOL    HW110994   3.981   3.266   2.870
 3328SOL    HW210995   4.117   3.355   2.866
 3329SOL     OW10996   4.162   2.254   3.361
 3329SOL    HW110997   4.244   2.198   3.370
 3329SOL    HW210998   4.081   2.196   3.365
 3330SOL     OW10999   3.955   3.575   2.345
 3330SOL    HW111000   3.989   3.652   2.399
 3330SOL    HW211001   3.999   3.575   2.255
 3331SOL     OW11002   4.851   3.203   3.552
 3331SOL    HW111003   4.898   3.203   3.640
 3331SOL    HW211004   4.803   3.116   3.541
 3332SOL     OW11005   3.954   3.296   2.400
 3332SOL    HW111006   3.928   3.392   2.400
 3332SOL    HW211007   3.883   3.242   2.445
 3333SOL     OW11008   3.964   2.953   2.748
 3333SOL    HW111009   3.978   2.869   2.800
 3333SOL    HW211010   3.909   3.017   2.803
 3334SOL     OW11011   4.344   3.648   3.301
 3334SOL    HW111012   4.252   3.631   3.336
 3334SOL    HW211013   4.372   3.740   3.327
 3335SOL     OW11014   4.330   2.826   1.985
 3335SOL    HW111015   4.337   2.910   1.931
 3335SOL    HW211016   4.376   2.839   2.073
 3336SOL     OW11017   3.846   2.505   2.425
 3336SOL    HW111018   3.801   2.417   2.442
 3336SOL    HW211019   3.845   2.559   2.509
 3337SOL     OW11020   3.751   3.458   1.979
 3337SOL    HW111021   3.732   3.362   2.000
 3337SOL    HW211022   3.718   3.516   2.054
 3338SOL     OW11023   3.837   2.599   3.459
 3338SOL    HW111024   3.925   2.586   3.504
 3338SOL    HW211025   3.824   2.696   3.437
 3339SOL     OW11026   4.337   3.227   2.588
 3339SOL    HW111027   4.288   3.140   2.597
 3339SOL    HW211028   4.314   3.270   2.501
 3340SOL     OW11029   5.017   3.090   3.285
 3340SOL    HW111030   5.054   3.017   3.227
 3340SOL    HW211031   5.069   3.095   3.370
 3341SOL     OW11032   4.533   1.866   2.364
 3341SOL    HW111033   4.573   1.957   2.355
 3341SOL    HW211034   4.433   1.874   2.370
 3342SOL     OW11035   3.921   2.838   3.126
 3342SOL    HW111036   4.010   2.793   3.112
 3342SOL    HW211037   3.848   2.773   3.107
 3343SOL     OW11038   4.911   3.654   3.478
 3343SOL    HW111039   4.935   3.714   3.402
 3343SOL    HW211040   4.918   3.559   3.448
 3344SOL     OW11041   4.041   2.113   3.663
 3344SOL    HW111042   4.112   2.184   3.669
 3344SOL    HW211043   3.953   2.152   3.691
 3345SOL     OW11044   4.322   2.591   2.132
 3345SOL    HW111045   4.346   2.660   2.064
 3345SOL    HW211046   4.244   2.624   2.186
 3346SOL     OW11047   4.531   2.467   3.327
 3346SOL    HW111048   4.484   2.464   3.416
 3346SOL    HW211049   4.480   2.412   3.261
 3347SOL     OW11050   4.697   2.752   3.434
 3347SOL    HW111051   4.743   2.668   3.405
 3347SOL    HW211052   4.641   2.786   3.359
 3348SOL     OW11053   4.715   2.272   3.104
 3348SOL    HW111054   4.638   2.306   3.158
 3348SOL    HW211055   4.681   2.221   3.025
 3349SOL     OW11056   4.765   2.563   2.291
 3349SOL    HW111057   4.791   2.559   2.387
 3349SOL    HW211058   4.680   2.512   2.277
 3350SOL     OW11059   3.800   2.673   2.651
 3350SOL    HW111060   3.899   2.661   2.660
 3350SOL    HW211061   3.776   2.768   2.672
 3351SOL     OW11062   3.854   3.683   3.433
 3351SOL    HW111063   3.844   3.668   3.532
 3351SOL    HW211064   3.768   3.719   3.397
 3352SOL     OW11065   4.589   2.210   2.057
 3352SOL    HW111066   4.648   2.273   2.008
 3352SOL    HW211067   4.608   2.116   2.028
 3353SOL     OW11068   4.274   2.058   2.747
 3353SOL    HW111069   4.269   2.053   2.847
 3353SOL    HW211070   4.276   2.154   2.718
 3354SOL     OW11071   4.732   3.318   2.339
 3354SOL    HW111072   4.686   3.390   2.287
 3354SOL    HW211073   4.728   3.338   2.437
 3355SOL     OW11074   4.075   3.663   2.715
 3355SOL    HW111075   4.125   3.577   2.721
 3355SOL    HW211076   4.140   3.740   2.712
 3356SOL     OW11077   4.951   3.412   3.368
 3356SOL    HW111078   4.957   3.335   3.432
 3356SOL    HW211079   4.899   3.386   3.288
 3357SOL     OW11080   4.045   2.805   2.104
 3357SOL    HW111081   4.127   2.844   2.062
 3357SOL    HW211082   4.018   2.723   2.055
 3358SOL     OW11083   4.185   3.128   3.589
 3358SOL    HW111084   4.135   3.129   3.503
 3358SOL    HW211085   4.122   3.110   3.665
 3359SOL     OW11086   3.926   2.147   3.360
 3359SOL    HW111087   3.846   2.207   3.347
 3359SOL    HW211088   3.916   2.098   3.446
 3360SOL     OW11089   4.188   3.605   2.185
 3360SOL    HW111090   4.221   3.644   2.271
 3360SOL    HW211091   4.264   3.598   2.120
 3361SOL     OW11092   3.973   3.647   3.103
 3361SOL    HW111093   4.030   3.582   3.153
 3361SOL    HW211094   3.957   3.614   3.010
 3362SOL     OW11095   4.664   3.560   2.766
 3362SOL    HW111096   4.744   3.503   2.787
 3362SOL    HW211097   4.615   3.520   2.689
 3363SOL     OW11098   4.106   2.562   2.342
 3363SOL    HW111099   4.151   2.472   2.339
 3363SOL    HW211100   4.012   2.551   2.375
 3364SOL     OW11101   4.505   2.126   3.611
 3364SOL    HW111102   4.572   2.065   3.654
 3364SOL    HW211103   4.432   2.145   3.676
 3365SOL     OW11104   4.612   3.376   3.057
 3365SOL    HW111105   4.589   3.351   2.963
 3365SOL    HW211106   4.673   3.307   3.096
 3366SOL     OW11107   4.527   3.264   2.786
 3366SOL    HW111108   4.617   3.278   2.744
 3366SOL    HW211109   4.456   3.266   2.715
 3367SOL     OW11110   4.646   2.365   2.761
 3367SOL    HW111111   4.621   2.356   2.665
 3367SOL    HW211112   4.694   2.283   2.792
 3368SOL     OW11113   4.263   1.926   2.374
 3368SOL    HW111114   4.182   1.927   2.432
 3368SOL    HW211115   4.266   2.009   2.319
 3369SOL     OW11116   4.021   1.897   2.033
 3369SOL    HW111117   4.070   1.981   2.012
 3369SOL    HW211118   4.083   1.832   2.078
 3370SOL     OW11119   4.659   2.098   2.342
 3370SOL    HW111120   4.611   2.139   2.264
 3370SOL    HW211121   4.758   2.096   2.323
 3371SOL     OW11122   4.800   2.545   3.326
 3371SOL    HW111123   4.720   2.484   3.329
 3371SOL    HW211124   4.881   2.492   3.302
 3372SOL     OW11125   4.951   3.432   2.655
 3372SOL    HW111126   4.972   3.506   2.590
 3372SOL    HW211127   5.019   3.432   2.728
 3373SOL     OW11128   4.183   3.014   2.603
 3373SOL    HW111129   4.112   2.987   2.668
 3373SOL    HW211130   4.157   2.986   2.510
 3374SOL     OW11131   4.756   2.411   1.878
 3374SOL    HW111132   4.715   2.493   1.839
 3374SOL    HW211133   4.820   2.437   1.951
 3375SOL     OW11134   3.802   2.418   3.248
 3375SOL    HW111135   3.894   2.417   3.207
 3375SOL    HW211136   3.796   2.492   3.315
 3376SOL     OW11137   4.285   2.084   3.009
 3376SOL    HW111138   4.323   2.000   3.046
 3376SOL    HW211139   4.197   2.103   3.053
 3377SOL     OW11140   4.590   2.316   2.504
 3377SOL    HW111141   4.558   2.388   2.442
 3377SOL    HW211142   4.614   2.235   2.451
 3378SOL     OW11143   4.741   1.901   2.615
 3378SOL    HW111144   4.669   1.906   2.546
 3378SOL    HW211145   4.717   1.832   2.684
 3379SOL     OW11146   4.212   3.247   2.036
 3379SOL    HW111147   4.125   3.232   2.083
 3379SOL    HW211148   4.195   3.273   1.941
 3380SOL     OW11149   5.388   3.142   2.519
 3380SOL    HW111150   5.487   3.150   2.533
 3380SOL    HW211151   5.343   3.226   2.550
 3381SOL     OW11152   4.788   3.209   3.202
 3381SOL    HW111153   4.708   3.186   3.257
 3381SOL    HW211154   4.871   3.183   3.251
 3382SOL     OW11155   4.835   3.057   2.962
 3382SOL    HW111156   4.795   3.101   3.043
 3382SOL    HW211157   4.794   3.094   2.879
 3383SOL     OW11158   4.639   1.951   3.264
 3383SOL    HW111159   4.664   1.931   3.169
 3383SOL    HW211160   4.711   2.007   3.306
 3384SOL     OW11161   4.704   2.978   3.581
 3384SOL    HW111162   4.605   2.984   3.591
 3384SOL    HW211163   4.727   2.898   3.525
 3385SOL     OW11164   4.429   2.912   2.230
 3385SOL    HW111165   4.415   2.919   2.329
 3385SOL    HW211166   4.513   2.861   2.212
 3386SOL     OW11167   4.134   2.675   3.113
 3386SOL    HW111168   4.220   2.687   3.163
 3386SOL    HW211169   4.092   2.588   3.140
 3387SOL     OW11170   4.998   2.248   3.124
 3387SOL    HW111171   5.019   2.322   3.188
 3387SOL    HW211172   4.909   2.265   3.081
 3388SOL     OW11173   3.788   3.426   3.193
 3388SOL    HW111174   3.742   3.508   3.159
 3388SOL    HW211175   3.886   3.445   3.202
 3389SOL     OW11176   4.091   2.962   2.363
 3389SOL    HW111177   4.084   3.045   2.307
 3389SOL    HW211178   4.095   2.882   2.303
 3390SOL     OW11179   4.290   2.399   2.727
 3390SOL    HW111180   4.302   2.465   2.653
 3390SOL    HW211181   4.336   2.433   2.810
 3391SOL     OW11182   4.976   3.210   2.250
 3391SOL    HW111183   5.026   3.287   2.290
 3391SOL    HW211184   4.881   3.212   2.282
 3392SOL     OW11185   4.078   3.372   3.191
 3392SOL    HW111186   4.057   3.328   3.104
 3392SOL    HW211187   4.175   3.398   3.194
 3393SOL     OW11188   4.126   2.613   3.460
 3393SOL    HW111189   4.194   2.668   3.413
 3393SOL    HW211190   4.166   2.525   3.487
 3394SOL     OW11191   4.228   1.912   3.602
 3394SOL    HW111192   4.186   1.855   3.532
 3394SOL    HW211193   4.162   1.981   3.634
 3395SOL     OW11194   4.297   2.732   2.891
 3395SOL    HW111195   4.341   2.821   2.882
 3395SOL    HW211196   4.234   2.732   2.968
 3396SOL     OW11197   5.084   2.724   2.907
 3396SOL    HW111198   5.009   2.724   2.841
 3396SOL    HW211199   5.121   2.632   2.916
 3397SOL     OW11200   4.933   2.387   2.137
 3397SOL    HW111201   4.946   2.303   2.191
 3397SOL    HW211202   4.904   2.461   2.197
 3398SOL     OW11203   4.031   2.075   3.093
 3398SOL    HW111204   4.008   2.112   3.183
 3398SOL    HW211205   4.001   1.980   3.087
 3399SOL     OW11206   3.761   3.172   3.144
 3399SOL    HW111207   3.814   3.123   3.212
 3399SOL    HW211208   3.783   3.270   3.149
 3400SOL     OW11209   4.456   2.496   2.926
 3400SOL    HW111210   4.515   2.470   2.850
 3400SOL    HW211211   4.428   2.592   2.915
 3401SOL     OW11212   4.031   1.925   2.480
 3401SOL    HW111213   4.020   2.019   2.513
 3401SOL    HW211214   4.026   1.862   2.557
 3402SOL     OW11215   5.346   2.229   2.236
 3402SOL    HW111216   5.348   2.153   2.300
 3402SOL    HW211217   5.298   2.306   2.276
 3403SOL     OW11218   4.747   2.628   2.828
 3403SOL    HW111219   4.762   2.649   2.924
 3403SOL    HW211220   4.717   2.533   2.819
 3404SOL     OW11221   4.704   3.435   3.562
 3404SOL    HW111222   4.684   3.479   3.474
 3404SOL    HW211223   4.743   3.344   3.546
 3405SOL     OW11224   4.074   2.760   3.666
 3405SOL    HW111225   4.150   2.804   3.714
 3405SOL    HW211226   4.109   2.713   3.584
 3406SOL     OW11227   5.027   2.700   1.904
 3406SOL    HW111228   5.061   2.607   1.919
 3406SOL    HW211229   5.045   2.727   1.809
 3407SOL     OW11230   4.792   3.195   2.711
 3407SOL    HW111231   4.799   3.111   2.656
 3407SOL    HW211232   4.854   3.264   2.675
 3408SOL     OW11233   4.043   2.672   2.811
 3408SOL    HW111234   4.136   2.708   2.816
 3408SOL    HW211235   4.037   2.587   2.863
 3409SOL     OW11236   4.063   2.371   2.868
 3409SOL    HW111237   4.011   2.288   2.851
 3409SOL    HW211238   4.140   2.376   2.804
 3410SOL     OW11239   4.862   2.242   3.540
 3410SOL    HW111240   4.817   2.305   3.604
 3410SOL    HW211241   4.955   2.273   3.523
 3411SOL     OW11242   4.884   2.069   3.339
 3411SOL    HW111243   4.884   2.133   3.416
 3411SOL    HW211244   4.912   2.117   3.256
 3412SOL     OW11245   3.732   3.188   2.062
 3412SOL    HW111246   3.639   3.209   2.031
 3412SOL    HW211247   3.742   3.089   2.075
 3413SOL     OW11248   3.812   3.663   2.789
 3413SOL    HW111249   3.770   3.577   2.762
 3413SOL    HW211250   3.906   3.666   2.755
 3414SOL     OW11251   4.228   3.430   2.772
 3414SOL    HW111252   4.294   3.504   2.781
 3414SOL    HW211253   4.272   3.351   2.730
 3415SOL     OW11254   4.726   2.658   3.100
 3415SOL    HW111255   4.767   2.626   3.186
 3415SOL    HW211256   4.630   2.631   3.097
 3416SOL     OW11257   3.764   2.406   2.976
 3416SOL    HW111258   3.849   2.373   2.935
 3416SOL    HW211259   3.777   2.421   3.074
 3417SOL     OW11260   3.913   2.382   3.584
 3417SOL    HW111261   3.972   2.342   3.514
 3417SOL    HW211262   3.855   2.453   3.543
 3418SOL     OW11263   4.539   2.434   2.187
 3418SOL    HW111264   4.546   2.345   2.141
 3418SOL    HW211265   4.445   2.468   2.179
 3419SOL     OW11266   3.976   3.426   3.606
 3419SOL    HW111267   3.946   3.483   3.682
 3419SOL    HW211268   3.969   3.329   3.632
 3420SOL     OW11269   4.395   2.326   3.131
 3420SOL    HW111270   4.361   2.237   3.101
 3420SOL    HW211271   4.421   2.380   3.051
 3421SOL     OW11272   4.654   3.540   3.327
 3421SOL    HW111273   4.630   3.522   3.232
 3421SOL    HW211274   4.684   3.634   3.337
 3422SOL     OW11275   3.883   2.999   3.328
 3422SOL    HW111276   3.905   2.938   3.404
 3422SOL    HW211277   3.893   2.950   3.242
 3423SOL     OW11278   5.071   2.921   3.096
 3423SOL    HW111279   5.095   2.858   3.022
 3423SOL    HW211280   4.981   2.961   3.078
 3424SOL     OW11281   4.976   3.593   2.990
 3424SOL    HW111282   5.060   3.598   2.936
 3424SOL    HW211283   4.953   3.497   3.008
 3425SOL     OW11284   3.807   3.120   2.884
 3425SOL    HW111285   3.802   3.119   2.984
 3425SOL    HW211286   3.724   3.079   2.846
 3426SOL     OW11287   4.412   3.524   3.578
 3426SOL    HW111288   4.356   3.605   3.587
 3426SOL    HW211289   4.464   3.528   3.492
 3427SOL     OW11290   5.112   3.435   2.339
 3427SOL    HW111291   5.179   3.447   2.265
 3427SOL    HW211292   5.072   3.524   2.362
 3428SOL     OW11293   3.854   3.656   3.713
 3428SOL    HW111294   3.813   3.582   3.766
 3428SOL    HW211295   3.918   3.707   3.771
 3429SOL     OW11296   5.004   2.789   2.534
 3429SOL    HW111297   5.064   2.708   2.536
 3429SOL    HW211298   5.044   2.858   2.474
 3430SOL     OW11299   4.554   3.135   3.284
 3430SOL    HW111300   4.549   3.168   3.379
 3430SOL    HW211301   4.468   3.154   3.238
 3431SOL     OW11302   4.396   3.478   2.016
 3431SOL    HW111303   4.405   3.488   1.917
 3431SOL    HW211304   4.356   3.389   2.037
 3432SOL     OW11305   3.987   2.188   2.582
 3432SOL    HW111306   3.908   2.239   2.548
 3432SOL    HW211307   3.978   2.173   2.680
 3433SOL     OW11308   4.546   2.864   3.234
 3433SOL    HW111309   4.586   2.863   3.142
 3433SOL    HW211310   4.556   2.956   3.274
 3434SOL     OW11311   4.640   2.772   2.153
 3434SOL    HW111312   4.703   2.810   2.085
 3434SOL    HW211313   4.680   2.689   2.192
 3435SOL     OW11314   4.096   3.150   3.352
 3435SOL    HW111315   4.083   3.243   3.318
 3435SOL    HW211316   4.012   3.098   3.339
 3436SOL     OW11317   4.763   2.960   2.558
 3436SOL    HW111318   4.693   2.913   2.612
 3436SOL    HW211319   4.822   2.892   2.515
 3437SOL     OW11320   4.738   2.098   2.833
 3437SOL    HW111321   4.730   2.062   2.740
 3437SOL    HW211322   4.736   2.022   2.898
 3438SOL     OW11323   4.314   3.349   2.353
 3438SOL    HW111324   4.356   3.291   2.283
 3438SOL    HW211325   4.270   3.428   2.309
 3439SOL     OW11326   3.979   3.210   2.152
 3439SOL    HW111327   3.883   3.211   2.125
 3439SOL    HW211328   3.991   3.263   2.236
 3440SOL     OW11329   3.829   2.875   3.588
 3440SOL    HW111330   3.752   2.842   3.642
 3440SOL    HW211331   3.914   2.845   3.630
 3441SOL     OW11332   4.396   2.065   3.351
 3441SOL    HW111333   4.486   2.049   3.311
 3441SOL    HW211334   4.404   2.070   3.450
 3442SOL     OW11335   3.799   2.207   1.895
 3442SOL    HW111336   3.707   2.179   1.866
 3442SOL    HW211337   3.830   2.284   1.839
 3443SOL     OW11338   5.164   2.718   3.260
 3443SOL    HW111339   5.107   2.770   3.197
 3443SOL    HW211340   5.260   2.730   3.236
 3444SOL     OW11341   3.796   2.028   2.180
 3444SOL    HW111342   3.779   2.111   2.126
 3444SOL    HW211343   3.886   1.991   2.158
 3445SOL     OW11344   4.337   2.704   3.293
 3445SOL    HW111345   4.393   2.785   3.276
 3445SOL    HW211346   4.396   2.624   3.296
 3446SOL     OW11347   4.440   2.427   3.570
 3446SOL    HW111348   4.459   2.492   3.644
 3446SOL    HW211349   4.500   2.347   3.579
 3447SOL     OW11350   4.114   3.603   3.422
 3447SOL    HW111351   4.023   3.644   3.420
 3447SOL    HW211352   4.107   3.509   3.454
 3448SOL     OW11353   4.949   2.187   2.311
 3448SOL    HW111354   5.014   2.113   2.300
 3448SOL    HW211355   4.969   2.237   2.395
 3449SOL     OW11356   4.318   2.607   2.514
 3449SOL    HW111357   4.368   2.692   2.495
 3449SOL    HW211358   4.230   2.609   2.466
 3450SOL     OW11359   4.583   3.236   1.878
 3450SOL    HW111360   4.537   3.251   1.966
 3450SOL    HW211361   4.627   3.321   1.848
 3451SOL     OW11362   4.385   3.652   2.815
 3451SOL    HW111363   4.339   3.740   2.802
 3451SOL    HW211364   4.484   3.664   2.808
 3452SOL     OW11365   4.583   2.818   2.723
 3452SOL    HW111366   4.637   2.749   2.771
 3452SOL    HW211367   4.551   2.887   2.789
 3453SOL     OW11368   4.807   2.846   1.949
 3453SOL    HW111369   4.784   2.899   1.867
 3453SOL    HW211370   4.888   2.790   1.930
 3454SOL     OW11371   3.945   3.176   3.706
 3454SOL    HW111372   3.880   3.103   3.685
 3454SOL    HW211373   3.949   3.190   3.804
 3455SOL     OW11374   3.803   3.102   2.515
 3455SOL    HW111375   3.802   3.055   2.603
 3455SOL    HW211376   3.885   3.074   2.464
 3456SOL     OW11377   4.396   3.253   3.486
 3456SOL    HW111378   4.318   3.203   3.524
 3456SOL    HW211379   4.393   3.348   3.517
 3457SOL     OW11380   4.152   2.286   2.382
 3457SOL    HW111381   4.182   2.214   2.320
 3457SOL    HW211382   4.113   2.246   2.465
 3458SOL     OW11383   4.041   2.409   3.142
 3458SOL    HW111384   4.079   2.350   3.214
 3458SOL    HW211385   4.081   2.383   3.054
 3459SOL     OW11386   4.536   3.448   2.549
 3459SOL    HW111387   4.568   3.458   2.455
 3459SOL    HW211388   4.457   3.386   2.551
 3460SOL     OW11389   4.725   1.896   3.016
 3460SOL    HW111390   4.662   1.824   2.985
 3460SOL    HW211391   4.818   1.860   3.016
 3461SOL     OW11392   4.494   3.192   2.163
 3461SOL    HW111393   4.448   3.105   2.180
 3461SOL    HW211394   4.585   3.189   2.204
 3462SOL     OW11395   4.342   3.429   3.146
 3462SOL    HW111396   4.337   3.511   3.203
 3462SOL    HW211397   4.431   3.426   3.101
 3463SOL     OW11398   5.076   1.914   2.030
 3463SOL    HW111399   5.111   1.873   1.946
 3463SOL    HW211400   4.986   1.876   2.050
 3464SOL     OW11401   3.763   2.939   2.162
 3464SOL    HW111402   3.862   2.928   2.153
 3464SOL    HW211403   3.723   2.853   2.194
 3465SOL     OW11404   4.599   3.508   2.199
 3465SOL    HW111405   4.522   3.473   2.145
 3465SOL    HW211406   4.567   3.579   2.261
 3466SOL     OW11407   3.954   2.490   3.837
 3466SOL    HW111408   3.861   2.488   3.874
 3466SOL    HW211409   3.955   2.451   3.745
 3467SOL     OW11410   3.949   2.137   4.720
 3467SOL    HW111411   3.984   2.120   4.812
 3467SOL    HW211412   3.861   2.092   4.708
 3468SOL     OW11413   3.743   2.230   4.371
 3468SOL    HW111414   3.661   2.273   4.410
 3468SOL    HW211415   3.715   2.157   4.308
 3469SOL     OW11416   4.293   3.137   4.889
 3469SOL    HW111417   4.200   3.130   4.852
 3469SOL    HW211418   4.304   3.226   4.933
 3470SOL     OW11419   4.859   2.565   4.441
 3470SOL    HW111420   4.916   2.643   4.416
 3470SOL    HW211421   4.799   2.591   4.517
 3471SOL     OW11422   4.492   3.006   4.747
 3471SOL    HW111423   4.414   3.023   4.807
 3471SOL    HW211424   4.526   3.093   4.711
 3472SOL     OW11425   4.409   2.874   4.389
 3472SOL    HW111426   4.478   2.858   4.459
 3472SOL    HW211427   4.336   2.931   4.427
 3473SOL     OW11428   4.059   3.297   4.785
 3473SOL    HW111429   3.981   3.266   4.732
 3473SOL    HW211430   4.117   3.355   4.728
 3474SOL     OW11431   3.955   3.575   4.207
 3474SOL    HW111432   3.989   3.652   4.261
 3474SOL    HW211433   3.999   3.575   4.117
 3475SOL     OW11434   3.954   3.296   4.262
 3475SOL    HW111435   3.928   3.392   4.262
 3475SOL    HW211436   3.883   3.242   4.307
 3476SOL     OW11437   3.964   2.953   4.610
 3476SOL    HW111438   3.978   2.869   4.662
 3476SOL    HW211439   3.909   3.017   4.665
 3477SOL     OW11440   4.344   3.648   5.163
 3477SOL    HW111441   4.252   3.631   5.198
 3477SOL    HW211442   4.372   3.740   5.189
 3478SOL     OW11443   4.330   2.826   3.847
 3478SOL    HW111444   4.337   2.910   3.793
 3478SOL    HW211445   4.376   2.839   3.935
 3479SOL     OW11446   3.846   2.505   4.287
 3479SOL    HW111447   3.801   2.417   4.304
 3479SOL    HW211448   3.845   2.559   4.371
 3480SOL     OW11449   3.751   3.458   3.841
 3480SOL    HW111450   3.732   3.362   3.862
 3480SOL    HW211451   3.718   3.516   3.916
 3481SOL     OW11452   4.337   3.227   4.450
 3481SOL    HW111453   4.288   3.140   4.459
 3481SOL    HW211454   4.314   3.270   4.363
 3482SOL     OW11455   4.533   1.866   4.226
 3482SOL    HW111456   4.573   1.957   4.217
 3482SOL    HW211457   4.433   1.874   4.232
 3483SOL     OW11458   3.921   2.838   4.988
 3483SOL    HW111459   4.010   2.793   4.974
 3483SOL    HW211460   3.848   2.773   4.969
 3484SOL     OW11461   4.322   2.591   3.994
 3484SOL    HW111462   4.346   2.660   3.926
 3484SOL    HW211463   4.244   2.624   4.048
 3485SOL     OW11464   4.765   2.563   4.153
 3485SOL    HW111465   4.791   2.559   4.249
 3485SOL    HW211466   4.680   2.512   4.139
 3486SOL     OW11467   3.800   2.673   4.513
 3486SOL    HW111468   3.899   2.661   4.522
 3486SOL    HW211469   3.776   2.768   4.534
 3487SOL     OW11470   4.589   2.210   3.919
 3487SOL    HW111471   4.648   2.273   3.870
 3487SOL    HW211472   4.608   2.116   3.890
 3488SOL     OW11473   4.274   2.058   4.609
 3488SOL    HW111474   4.269   2.053   4.709
 3488SOL    HW211475   4.276   2.154   4.580
 3489SOL     OW11476   4.732   3.318   4.201
 3489SOL    HW111477   4.686   3.390   4.149
 3489SOL    HW211478   4.728   3.338   4.299
 3490SOL     OW11479   4.075   3.663   4.577
 3490SOL    HW111480   4.125   3.577   4.583
 3490SOL    HW211481   4.140   3.740   4.574
 3491SOL     OW11482   4.045   2.805   3.966
 3491SOL    HW111483   4.127   2.844   3.924
 3491SOL    HW211484   4.018   2.723   3.917
 3492SOL     OW11485   4.835   3.638   3.961
 3492SOL    HW111486   4.775   3.576   4.011
 3492SOL    HW211487   4.866   3.594   3.876
 3493SOL     OW11488   4.188   3.605   4.047
 3493SOL    HW111489   4.221   3.644   4.133
 3493SOL    HW211490   4.264   3.598   3.982
 3494SOL     OW11491   3.973   3.647   4.965
 3494SOL    HW111492   4.030   3.582   5.015
 3494SOL    HW211493   3.957   3.614   4.872
 3495SOL     OW11494   4.664   3.560   4.628
 3495SOL    HW111495   4.744   3.503   4.649
 3495SOL    HW211496   4.615   3.520   4.551
 3496SOL     OW11497   4.106   2.562   4.204
 3496SOL    HW111498   4.151   2.472   4.201
 3496SOL    HW211499   4.012   2.551   4.237
 3497SOL     OW11500   4.338   1.984   3.841
 3497SOL    HW111501   4.436   1.962   3.848
 3497SOL    HW211502   4.307   1.967   3.748
 3498SOL     OW11503   4.527   3.264   4.648
 3498SOL    HW111504   4.617   3.278   4.606
 3498SOL    HW211505   4.456   3.266   4.577
 3499SOL     OW11506   4.646   2.365   4.623
 3499SOL    HW111507   4.621   2.356   4.527
 3499SOL    HW211508   4.694   2.283   4.654
 3500SOL     OW11509   4.263   1.926   4.236
 3500SOL    HW111510   4.182   1.927   4.294
 3500SOL    HW211511   4.266   2.009   4.181
 3501SOL     OW11512   4.021   1.897   3.895
 3501SOL    HW111513   4.070   1.981   3.874
 3501SOL    HW211514   4.083   1.832   3.940
 3502SOL     OW11515   4.659   2.098   4.204
 3502SOL    HW111516   4.611   2.139   4.126
 3502SOL    HW211517   4.758   2.096   4.185
 3503SOL     OW11518   4.951   3.432   4.517
 3503SOL    HW111519   4.972   3.506   4.452
 3503SOL    HW211520   5.019   3.432   4.590
 3504SOL     OW11521   4.183   3.014   4.465
 3504SOL    HW111522   4.112   2.987   4.530
 3504SOL    HW211523   4.157   2.986   4.372
 3505SOL     OW11524   4.995   3.659   4.315
 3505SOL    HW111525   5.039   3.723   4.251
 3505SOL    HW211526   4.945   3.711   4.385
 3506SOL     OW11527   4.756   2.411   3.740
 3506SOL    HW111528   4.715   2.493   3.701
 3506SOL    HW211529   4.820   2.437   3.813
 3507SOL     OW11530   4.285   2.084   4.871
 3507SOL    HW111531   4.323   2.000   4.908
 3507SOL    HW211532   4.197   2.103   4.915
 3508SOL     OW11533   4.590   2.316   4.366
 3508SOL    HW111534   4.558   2.388   4.304
 3508SOL    HW211535   4.614   2.235   4.313
 3509SOL     OW11536   4.741   1.901   4.477
 3509SOL    HW111537   4.669   1.906   4.408
 3509SOL    HW211538   4.717   1.832   4.546
 3510SOL     OW11539   4.212   3.247   3.898
 3510SOL    HW111540   4.125   3.232   3.945
 3510SOL    HW211541   4.195   3.273   3.803
 3511SOL     OW11542   5.388   3.142   4.381
 3511SOL    HW111543   5.487   3.150   4.395
 3511SOL    HW211544   5.343   3.226   4.412
 3512SOL     OW11545   4.251   2.118   4.052
 3512SOL    HW111546   4.278   2.059   3.977
 3512SOL    HW211547   4.251   2.213   4.021
 3513SOL     OW11548   5.316   3.491   5.349
 3513SOL    HW111549   5.343   3.525   5.259
 3513SOL    HW211550   5.395   3.453   5.395
 3514SOL     OW11551   4.835   3.057   4.824
 3514SOL    HW111552   4.795   3.101   4.905
 3514SOL    HW211553   4.794   3.094   4.741
 3515SOL     OW11554   4.429   2.912   4.092
 3515SOL    HW111555   4.415   2.919   4.191
 3515SOL    HW211556   4.513   2.861   4.074
 3516SOL     OW11557   4.134   2.675   4.975
 3516SOL    HW111558   4.220   2.687   5.025
 3516SOL    HW211559   4.092   2.588   5.002
 3517SOL     OW11560   4.091   2.962   4.225
 3517SOL    HW111561   4.084   3.045   4.169
 3517SOL    HW211562   4.095   2.882   4.165
 3518SOL     OW11563   4.290   2.399   4.589
 3518SOL    HW111564   4.302   2.465   4.515
 3518SOL    HW211565   4.336   2.433   4.672
 3519SOL     OW11566   4.976   3.210   4.112
 3519SOL    HW111567   5.026   3.287   4.152
 3519SOL    HW211568   4.881   3.212   4.144
 3520SOL     OW11569   4.078   3.372   5.053
 3520SOL    HW111570   4.057   3.328   4.966
 3520SOL    HW211571   4.175   3.398   5.056
 3521SOL     OW11572   4.297   2.732   4.753
 3521SOL    HW111573   4.341   2.821   4.744
 3521SOL    HW211574   4.234   2.732   4.830
 3522SOL     OW11575   5.084   2.724   4.769
 3522SOL    HW111576   5.009   2.724   4.703
 3522SOL    HW211577   5.121   2.632   4.778
 3523SOL     OW11578   4.933   2.387   3.999
 3523SOL    HW111579   4.946   2.303   4.053
 3523SOL    HW211580   4.904   2.461   4.059
 3524SOL     OW11581   4.031   2.075   4.955
 3524SOL    HW111582   4.008   2.112   5.045
 3524SOL    HW211583   4.001   1.980   4.949
 3525SOL     OW11584   3.761   3.172   5.006
 3525SOL    HW111585   3.814   3.123   5.074
 3525SOL    HW211586   3.783   3.270   5.011
 3526SOL     OW11587   4.031   1.925   4.342
 3526SOL    HW111588   4.020   2.019   4.375
 3526SOL    HW211589   4.026   1.862   4.419
 3527SOL     OW11590   5.346   2.229   4.098
 3527SOL    HW111591   5.348   2.153   4.162
 3527SOL    HW211592   5.298   2.306   4.138
 3528SOL     OW11593   4.747   2.628   4.690
 3528SOL    HW111594   4.762   2.649   4.786
 3528SOL    HW211595   4.717   2.533   4.681
 3529SOL     OW11596   5.027   2.700   3.766
 3529SOL    HW111597   5.061   2.607   3.781
 3529SOL    HW211598   5.045   2.727   3.671
 3530SOL     OW11599   4.792   3.195   4.573
 3530SOL    HW111600   4.799   3.111   4.518
 3530SOL    HW211601   4.854   3.264   4.537
 3531SOL     OW11602   4.043   2.672   4.673
 3531SOL    HW111603   4.136   2.708   4.678
 3531SOL    HW211604   4.037   2.587   4.725
 3532SOL     OW11605   4.063   2.371   4.730
 3532SOL    HW111606   4.011   2.288   4.713
 3532SOL    HW211607   4.140   2.376   4.666
 3533SOL     OW11608   4.884   2.069   5.201
 3533SOL    HW111609   4.884   2.133   5.278
 3533SOL    HW211610   4.912   2.117   5.118
 3534SOL     OW11611   3.732   3.188   3.924
 3534SOL    HW111612   3.639   3.209   3.893
 3534SOL    HW211613   3.742   3.089   3.937
 3535SOL     OW11614   3.812   3.663   4.651
 3535SOL    HW111615   3.770   3.577   4.624
 3535SOL    HW211616   3.906   3.666   4.617
 3536SOL     OW11617   4.228   3.430   4.634
 3536SOL    HW111618   4.294   3.504   4.643
 3536SOL    HW211619   4.272   3.351   4.592
 3537SOL     OW11620   3.764   2.406   4.838
 3537SOL    HW111621   3.849   2.373   4.797
 3537SOL    HW211622   3.777   2.421   4.936
 3538SOL     OW11623   4.539   2.434   4.049
 3538SOL    HW111624   4.546   2.345   4.003
 3538SOL    HW211625   4.445   2.468   4.041
 3539SOL     OW11626   4.654   3.540   5.189
 3539SOL    HW111627   4.630   3.522   5.094
 3539SOL    HW211628   4.684   3.634   5.199
 3540SOL     OW11629   4.197   2.362   3.915
 3540SOL    HW111630   4.258   2.442   3.919
 3540SOL    HW211631   4.102   2.393   3.922
 3541SOL     OW11632   5.071   2.921   4.958
 3541SOL    HW111633   5.095   2.858   4.884
 3541SOL    HW211634   4.981   2.961   4.940
 3542SOL     OW11635   4.976   3.593   4.852
 3542SOL    HW111636   5.060   3.598   4.798
 3542SOL    HW211637   4.953   3.497   4.870
 3543SOL     OW11638   3.807   3.120   4.746
 3543SOL    HW111639   3.802   3.119   4.846
 3543SOL    HW211640   3.724   3.079   4.708
 3544SOL     OW11641   5.112   3.435   4.201
 3544SOL    HW111642   5.179   3.447   4.127
 3544SOL    HW211643   5.072   3.524   4.224
 3545SOL     OW11644   5.004   2.789   4.396
 3545SOL    HW111645   5.064   2.708   4.398
 3545SOL    HW211646   5.044   2.858   4.336
 3546SOL     OW11647   4.396   3.478   3.878
 3546SOL    HW111648   4.405   3.488   3.779
 3546SOL    HW211649   4.356   3.389   3.899
 3547SOL     OW11650   3.987   2.188   4.444
 3547SOL    HW111651   3.908   2.239   4.410
 3547SOL    HW211652   3.978   2.173   4.542
 3548SOL     OW11653   4.918   3.474   3.755
 3548SOL    HW111654   4.924   3.381   3.792
 3548SOL    HW211655   4.859   3.474   3.675
 3549SOL     OW11656   4.546   2.864   5.096
 3549SOL    HW111657   4.586   2.863   5.004
 3549SOL    HW211658   4.556   2.956   5.136
 3550SOL     OW11659   4.640   2.772   4.015
 3550SOL    HW111660   4.703   2.810   3.947
 3550SOL    HW211661   4.680   2.689   4.054
 3551SOL     OW11662   4.763   2.960   4.420
 3551SOL    HW111663   4.693   2.913   4.474
 3551SOL    HW211664   4.822   2.892   4.377
 3552SOL     OW11665   4.314   3.349   4.215
 3552SOL    HW111666   4.356   3.291   4.145
 3552SOL    HW211667   4.270   3.428   4.171
 3553SOL     OW11668   3.979   3.210   4.014
 3553SOL    HW111669   3.883   3.211   3.987
 3553SOL    HW211670   3.991   3.263   4.098
 3554SOL     OW11671   3.799   2.207   3.757
 3554SOL    HW111672   3.707   2.179   3.728
 3554SOL    HW211673   3.830   2.284   3.701
 3555SOL     OW11674   3.796   2.028   4.042
 3555SOL    HW111675   3.779   2.111   3.988
 3555SOL    HW211676   3.886   1.991   4.020
 3556SOL     OW11677   4.949   2.187   4.173
 3556SOL    HW111678   5.014   2.113   4.162
 3556SOL    HW211679   4.969   2.237   4.257
 3557SOL     OW11680   4.318   2.607   4.376
 3557SOL    HW111681   4.368   2.692   4.357
 3557SOL    HW211682   4.230   2.609   4.328
 3558SOL     OW11683   4.583   3.236   3.740
 3558SOL    HW111684   4.537   3.251   3.828
 3558SOL    HW211685   4.627   3.321   3.710
 3559SOL     OW11686   4.385   3.652   4.677
 3559SOL    HW111687   4.339   3.740   4.664
 3559SOL    HW211688   4.484   3.664   4.670
 3560SOL     OW11689   4.583   2.818   4.585
 3560SOL    HW111690   4.637   2.749   4.633
 3560SOL    HW211691   4.551   2.887   4.651
 3561SOL     OW11692   4.807   2.846   3.811
 3561SOL    HW111693   4.784   2.899   3.729
 3561SOL    HW211694   4.888   2.790   3.792
 3562SOL     OW11695   3.803   3.102   4.377
 3562SOL    HW111696   3.802   3.055   4.465
 3562SOL    HW211697   3.885   3.074   4.326
 3563SOL     OW11698   4.152   2.286   4.244
 3563SOL    HW111699   4.182   2.214   4.182
 3563SOL    HW211700   4.113   2.246   4.327
 3564SOL     OW11701   4.536   3.448   4.411
 3564SOL    HW111702   4.568   3.458   4.317
 3564SOL    HW211703   4.457   3.386   4.413
 3565SOL     OW11704   4.725   1.896   4.878
 3565SOL    HW111705   4.662   1.824   4.847
 3565SOL    HW211706   4.818   1.860   4.878
 3566SOL     OW11707   4.494   3.192   4.025
 3566SOL    HW111708   4.448   3.105   4.042
 3566SOL    HW211709   4.585   3.189   4.066
 3567SOL     OW11710   5.076   1.914   3.892
 3567SOL    HW111711   5.111   1.873   3.808
 3567SOL    HW211712   4.986   1.876   3.912
 3568SOL     OW11713   3.763   2.939   4.024
 3568SOL    HW111714   3.862   2.928   4.015
 3568SOL    HW211715   3.723   2.853   4.056
 3569SOL     OW11716   4.599   3.508   4.061
 3569SOL    HW111717   4.522   3.473   4.007
 3569SOL    HW211718   4.567   3.579   4.123
 3570SOL     OW11719   3.954   4.352   0.113
 3570SOL    HW111720   3.861   4.350   0.150
 3570SOL    HW211721   3.955   4.313   0.021
 3571SOL     OW11722   3.949   3.999   0.996
 3571SOL    HW111723   3.984   3.982   1.088
 3571SOL    HW211724   3.861   3.954   0.984
 3572SOL     OW11725   4.293   4.999   1.165
 3572SOL    HW111726   4.200   4.992   1.128
 3572SOL    HW211727   4.304   5.088   1.209
 3573SOL     OW11728   4.859   4.427   0.717
 3573SOL    HW111729   4.916   4.505   0.692
 3573SOL    HW211730   4.799   4.453   0.793
 3574SOL     OW11731   4.492   4.868   1.023
 3574SOL    HW111732   4.414   4.885   1.083
 3574SOL    HW211733   4.526   4.955   0.987
 3575SOL     OW11734   4.574   4.522   1.823
 3575SOL    HW111735   4.570   4.598   1.888
 3575SOL    HW211736   4.596   4.558   1.732
 3576SOL     OW11737   4.409   4.736   0.665
 3576SOL    HW111738   4.478   4.720   0.735
 3576SOL    HW211739   4.336   4.793   0.703
 3577SOL     OW11740   4.410   4.885   1.803
 3577SOL    HW111741   4.470   4.964   1.817
 3577SOL    HW211742   4.324   4.916   1.762
 3578SOL     OW11743   4.059   5.159   1.061
 3578SOL    HW111744   3.981   5.128   1.008
 3578SOL    HW211745   4.117   5.217   1.004
 3579SOL     OW11746   4.162   4.116   1.499
 3579SOL    HW111747   4.244   4.060   1.508
 3579SOL    HW211748   4.081   4.058   1.503
 3580SOL     OW11749   3.964   4.815   0.886
 3580SOL    HW111750   3.978   4.731   0.938
 3580SOL    HW211751   3.909   4.879   0.941
 3581SOL     OW11752   4.330   4.688   0.123
 3581SOL    HW111753   4.337   4.772   0.069
 3581SOL    HW211754   4.376   4.701   0.211
 3582SOL     OW11755   3.846   4.367   0.563
 3582SOL    HW111756   3.801   4.279   0.580
 3582SOL    HW211757   3.845   4.421   0.647
 3583SOL     OW11758   3.837   4.461   1.597
 3583SOL    HW111759   3.925   4.448   1.642
 3583SOL    HW211760   3.824   4.558   1.575
 3584SOL     OW11761   5.017   4.952   1.423
 3584SOL    HW111762   5.054   4.879   1.365
 3584SOL    HW211763   5.069   4.957   1.508
 3585SOL     OW11764   4.533   3.728   0.502
 3585SOL    HW111765   4.573   3.819   0.493
 3585SOL    HW211766   4.433   3.736   0.508
 3586SOL     OW11767   3.921   4.700   1.264
 3586SOL    HW111768   4.010   4.655   1.250
 3586SOL    HW211769   3.848   4.635   1.245
 3587SOL     OW11770   4.041   3.975   1.801
 3587SOL    HW111771   4.112   4.046   1.807
 3587SOL    HW211772   3.953   4.014   1.829
 3588SOL     OW11773   4.322   4.453   0.270
 3588SOL    HW111774   4.346   4.522   0.202
 3588SOL    HW211775   4.244   4.486   0.324
 3589SOL     OW11776   4.531   4.329   1.465
 3589SOL    HW111777   4.484   4.326   1.554
 3589SOL    HW211778   4.480   4.274   1.399
 3590SOL     OW11779   4.697   4.614   1.572
 3590SOL    HW111780   4.743   4.530   1.543
 3590SOL    HW211781   4.641   4.648   1.497
 3591SOL     OW11782   4.715   4.134   1.242
 3591SOL    HW111783   4.638   4.168   1.296
 3591SOL    HW211784   4.681   4.083   1.163
 3592SOL     OW11785   4.765   4.425   0.429
 3592SOL    HW111786   4.791   4.421   0.525
 3592SOL    HW211787   4.680   4.374   0.415
 3593SOL     OW11788   3.800   4.535   0.789
 3593SOL    HW111789   3.899   4.523   0.798
 3593SOL    HW211790   3.776   4.630   0.810
 3594SOL     OW11791   4.589   4.072   0.195
 3594SOL    HW111792   4.648   4.135   0.146
 3594SOL    HW211793   4.608   3.978   0.166
 3595SOL     OW11794   4.274   3.920   0.885
 3595SOL    HW111795   4.269   3.915   0.985
 3595SOL    HW211796   4.276   4.016   0.856
 3596SOL     OW11797   4.045   4.667   0.242
 3596SOL    HW111798   4.127   4.706   0.200
 3596SOL    HW211799   4.018   4.585   0.193
 3597SOL     OW11800   3.926   4.009   1.498
 3597SOL    HW111801   3.846   4.069   1.485
 3597SOL    HW211802   3.916   3.960   1.584
 3598SOL     OW11803   4.106   4.424   0.480
 3598SOL    HW111804   4.151   4.334   0.477
 3598SOL    HW211805   4.012   4.413   0.513
 3599SOL     OW11806   4.505   3.988   1.749
 3599SOL    HW111807   4.572   3.927   1.792
 3599SOL    HW211808   4.432   4.007   1.814
 3600SOL     OW11809   4.527   5.126   0.924
 3600SOL    HW111810   4.617   5.140   0.882
 3600SOL    HW211811   4.456   5.128   0.853
 3601SOL     OW11812   4.263   3.788   0.512
 3601SOL    HW111813   4.182   3.789   0.570
 3601SOL    HW211814   4.266   3.871   0.457
 3602SOL     OW11815   4.021   3.759   0.171
 3602SOL    HW111816   4.070   3.843   0.150
 3602SOL    HW211817   4.083   3.694   0.216
 3603SOL     OW11818   4.659   3.960   0.480
 3603SOL    HW111819   4.611   4.001   0.402
 3603SOL    HW211820   4.758   3.958   0.461
 3604SOL     OW11821   4.800   4.407   1.464
 3604SOL    HW111822   4.720   4.346   1.467
 3604SOL    HW211823   4.881   4.354   1.440
 3605SOL     OW11824   4.951   5.294   0.793
 3605SOL    HW111825   4.972   5.368   0.728
 3605SOL    HW211826   5.019   5.294   0.866
 3606SOL     OW11827   4.183   4.876   0.741
 3606SOL    HW111828   4.112   4.849   0.806
 3606SOL    HW211829   4.157   4.848   0.648
 3607SOL     OW11830   4.756   4.273   0.016
 3607SOL    HW111831   4.715   4.355  -0.023
 3607SOL    HW211832   4.820   4.299   0.089
 3608SOL     OW11833   3.802   4.280   1.386
 3608SOL    HW111834   3.894   4.279   1.345
 3608SOL    HW211835   3.796   4.354   1.453
 3609SOL     OW11836   4.285   3.946   1.147
 3609SOL    HW111837   4.323   3.862   1.184
 3609SOL    HW211838   4.197   3.965   1.191
 3610SOL     OW11839   4.590   4.178   0.642
 3610SOL    HW111840   4.558   4.250   0.580
 3610SOL    HW211841   4.614   4.097   0.589
 3611SOL     OW11842   4.741   3.763   0.753
 3611SOL    HW111843   4.669   3.768   0.684
 3611SOL    HW211844   4.717   3.694   0.822
 3612SOL     OW11845   4.251   3.980   0.328
 3612SOL    HW111846   4.278   3.921   0.253
 3612SOL    HW211847   4.251   4.075   0.297
 3613SOL     OW11848   4.639   3.813   1.402
 3613SOL    HW111849   4.664   3.793   1.307
 3613SOL    HW211850   4.711   3.869   1.444
 3614SOL     OW11851   4.704   4.840   1.719
 3614SOL    HW111852   4.605   4.846   1.729
 3614SOL    HW211853   4.727   4.760   1.663
 3615SOL     OW11854   4.429   4.774   0.368
 3615SOL    HW111855   4.415   4.781   0.467
 3615SOL    HW211856   4.513   4.723   0.350
 3616SOL     OW11857   4.134   4.537   1.251
 3616SOL    HW111858   4.220   4.549   1.301
 3616SOL    HW211859   4.092   4.450   1.278
 3617SOL     OW11860   4.998   4.110   1.262
 3617SOL    HW111861   5.019   4.184   1.326
 3617SOL    HW211862   4.909   4.127   1.219
 3618SOL     OW11863   4.091   4.824   0.501
 3618SOL    HW111864   4.084   4.907   0.445
 3618SOL    HW211865   4.095   4.744   0.441
 3619SOL     OW11866   4.290   4.261   0.865
 3619SOL    HW111867   4.302   4.327   0.791
 3619SOL    HW211868   4.336   4.295   0.948
 3620SOL     OW11869   4.976   5.072   0.388
 3620SOL    HW111870   5.026   5.149   0.428
 3620SOL    HW211871   4.881   5.074   0.420
 3621SOL     OW11872   4.126   4.475   1.598
 3621SOL    HW111873   4.194   4.530   1.551
 3621SOL    HW211874   4.166   4.387   1.625
 3622SOL     OW11875   4.737   3.829   1.770
 3622SOL    HW111876   4.743   3.914   1.718
 3622SOL    HW211877   4.769   3.753   1.713
 3623SOL     OW11878   4.228   3.774   1.740
 3623SOL    HW111879   4.186   3.717   1.670
 3623SOL    HW211880   4.162   3.843   1.772
 3624SOL     OW11881   4.297   4.594   1.029
 3624SOL    HW111882   4.341   4.683   1.020
 3624SOL    HW211883   4.234   4.594   1.106
 3625SOL     OW11884   5.084   4.586   1.045
 3625SOL    HW111885   5.009   4.586   0.979
 3625SOL    HW211886   5.121   4.494   1.054
 3626SOL     OW11887   4.933   4.249   0.275
 3626SOL    HW111888   4.946   4.165   0.329
 3626SOL    HW211889   4.904   4.323   0.335
 3627SOL     OW11890   4.031   3.937   1.231
 3627SOL    HW111891   4.008   3.974   1.321
 3627SOL    HW211892   4.001   3.842   1.225
 3628SOL     OW11893   4.456   4.358   1.064
 3628SOL    HW111894   4.515   4.332   0.988
 3628SOL    HW211895   4.428   4.454   1.053
 3629SOL     OW11896   4.031   3.787   0.618
 3629SOL    HW111897   4.020   3.881   0.651
 3629SOL    HW211898   4.026   3.724   0.695
 3630SOL     OW11899   5.346   4.091   0.374
 3630SOL    HW111900   5.348   4.015   0.438
 3630SOL    HW211901   5.298   4.168   0.414
 3631SOL     OW11902   4.747   4.490   0.966
 3631SOL    HW111903   4.762   4.511   1.062
 3631SOL    HW211904   4.717   4.395   0.957
 3632SOL     OW11905   4.074   4.622   1.804
 3632SOL    HW111906   4.150   4.666   1.852
 3632SOL    HW211907   4.109   4.575   1.722
 3633SOL     OW11908   5.027   4.562   0.042
 3633SOL    HW111909   5.061   4.469   0.057
 3633SOL    HW211910   5.045   4.589  -0.053
 3634SOL     OW11911   4.043   4.534   0.949
 3634SOL    HW111912   4.136   4.570   0.954
 3634SOL    HW211913   4.037   4.449   1.001
 3635SOL     OW11914   4.063   4.233   1.006
 3635SOL    HW111915   4.011   4.150   0.989
 3635SOL    HW211916   4.140   4.238   0.942
 3636SOL     OW11917   4.862   4.104   1.678
 3636SOL    HW111918   4.817   4.167   1.742
 3636SOL    HW211919   4.955   4.135   1.661
 3637SOL     OW11920   4.884   3.931   1.477
 3637SOL    HW111921   4.884   3.995   1.554
 3637SOL    HW211922   4.912   3.979   1.394
 3638SOL     OW11923   4.726   4.520   1.238
 3638SOL    HW111924   4.767   4.488   1.324
 3638SOL    HW211925   4.630   4.493   1.235
 3639SOL     OW11926   3.764   4.268   1.114
 3639SOL    HW111927   3.849   4.235   1.073
 3639SOL    HW211928   3.777   4.283   1.212
 3640SOL     OW11929   3.913   4.244   1.722
 3640SOL    HW111930   3.972   4.204   1.652
 3640SOL    HW211931   3.855   4.315   1.681
 3641SOL     OW11932   4.539   4.296   0.325
 3641SOL    HW111933   4.546   4.207   0.279
 3641SOL    HW211934   4.445   4.330   0.317
 3642SOL     OW11935   4.395   4.188   1.269
 3642SOL    HW111936   4.361   4.099   1.239
 3642SOL    HW211937   4.421   4.242   1.189
 3643SOL     OW11938   4.197   4.224   0.191
 3643SOL    HW111939   4.258   4.304   0.195
 3643SOL    HW211940   4.102   4.255   0.198
 3644SOL     OW11941   3.883   4.861   1.466
 3644SOL    HW111942   3.905   4.800   1.542
 3644SOL    HW211943   3.893   4.812   1.380
 3645SOL     OW11944   5.071   4.783   1.234
 3645SOL    HW111945   5.095   4.720   1.160
 3645SOL    HW211946   4.981   4.823   1.216
 3646SOL     OW11947   3.807   4.982   1.022
 3646SOL    HW111948   3.802   4.981   1.122
 3646SOL    HW211949   3.724   4.941   0.984
 3647SOL     OW11950   4.627   3.810   0.133
 3647SOL    HW111951   4.678   3.811   0.047
 3647SOL    HW211952   4.683   3.768   0.204
 3648SOL     OW11953   5.004   4.651   0.672
 3648SOL    HW111954   5.064   4.570   0.674
 3648SOL    HW211955   5.044   4.720   0.612
 3649SOL     OW11956   4.554   4.997   1.422
 3649SOL    HW111957   4.549   5.030   1.517
 3649SOL    HW211958   4.468   5.016   1.376
 3650SOL     OW11959   3.987   4.050   0.720
 3650SOL    HW111960   3.908   4.101   0.686
 3650SOL    HW211961   3.978   4.035   0.818
 3651SOL     OW11962   4.546   4.726   1.372
 3651SOL    HW111963   4.586   4.725   1.280
 3651SOL    HW211964   4.556   4.818   1.412
 3652SOL     OW11965   4.640   4.634   0.291
 3652SOL    HW111966   4.703   4.672   0.223
 3652SOL    HW211967   4.680   4.551   0.330
 3653SOL     OW11968   4.096   5.012   1.490
 3653SOL    HW111969   4.083   5.105   1.456
 3653SOL    HW211970   4.012   4.960   1.477
 3654SOL     OW11971   4.763   4.822   0.696
 3654SOL    HW111972   4.693   4.775   0.750
 3654SOL    HW211973   4.822   4.754   0.653
 3655SOL     OW11974   4.738   3.960   0.971
 3655SOL    HW111975   4.730   3.924   0.878
 3655SOL    HW211976   4.736   3.884   1.036
 3656SOL     OW11977   3.829   4.737   1.726
 3656SOL    HW111978   3.752   4.704   1.780
 3656SOL    HW211979   3.914   4.707   1.768
 3657SOL     OW11980   4.396   3.927   1.489
 3657SOL    HW111981   4.486   3.911   1.449
 3657SOL    HW211982   4.404   3.932   1.588
 3658SOL     OW11983   5.164   4.580   1.398
 3658SOL    HW111984   5.107   4.632   1.335
 3658SOL    HW211985   5.260   4.592   1.374
 3659SOL     OW11986   3.796   3.890   0.318
 3659SOL    HW111987   3.779   3.973   0.264
 3659SOL    HW211988   3.886   3.853   0.296
 3660SOL     OW11989   4.337   4.566   1.431
 3660SOL    HW111990   4.393   4.647   1.414
 3660SOL    HW211991   4.396   4.486   1.434
 3661SOL     OW11992   4.440   4.289   1.708
 3661SOL    HW111993   4.459   4.354   1.782
 3661SOL    HW211994   4.500   4.209   1.717
 3662SOL     OW11995   5.174   4.944   1.633
 3662SOL    HW111996   5.165   4.934   1.732
 3662SOL    HW211997   5.270   4.937   1.607
 3663SOL     OW11998   4.318   4.469   0.652
 3663SOL    HW111999   4.368   4.554   0.633
 3663SOL    HW212000   4.230   4.471   0.604
 3664SOL     OW12001   4.583   4.680   0.861
 3664SOL    HW112002   4.637   4.611   0.909
 3664SOL    HW212003   4.551   4.749   0.927
 3665SOL     OW12004   4.807   4.708   0.087
 3665SOL    HW112005   4.784   4.761   0.005
 3665SOL    HW212006   4.888   4.652   0.068
 3666SOL     OW12007   3.803   4.964   0.653
 3666SOL    HW112008   3.802   4.917   0.741
 3666SOL    HW212009   3.885   4.936   0.602
 3667SOL     OW12010   4.152   4.148   0.520
 3667SOL    HW112011   4.182   4.076   0.458
 3667SOL    HW212012   4.113   4.108   0.603
 3668SOL     OW12013   4.041   4.271   1.280
 3668SOL    HW112014   4.079   4.212   1.352
 3668SOL    HW212015   4.081   4.245   1.192
 3669SOL     OW12016   4.725   3.758   1.154
 3669SOL    HW112017   4.662   3.686   1.123
 3669SOL    HW212018   4.818   3.722   1.154
 3670SOL     OW12019   4.494   5.054   0.301
 3670SOL    HW112020   4.448   4.967   0.318
 3670SOL    HW212021   4.585   5.051   0.342
 3671SOL     OW12022   3.763   4.801   0.300
 3671SOL    HW112023   3.862   4.790   0.291
 3671SOL    HW212024   3.723   4.715   0.332
 3672SOL     OW12025   3.954   4.352   1.975
 3672SOL    HW112026   3.861   4.350   2.012
 3672SOL    HW212027   3.955   4.313   1.883
 3673SOL     OW12028   3.949   3.999   2.858
 3673SOL    HW112029   3.984   3.982   2.950
 3673SOL    HW212030   3.861   3.954   2.846
 3674SOL     OW12031   3.743   4.092   2.509
 3674SOL    HW112032   3.661   4.135   2.548
 3674SOL    HW212033   3.715   4.019   2.446
 3675SOL     OW12034   4.293   4.999   3.027
 3675SOL    HW112035   4.200   4.992   2.990
 3675SOL    HW212036   4.304   5.088   3.071
 3676SOL     OW12037   4.859   4.427   2.579
 3676SOL    HW112038   4.916   4.505   2.554
 3676SOL    HW212039   4.799   4.453   2.655
 3677SOL     OW12040   4.574   4.522   3.685
 3677SOL    HW112041   4.570   4.598   3.750
 3677SOL    HW212042   4.596   4.558   3.594
 3678SOL     OW12043   4.409   4.736   2.527
 3678SOL    HW112044   4.478   4.720   2.597
 3678SOL    HW212045   4.336   4.793   2.565
 3679SOL     OW12046   4.410   4.885   3.665
 3679SOL    HW112047   4.470   4.964   3.679
 3679SOL    HW212048   4.324   4.916   3.624
 3680SOL     OW12049   4.059   5.159   2.923
 3680SOL    HW112050   3.981   5.128   2.870
 3680SOL    HW212051   4.117   5.217   2.866
 3681SOL     OW12052   4.162   4.116   3.361
 3681SOL    HW112053   4.244   4.060   3.370
 3681SOL    HW212054   4.081   4.058   3.365
 3682SOL     OW12055   3.964   4.815   2.748
 3682SOL    HW112056   3.978   4.731   2.800
 3682SOL    HW212057   3.909   4.879   2.803
 3683SOL     OW12058   4.330   4.688   1.985
 3683SOL    HW112059   4.337   4.772   1.931
 3683SOL    HW212060   4.376   4.701   2.073
 3684SOL     OW12061   3.846   4.367   2.425
 3684SOL    HW112062   3.801   4.279   2.442
 3684SOL    HW212063   3.845   4.421   2.509
 3685SOL     OW12064   3.837   4.461   3.459
 3685SOL    HW112065   3.925   4.448   3.504
 3685SOL    HW212066   3.824   4.558   3.437
 3686SOL     OW12067   4.533   3.728   2.364
 3686SOL    HW112068   4.573   3.819   2.355
 3686SOL    HW212069   4.433   3.736   2.370
 3687SOL     OW12070   3.921   4.700   3.126
 3687SOL    HW112071   4.010   4.655   3.112
 3687SOL    HW212072   3.848   4.635   3.107
 3688SOL     OW12073   4.041   3.975   3.663
 3688SOL    HW112074   4.112   4.046   3.669
 3688SOL    HW212075   3.953   4.014   3.691
 3689SOL     OW12076   4.322   4.453   2.132
 3689SOL    HW112077   4.346   4.522   2.064
 3689SOL    HW212078   4.244   4.486   2.186
 3690SOL     OW12079   5.005   4.069   2.806
 3690SOL    HW112080   4.919   4.019   2.793
 3690SOL    HW212081   5.067   4.015   2.862
 3691SOL     OW12082   4.531   4.329   3.327
 3691SOL    HW112083   4.484   4.326   3.416
 3691SOL    HW212084   4.480   4.274   3.261
 3692SOL     OW12085   4.697   4.614   3.434
 3692SOL    HW112086   4.743   4.530   3.405
 3692SOL    HW212087   4.641   4.648   3.359
 3693SOL     OW12088   4.715   4.134   3.104
 3693SOL    HW112089   4.638   4.168   3.158
 3693SOL    HW212090   4.681   4.083   3.025
 3694SOL     OW12091   4.765   4.425   2.291
 3694SOL    HW112092   4.791   4.421   2.387
 3694SOL    HW212093   4.680   4.374   2.277
 3695SOL     OW12094   3.800   4.535   2.651
 3695SOL    HW112095   3.899   4.523   2.660
 3695SOL    HW212096   3.776   4.630   2.672
 3696SOL     OW12097   4.589   4.072   2.057
 3696SOL    HW112098   4.648   4.135   2.008
 3696SOL    HW212099   4.608   3.978   2.028
 3697SOL     OW12100   4.274   3.920   2.747
 3697SOL    HW112101   4.269   3.915   2.847
 3697SOL    HW212102   4.276   4.016   2.718
 3698SOL     OW12103   4.045   4.667   2.104
 3698SOL    HW112104   4.127   4.706   2.062
 3698SOL    HW212105   4.018   4.585   2.055
 3699SOL     OW12106   3.926   4.009   3.360
 3699SOL    HW112107   3.846   4.069   3.347
 3699SOL    HW212108   3.916   3.960   3.446
 3700SOL     OW12109   4.106   4.424   2.342
 3700SOL    HW112110   4.151   4.334   2.339
 3700SOL    HW212111   4.012   4.413   2.375
 3701SOL     OW12112   4.338   3.846   1.979
 3701SOL    HW112113   4.436   3.824   1.986
 3701SOL    HW212114   4.307   3.829   1.886
 3702SOL     OW12115   4.505   3.988   3.611
 3702SOL    HW112116   4.572   3.927   3.654
 3702SOL    HW212117   4.432   4.007   3.676
 3703SOL     OW12118   4.527   5.126   2.786
 3703SOL    HW112119   4.617   5.140   2.744
 3703SOL    HW212120   4.456   5.128   2.715
 3704SOL     OW12121   4.646   4.227   2.761
 3704SOL    HW112122   4.621   4.218   2.665
 3704SOL    HW212123   4.694   4.145   2.792
 3705SOL     OW12124   4.263   3.788   2.374
 3705SOL    HW112125   4.182   3.789   2.432
 3705SOL    HW212126   4.266   3.871   2.319
 3706SOL     OW12127   5.158   4.912   1.903
 3706SOL    HW112128   5.190   4.836   1.960
 3706SOL    HW212129   5.066   4.939   1.933
 3707SOL     OW12130   4.021   3.759   2.033
 3707SOL    HW112131   4.070   3.843   2.012
 3707SOL    HW212132   4.083   3.694   2.078
 3708SOL     OW12133   4.659   3.960   2.342
 3708SOL    HW112134   4.611   4.001   2.264
 3708SOL    HW212135   4.758   3.958   2.323
 3709SOL     OW12136   4.800   4.407   3.326
 3709SOL    HW112137   4.720   4.346   3.329
 3709SOL    HW212138   4.881   4.354   3.302
 3710SOL     OW12139   4.951   5.294   2.655
 3710SOL    HW112140   4.972   5.368   2.590
 3710SOL    HW212141   5.019   5.294   2.728
 3711SOL     OW12142   4.183   4.876   2.603
 3711SOL    HW112143   4.112   4.849   2.668
 3711SOL    HW212144   4.157   4.848   2.510
 3712SOL     OW12145   4.756   4.273   1.878
 3712SOL    HW112146   4.715   4.355   1.839
 3712SOL    HW212147   4.820   4.299   1.951
 3713SOL     OW12148   3.802   4.280   3.248
 3713SOL    HW112149   3.894   4.279   3.207
 3713SOL    HW212150   3.796   4.354   3.315
 3714SOL     OW12151   4.285   3.946   3.009
 3714SOL    HW112152   4.323   3.862   3.046
 3714SOL    HW212153   4.197   3.965   3.053
 3715SOL     OW12154   4.590   4.178   2.504
 3715SOL    HW112155   4.558   4.250   2.442
 3715SOL    HW212156   4.614   4.097   2.451
 3716SOL     OW12157   4.741   3.763   2.615
 3716SOL    HW112158   4.669   3.768   2.546
 3716SOL    HW212159   4.717   3.694   2.684
 3717SOL     OW12160   4.251   3.980   2.190
 3717SOL    HW112161   4.278   3.921   2.115
 3717SOL    HW212162   4.251   4.075   2.159
 3718SOL     OW12163   4.639   3.813   3.264
 3718SOL    HW112164   4.664   3.793   3.169
 3718SOL    HW212165   4.711   3.869   3.306
 3719SOL     OW12166   4.704   4.840   3.581
 3719SOL    HW112167   4.605   4.846   3.591
 3719SOL    HW212168   4.727   4.760   3.525
 3720SOL     OW12169   4.429   4.774   2.230
 3720SOL    HW112170   4.415   4.781   2.329
 3720SOL    HW212171   4.513   4.723   2.212
 3721SOL     OW12172   4.134   4.537   3.113
 3721SOL    HW112173   4.220   4.549   3.163
 3721SOL    HW212174   4.092   4.450   3.140
 3722SOL     OW12175   4.998   4.110   3.124
 3722SOL    HW112176   5.019   4.184   3.188
 3722SOL    HW212177   4.909   4.127   3.081
 3723SOL     OW12178   4.091   4.824   2.363
 3723SOL    HW112179   4.084   4.907   2.307
 3723SOL    HW212180   4.095   4.744   2.303
 3724SOL     OW12181   4.290   4.261   2.727
 3724SOL    HW112182   4.302   4.327   2.653
 3724SOL    HW212183   4.336   4.295   2.810
 3725SOL     OW12184   4.976   5.072   2.250
 3725SOL    HW112185   5.026   5.149   2.290
 3725SOL    HW212186   4.881   5.074   2.282
 3726SOL     OW12187   4.126   4.475   3.460
 3726SOL    HW112188   4.194   4.530   3.413
 3726SOL    HW212189   4.166   4.387   3.487
 3727SOL     OW12190   4.737   3.829   3.632
 3727SOL    HW112191   4.743   3.914   3.580
 3727SOL    HW212192   4.769   3.753   3.575
 3728SOL     OW12193   4.228   3.774   3.602
 3728SOL    HW112194   4.186   3.717   3.532
 3728SOL    HW212195   4.162   3.843   3.634
 3729SOL     OW12196   5.084   4.586   2.907
 3729SOL    HW112197   5.009   4.586   2.841
 3729SOL    HW212198   5.121   4.494   2.916
 3730SOL     OW12199   4.933   4.249   2.137
 3730SOL    HW112200   4.946   4.165   2.191
 3730SOL    HW212201   4.904   4.323   2.197
 3731SOL     OW12202   4.031   3.937   3.093
 3731SOL    HW112203   4.008   3.974   3.183
 3731SOL    HW212204   4.001   3.842   3.087
 3732SOL     OW12205   4.456   4.358   2.926
 3732SOL    HW112206   4.515   4.332   2.850
 3732SOL    HW212207   4.428   4.454   2.915
 3733SOL     OW12208   4.031   3.787   2.480
 3733SOL    HW112209   4.020   3.881   2.513
 3733SOL    HW212210   4.026   3.724   2.557
 3734SOL     OW12211   5.346   4.091   2.236
 3734SOL    HW112212   5.348   4.015   2.300
 3734SOL    HW212213   5.298   4.168   2.276
 3735SOL     OW12214   4.747   4.490   2.828
 3735SOL    HW112215   4.762   4.511   2.924
 3735SOL    HW212216   4.717   4.395   2.819
 3736SOL     OW12217   4.074   4.622   3.666
 3736SOL    HW112218   4.150   4.666   3.714
 3736SOL    HW212219   4.109   4.575   3.584
 3737SOL     OW12220   5.027   4.562   1.904
 3737SOL    HW112221   5.061   4.469   1.919
 3737SOL    HW212222   5.045   4.589   1.809
 3738SOL     OW12223   4.063   4.233   2.868
 3738SOL    HW112224   4.011   4.150   2.851
 3738SOL    HW212225   4.140   4.238   2.804
 3739SOL     OW12226   4.862   4.104   3.540
 3739SOL    HW112227   4.817   4.167   3.604
 3739SOL    HW212228   4.955   4.135   3.523
 3740SOL     OW12229   4.884   3.931   3.339
 3740SOL    HW112230   4.884   3.995   3.416
 3740SOL    HW212231   4.912   3.979   3.256
 3741SOL     OW12232   3.764   4.268   2.976
 3741SOL    HW112233   3.849   4.235   2.935
 3741SOL    HW212234   3.777   4.283   3.074
 3742SOL     OW12235   3.913   4.244   3.584
 3742SOL    HW112236   3.972   4.204   3.514
 3742SOL    HW212237   3.855   4.315   3.543
 3743SOL     OW12238   4.539   4.296   2.187
 3743SOL    HW112239   4.546   4.207   2.141
 3743SOL    HW212240   4.445   4.330   2.179
 3744SOL     OW12241   4.395   4.188   3.131
 3744SOL    HW112242   4.361   4.099   3.101
 3744SOL    HW212243   4.421   4.242   3.051
 3745SOL     OW12244   4.197   4.224   2.053
 3745SOL    HW112245   4.258   4.304   2.057
 3745SOL    HW212246   4.102   4.255   2.060
 3746SOL     OW12247   3.883   4.861   3.328
 3746SOL    HW112248   3.905   4.800   3.404
 3746SOL    HW212249   3.893   4.812   3.242
 3747SOL     OW12250   3.807   4.982   2.884
 3747SOL    HW112251   3.802   4.981   2.984
 3747SOL    HW212252   3.724   4.941   2.846
 3748SOL     OW12253   5.004   4.651   2.534
 3748SOL    HW112254   5.064   4.570   2.536
 3748SOL    HW212255   5.044   4.720   2.474
 3749SOL     OW12256   3.987   4.050   2.582
 3749SOL    HW112257   3.908   4.101   2.548
 3749SOL    HW212258   3.978   4.035   2.680
 3750SOL     OW12259   4.918   5.336   1.893
 3750SOL    HW112260   4.924   5.243   1.930
 3750SOL    HW212261   4.859   5.336   1.813
 3751SOL     OW12262   4.640   4.634   2.153
 3751SOL    HW112263   4.703   4.672   2.085
 3751SOL    HW212264   4.680   4.551   2.192
 3752SOL     OW12265   4.096   5.012   3.352
 3752SOL    HW112266   4.083   5.105   3.318
 3752SOL    HW212267   4.012   4.960   3.339
 3753SOL     OW12268   4.763   4.822   2.558
 3753SOL    HW112269   4.693   4.775   2.612
 3753SOL    HW212270   4.822   4.754   2.515
 3754SOL     OW12271   4.738   3.960   2.833
 3754SOL    HW112272   4.730   3.924   2.740
 3754SOL    HW212273   4.736   3.884   2.898
 3755SOL     OW12274   3.829   4.737   3.588
 3755SOL    HW112275   3.752   4.704   3.642
 3755SOL    HW212276   3.914   4.707   3.630
 3756SOL     OW12277   4.396   3.927   3.351
 3756SOL    HW112278   4.486   3.911   3.311
 3756SOL    HW212279   4.404   3.932   3.450
 3757SOL     OW12280   3.799   4.069   1.895
 3757SOL    HW112281   3.707   4.041   1.866
 3757SOL    HW212282   3.830   4.146   1.839
 3758SOL     OW12283   5.164   4.580   3.260
 3758SOL    HW112284   5.107   4.632   3.197
 3758SOL    HW212285   5.260   4.592   3.236
 3759SOL     OW12286   3.796   3.890   2.180
 3759SOL    HW112287   3.779   3.973   2.126
 3759SOL    HW212288   3.886   3.853   2.158
 3760SOL     OW12289   4.337   4.566   3.293
 3760SOL    HW112290   4.393   4.647   3.276
 3760SOL    HW212291   4.396   4.486   3.296
 3761SOL     OW12292   4.440   4.289   3.570
 3761SOL    HW112293   4.459   4.354   3.644
 3761SOL    HW212294   4.500   4.209   3.579
 3762SOL     OW12295   5.174   4.944   3.495
 3762SOL    HW112296   5.165   4.934   3.594
 3762SOL    HW212297   5.270   4.937   3.469
 3763SOL     OW12298   4.949   4.049   2.311
 3763SOL    HW112299   5.014   3.975   2.300
 3763SOL    HW212300   4.969   4.099   2.395
 3764SOL     OW12301   4.318   4.469   2.514
 3764SOL    HW112302   4.368   4.554   2.495
 3764SOL    HW212303   4.230   4.471   2.466
 3765SOL     OW12304   4.583   4.680   2.723
 3765SOL    HW112305   4.637   4.611   2.771
 3765SOL    HW212306   4.551   4.749   2.789
 3766SOL     OW12307   4.807   4.708   1.949
 3766SOL    HW112308   4.784   4.761   1.867
 3766SOL    HW212309   4.888   4.652   1.930
 3767SOL     OW12310   3.803   4.964   2.515
 3767SOL    HW112311   3.802   4.917   2.603
 3767SOL    HW212312   3.885   4.936   2.464
 3768SOL     OW12313   4.152   4.148   2.382
 3768SOL    HW112314   4.182   4.076   2.320
 3768SOL    HW212315   4.113   4.108   2.465
 3769SOL     OW12316   4.041   4.271   3.142
 3769SOL    HW112317   4.079   4.212   3.214
 3769SOL    HW212318   4.081   4.245   3.054
 3770SOL     OW12319   4.725   3.758   3.016
 3770SOL    HW112320   4.662   3.686   2.985
 3770SOL    HW212321   4.818   3.722   3.016
 3771SOL     OW12322   4.494   5.054   2.163
 3771SOL    HW112323   4.448   4.967   2.180
 3771SOL    HW212324   4.585   5.051   2.204
 3772SOL     OW12325   3.954   4.352   3.837
 3772SOL    HW112326   3.861   4.350   3.874
 3772SOL    HW212327   3.955   4.313   3.745
 3773SOL     OW12328   3.949   3.999   4.720
 3773SOL    HW112329   3.984   3.982   4.812
 3773SOL    HW212330   3.861   3.954   4.708
 3774SOL     OW12331   3.743   4.092   4.371
 3774SOL    HW112332   3.661   4.135   4.410
 3774SOL    HW212333   3.715   4.019   4.308
 3775SOL     OW12334   4.293   4.999   4.889
 3775SOL    HW112335   4.200   4.992   4.852
 3775SOL    HW212336   4.304   5.088   4.933
 3776SOL     OW12337   4.859   4.427   4.441
 3776SOL    HW112338   4.916   4.505   4.416
 3776SOL    HW212339   4.799   4.453   4.517
 3777SOL     OW12340   4.492   4.868   4.747
 3777SOL    HW112341   4.414   4.885   4.807
 3777SOL    HW212342   4.526   4.955   4.711
 3778SOL     OW12343   4.409   4.736   4.389
 3778SOL    HW112344   4.478   4.720   4.459
 3778SOL    HW212345   4.336   4.793   4.427
 3779SOL     OW12346   4.059   5.159   4.785
 3779SOL    HW112347   3.981   5.128   4.732
 3779SOL    HW212348   4.117   5.217   4.728
 3780SOL     OW12349   3.964   4.815   4.610
 3780SOL    HW112350   3.978   4.731   4.662
 3780SOL    HW212351   3.909   4.879   4.665
 3781SOL     OW12352   4.330   4.688   3.847
 3781SOL    HW112353   4.337   4.772   3.793
 3781SOL    HW212354   4.376   4.701   3.935
 3782SOL     OW12355   4.533   3.728   4.226
 3782SOL    HW112356   4.573   3.819   4.217
 3782SOL    HW212357   4.433   3.736   4.232
 3783SOL     OW12358   3.921   4.700   4.988
 3783SOL    HW112359   4.010   4.655   4.974
 3783SOL    HW212360   3.848   4.635   4.969
 3784SOL     OW12361   5.005   4.069   4.668
 3784SOL    HW112362   4.919   4.019   4.655
 3784SOL    HW212363   5.067   4.015   4.724
 3785SOL     OW12364   4.715   4.134   4.966
 3785SOL    HW112365   4.638   4.168   5.020
 3785SOL    HW212366   4.681   4.083   4.887
 3786SOL     OW12367   4.765   4.425   4.153
 3786SOL    HW112368   4.791   4.421   4.249
 3786SOL    HW212369   4.680   4.374   4.139
 3787SOL     OW12370   4.589   4.072   3.919
 3787SOL    HW112371   4.648   4.135   3.870
 3787SOL    HW212372   4.608   3.978   3.890
 3788SOL     OW12373   4.274   3.920   4.609
 3788SOL    HW112374   4.269   3.915   4.709
 3788SOL    HW212375   4.276   4.016   4.580
 3789SOL     OW12376   4.338   3.846   3.841
 3789SOL    HW112377   4.436   3.824   3.848
 3789SOL    HW212378   4.307   3.829   3.748
 3790SOL     OW12379   4.527   5.126   4.648
 3790SOL    HW112380   4.617   5.140   4.606
 3790SOL    HW212381   4.456   5.128   4.577
 3791SOL     OW12382   4.646   4.227   4.623
 3791SOL    HW112383   4.621   4.218   4.527
 3791SOL    HW212384   4.694   4.145   4.654
 3792SOL     OW12385   4.263   3.788   4.236
 3792SOL    HW112386   4.182   3.789   4.294
 3792SOL    HW212387   4.266   3.871   4.181
 3793SOL     OW12388   5.158   4.912   3.765
 3793SOL    HW112389   5.190   4.836   3.822
 3793SOL    HW212390   5.066   4.939   3.795
 3794SOL     OW12391   4.021   3.759   3.895
 3794SOL    HW112392   4.070   3.843   3.874
 3794SOL    HW212393   4.083   3.694   3.940
 3795SOL     OW12394   4.659   3.960   4.204
 3795SOL    HW112395   4.611   4.001   4.126
 3795SOL    HW212396   4.758   3.958   4.185
 3796SOL     OW12397   4.951   5.294   4.517
 3796SOL    HW112398   4.972   5.368   4.452
 3796SOL    HW212399   5.019   5.294   4.590
 3797SOL     OW12400   4.183   4.876   4.465
 3797SOL    HW112401   4.112   4.849   4.530
 3797SOL    HW212402   4.157   4.848   4.372
 3798SOL     OW12403   4.756   4.273   3.740
 3798SOL    HW112404   4.715   4.355   3.701
 3798SOL    HW212405   4.820   4.299   3.813
 3799SOL     OW12406   4.285   3.946   4.871
 3799SOL    HW112407   4.323   3.862   4.908
 3799SOL    HW212408   4.197   3.965   4.915
 3800SOL     OW12409   4.590   4.178   4.366
 3800SOL    HW112410   4.558   4.250   4.304
 3800SOL    HW212411   4.614   4.097   4.313
 3801SOL     OW12412   4.741   3.763   4.477
 3801SOL    HW112413   4.669   3.768   4.408
 3801SOL    HW212414   4.717   3.694   4.546
 3802SOL     OW12415   4.251   3.980   4.052
 3802SOL    HW112416   4.278   3.921   3.977
 3802SOL    HW212417   4.251   4.075   4.021
 3803SOL     OW12418   4.429   4.774   4.092
 3803SOL    HW112419   4.415   4.781   4.191
 3803SOL    HW212420   4.513   4.723   4.074
 3804SOL     OW12421   4.134   4.537   4.975
 3804SOL    HW112422   4.220   4.549   5.025
 3804SOL    HW212423   4.092   4.450   5.002
 3805SOL     OW12424   4.091   4.824   4.225
 3805SOL    HW112425   4.084   4.907   4.169
 3805SOL    HW212426   4.095   4.744   4.165
 3806SOL     OW12427   4.290   4.261   4.589
 3806SOL    HW112428   4.302   4.327   4.515
 3806SOL    HW212429   4.336   4.295   4.672
 3807SOL     OW12430   4.976   5.072   4.112
 3807SOL    HW112431   5.026   5.149   4.152
 3807SOL    HW212432   4.881   5.074   4.144
 3808SOL     OW12433   4.297   4.594   4.753
 3808SOL    HW112434   4.341   4.683   4.744
 3808SOL    HW212435   4.234   4.594   4.830
 3809SOL     OW12436   5.084   4.586   4.769
 3809SOL    HW112437   5.009   4.586   4.703
 3809SOL    HW212438   5.121   4.494   4.778
 3810SOL     OW12439   4.933   4.249   3.999
 3810SOL    HW112440   4.946   4.165   4.053
 3810SOL    HW212441   4.904   4.323   4.059
 3811SOL     OW12442   4.031   3.937   4.955
 3811SOL    HW112443   4.008   3.974   5.045
 3811SOL    HW212444   4.001   3.842   4.949
 3812SOL     OW12445   4.456   4.358   4.788
 3812SOL    HW112446   4.515   4.332   4.712
 3812SOL    HW212447   4.428   4.454   4.777
 3813SOL     OW12448   4.031   3.787   4.342
 3813SOL    HW112449   4.020   3.881   4.375
 3813SOL    HW212450   4.026   3.724   4.419
 3814SOL     OW12451   4.747   4.490   4.690
 3814SOL    HW112452   4.762   4.511   4.786
 3814SOL    HW212453   4.717   4.395   4.681
 3815SOL     OW12454   5.027   4.562   3.766
 3815SOL    HW112455   5.061   4.469   3.781
 3815SOL    HW212456   5.045   4.589   3.671
 3816SOL     OW12457   4.063   4.233   4.730
 3816SOL    HW112458   4.011   4.150   4.713
 3816SOL    HW212459   4.140   4.238   4.666
 3817SOL     OW12460   4.884   3.931   5.201
 3817SOL    HW112461   4.884   3.995   5.278
 3817SOL    HW212462   4.912   3.979   5.118
 3818SOL     OW12463   3.732   5.050   3.924
 3818SOL    HW112464   3.639   5.071   3.893
 3818SOL    HW212465   3.742   4.951   3.937
 3819SOL     OW12466   4.726   4.520   4.962
 3819SOL    HW112467   4.767   4.488   5.048
 3819SOL    HW212468   4.630   4.493   4.959
 3820SOL     OW12469   3.764   4.268   4.838
 3820SOL    HW112470   3.849   4.235   4.797
 3820SOL    HW212471   3.777   4.283   4.936
 3821SOL     OW12472   4.539   4.296   4.049
 3821SOL    HW112473   4.546   4.207   4.003
 3821SOL    HW212474   4.445   4.330   4.041
 3822SOL     OW12475   4.395   4.188   4.993
 3822SOL    HW112476   4.361   4.099   4.963
 3822SOL    HW212477   4.421   4.242   4.913
 3823SOL     OW12478   4.197   4.224   3.915
 3823SOL    HW112479   4.258   4.304   3.919
 3823SOL    HW212480   4.102   4.255   3.922
 3824SOL     OW12481   5.071   4.783   4.958
 3824SOL    HW112482   5.095   4.720   4.884
 3824SOL    HW212483   4.981   4.823   4.940
 3825SOL     OW12484   3.807   4.982   4.746
 3825SOL    HW112485   3.802   4.981   4.846
 3825SOL    HW212486   3.724   4.941   4.708
 3826SOL     OW12487   5.004   4.651   4.396
 3826SOL    HW112488   5.064   4.570   4.398
 3826SOL    HW212489   5.044   4.720   4.336
 3827SOL     OW12490   4.554   4.997   5.146
 3827SOL    HW112491   4.549   5.030   5.241
 3827SOL    HW212492   4.468   5.016   5.100
 3828SOL     OW12493   4.918   5.336   3.755
 3828SOL    HW112494   4.924   5.243   3.792
 3828SOL    HW212495   4.859   5.336   3.675
 3829SOL     OW12496   4.546   4.726   5.096
 3829SOL    HW112497   4.586   4.725   5.004
 3829SOL    HW212498   4.556   4.818   5.136
 3830SOL     OW12499   4.640   4.634   4.015
 3830SOL    HW112500   4.703   4.672   3.947
 3830SOL    HW212501   4.680   4.551   4.054
 3831SOL     OW12502   4.763   4.822   4.420
 3831SOL    HW112503   4.693   4.775   4.474
 3831SOL    HW212504   4.822   4.754   4.377
 3832SOL     OW12505   4.738   3.960   4.695
 3832SOL    HW112506   4.730   3.924   4.602
 3832SOL    HW212507   4.736   3.884   4.760
 3833SOL     OW12508   3.799   4.069   3.757
 3833SOL    HW112509   3.707   4.041   3.728
 3833SOL    HW212510   3.830   4.146   3.701
 3834SOL     OW12511   3.796   3.890   4.042
 3834SOL    HW112512   3.779   3.973   3.988
 3834SOL    HW212513   3.886   3.853   4.020
 3835SOL     OW12514   4.949   4.049   4.173
 3835SOL    HW112515   5.014   3.975   4.162
 3835SOL    HW212516   4.969   4.099   4.257
 3836SOL     OW12517   4.583   4.680   4.585
 3836SOL    HW112518   4.637   4.611   4.633
 3836SOL    HW212519   4.551   4.749   4.651
 3837SOL     OW12520   4.807   4.708   3.811
 3837SOL    HW112521   4.784   4.761   3.729
 3837SOL    HW212522   4.888   4.652   3.792
 3838SOL     OW12523   3.803   4.964   4.377
 3838SOL    HW112524   3.802   4.917   4.465
 3838SOL    HW212525   3.885   4.936   4.326
 3839SOL     OW12526   4.725   3.758   4.878
 3839SOL    HW112527   4.662   3.686   4.847
 3839SOL    HW212528   4.818   3.722   4.878
 3840SOL     OW12529   4.494   5.054   4.025
 3840SOL    HW112530   4.448   4.967   4.042
 3840SOL    HW212531   4.585   5.051   4.066
 3841SOL     OW12532   5.076   3.776   3.892
 3841SOL    HW112533   5.111   3.735   3.808
 3841SOL    HW212534   4.986   3.738   3.912
 3842SOL     OW12535   3.763   4.801   4.024
 3842SOL    HW112536   3.862   4.790   4.015
 3842SOL    HW212537   3.723   4.715   4.056
   5.08970   5.08970   5.08970
