UNITED ATOM STRUCTURE FOR MOLECULE UNK
12812
    0X2IT   H18    1   3.092   2.352   2.583
    0X2IT    N4    2   3.026   2.419   2.548
    0X2IT   H17    3   3.059   2.484   2.478
    0X2IT   C14    4   2.895   2.380   2.546
    0X2IT    O5    5   2.849   2.285   2.607
    0X2IT    O4    6   2.822   2.466   2.469
    0X2IT   C13    7   2.680   2.441   2.463
    0X2IT   C10    8   2.607   2.502   2.584
    0X2IT    C9    9   2.457   2.484   2.578
    0X2IT    C4   10   2.394   2.607   2.582
    0X2IT    C5   11   2.245   2.625   2.577
    0X2IT    O1   12   2.197   2.739   2.585
    0X2IT    C6   13   2.166   2.505   2.564
    0X2IT   C12   14   2.015   2.516   2.558
    0X2IT    C7   15   2.229   2.382   2.561
    0X2IT    C8   16   2.381   2.365   2.567
    0X2IT    O2   17   2.427   2.250   2.559
    0X2IT    N3   18   2.164   2.265   2.551
    0X2IT   H15   19   2.064   2.258   2.544
    0X2IT   H16   20   2.221   2.180   2.548
    0X2IT    N2   21   2.482   2.709   2.599
    0X2IT    C3   22   2.473   2.846   2.546
    0X2IT    C2   23   2.599   2.856   2.461
    0X2IT    H2   24   2.639   2.954   2.435
    0X2IT    N1   25   2.611   2.744   2.365
    0X2IT   H14   26   2.674   2.771   2.289
    0X2IT    C1   27   2.688   2.741   2.491
    0X2IT    H1   28   2.796   2.748   2.490
    0X2IT   C11   29   2.622   2.658   2.600
    0X2IT    O3   30   2.691   2.695   2.718
    0X2IT   C15   31   2.628   2.664   2.843
    1X2IT   H18   32   4.416   0.675   0.477
    1X2IT    N4   33   4.322   0.708   0.488
    1X2IT   H17   34   4.274   0.683   0.574
    1X2IT   C14   35   4.291   0.826   0.427
    1X2IT    O5   36   4.356   0.880   0.339
    1X2IT    O4   37   4.172   0.874   0.475
    1X2IT   C13   38   4.123   0.995   0.414
    1X2IT   C10   39   4.047   0.966   0.283
    1X2IT    C9   40   3.988   1.090   0.220
    1X2IT    C4   41   3.851   1.076   0.206
    1X2IT    C5   42   3.762   1.181   0.147
    1X2IT    O1   43   3.640   1.158   0.135
    1X2IT    C6   44   3.825   1.304   0.107
    1X2IT   C12   45   3.740   1.415   0.048
    1X2IT    C7   46   3.962   1.318   0.121
    1X2IT    C8   47   4.052   1.210   0.180
    1X2IT    O2   48   4.173   1.235   0.191
    1X2IT    N3   49   4.029   1.428   0.085
    1X2IT   H15   50   3.985   1.510   0.046
    1X2IT   H16   51   4.131   1.428   0.100
    1X2IT    N2   52   3.809   0.952   0.244
    1X2IT    C3   53   3.680   0.916   0.306
    1X2IT    C2   54   3.724   0.855   0.438
    1X2IT    H2   55   3.657   0.789   0.492
    1X2IT    N1   56   3.816   0.943   0.513
    1X2IT   H14   57   3.816   0.917   0.612
    1X2IT    C1   58   3.871   0.831   0.435
    1X2IT    H1   59   3.918   0.747   0.484
    1X2IT   C11   60   3.922   0.872   0.297
    1X2IT    O3   61   3.937   0.749   0.228
    1X2IT   C15   62   3.946   0.755   0.085
    2SOL     OW   63   0.230   0.628   0.113
    2SOL    HW1   64   0.137   0.626   0.150
    2SOL    HW2   65   0.231   0.589   0.021
    3SOL     OW   66   0.225   0.275   0.996
    3SOL    HW1   67   0.260   0.258   1.088
    3SOL    HW2   68   0.137   0.230   0.984
    4SOL     OW   69   0.019   0.368   0.647
    4SOL    HW1   70  -0.063   0.411   0.686
    4SOL    HW2   71  -0.009   0.295   0.584
    5SOL     OW   72   0.569   1.275   1.165
    5SOL    HW1   73   0.476   1.268   1.128
    5SOL    HW2   74   0.580   1.364   1.209
    6SOL     OW   75   1.555   1.511   0.703
    6SOL    HW1   76   1.498   1.495   0.784
    6SOL    HW2   77   1.496   1.521   0.623
    7SOL     OW   78   1.135   0.703   0.717
    7SOL    HW1   79   1.192   0.781   0.692
    7SOL    HW2   80   1.075   0.729   0.793
    8SOL     OW   81   1.755   0.607   0.231
    8SOL    HW1   82   1.743   0.594   0.132
    8SOL    HW2   83   1.725   0.526   0.280
    9SOL     OW   84   0.768   1.144   1.023
    9SOL    HW1   85   0.690   1.161   1.083
    9SOL    HW2   86   0.802   1.231   0.987
   10SOL     OW   87   0.850   0.798   1.823
   10SOL    HW1   88   0.846   0.874   1.888
   10SOL    HW2   89   0.872   0.834   1.732
   11SOL     OW   90   0.685   1.012   0.665
   11SOL    HW1   91   0.754   0.996   0.735
   11SOL    HW2   92   0.612   1.069   0.703
   12SOL     OW   93   0.686   1.161   1.803
   12SOL    HW1   94   0.746   1.240   1.817
   12SOL    HW2   95   0.600   1.192   1.762
   13SOL     OW   96   0.335   1.435   1.061
   13SOL    HW1   97   0.257   1.404   1.008
   13SOL    HW2   98   0.393   1.493   1.004
   14SOL     OW   99   1.460   1.505   1.339
   14SOL    HW1  100   1.484   1.599   1.365
   14SOL    HW2  101   1.444   1.451   1.421
   15SOL     OW  102   0.438   0.392   1.499
   15SOL    HW1  103   0.520   0.336   1.508
   15SOL    HW2  104   0.357   0.334   1.503
   16SOL     OW  105   1.603   0.447   0.737
   16SOL    HW1  106   1.529   0.493   0.687
   16SOL    HW2  107   1.654   0.515   0.790
   17SOL     OW  108   0.231   1.713   0.483
   17SOL    HW1  109   0.265   1.790   0.537
   17SOL    HW2  110   0.275   1.713   0.393
   18SOL     OW  111   1.127   1.341   1.690
   18SOL    HW1  112   1.174   1.341   1.778
   18SOL    HW2  113   1.079   1.254   1.679
   19SOL     OW  114   0.230   1.434   0.538
   19SOL    HW1  115   0.204   1.530   0.538
   19SOL    HW2  116   0.159   1.380   0.583
   20SOL     OW  117   0.240   1.091   0.886
   20SOL    HW1  118   0.254   1.007   0.938
   20SOL    HW2  119   0.185   1.155   0.941
   21SOL     OW  120   0.620   1.786   1.439
   21SOL    HW1  121   0.528   1.769   1.474
   21SOL    HW2  122   0.648   1.878   1.465
   22SOL     OW  123   0.606   0.964   0.123
   22SOL    HW1  124   0.613   1.048   0.069
   22SOL    HW2  125   0.652   0.977   0.211
   23SOL     OW  126   1.594   0.114   1.480
   23SOL    HW1  127   1.576   0.181   1.408
   23SOL    HW2  128   1.591   0.160   1.569
   24SOL     OW  129   0.122   0.643   0.563
   24SOL    HW1  130   0.077   0.555   0.580
   24SOL    HW2  131   0.121   0.697   0.647
   25SOL     OW  132   1.842   1.767   0.359
   25SOL    HW1  133   1.896   1.738   0.439
   25SOL    HW2  134   1.872   1.857   0.330
   26SOL     OW  135   0.027   1.596   0.117
   26SOL    HW1  136   0.008   1.500   0.138
   26SOL    HW2  137  -0.006   1.654   0.192
   27SOL     OW  138   1.689   0.922   0.612
   27SOL    HW1  139   1.784   0.893   0.620
   27SOL    HW2  140   1.681   0.987   0.537
   28SOL     OW  141   1.641   1.108   0.432
   28SOL    HW1  142   1.727   1.110   0.380
   28SOL    HW2  143   1.655   1.155   0.520
   29SOL     OW  144   0.113   0.737   1.597
   29SOL    HW1  145   0.201   0.724   1.642
   29SOL    HW2  146   0.100   0.834   1.575
   30SOL     OW  147   0.613   1.365   0.726
   30SOL    HW1  148   0.564   1.278   0.735
   30SOL    HW2  149   0.590   1.408   0.639
   31SOL     OW  150   1.293   1.228   1.423
   31SOL    HW1  151   1.330   1.155   1.365
   31SOL    HW2  152   1.345   1.233   1.508
   32SOL     OW  153   0.809   0.004   0.502
   32SOL    HW1  154   0.849   0.095   0.493
   32SOL    HW2  155   0.709   0.012   0.508
   33SOL     OW  156   0.197   0.976   1.264
   33SOL    HW1  157   0.286   0.931   1.250
   33SOL    HW2  158   0.124   0.911   1.245
   34SOL     OW  159   1.525   0.999   0.190
   34SOL    HW1  160   1.462   0.923   0.203
   34SOL    HW2  161   1.573   1.017   0.276
   35SOL     OW  162   1.187   1.792   1.616
   35SOL    HW1  163   1.211   1.852   1.540
   35SOL    HW2  164   1.194   1.697   1.586
   36SOL     OW  165   0.317   0.251   1.801
   36SOL    HW1  166   0.388   0.322   1.807
   36SOL    HW2  167   0.229   0.290   1.829
   37SOL     OW  168   1.466   1.417   0.953
   37SOL    HW1  169   1.407   1.423   1.033
   37SOL    HW2  170   1.451   1.329   0.907
   38SOL     OW  171   1.667   1.714   0.572
   38SOL    HW1  172   1.626   1.691   0.484
   38SOL    HW2  173   1.649   1.640   0.637
   39SOL     OW  174   0.598   0.729   0.270
   39SOL    HW1  175   0.622   0.798   0.202
   39SOL    HW2  176   0.520   0.762   0.324
   40SOL     OW  177   1.281   0.345   0.944
   40SOL    HW1  178   1.195   0.295   0.931
   40SOL    HW2  179   1.343   0.291   1.000
   41SOL     OW  180   1.576   1.662   0.307
   41SOL    HW1  181   1.665   1.708   0.310
   41SOL    HW2  182   1.555   1.638   0.212
   42SOL     OW  183   0.807   0.605   1.465
   42SOL    HW1  184   0.760   0.602   1.554
   42SOL    HW2  185   0.756   0.550   1.399
   43SOL     OW  186   1.394   0.469   1.674
   43SOL    HW1  187   1.374   0.512   1.762
   43SOL    HW2  188   1.472   0.407   1.683
   44SOL     OW  189   0.973   0.890   1.572
   44SOL    HW1  190   1.019   0.806   1.543
   44SOL    HW2  191   0.917   0.924   1.497
   45SOL     OW  192   0.991   0.410   1.242
   45SOL    HW1  193   0.914   0.444   1.296
   45SOL    HW2  194   0.957   0.359   1.163
   46SOL     OW  195   1.041   0.701   0.429
   46SOL    HW1  196   1.067   0.697   0.525
   46SOL    HW2  197   0.956   0.650   0.415
   47SOL     OW  198   0.076   0.811   0.789
   47SOL    HW1  199   0.175   0.799   0.798
   47SOL    HW2  200   0.052   0.906   0.810
   48SOL     OW  201   0.130   1.821   1.571
   48SOL    HW1  202   0.120   1.806   1.670
   48SOL    HW2  203   0.044   1.857   1.535
   49SOL     OW  204   0.865   0.348   0.195
   49SOL    HW1  205   0.924   0.411   0.146
   49SOL    HW2  206   0.884   0.254   0.166
   50SOL     OW  207   1.719   0.585   1.831
   50SOL    HW1  208   1.693   0.674   1.795
   50SOL    HW2  209   1.717   0.517   1.758
   51SOL     OW  210   1.362   1.144   0.545
   51SOL    HW1  211   1.445   1.115   0.497
   51SOL    HW2  212   1.313   1.211   0.489
   52SOL     OW  213   0.550   0.196   0.885
   52SOL    HW1  214   0.545   0.191   0.985
   52SOL    HW2  215   0.552   0.292   0.856
   53SOL     OW  216   1.008   1.456   0.477
   53SOL    HW1  217   0.962   1.528   0.425
   53SOL    HW2  218   1.004   1.476   0.575
   54SOL     OW  219   0.351   1.801   0.853
   54SOL    HW1  220   0.401   1.715   0.859
   54SOL    HW2  221   0.416   1.878   0.850
   55SOL     OW  222   1.795   1.066   0.873
   55SOL    HW1  223   1.733   1.051   0.797
   55SOL    HW2  224   1.743   1.077   0.958
   56SOL     OW  225   1.227   1.550   1.506
   56SOL    HW1  226   1.233   1.473   1.570
   56SOL    HW2  227   1.175   1.524   1.426
   57SOL     OW  228   0.321   0.943   0.242
   57SOL    HW1  229   0.403   0.982   0.200
   57SOL    HW2  230   0.294   0.861   0.193
   58SOL     OW  231   1.458   0.735   0.728
   58SOL    HW1  232   1.453   0.670   0.803
   58SOL    HW2  233   1.538   0.794   0.741
   59SOL     OW  234   0.461   1.266   1.727
   59SOL    HW1  235   0.411   1.267   1.641
   59SOL    HW2  236   0.398   1.248   1.803
   60SOL     OW  237   1.111   1.776   0.237
   60SOL    HW1  238   1.051   1.714   0.287
   60SOL    HW2  239   1.142   1.732   0.152
   61SOL     OW  240   0.202   0.285   1.498
   61SOL    HW1  241   0.122   0.345   1.485
   61SOL    HW2  242   0.192   0.236   1.584
   62SOL     OW  243   1.632   1.377   0.081
   62SOL    HW1  244   1.600   1.471   0.071
   62SOL    HW2  245   1.556   1.314   0.069
   63SOL     OW  246   0.464   1.743   0.323
   63SOL    HW1  247   0.497   1.782   0.409
   63SOL    HW2  248   0.540   1.736   0.258
   64SOL     OW  249   1.400   0.107   0.426
   64SOL    HW1  250   1.376   0.070   0.336
   64SOL    HW2  251   1.499   0.123   0.430
   65SOL     OW  252   0.249   1.785   1.241
   65SOL    HW1  253   0.306   1.720   1.291
   65SOL    HW2  254   0.233   1.752   1.148
   66SOL     OW  255   0.940   1.698   0.904
   66SOL    HW1  256   1.020   1.641   0.925
   66SOL    HW2  257   0.891   1.658   0.827
   67SOL     OW  258   0.382   0.700   0.480
   67SOL    HW1  259   0.427   0.610   0.477
   67SOL    HW2  260   0.288   0.689   0.513
   68SOL     OW  261   1.547   0.222   1.729
   68SOL    HW1  262   1.542   0.259   1.821
   68SOL    HW2  263   1.475   0.153   1.717
   69SOL     OW  264   0.614   0.122   0.117
   69SOL    HW1  265   0.712   0.100   0.124
   69SOL    HW2  266   0.583   0.105   0.024
   70SOL     OW  267   0.781   0.264   1.749
   70SOL    HW1  268   0.848   0.203   1.792
   70SOL    HW2  269   0.708   0.283   1.814
   71SOL     OW  270   0.888   1.514   1.195
   71SOL    HW1  271   0.865   1.489   1.101
   71SOL    HW2  272   0.949   1.445   1.234
   72SOL     OW  273   1.351   0.590   1.433
   72SOL    HW1  274   1.379   0.547   1.518
   72SOL    HW2  275   1.376   0.686   1.434
   73SOL     OW  276   0.803   1.402   0.924
   73SOL    HW1  277   0.893   1.416   0.882
   73SOL    HW2  278   0.732   1.404   0.853
   74SOL     OW  279   0.922   0.503   0.899
   74SOL    HW1  280   0.897   0.494   0.803
   74SOL    HW2  281   0.970   0.421   0.930
   75SOL     OW  282   0.539   0.064   0.512
   75SOL    HW1  283   0.458   0.065   0.570
   75SOL    HW2  284   0.542   0.147   0.457
   76SOL     OW  285   1.434   1.188   0.041
   76SOL    HW1  286   1.466   1.112   0.098
   76SOL    HW2  287   1.342   1.215   0.071
   77SOL     OW  288   0.297   0.035   0.171
   77SOL    HW1  289   0.346   0.119   0.150
   77SOL    HW2  290   0.359  -0.030   0.216
   78SOL     OW  291   0.935   0.236   0.480
   78SOL    HW1  292   0.887   0.277   0.402
   78SOL    HW2  293   1.034   0.234   0.461
   79SOL     OW  294   1.076   0.683   1.464
   79SOL    HW1  295   0.996   0.622   1.467
   79SOL    HW2  296   1.157   0.630   1.440
   80SOL     OW  297   1.227   1.570   0.793
   80SOL    HW1  298   1.248   1.644   0.728
   80SOL    HW2  299   1.295   1.570   0.866
   81SOL     OW  300   0.459   1.152   0.741
   81SOL    HW1  301   0.388   1.125   0.806
   81SOL    HW2  302   0.433   1.124   0.648
   82SOL     OW  303   1.271   1.797   0.591
   82SOL    HW1  304   1.315   1.861   0.527
   82SOL    HW2  305   1.221   1.849   0.661
   83SOL     OW  306   1.032   0.549   0.016
   83SOL    HW1  307   0.991   0.631  -0.023
   83SOL    HW2  308   1.096   0.575   0.089
   84SOL     OW  309   0.078   0.556   1.386
   84SOL    HW1  310   0.170   0.555   1.345
   84SOL    HW2  311   0.072   0.630   1.453
   85SOL     OW  312   0.561   0.222   1.147
   85SOL    HW1  313   0.599   0.138   1.184
   85SOL    HW2  314   0.473   0.241   1.191
   86SOL     OW  315   0.866   0.454   0.642
   86SOL    HW1  316   0.834   0.526   0.580
   86SOL    HW2  317   0.890   0.373   0.589
   87SOL     OW  318   1.017   0.039   0.753
   87SOL    HW1  319   0.945   0.044   0.684
   87SOL    HW2  320   0.993  -0.030   0.822
   88SOL     OW  321   1.429   1.173   0.867
   88SOL    HW1  322   1.374   1.089   0.860
   88SOL    HW2  323   1.455   1.202   0.775
   89SOL     OW  324   1.466   0.590   0.992
   89SOL    HW1  325   1.436   0.495   0.999
   89SOL    HW2  326   1.539   0.606   1.058
   90SOL     OW  327   1.857   0.833   0.377
   90SOL    HW1  328   1.899   0.769   0.441
   90SOL    HW2  329   1.819   0.782   0.299
   91SOL     OW  330   0.488   1.385   0.174
   91SOL    HW1  331   0.401   1.370   0.221
   91SOL    HW2  332   0.471   1.411   0.079
   92SOL     OW  333   1.664   1.280   0.657
   92SOL    HW1  334   1.763   1.288   0.671
   92SOL    HW2  335   1.619   1.364   0.688
   93SOL     OW  336   1.390   0.575   0.078
   93SOL    HW1  337   1.336   0.554   0.159
   93SOL    HW2  338   1.481   0.534   0.087
   94SOL     OW  339   0.527   0.256   0.328
   94SOL    HW1  340   0.554   0.197   0.253
   94SOL    HW2  341   0.527   0.351   0.297
   95SOL     OW  342   1.754   1.223   1.588
   95SOL    HW1  343   1.845   1.184   1.575
   95SOL    HW2  344   1.762   1.319   1.612
   96SOL     OW  345   1.064   1.347   1.340
   96SOL    HW1  346   0.984   1.324   1.395
   96SOL    HW2  347   1.147   1.321   1.389
   97SOL     OW  348   1.592   1.629   1.625
   97SOL    HW1  349   1.619   1.663   1.535
   97SOL    HW2  350   1.671   1.591   1.671
   98SOL     OW  351   1.111   1.195   1.100
   98SOL    HW1  352   1.071   1.239   1.181
   98SOL    HW2  353   1.070   1.232   1.017
   99SOL     OW  354   1.638   1.099   1.079
   99SOL    HW1  355   1.643   1.180   1.138
   99SOL    HW2  356   1.552   1.101   1.028
  100SOL     OW  357   0.915   0.089   1.402
  100SOL    HW1  358   0.940   0.069   1.307
  100SOL    HW2  359   0.987   0.145   1.444
  101SOL     OW  360   0.980   1.116   1.719
  101SOL    HW1  361   0.881   1.122   1.729
  101SOL    HW2  362   1.003   1.036   1.663
  102SOL     OW  363   0.705   1.050   0.368
  102SOL    HW1  364   0.691   1.057   0.467
  102SOL    HW2  365   0.789   0.999   0.350
  103SOL     OW  366   0.410   0.813   1.251
  103SOL    HW1  367   0.496   0.825   1.301
  103SOL    HW2  368   0.368   0.726   1.278
  104SOL     OW  369   1.274   0.386   1.262
  104SOL    HW1  370   1.295   0.460   1.326
  104SOL    HW2  371   1.185   0.403   1.219
  105SOL     OW  372   0.064   1.564   1.331
  105SOL    HW1  373   0.018   1.646   1.297
  105SOL    HW2  374   0.162   1.583   1.340
  106SOL     OW  375   0.367   1.100   0.501
  106SOL    HW1  376   0.360   1.183   0.445
  106SOL    HW2  377   0.371   1.020   0.441
  107SOL     OW  378   0.566   0.537   0.865
  107SOL    HW1  379   0.578   0.603   0.791
  107SOL    HW2  380   0.612   0.571   0.948
  108SOL     OW  381   1.252   1.348   0.388
  108SOL    HW1  382   1.302   1.425   0.428
  108SOL    HW2  383   1.157   1.350   0.420
  109SOL     OW  384   1.272   1.445   1.142
  109SOL    HW1  385   1.319   1.458   1.229
  109SOL    HW2  386   1.206   1.371   1.151
  110SOL     OW  387   1.582   0.639   0.472
  110SOL    HW1  388   1.551   0.700   0.545
  110SOL    HW2  389   1.632   0.691   0.403
  111SOL     OW  390   0.354   1.510   1.329
  111SOL    HW1  391   0.333   1.466   1.242
  111SOL    HW2  392   0.451   1.536   1.332
  112SOL     OW  393   0.402   0.751   1.598
  112SOL    HW1  394   0.470   0.806   1.551
  112SOL    HW2  395   0.442   0.663   1.625
  113SOL     OW  396   1.587   0.779   1.670
  113SOL    HW1  397   1.495   0.817   1.665
  113SOL    HW2  398   1.647   0.826   1.605
  114SOL     OW  399   1.013   0.105   1.770
  114SOL    HW1  400   1.019   0.190   1.718
  114SOL    HW2  401   1.045   0.029   1.713
  115SOL     OW  402   0.504   0.050   1.740
  115SOL    HW1  403   0.462  -0.007   1.670
  115SOL    HW2  404   0.438   0.119   1.772
  116SOL     OW  405   0.573   0.870   1.029
  116SOL    HW1  406   0.617   0.959   1.020
  116SOL    HW2  407   0.510   0.870   1.106
  117SOL     OW  408   1.360   0.862   1.045
  117SOL    HW1  409   1.285   0.862   0.979
  117SOL    HW2  410   1.397   0.770   1.054
  118SOL     OW  411   1.209   0.525   0.275
  118SOL    HW1  412   1.222   0.441   0.329
  118SOL    HW2  413   1.180   0.599   0.335
  119SOL     OW  414   0.307   0.213   1.231
  119SOL    HW1  415   0.284   0.250   1.321
  119SOL    HW2  416   0.277   0.118   1.225
  120SOL     OW  417   0.037   1.310   1.282
  120SOL    HW1  418   0.090   1.261   1.350
  120SOL    HW2  419   0.059   1.408   1.287
  121SOL     OW  420   0.732   0.634   1.064
  121SOL    HW1  421   0.791   0.608   0.988
  121SOL    HW2  422   0.704   0.730   1.053
  122SOL     OW  423   1.728   0.935   1.854
  122SOL    HW1  424   1.682   0.928   1.765
  122SOL    HW2  425   1.666   0.979   1.920
  123SOL     OW  426   0.307   0.063   0.618
  123SOL    HW1  427   0.296   0.157   0.651
  123SOL    HW2  428   0.302   0.000   0.695
  124SOL     OW  429   1.622   0.367   0.374
  124SOL    HW1  430   1.624   0.291   0.438
  124SOL    HW2  431   1.574   0.444   0.414
  125SOL     OW  432   1.023   0.766   0.966
  125SOL    HW1  433   1.038   0.787   1.062
  125SOL    HW2  434   0.993   0.671   0.957
  126SOL     OW  435   0.980   1.573   1.700
  126SOL    HW1  436   0.960   1.617   1.612
  126SOL    HW2  437   1.019   1.482   1.684
  127SOL     OW  438   1.859   1.518   1.605
  127SOL    HW1  439   1.873   1.545   1.510
  127SOL    HW2  440   1.942   1.540   1.658
  128SOL     OW  441   0.350   0.898   1.804
  128SOL    HW1  442   0.426   0.942   1.852
  128SOL    HW2  443   0.385   0.851   1.722
  129SOL     OW  444   1.540   0.274   0.125
  129SOL    HW1  445   1.479   0.199   0.148
  129SOL    HW2  446   1.562   0.326   0.208
  130SOL     OW  447   1.303   0.838   0.042
  130SOL    HW1  448   1.337   0.745   0.057
  130SOL    HW2  449   1.321   0.865  -0.053
  131SOL     OW  450   1.068   1.333   0.849
  131SOL    HW1  451   1.075   1.249   0.794
  131SOL    HW2  452   1.130   1.402   0.813
  132SOL     OW  453   0.319   0.810   0.949
  132SOL    HW1  454   0.412   0.846   0.954
  132SOL    HW2  455   0.313   0.725   1.001
  133SOL     OW  456   0.339   0.509   1.006
  133SOL    HW1  457   0.287   0.426   0.989
  133SOL    HW2  458   0.416   0.514   0.942
  134SOL     OW  459   1.138   0.380   1.678
  134SOL    HW1  460   1.093   0.443   1.742
  134SOL    HW2  461   1.231   0.411   1.661
  135SOL     OW  462   1.160   0.207   1.477
  135SOL    HW1  463   1.160   0.271   1.554
  135SOL    HW2  464   1.188   0.255   1.394
  136SOL     OW  465   0.008   1.326   0.200
  136SOL    HW1  466  -0.085   1.347   0.169
  136SOL    HW2  467   0.018   1.227   0.213
  137SOL     OW  468   0.088   1.801   0.927
  137SOL    HW1  469   0.046   1.715   0.900
  137SOL    HW2  470   0.182   1.804   0.893
  138SOL     OW  471   0.504   1.568   0.910
  138SOL    HW1  472   0.570   1.642   0.919
  138SOL    HW2  473   0.548   1.489   0.868
  139SOL     OW  474   1.002   0.796   1.238
  139SOL    HW1  475   1.043   0.764   1.324
  139SOL    HW2  476   0.906   0.769   1.235
  140SOL     OW  477   0.040   0.544   1.114
  140SOL    HW1  478   0.125   0.511   1.073
  140SOL    HW2  479   0.053   0.559   1.212
  141SOL     OW  480   0.189   0.520   1.722
  141SOL    HW1  481   0.248   0.480   1.652
  141SOL    HW2  482   0.131   0.591   1.681
  142SOL     OW  483   1.369   0.950   1.660
  142SOL    HW1  484   1.408   1.039   1.680
  142SOL    HW2  485   1.379   0.930   1.563
  143SOL     OW  486   0.815   0.572   0.325
  143SOL    HW1  487   0.822   0.483   0.279
  143SOL    HW2  488   0.721   0.606   0.317
  144SOL     OW  489   1.657   0.604   1.206
  144SOL    HW1  490   1.619   0.535   1.268
  144SOL    HW2  491   1.739   0.568   1.162
  145SOL     OW  492   0.252   1.564   1.744
  145SOL    HW1  493   0.222   1.621   1.820
  145SOL    HW2  494   0.245   1.467   1.770
  146SOL     OW  495   0.671   0.464   1.269
  146SOL    HW1  496   0.637   0.375   1.239
  146SOL    HW2  497   0.697   0.518   1.189
  147SOL     OW  498   0.930   1.678   1.465
  147SOL    HW1  499   0.906   1.660   1.370
  147SOL    HW2  500   0.960   1.772   1.475
  148SOL     OW  501   0.473   0.500   0.191
  148SOL    HW1  502   0.534   0.580   0.195
  148SOL    HW2  503   0.378   0.531   0.198
  149SOL     OW  504   0.159   1.137   1.466
  149SOL    HW1  505   0.181   1.076   1.542
  149SOL    HW2  506   0.169   1.088   1.380
  150SOL     OW  507   1.347   1.059   1.234
  150SOL    HW1  508   1.371   0.996   1.160
  150SOL    HW2  509   1.257   1.099   1.216
  151SOL     OW  510   1.302   0.855   0.309
  151SOL    HW1  511   1.216   0.824   0.351
  151SOL    HW2  512   1.298   0.841   0.210
  152SOL     OW  513   1.759   1.747   1.154
  152SOL    HW1  514   1.820   1.777   1.081
  152SOL    HW2  515   1.721   1.658   1.132
  153SOL     OW  516   1.252   1.731   1.128
  153SOL    HW1  517   1.336   1.736   1.074
  153SOL    HW2  518   1.229   1.635   1.146
  154SOL     OW  519   0.083   1.258   1.022
  154SOL    HW1  520   0.078   1.257   1.122
  154SOL    HW2  521   0.000   1.217   0.984
  155SOL     OW  522   0.688   1.662   1.716
  155SOL    HW1  523   0.632   1.743   1.725
  155SOL    HW2  524   0.740   1.666   1.630
  156SOL     OW  525   0.903   0.086   0.133
  156SOL    HW1  526   0.954   0.087   0.047
  156SOL    HW2  527   0.959   0.044   0.204
  157SOL     OW  528   1.726   0.135   0.523
  157SOL    HW1  529   1.799   0.118   0.456
  157SOL    HW2  530   1.695   0.048   0.561
  158SOL     OW  531   1.388   1.573   0.477
  158SOL    HW1  532   1.455   1.585   0.403
  158SOL    HW2  533   1.348   1.662   0.500
  159SOL     OW  534   0.130   1.794   1.851
  159SOL    HW1  535   0.089   1.720   1.904
  159SOL    HW2  536   0.194   1.845   1.909
  160SOL     OW  537   1.280   0.927   0.672
  160SOL    HW1  538   1.340   0.846   0.674
  160SOL    HW2  539   1.320   0.996   0.612
  161SOL     OW  540   0.830   1.273   1.422
  161SOL    HW1  541   0.825   1.306   1.517
  161SOL    HW2  542   0.744   1.292   1.376
  162SOL     OW  543   0.672   1.616   0.154
  162SOL    HW1  544   0.681   1.626   0.055
  162SOL    HW2  545   0.632   1.527   0.175
  163SOL     OW  546   1.650   1.720   1.394
  163SOL    HW1  547   1.703   1.730   1.310
  163SOL    HW2  548   1.623   1.810   1.428
  164SOL     OW  549   1.841   0.175   0.963
  164SOL    HW1  550   1.880   0.090   0.927
  164SOL    HW2  551   1.743   0.177   0.944
  165SOL     OW  552   0.263   0.326   0.720
  165SOL    HW1  553   0.184   0.377   0.686
  165SOL    HW2  554   0.254   0.311   0.818
  166SOL     OW  555   1.194   1.612   0.031
  166SOL    HW1  556   1.200   1.519   0.068
  166SOL    HW2  557   1.135   1.612  -0.049
  167SOL     OW  558   0.822   1.002   1.372
  167SOL    HW1  559   0.862   1.001   1.280
  167SOL    HW2  560   0.832   1.094   1.412
  168SOL     OW  561   0.916   0.910   0.291
  168SOL    HW1  562   0.979   0.948   0.223
  168SOL    HW2  563   0.956   0.827   0.330
  169SOL     OW  564   1.504   1.607   0.044
  169SOL    HW1  565   1.412   1.644   0.051
  169SOL    HW2  566   1.542   1.627  -0.046
  170SOL     OW  567   0.372   1.288   1.490
  170SOL    HW1  568   0.359   1.381   1.456
  170SOL    HW2  569   0.288   1.236   1.477
  171SOL     OW  570   1.614   1.292   1.289
  171SOL    HW1  571   1.674   1.295   1.369
  171SOL    HW2  572   1.539   1.356   1.302
  172SOL     OW  573   1.039   1.098   0.696
  172SOL    HW1  574   0.969   1.051   0.750
  172SOL    HW2  575   1.098   1.030   0.653
  173SOL     OW  576   1.014   0.236   0.971
  173SOL    HW1  577   1.006   0.200   0.878
  173SOL    HW2  578   1.012   0.160   1.036
  174SOL     OW  579   0.590   1.487   0.491
  174SOL    HW1  580   0.632   1.429   0.421
  174SOL    HW2  581   0.546   1.566   0.447
  175SOL     OW  582   1.709   0.385   1.381
  175SOL    HW1  583   1.782   0.454   1.385
  175SOL    HW2  584   1.737   0.310   1.322
  176SOL     OW  585   0.255   1.348   0.290
  176SOL    HW1  586   0.159   1.349   0.263
  176SOL    HW2  587   0.267   1.401   0.374
  177SOL     OW  588   0.105   1.013   1.726
  177SOL    HW1  589   0.028   0.980   1.780
  177SOL    HW2  590   0.190   0.983   1.768
  178SOL     OW  591   0.672   0.203   1.489
  178SOL    HW1  592   0.762   0.187   1.449
  178SOL    HW2  593   0.680   0.208   1.588
  179SOL     OW  594   0.075   0.345   0.033
  179SOL    HW1  595  -0.017   0.317   0.004
  179SOL    HW2  596   0.106   0.422  -0.023
  180SOL     OW  597   1.440   0.856   1.398
  180SOL    HW1  598   1.383   0.908   1.335
  180SOL    HW2  599   1.536   0.868   1.374
  181SOL     OW  600   0.072   0.166   0.318
  181SOL    HW1  601   0.055   0.249   0.264
  181SOL    HW2  602   0.162   0.129   0.296
  182SOL     OW  603   1.183   1.335   0.119
  182SOL    HW1  604   1.084   1.324   0.121
  182SOL    HW2  605   1.217   1.350   0.212
  183SOL     OW  606   0.613   0.842   1.431
  183SOL    HW1  607   0.669   0.923   1.414
  183SOL    HW2  608   0.672   0.762   1.434
  184SOL     OW  609   1.493   1.767   0.959
  184SOL    HW1  610   1.526   1.831   0.890
  184SOL    HW2  611   1.559   1.761   1.034
  185SOL     OW  612   0.716   0.565   1.708
  185SOL    HW1  613   0.735   0.630   1.782
  185SOL    HW2  614   0.776   0.485   1.717
  186SOL     OW  615   1.450   1.220   1.633
  186SOL    HW1  616   1.441   1.210   1.732
  186SOL    HW2  617   1.546   1.213   1.607
  187SOL     OW  618   0.390   1.741   1.560
  187SOL    HW1  619   0.299   1.782   1.558
  187SOL    HW2  620   0.383   1.647   1.592
  188SOL     OW  621   1.674   0.883   1.254
  188SOL    HW1  622   1.647   0.794   1.217
  188SOL    HW2  623   1.675   0.951   1.181
  189SOL     OW  624   1.225   0.325   0.449
  189SOL    HW1  625   1.290   0.251   0.438
  189SOL    HW2  626   1.245   0.375   0.533
  190SOL     OW  627   0.594   0.745   0.652
  190SOL    HW1  628   0.644   0.830   0.633
  190SOL    HW2  629   0.506   0.747   0.604
  191SOL     OW  630   1.777   0.342   1.642
  191SOL    HW1  631   1.760   0.373   1.548
  191SOL    HW2  632   1.693   0.305   1.680
  192SOL     OW  633   1.730   0.934   1.517
  192SOL    HW1  634   1.768   1.025   1.532
  192SOL    HW2  635   1.722   0.917   1.418
  193SOL     OW  636   0.859   1.374   0.016
  193SOL    HW1  637   0.813   1.389   0.104
  193SOL    HW2  638   0.903   1.459  -0.014
  194SOL     OW  639   0.661   1.790   0.953
  194SOL    HW1  640   0.615   1.878   0.940
  194SOL    HW2  641   0.760   1.802   0.946
  195SOL     OW  642   0.859   0.956   0.861
  195SOL    HW1  643   0.913   0.887   0.909
  195SOL    HW2  644   0.827   1.025   0.927
  196SOL     OW  645   1.083   0.984   0.087
  196SOL    HW1  646   1.060   1.037   0.005
  196SOL    HW2  647   1.164   0.928   0.068
  197SOL     OW  648   1.861   1.569   0.851
  197SOL    HW1  649   1.790   1.557   0.781
  197SOL    HW2  650   1.862   1.490   0.911
  198SOL     OW  651   0.221   1.314   1.844
  198SOL    HW1  652   0.156   1.241   1.823
  198SOL    HW2  653   0.225   1.328   1.942
  199SOL     OW  654   0.079   1.240   0.653
  199SOL    HW1  655   0.078   1.193   0.741
  199SOL    HW2  656   0.161   1.212   0.602
  200SOL     OW  657   0.672   1.391   1.624
  200SOL    HW1  658   0.594   1.341   1.662
  200SOL    HW2  659   0.669   1.486   1.655
  201SOL     OW  660   1.824   0.192   1.227
  201SOL    HW1  661   1.820   0.102   1.271
  201SOL    HW2  662   1.827   0.181   1.128
  202SOL     OW  663   0.428   0.424   0.520
  202SOL    HW1  664   0.458   0.352   0.458
  202SOL    HW2  665   0.389   0.384   0.603
  203SOL     OW  666   1.705   1.487   1.104
  203SOL    HW1  667   1.612   1.462   1.077
  203SOL    HW2  668   1.731   1.437   1.186
  204SOL     OW  669   0.317   0.547   1.280
  204SOL    HW1  670   0.355   0.488   1.352
  204SOL    HW2  671   0.357   0.521   1.192
  205SOL     OW  672   0.812   1.586   0.687
  205SOL    HW1  673   0.844   1.596   0.593
  205SOL    HW2  674   0.733   1.524   0.689
  206SOL     OW  675   1.424   0.214   1.112
  206SOL    HW1  676   1.476   0.149   1.167
  206SOL    HW2  677   1.375   0.277   1.173
  207SOL     OW  678   1.001   0.034   1.154
  207SOL    HW1  679   0.938  -0.038   1.123
  207SOL    HW2  680   1.094  -0.002   1.154
  208SOL     OW  681   0.770   1.330   0.301
  208SOL    HW1  682   0.724   1.243   0.318
  208SOL    HW2  683   0.861   1.327   0.342
  209SOL     OW  684   0.618   1.567   1.284
  209SOL    HW1  685   0.613   1.649   1.341
  209SOL    HW2  686   0.707   1.564   1.239
  210SOL     OW  687   1.352   0.052   0.168
  210SOL    HW1  688   1.387   0.011   0.084
  210SOL    HW2  689   1.262   0.014   0.188
  211SOL     OW  690   1.300   0.453   0.691
  211SOL    HW1  691   1.241   0.533   0.695
  211SOL    HW2  692   1.315   0.418   0.784
  212SOL     OW  693   1.593   0.221   0.882
  212SOL    HW1  694   1.509   0.220   0.936
  212SOL    HW2  695   1.595   0.304   0.826
  213SOL     OW  696   0.039   1.077   0.300
  213SOL    HW1  697   0.138   1.066   0.291
  213SOL    HW2  698  -0.001   0.991   0.332
  214SOL     OW  699   0.875   1.646   0.337
  214SOL    HW1  700   0.798   1.611   0.283
  214SOL    HW2  701   0.843   1.717   0.399
  215SOL     OW  702   0.230   0.628   1.975
  215SOL    HW1  703   0.137   0.626   2.012
  215SOL    HW2  704   0.231   0.589   1.883
  216SOL     OW  705   0.225   0.275   2.858
  216SOL    HW1  706   0.260   0.258   2.950
  216SOL    HW2  707   0.137   0.230   2.846
  217SOL     OW  708   0.019   0.368   2.509
  217SOL    HW1  709  -0.063   0.411   2.548
  217SOL    HW2  710  -0.009   0.295   2.446
  218SOL     OW  711   0.569   1.275   3.027
  218SOL    HW1  712   0.476   1.268   2.990
  218SOL    HW2  713   0.580   1.364   3.071
  219SOL     OW  714   1.555   1.511   2.565
  219SOL    HW1  715   1.498   1.495   2.646
  219SOL    HW2  716   1.496   1.521   2.485
  220SOL     OW  717   1.135   0.703   2.579
  220SOL    HW1  718   1.192   0.781   2.554
  220SOL    HW2  719   1.075   0.729   2.655
  221SOL     OW  720   1.755   0.607   2.093
  221SOL    HW1  721   1.743   0.594   1.994
  221SOL    HW2  722   1.725   0.526   2.142
  222SOL     OW  723   0.768   1.144   2.885
  222SOL    HW1  724   0.690   1.161   2.945
  222SOL    HW2  725   0.802   1.231   2.849
  223SOL     OW  726   0.850   0.798   3.685
  223SOL    HW1  727   0.846   0.874   3.750
  223SOL    HW2  728   0.872   0.834   3.594
  224SOL     OW  729   0.685   1.012   2.527
  224SOL    HW1  730   0.754   0.996   2.597
  224SOL    HW2  731   0.612   1.069   2.565
  225SOL     OW  732   0.686   1.161   3.665
  225SOL    HW1  733   0.746   1.240   3.679
  225SOL    HW2  734   0.600   1.192   3.624
  226SOL     OW  735   0.335   1.435   2.923
  226SOL    HW1  736   0.257   1.404   2.870
  226SOL    HW2  737   0.393   1.493   2.866
  227SOL     OW  738   1.460   1.505   3.201
  227SOL    HW1  739   1.484   1.599   3.227
  227SOL    HW2  740   1.444   1.451   3.283
  228SOL     OW  741   0.438   0.392   3.361
  228SOL    HW1  742   0.520   0.336   3.370
  228SOL    HW2  743   0.357   0.334   3.365
  229SOL     OW  744   1.603   0.447   2.599
  229SOL    HW1  745   1.529   0.493   2.549
  229SOL    HW2  746   1.654   0.515   2.652
  230SOL     OW  747   0.231   1.713   2.345
  230SOL    HW1  748   0.265   1.790   2.399
  230SOL    HW2  749   0.275   1.713   2.255
  231SOL     OW  750   1.127   1.341   3.552
  231SOL    HW1  751   1.174   1.341   3.640
  231SOL    HW2  752   1.079   1.254   3.541
  232SOL     OW  753   0.230   1.434   2.400
  232SOL    HW1  754   0.204   1.530   2.400
  232SOL    HW2  755   0.159   1.380   2.445
  233SOL     OW  756   0.240   1.091   2.748
  233SOL    HW1  757   0.254   1.007   2.800
  233SOL    HW2  758   0.185   1.155   2.803
  234SOL     OW  759   0.620   1.786   3.301
  234SOL    HW1  760   0.528   1.769   3.336
  234SOL    HW2  761   0.648   1.878   3.327
  235SOL     OW  762   0.606   0.964   1.985
  235SOL    HW1  763   0.613   1.048   1.931
  235SOL    HW2  764   0.652   0.977   2.073
  236SOL     OW  765   1.594   0.114   3.342
  236SOL    HW1  766   1.576   0.181   3.270
  236SOL    HW2  767   1.591   0.160   3.431
  237SOL     OW  768   0.122   0.643   2.425
  237SOL    HW1  769   0.077   0.555   2.442
  237SOL    HW2  770   0.121   0.697   2.509
  238SOL     OW  771   1.842   1.767   2.221
  238SOL    HW1  772   1.896   1.738   2.301
  238SOL    HW2  773   1.872   1.857   2.192
  239SOL     OW  774   0.027   1.596   1.979
  239SOL    HW1  775   0.008   1.500   2.000
  239SOL    HW2  776  -0.006   1.654   2.054
  240SOL     OW  777   1.689   0.922   2.474
  240SOL    HW1  778   1.784   0.893   2.482
  240SOL    HW2  779   1.681   0.987   2.399
  241SOL     OW  780   1.641   1.108   2.294
  241SOL    HW1  781   1.727   1.110   2.242
  241SOL    HW2  782   1.655   1.155   2.382
  242SOL     OW  783   0.113   0.737   3.459
  242SOL    HW1  784   0.201   0.724   3.504
  242SOL    HW2  785   0.100   0.834   3.437
  243SOL     OW  786   0.613   1.365   2.588
  243SOL    HW1  787   0.564   1.278   2.597
  243SOL    HW2  788   0.590   1.408   2.501
  244SOL     OW  789   1.293   1.228   3.285
  244SOL    HW1  790   1.330   1.155   3.227
  244SOL    HW2  791   1.345   1.233   3.370
  245SOL     OW  792   0.809   0.004   2.364
  245SOL    HW1  793   0.849   0.095   2.355
  245SOL    HW2  794   0.709   0.012   2.370
  246SOL     OW  795   0.197   0.976   3.126
  246SOL    HW1  796   0.286   0.931   3.112
  246SOL    HW2  797   0.124   0.911   3.107
  247SOL     OW  798   1.525   0.999   2.052
  247SOL    HW1  799   1.462   0.923   2.065
  247SOL    HW2  800   1.573   1.017   2.138
  248SOL     OW  801   1.187   1.792   3.478
  248SOL    HW1  802   1.211   1.852   3.402
  248SOL    HW2  803   1.194   1.697   3.448
  249SOL     OW  804   0.317   0.251   3.663
  249SOL    HW1  805   0.388   0.322   3.669
  249SOL    HW2  806   0.229   0.290   3.691
  250SOL     OW  807   1.466   1.417   2.815
  250SOL    HW1  808   1.407   1.423   2.895
  250SOL    HW2  809   1.451   1.329   2.769
  251SOL     OW  810   1.667   1.714   2.434
  251SOL    HW1  811   1.626   1.691   2.346
  251SOL    HW2  812   1.649   1.640   2.499
  252SOL     OW  813   0.598   0.729   2.132
  252SOL    HW1  814   0.622   0.798   2.064
  252SOL    HW2  815   0.520   0.762   2.186
  253SOL     OW  816   1.281   0.345   2.806
  253SOL    HW1  817   1.195   0.295   2.793
  253SOL    HW2  818   1.343   0.291   2.862
  254SOL     OW  819   1.576   1.662   2.169
  254SOL    HW1  820   1.665   1.708   2.172
  254SOL    HW2  821   1.555   1.638   2.074
  255SOL     OW  822   0.807   0.605   3.327
  255SOL    HW1  823   0.760   0.602   3.416
  255SOL    HW2  824   0.756   0.550   3.261
  256SOL     OW  825   1.394   0.469   3.536
  256SOL    HW1  826   1.374   0.512   3.624
  256SOL    HW2  827   1.472   0.407   3.545
  257SOL     OW  828   0.973   0.890   3.434
  257SOL    HW1  829   1.019   0.806   3.405
  257SOL    HW2  830   0.917   0.924   3.359
  258SOL     OW  831   0.991   0.410   3.104
  258SOL    HW1  832   0.914   0.444   3.158
  258SOL    HW2  833   0.957   0.359   3.025
  259SOL     OW  834   1.041   0.701   2.291
  259SOL    HW1  835   1.067   0.697   2.387
  259SOL    HW2  836   0.956   0.650   2.277
  260SOL     OW  837   0.076   0.811   2.651
  260SOL    HW1  838   0.175   0.799   2.660
  260SOL    HW2  839   0.052   0.906   2.672
  261SOL     OW  840   0.130   1.821   3.433
  261SOL    HW1  841   0.120   1.806   3.532
  261SOL    HW2  842   0.044   1.857   3.397
  262SOL     OW  843   0.865   0.348   2.057
  262SOL    HW1  844   0.924   0.411   2.008
  262SOL    HW2  845   0.884   0.254   2.028
  263SOL     OW  846   1.719   0.585   3.693
  263SOL    HW1  847   1.693   0.674   3.657
  263SOL    HW2  848   1.717   0.517   3.620
  264SOL     OW  849   1.362   1.144   2.407
  264SOL    HW1  850   1.445   1.115   2.359
  264SOL    HW2  851   1.313   1.211   2.351
  265SOL     OW  852   0.550   0.196   2.747
  265SOL    HW1  853   0.545   0.191   2.847
  265SOL    HW2  854   0.552   0.292   2.718
  266SOL     OW  855   1.008   1.456   2.339
  266SOL    HW1  856   0.962   1.528   2.287
  266SOL    HW2  857   1.004   1.476   2.437
  267SOL     OW  858   0.351   1.801   2.715
  267SOL    HW1  859   0.401   1.715   2.721
  267SOL    HW2  860   0.416   1.878   2.712
  268SOL     OW  861   1.795   1.066   2.735
  268SOL    HW1  862   1.733   1.051   2.659
  268SOL    HW2  863   1.743   1.077   2.820
  269SOL     OW  864   1.227   1.550   3.368
  269SOL    HW1  865   1.233   1.473   3.432
  269SOL    HW2  866   1.175   1.524   3.288
  270SOL     OW  867   0.321   0.943   2.104
  270SOL    HW1  868   0.403   0.982   2.062
  270SOL    HW2  869   0.294   0.861   2.055
  271SOL     OW  870   1.458   0.735   2.590
  271SOL    HW1  871   1.453   0.670   2.665
  271SOL    HW2  872   1.538   0.794   2.603
  272SOL     OW  873   0.461   1.266   3.589
  272SOL    HW1  874   0.411   1.267   3.503
  272SOL    HW2  875   0.398   1.248   3.665
  273SOL     OW  876   1.111   1.776   2.099
  273SOL    HW1  877   1.051   1.714   2.149
  273SOL    HW2  878   1.142   1.732   2.014
  274SOL     OW  879   0.202   0.285   3.360
  274SOL    HW1  880   0.122   0.345   3.347
  274SOL    HW2  881   0.192   0.236   3.446
  275SOL     OW  882   1.632   1.377   1.943
  275SOL    HW1  883   1.600   1.471   1.933
  275SOL    HW2  884   1.556   1.314   1.931
  276SOL     OW  885   0.464   1.743   2.185
  276SOL    HW1  886   0.497   1.782   2.271
  276SOL    HW2  887   0.540   1.736   2.120
  277SOL     OW  888   1.400   0.107   2.288
  277SOL    HW1  889   1.376   0.070   2.198
  277SOL    HW2  890   1.499   0.123   2.292
  278SOL     OW  891   0.249   1.785   3.103
  278SOL    HW1  892   0.306   1.720   3.153
  278SOL    HW2  893   0.233   1.752   3.010
  279SOL     OW  894   0.940   1.698   2.766
  279SOL    HW1  895   1.020   1.641   2.787
  279SOL    HW2  896   0.891   1.658   2.689
  280SOL     OW  897   0.382   0.700   2.342
  280SOL    HW1  898   0.427   0.610   2.339
  280SOL    HW2  899   0.288   0.689   2.375
  281SOL     OW  900   1.547   0.222   3.591
  281SOL    HW1  901   1.542   0.259   3.683
  281SOL    HW2  902   1.475   0.153   3.579
  282SOL     OW  903   0.614   0.122   1.979
  282SOL    HW1  904   0.712   0.100   1.986
  282SOL    HW2  905   0.583   0.105   1.886
  283SOL     OW  906   0.781   0.264   3.611
  283SOL    HW1  907   0.848   0.203   3.654
  283SOL    HW2  908   0.708   0.283   3.676
  284SOL     OW  909   0.888   1.514   3.057
  284SOL    HW1  910   0.865   1.489   2.963
  284SOL    HW2  911   0.949   1.445   3.096
  285SOL     OW  912   1.351   0.590   3.295
  285SOL    HW1  913   1.379   0.547   3.380
  285SOL    HW2  914   1.376   0.686   3.296
  286SOL     OW  915   0.803   1.402   2.786
  286SOL    HW1  916   0.893   1.416   2.744
  286SOL    HW2  917   0.732   1.404   2.715
  287SOL     OW  918   0.922   0.503   2.761
  287SOL    HW1  919   0.897   0.494   2.665
  287SOL    HW2  920   0.970   0.421   2.792
  288SOL     OW  921   0.539   0.064   2.374
  288SOL    HW1  922   0.458   0.065   2.432
  288SOL    HW2  923   0.542   0.147   2.319
  289SOL     OW  924   1.434   1.188   1.903
  289SOL    HW1  925   1.466   1.112   1.960
  289SOL    HW2  926   1.342   1.215   1.933
  290SOL     OW  927   0.297   0.035   2.033
  290SOL    HW1  928   0.346   0.119   2.012
  290SOL    HW2  929   0.359  -0.030   2.078
  291SOL     OW  930   0.935   0.236   2.342
  291SOL    HW1  931   0.887   0.277   2.264
  291SOL    HW2  932   1.034   0.234   2.323
  292SOL     OW  933   1.076   0.683   3.326
  292SOL    HW1  934   0.996   0.622   3.329
  292SOL    HW2  935   1.157   0.630   3.302
  293SOL     OW  936   1.227   1.570   2.655
  293SOL    HW1  937   1.248   1.644   2.590
  293SOL    HW2  938   1.295   1.570   2.728
  294SOL     OW  939   0.459   1.152   2.603
  294SOL    HW1  940   0.388   1.125   2.668
  294SOL    HW2  941   0.433   1.124   2.510
  295SOL     OW  942   1.271   1.797   2.453
  295SOL    HW1  943   1.315   1.861   2.389
  295SOL    HW2  944   1.221   1.849   2.523
  296SOL     OW  945   1.032   0.549   1.878
  296SOL    HW1  946   0.991   0.631   1.839
  296SOL    HW2  947   1.096   0.575   1.951
  297SOL     OW  948   0.078   0.556   3.248
  297SOL    HW1  949   0.170   0.555   3.207
  297SOL    HW2  950   0.072   0.630   3.315
  298SOL     OW  951   0.561   0.222   3.009
  298SOL    HW1  952   0.599   0.138   3.046
  298SOL    HW2  953   0.473   0.241   3.053
  299SOL     OW  954   0.866   0.454   2.504
  299SOL    HW1  955   0.834   0.526   2.442
  299SOL    HW2  956   0.890   0.373   2.451
  300SOL     OW  957   1.017   0.039   2.615
  300SOL    HW1  958   0.945   0.044   2.546
  300SOL    HW2  959   0.993  -0.030   2.684
  301SOL     OW  960   1.429   1.173   2.729
  301SOL    HW1  961   1.374   1.089   2.722
  301SOL    HW2  962   1.455   1.202   2.637
  302SOL     OW  963   1.466   0.590   2.854
  302SOL    HW1  964   1.436   0.495   2.861
  302SOL    HW2  965   1.539   0.606   2.920
  303SOL     OW  966   1.857   0.833   2.239
  303SOL    HW1  967   1.899   0.769   2.303
  303SOL    HW2  968   1.819   0.782   2.161
  304SOL     OW  969   0.488   1.385   2.036
  304SOL    HW1  970   0.401   1.370   2.083
  304SOL    HW2  971   0.471   1.411   1.941
  305SOL     OW  972   1.664   1.280   2.519
  305SOL    HW1  973   1.763   1.288   2.533
  305SOL    HW2  974   1.619   1.364   2.550
  306SOL     OW  975   1.390   0.575   1.940
  306SOL    HW1  976   1.336   0.554   2.021
  306SOL    HW2  977   1.481   0.534   1.949
  307SOL     OW  978   0.527   0.256   2.190
  307SOL    HW1  979   0.554   0.197   2.115
  307SOL    HW2  980   0.527   0.351   2.159
  308SOL     OW  981   1.754   1.223   3.450
  308SOL    HW1  982   1.845   1.184   3.437
  308SOL    HW2  983   1.762   1.319   3.474
  309SOL     OW  984   1.064   1.347   3.202
  309SOL    HW1  985   0.984   1.324   3.257
  309SOL    HW2  986   1.147   1.321   3.251
  310SOL     OW  987   1.592   1.629   3.487
  310SOL    HW1  988   1.619   1.663   3.397
  310SOL    HW2  989   1.671   1.591   3.533
  311SOL     OW  990   1.111   1.195   2.962
  311SOL    HW1  991   1.071   1.239   3.043
  311SOL    HW2  992   1.070   1.232   2.879
  312SOL     OW  993   1.638   1.099   2.941
  312SOL    HW1  994   1.643   1.180   3.000
  312SOL    HW2  995   1.552   1.101   2.890
  313SOL     OW  996   0.915   0.089   3.264
  313SOL    HW1  997   0.940   0.069   3.169
  313SOL    HW2  998   0.987   0.145   3.306
  314SOL     OW  999   0.980   1.116   3.581
  314SOL    HW1 1000   0.881   1.122   3.591
  314SOL    HW2 1001   1.003   1.036   3.525
  315SOL     OW 1002   0.705   1.050   2.230
  315SOL    HW1 1003   0.691   1.057   2.329
  315SOL    HW2 1004   0.789   0.999   2.212
  316SOL     OW 1005   0.410   0.813   3.113
  316SOL    HW1 1006   0.496   0.825   3.163
  316SOL    HW2 1007   0.368   0.726   3.140
  317SOL     OW 1008   1.274   0.386   3.124
  317SOL    HW1 1009   1.295   0.460   3.188
  317SOL    HW2 1010   1.185   0.403   3.081
  318SOL     OW 1011   0.064   1.564   3.193
  318SOL    HW1 1012   0.018   1.646   3.159
  318SOL    HW2 1013   0.162   1.583   3.202
  319SOL     OW 1014   0.367   1.100   2.363
  319SOL    HW1 1015   0.360   1.183   2.307
  319SOL    HW2 1016   0.371   1.020   2.303
  320SOL     OW 1017   0.566   0.537   2.727
  320SOL    HW1 1018   0.578   0.603   2.653
  320SOL    HW2 1019   0.612   0.571   2.810
  321SOL     OW 1020   1.252   1.348   2.250
  321SOL    HW1 1021   1.302   1.425   2.290
  321SOL    HW2 1022   1.157   1.350   2.282
  322SOL     OW 1023   1.272   1.445   3.004
  322SOL    HW1 1024   1.319   1.458   3.091
  322SOL    HW2 1025   1.206   1.371   3.013
  323SOL     OW 1026   1.582   0.639   2.334
  323SOL    HW1 1027   1.551   0.700   2.407
  323SOL    HW2 1028   1.632   0.691   2.265
  324SOL     OW 1029   0.354   1.510   3.191
  324SOL    HW1 1030   0.333   1.466   3.104
  324SOL    HW2 1031   0.451   1.536   3.194
  325SOL     OW 1032   0.402   0.751   3.460
  325SOL    HW1 1033   0.470   0.806   3.413
  325SOL    HW2 1034   0.442   0.663   3.487
  326SOL     OW 1035   1.587   0.779   3.532
  326SOL    HW1 1036   1.495   0.817   3.527
  326SOL    HW2 1037   1.647   0.826   3.467
  327SOL     OW 1038   1.013   0.105   3.632
  327SOL    HW1 1039   1.019   0.190   3.580
  327SOL    HW2 1040   1.045   0.029   3.575
  328SOL     OW 1041   0.504   0.050   3.602
  328SOL    HW1 1042   0.462  -0.007   3.532
  328SOL    HW2 1043   0.438   0.119   3.634
  329SOL     OW 1044   0.573   0.870   2.891
  329SOL    HW1 1045   0.617   0.959   2.882
  329SOL    HW2 1046   0.510   0.870   2.968
  330SOL     OW 1047   1.360   0.862   2.907
  330SOL    HW1 1048   1.285   0.862   2.841
  330SOL    HW2 1049   1.397   0.770   2.916
  331SOL     OW 1050   1.209   0.525   2.137
  331SOL    HW1 1051   1.222   0.441   2.191
  331SOL    HW2 1052   1.180   0.599   2.197
  332SOL     OW 1053   0.307   0.213   3.093
  332SOL    HW1 1054   0.284   0.250   3.183
  332SOL    HW2 1055   0.277   0.118   3.087
  333SOL     OW 1056   0.037   1.310   3.144
  333SOL    HW1 1057   0.090   1.261   3.212
  333SOL    HW2 1058   0.059   1.408   3.149
  334SOL     OW 1059   0.732   0.634   2.926
  334SOL    HW1 1060   0.791   0.608   2.850
  334SOL    HW2 1061   0.704   0.730   2.915
  335SOL     OW 1062   1.728   0.935   3.716
  335SOL    HW1 1063   1.682   0.928   3.627
  335SOL    HW2 1064   1.666   0.979   3.782
  336SOL     OW 1065   0.307   0.063   2.480
  336SOL    HW1 1066   0.296   0.157   2.513
  336SOL    HW2 1067   0.302   0.000   2.557
  337SOL     OW 1068   1.622   0.367   2.236
  337SOL    HW1 1069   1.624   0.291   2.300
  337SOL    HW2 1070   1.574   0.444   2.276
  338SOL     OW 1071   1.023   0.766   2.828
  338SOL    HW1 1072   1.038   0.787   2.924
  338SOL    HW2 1073   0.993   0.671   2.819
  339SOL     OW 1074   0.980   1.573   3.562
  339SOL    HW1 1075   0.960   1.617   3.474
  339SOL    HW2 1076   1.019   1.482   3.546
  340SOL     OW 1077   1.859   1.518   3.467
  340SOL    HW1 1078   1.873   1.545   3.372
  340SOL    HW2 1079   1.942   1.540   3.520
  341SOL     OW 1080   0.350   0.898   3.666
  341SOL    HW1 1081   0.426   0.942   3.714
  341SOL    HW2 1082   0.385   0.851   3.584
  342SOL     OW 1083   1.540   0.274   1.987
  342SOL    HW1 1084   1.479   0.199   2.010
  342SOL    HW2 1085   1.562   0.326   2.070
  343SOL     OW 1086   1.303   0.838   1.904
  343SOL    HW1 1087   1.337   0.745   1.919
  343SOL    HW2 1088   1.321   0.865   1.809
  344SOL     OW 1089   1.068   1.333   2.711
  344SOL    HW1 1090   1.075   1.249   2.656
  344SOL    HW2 1091   1.130   1.402   2.675
  345SOL     OW 1092   0.319   0.810   2.811
  345SOL    HW1 1093   0.412   0.846   2.816
  345SOL    HW2 1094   0.313   0.725   2.863
  346SOL     OW 1095   0.339   0.509   2.868
  346SOL    HW1 1096   0.287   0.426   2.851
  346SOL    HW2 1097   0.416   0.514   2.804
  347SOL     OW 1098   1.138   0.380   3.540
  347SOL    HW1 1099   1.093   0.443   3.604
  347SOL    HW2 1100   1.231   0.411   3.523
  348SOL     OW 1101   1.160   0.207   3.339
  348SOL    HW1 1102   1.160   0.271   3.416
  348SOL    HW2 1103   1.188   0.255   3.256
  349SOL     OW 1104   0.008   1.326   2.062
  349SOL    HW1 1105  -0.085   1.347   2.031
  349SOL    HW2 1106   0.018   1.227   2.075
  350SOL     OW 1107   0.088   1.801   2.789
  350SOL    HW1 1108   0.046   1.715   2.762
  350SOL    HW2 1109   0.182   1.804   2.755
  351SOL     OW 1110   0.504   1.568   2.772
  351SOL    HW1 1111   0.570   1.642   2.781
  351SOL    HW2 1112   0.548   1.489   2.730
  352SOL     OW 1113   1.002   0.796   3.100
  352SOL    HW1 1114   1.043   0.764   3.186
  352SOL    HW2 1115   0.906   0.769   3.097
  353SOL     OW 1116   0.040   0.544   2.976
  353SOL    HW1 1117   0.125   0.511   2.935
  353SOL    HW2 1118   0.053   0.559   3.074
  354SOL     OW 1119   0.189   0.520   3.584
  354SOL    HW1 1120   0.248   0.480   3.514
  354SOL    HW2 1121   0.131   0.591   3.543
  355SOL     OW 1122   1.369   0.950   3.522
  355SOL    HW1 1123   1.408   1.039   3.542
  355SOL    HW2 1124   1.379   0.930   3.425
  356SOL     OW 1125   0.815   0.572   2.187
  356SOL    HW1 1126   0.822   0.483   2.141
  356SOL    HW2 1127   0.721   0.606   2.179
  357SOL     OW 1128   1.657   0.604   3.068
  357SOL    HW1 1129   1.619   0.535   3.130
  357SOL    HW2 1130   1.739   0.568   3.024
  358SOL     OW 1131   0.252   1.564   3.606
  358SOL    HW1 1132   0.222   1.621   3.682
  358SOL    HW2 1133   0.245   1.467   3.632
  359SOL     OW 1134   0.671   0.464   3.131
  359SOL    HW1 1135   0.637   0.375   3.101
  359SOL    HW2 1136   0.697   0.518   3.051
  360SOL     OW 1137   0.930   1.678   3.327
  360SOL    HW1 1138   0.906   1.660   3.232
  360SOL    HW2 1139   0.960   1.772   3.337
  361SOL     OW 1140   0.473   0.500   2.053
  361SOL    HW1 1141   0.534   0.580   2.057
  361SOL    HW2 1142   0.378   0.531   2.060
  362SOL     OW 1143   0.159   1.137   3.328
  362SOL    HW1 1144   0.181   1.076   3.404
  362SOL    HW2 1145   0.169   1.088   3.242
  363SOL     OW 1146   1.347   1.059   3.096
  363SOL    HW1 1147   1.371   0.996   3.022
  363SOL    HW2 1148   1.257   1.099   3.078
  364SOL     OW 1149   1.302   0.855   2.171
  364SOL    HW1 1150   1.216   0.824   2.213
  364SOL    HW2 1151   1.298   0.841   2.072
  365SOL     OW 1152   1.759   1.747   3.016
  365SOL    HW1 1153   1.820   1.777   2.943
  365SOL    HW2 1154   1.721   1.658   2.994
  366SOL     OW 1155   1.252   1.731   2.990
  366SOL    HW1 1156   1.336   1.736   2.936
  366SOL    HW2 1157   1.229   1.635   3.008
  367SOL     OW 1158   0.083   1.258   2.884
  367SOL    HW1 1159   0.078   1.257   2.984
  367SOL    HW2 1160   0.000   1.217   2.846
  368SOL     OW 1161   0.688   1.662   3.578
  368SOL    HW1 1162   0.632   1.743   3.587
  368SOL    HW2 1163   0.740   1.666   3.492
  369SOL     OW 1164   1.726   0.135   2.385
  369SOL    HW1 1165   1.799   0.118   2.318
  369SOL    HW2 1166   1.695   0.048   2.423
  370SOL     OW 1167   1.388   1.573   2.339
  370SOL    HW1 1168   1.455   1.585   2.265
  370SOL    HW2 1169   1.348   1.662   2.362
  371SOL     OW 1170   0.130   1.794   3.713
  371SOL    HW1 1171   0.089   1.720   3.766
  371SOL    HW2 1172   0.194   1.845   3.771
  372SOL     OW 1173   1.280   0.927   2.534
  372SOL    HW1 1174   1.340   0.846   2.536
  372SOL    HW2 1175   1.320   0.996   2.474
  373SOL     OW 1176   0.830   1.273   3.284
  373SOL    HW1 1177   0.825   1.306   3.379
  373SOL    HW2 1178   0.744   1.292   3.238
  374SOL     OW 1179   0.672   1.616   2.016
  374SOL    HW1 1180   0.681   1.626   1.917
  374SOL    HW2 1181   0.632   1.527   2.037
  375SOL     OW 1182   1.650   1.720   3.256
  375SOL    HW1 1183   1.703   1.730   3.172
  375SOL    HW2 1184   1.623   1.810   3.290
  376SOL     OW 1185   1.841   0.175   2.825
  376SOL    HW1 1186   1.880   0.090   2.789
  376SOL    HW2 1187   1.743   0.177   2.806
  377SOL     OW 1188   0.263   0.326   2.582
  377SOL    HW1 1189   0.184   0.377   2.548
  377SOL    HW2 1190   0.254   0.311   2.680
  378SOL     OW 1191   1.194   1.612   1.893
  378SOL    HW1 1192   1.200   1.519   1.930
  378SOL    HW2 1193   1.135   1.612   1.813
  379SOL     OW 1194   0.822   1.002   3.234
  379SOL    HW1 1195   0.862   1.001   3.142
  379SOL    HW2 1196   0.832   1.094   3.274
  380SOL     OW 1197   0.916   0.910   2.153
  380SOL    HW1 1198   0.979   0.948   2.085
  380SOL    HW2 1199   0.956   0.827   2.192
  381SOL     OW 1200   1.504   1.607   1.906
  381SOL    HW1 1201   1.412   1.644   1.913
  381SOL    HW2 1202   1.542   1.627   1.816
  382SOL     OW 1203   0.372   1.288   3.352
  382SOL    HW1 1204   0.359   1.381   3.318
  382SOL    HW2 1205   0.288   1.236   3.339
  383SOL     OW 1206   1.614   1.292   3.151
  383SOL    HW1 1207   1.674   1.295   3.231
  383SOL    HW2 1208   1.539   1.356   3.164
  384SOL     OW 1209   1.039   1.098   2.558
  384SOL    HW1 1210   0.969   1.051   2.612
  384SOL    HW2 1211   1.098   1.030   2.515
  385SOL     OW 1212   1.014   0.236   2.833
  385SOL    HW1 1213   1.006   0.200   2.740
  385SOL    HW2 1214   1.012   0.160   2.898
  386SOL     OW 1215   0.590   1.487   2.353
  386SOL    HW1 1216   0.632   1.429   2.283
  386SOL    HW2 1217   0.546   1.566   2.309
  387SOL     OW 1218   1.709   0.385   3.243
  387SOL    HW1 1219   1.782   0.454   3.247
  387SOL    HW2 1220   1.737   0.310   3.184
  388SOL     OW 1221   0.255   1.348   2.152
  388SOL    HW1 1222   0.159   1.349   2.125
  388SOL    HW2 1223   0.267   1.401   2.236
  389SOL     OW 1224   0.105   1.013   3.588
  389SOL    HW1 1225   0.028   0.980   3.642
  389SOL    HW2 1226   0.190   0.983   3.630
  390SOL     OW 1227   0.672   0.203   3.351
  390SOL    HW1 1228   0.762   0.187   3.311
  390SOL    HW2 1229   0.680   0.208   3.450
  391SOL     OW 1230   0.075   0.345   1.895
  391SOL    HW1 1231  -0.017   0.317   1.866
  391SOL    HW2 1232   0.106   0.422   1.839
  392SOL     OW 1233   1.440   0.856   3.260
  392SOL    HW1 1234   1.383   0.908   3.197
  392SOL    HW2 1235   1.536   0.868   3.236
  393SOL     OW 1236   0.072   0.166   2.180
  393SOL    HW1 1237   0.055   0.249   2.126
  393SOL    HW2 1238   0.162   0.129   2.158
  394SOL     OW 1239   1.183   1.335   1.981
  394SOL    HW1 1240   1.084   1.324   1.983
  394SOL    HW2 1241   1.217   1.350   2.074
  395SOL     OW 1242   0.613   0.842   3.293
  395SOL    HW1 1243   0.669   0.923   3.276
  395SOL    HW2 1244   0.672   0.762   3.296
  396SOL     OW 1245   1.493   1.767   2.821
  396SOL    HW1 1246   1.526   1.831   2.752
  396SOL    HW2 1247   1.559   1.761   2.896
  397SOL     OW 1248   0.716   0.565   3.570
  397SOL    HW1 1249   0.735   0.630   3.644
  397SOL    HW2 1250   0.776   0.485   3.579
  398SOL     OW 1251   1.450   1.220   3.495
  398SOL    HW1 1252   1.441   1.210   3.594
  398SOL    HW2 1253   1.546   1.213   3.469
  399SOL     OW 1254   0.390   1.741   3.422
  399SOL    HW1 1255   0.299   1.782   3.420
  399SOL    HW2 1256   0.383   1.647   3.454
  400SOL     OW 1257   1.674   0.883   3.116
  400SOL    HW1 1258   1.647   0.794   3.079
  400SOL    HW2 1259   1.675   0.951   3.043
  401SOL     OW 1260   1.225   0.325   2.311
  401SOL    HW1 1261   1.290   0.251   2.300
  401SOL    HW2 1262   1.245   0.375   2.395
  402SOL     OW 1263   0.594   0.745   2.514
  402SOL    HW1 1264   0.644   0.830   2.495
  402SOL    HW2 1265   0.506   0.747   2.466
  403SOL     OW 1266   1.777   0.342   3.504
  403SOL    HW1 1267   1.760   0.373   3.410
  403SOL    HW2 1268   1.693   0.305   3.542
  404SOL     OW 1269   1.730   0.934   3.379
  404SOL    HW1 1270   1.768   1.025   3.394
  404SOL    HW2 1271   1.722   0.917   3.280
  405SOL     OW 1272   0.859   1.374   1.878
  405SOL    HW1 1273   0.813   1.389   1.966
  405SOL    HW2 1274   0.903   1.459   1.848
  406SOL     OW 1275   0.661   1.790   2.815
  406SOL    HW1 1276   0.615   1.878   2.802
  406SOL    HW2 1277   0.760   1.802   2.808
  407SOL     OW 1278   0.859   0.956   2.723
  407SOL    HW1 1279   0.913   0.887   2.771
  407SOL    HW2 1280   0.827   1.025   2.789
  408SOL     OW 1281   1.083   0.984   1.949
  408SOL    HW1 1282   1.060   1.037   1.867
  408SOL    HW2 1283   1.164   0.928   1.930
  409SOL     OW 1284   1.861   1.569   2.713
  409SOL    HW1 1285   1.790   1.557   2.643
  409SOL    HW2 1286   1.862   1.490   2.773
  410SOL     OW 1287   0.221   1.314   3.706
  410SOL    HW1 1288   0.156   1.241   3.685
  410SOL    HW2 1289   0.225   1.328   3.804
  411SOL     OW 1290   0.079   1.240   2.515
  411SOL    HW1 1291   0.078   1.193   2.603
  411SOL    HW2 1292   0.161   1.212   2.464
  412SOL     OW 1293   0.672   1.391   3.486
  412SOL    HW1 1294   0.594   1.341   3.524
  412SOL    HW2 1295   0.669   1.486   3.517
  413SOL     OW 1296   1.824   0.192   3.089
  413SOL    HW1 1297   1.820   0.102   3.133
  413SOL    HW2 1298   1.827   0.181   2.990
  414SOL     OW 1299   0.428   0.424   2.382
  414SOL    HW1 1300   0.458   0.352   2.320
  414SOL    HW2 1301   0.389   0.384   2.465
  415SOL     OW 1302   1.705   1.487   2.966
  415SOL    HW1 1303   1.612   1.462   2.939
  415SOL    HW2 1304   1.731   1.437   3.048
  416SOL     OW 1305   0.317   0.547   3.142
  416SOL    HW1 1306   0.355   0.488   3.214
  416SOL    HW2 1307   0.357   0.521   3.054
  417SOL     OW 1308   0.812   1.586   2.549
  417SOL    HW1 1309   0.844   1.596   2.455
  417SOL    HW2 1310   0.733   1.524   2.551
  418SOL     OW 1311   1.424   0.214   2.974
  418SOL    HW1 1312   1.476   0.149   3.029
  418SOL    HW2 1313   1.375   0.277   3.035
  419SOL     OW 1314   1.001   0.034   3.016
  419SOL    HW1 1315   0.938  -0.038   2.985
  419SOL    HW2 1316   1.094  -0.002   3.016
  420SOL     OW 1317   0.770   1.330   2.163
  420SOL    HW1 1318   0.724   1.243   2.180
  420SOL    HW2 1319   0.861   1.327   2.204
  421SOL     OW 1320   0.618   1.567   3.146
  421SOL    HW1 1321   0.613   1.649   3.203
  421SOL    HW2 1322   0.707   1.564   3.101
  422SOL     OW 1323   1.352   0.052   2.030
  422SOL    HW1 1324   1.387   0.011   1.946
  422SOL    HW2 1325   1.262   0.014   2.050
  423SOL     OW 1326   1.300   0.453   2.553
  423SOL    HW1 1327   1.241   0.533   2.557
  423SOL    HW2 1328   1.315   0.418   2.646
  424SOL     OW 1329   1.593   0.221   2.744
  424SOL    HW1 1330   1.509   0.220   2.798
  424SOL    HW2 1331   1.595   0.304   2.688
  425SOL     OW 1332   0.039   1.077   2.162
  425SOL    HW1 1333   0.138   1.066   2.153
  425SOL    HW2 1334  -0.001   0.991   2.194
  426SOL     OW 1335   0.875   1.646   2.199
  426SOL    HW1 1336   0.798   1.611   2.145
  426SOL    HW2 1337   0.843   1.717   2.261
  427SOL     OW 1338   0.230   0.628   3.837
  427SOL    HW1 1339   0.137   0.626   3.874
  427SOL    HW2 1340   0.231   0.589   3.745
  428SOL     OW 1341   0.225   0.275   4.720
  428SOL    HW1 1342   0.260   0.258   4.812
  428SOL    HW2 1343   0.137   0.230   4.708
  429SOL     OW 1344   0.019   0.368   4.371
  429SOL    HW1 1345  -0.063   0.411   4.410
  429SOL    HW2 1346  -0.009   0.295   4.308
  430SOL     OW 1347   0.569   1.275   4.889
  430SOL    HW1 1348   0.476   1.268   4.852
  430SOL    HW2 1349   0.580   1.364   4.933
  431SOL     OW 1350   1.555   1.511   4.427
  431SOL    HW1 1351   1.498   1.495   4.508
  431SOL    HW2 1352   1.496   1.521   4.347
  432SOL     OW 1353   1.135   0.703   4.441
  432SOL    HW1 1354   1.192   0.781   4.416
  432SOL    HW2 1355   1.075   0.729   4.517
  433SOL     OW 1356   1.755   0.607   3.955
  433SOL    HW1 1357   1.743   0.594   3.856
  433SOL    HW2 1358   1.725   0.526   4.004
  434SOL     OW 1359   0.768   1.144   4.747
  434SOL    HW1 1360   0.690   1.161   4.807
  434SOL    HW2 1361   0.802   1.231   4.711
  435SOL     OW 1362   0.685   1.012   4.389
  435SOL    HW1 1363   0.754   0.996   4.459
  435SOL    HW2 1364   0.612   1.069   4.427
  436SOL     OW 1365   0.335   1.435   4.785
  436SOL    HW1 1366   0.257   1.404   4.732
  436SOL    HW2 1367   0.393   1.493   4.728
  437SOL     OW 1368   1.603   0.447   4.461
  437SOL    HW1 1369   1.529   0.493   4.411
  437SOL    HW2 1370   1.654   0.515   4.514
  438SOL     OW 1371   0.231   1.713   4.207
  438SOL    HW1 1372   0.265   1.790   4.261
  438SOL    HW2 1373   0.275   1.713   4.117
  439SOL     OW 1374   0.230   1.434   4.262
  439SOL    HW1 1375   0.204   1.530   4.262
  439SOL    HW2 1376   0.159   1.380   4.307
  440SOL     OW 1377   0.240   1.091   4.610
  440SOL    HW1 1378   0.254   1.007   4.662
  440SOL    HW2 1379   0.185   1.155   4.665
  441SOL     OW 1380   0.620   1.786   5.163
  441SOL    HW1 1381   0.528   1.769   5.198
  441SOL    HW2 1382   0.648   1.878   5.189
  442SOL     OW 1383   0.606   0.964   3.847
  442SOL    HW1 1384   0.613   1.048   3.793
  442SOL    HW2 1385   0.652   0.977   3.935
  443SOL     OW 1386   0.122   0.643   4.287
  443SOL    HW1 1387   0.077   0.555   4.304
  443SOL    HW2 1388   0.121   0.697   4.371
  444SOL     OW 1389   1.842   1.767   4.083
  444SOL    HW1 1390   1.896   1.738   4.163
  444SOL    HW2 1391   1.872   1.857   4.054
  445SOL     OW 1392   0.027   1.596   3.841
  445SOL    HW1 1393   0.008   1.500   3.862
  445SOL    HW2 1394  -0.006   1.654   3.916
  446SOL     OW 1395   1.689   0.922   4.336
  446SOL    HW1 1396   1.784   0.893   4.344
  446SOL    HW2 1397   1.681   0.987   4.261
  447SOL     OW 1398   1.641   1.108   4.156
  447SOL    HW1 1399   1.727   1.110   4.104
  447SOL    HW2 1400   1.655   1.155   4.244
  448SOL     OW 1401   0.613   1.365   4.450
  448SOL    HW1 1402   0.564   1.278   4.459
  448SOL    HW2 1403   0.590   1.408   4.363
  449SOL     OW 1404   0.809   0.004   4.226
  449SOL    HW1 1405   0.849   0.095   4.217
  449SOL    HW2 1406   0.709   0.012   4.232
  450SOL     OW 1407   0.197   0.976   4.988
  450SOL    HW1 1408   0.286   0.931   4.974
  450SOL    HW2 1409   0.124   0.911   4.969
  451SOL     OW 1410   1.525   0.999   3.914
  451SOL    HW1 1411   1.462   0.923   3.927
  451SOL    HW2 1412   1.573   1.017   4.000
  452SOL     OW 1413   1.466   1.417   4.677
  452SOL    HW1 1414   1.407   1.423   4.757
  452SOL    HW2 1415   1.451   1.329   4.631
  453SOL     OW 1416   1.667   1.714   4.296
  453SOL    HW1 1417   1.626   1.691   4.208
  453SOL    HW2 1418   1.649   1.640   4.361
  454SOL     OW 1419   0.598   0.729   3.994
  454SOL    HW1 1420   0.622   0.798   3.926
  454SOL    HW2 1421   0.520   0.762   4.048
  455SOL     OW 1422   1.281   0.345   4.668
  455SOL    HW1 1423   1.195   0.295   4.655
  455SOL    HW2 1424   1.343   0.291   4.724
  456SOL     OW 1425   1.576   1.662   4.031
  456SOL    HW1 1426   1.665   1.708   4.034
  456SOL    HW2 1427   1.555   1.638   3.936
  457SOL     OW 1428   0.991   0.410   4.966
  457SOL    HW1 1429   0.914   0.444   5.020
  457SOL    HW2 1430   0.957   0.359   4.887
  458SOL     OW 1431   1.041   0.701   4.153
  458SOL    HW1 1432   1.067   0.697   4.249
  458SOL    HW2 1433   0.956   0.650   4.139
  459SOL     OW 1434   0.076   0.811   4.513
  459SOL    HW1 1435   0.175   0.799   4.522
  459SOL    HW2 1436   0.052   0.906   4.534
  460SOL     OW 1437   0.130   1.821   5.295
  460SOL    HW1 1438   0.120   1.806   5.394
  460SOL    HW2 1439   0.044   1.857   5.259
  461SOL     OW 1440   0.865   0.348   3.919
  461SOL    HW1 1441   0.924   0.411   3.870
  461SOL    HW2 1442   0.884   0.254   3.890
  462SOL     OW 1443   1.362   1.144   4.269
  462SOL    HW1 1444   1.445   1.115   4.221
  462SOL    HW2 1445   1.313   1.211   4.213
  463SOL     OW 1446   0.550   0.196   4.609
  463SOL    HW1 1447   0.545   0.191   4.709
  463SOL    HW2 1448   0.552   0.292   4.580
  464SOL     OW 1449   1.008   1.456   4.201
  464SOL    HW1 1450   0.962   1.528   4.149
  464SOL    HW2 1451   1.004   1.476   4.299
  465SOL     OW 1452   0.351   1.801   4.577
  465SOL    HW1 1453   0.401   1.715   4.583
  465SOL    HW2 1454   0.416   1.878   4.574
  466SOL     OW 1455   1.795   1.066   4.597
  466SOL    HW1 1456   1.733   1.051   4.521
  466SOL    HW2 1457   1.743   1.077   4.682
  467SOL     OW 1458   0.321   0.943   3.966
  467SOL    HW1 1459   0.403   0.982   3.924
  467SOL    HW2 1460   0.294   0.861   3.917
  468SOL     OW 1461   1.458   0.735   4.452
  468SOL    HW1 1462   1.453   0.670   4.527
  468SOL    HW2 1463   1.538   0.794   4.465
  469SOL     OW 1464   1.111   1.776   3.961
  469SOL    HW1 1465   1.051   1.714   4.011
  469SOL    HW2 1466   1.142   1.732   3.876
  470SOL     OW 1467   1.632   1.377   3.805
  470SOL    HW1 1468   1.600   1.471   3.795
  470SOL    HW2 1469   1.556   1.314   3.793
  471SOL     OW 1470   0.464   1.743   4.047
  471SOL    HW1 1471   0.497   1.782   4.133
  471SOL    HW2 1472   0.540   1.736   3.982
  472SOL     OW 1473   1.400   0.107   4.150
  472SOL    HW1 1474   1.376   0.070   4.060
  472SOL    HW2 1475   1.499   0.123   4.154
  473SOL     OW 1476   0.249   1.785   4.965
  473SOL    HW1 1477   0.306   1.720   5.015
  473SOL    HW2 1478   0.233   1.752   4.872
  474SOL     OW 1479   0.940   1.698   4.628
  474SOL    HW1 1480   1.020   1.641   4.649
  474SOL    HW2 1481   0.891   1.658   4.551
  475SOL     OW 1482   0.382   0.700   4.204
  475SOL    HW1 1483   0.427   0.610   4.201
  475SOL    HW2 1484   0.288   0.689   4.237
  476SOL     OW 1485   0.614   0.122   3.841
  476SOL    HW1 1486   0.712   0.100   3.848
  476SOL    HW2 1487   0.583   0.105   3.748
  477SOL     OW 1488   0.803   1.402   4.648
  477SOL    HW1 1489   0.893   1.416   4.606
  477SOL    HW2 1490   0.732   1.404   4.577
  478SOL     OW 1491   0.922   0.503   4.623
  478SOL    HW1 1492   0.897   0.494   4.527
  478SOL    HW2 1493   0.970   0.421   4.654
  479SOL     OW 1494   0.539   0.064   4.236
  479SOL    HW1 1495   0.458   0.065   4.294
  479SOL    HW2 1496   0.542   0.147   4.181
  480SOL     OW 1497   1.434   1.188   3.765
  480SOL    HW1 1498   1.466   1.112   3.822
  480SOL    HW2 1499   1.342   1.215   3.795
  481SOL     OW 1500   0.297   0.035   3.895
  481SOL    HW1 1501   0.346   0.119   3.874
  481SOL    HW2 1502   0.359  -0.030   3.940
  482SOL     OW 1503   0.935   0.236   4.204
  482SOL    HW1 1504   0.887   0.277   4.126
  482SOL    HW2 1505   1.034   0.234   4.185
  483SOL     OW 1506   1.227   1.570   4.517
  483SOL    HW1 1507   1.248   1.644   4.452
  483SOL    HW2 1508   1.295   1.570   4.590
  484SOL     OW 1509   0.459   1.152   4.465
  484SOL    HW1 1510   0.388   1.125   4.530
  484SOL    HW2 1511   0.433   1.124   4.372
  485SOL     OW 1512   1.271   1.797   4.315
  485SOL    HW1 1513   1.315   1.861   4.251
  485SOL    HW2 1514   1.221   1.849   4.385
  486SOL     OW 1515   1.032   0.549   3.740
  486SOL    HW1 1516   0.991   0.631   3.701
  486SOL    HW2 1517   1.096   0.575   3.813
  487SOL     OW 1518   0.561   0.222   4.871
  487SOL    HW1 1519   0.599   0.138   4.908
  487SOL    HW2 1520   0.473   0.241   4.915
  488SOL     OW 1521   0.866   0.454   4.366
  488SOL    HW1 1522   0.834   0.526   4.304
  488SOL    HW2 1523   0.890   0.373   4.313
  489SOL     OW 1524   1.017   0.039   4.477
  489SOL    HW1 1525   0.945   0.044   4.408
  489SOL    HW2 1526   0.993  -0.030   4.546
  490SOL     OW 1527   1.429   1.173   4.591
  490SOL    HW1 1528   1.374   1.089   4.584
  490SOL    HW2 1529   1.455   1.202   4.499
  491SOL     OW 1530   1.466   0.590   4.716
  491SOL    HW1 1531   1.436   0.495   4.723
  491SOL    HW2 1532   1.539   0.606   4.782
  492SOL     OW 1533   1.857   0.833   4.101
  492SOL    HW1 1534   1.899   0.769   4.165
  492SOL    HW2 1535   1.819   0.782   4.023
  493SOL     OW 1536   0.488   1.385   3.898
  493SOL    HW1 1537   0.401   1.370   3.945
  493SOL    HW2 1538   0.471   1.411   3.803
  494SOL     OW 1539   1.664   1.280   4.381
  494SOL    HW1 1540   1.763   1.288   4.395
  494SOL    HW2 1541   1.619   1.364   4.412
  495SOL     OW 1542   1.390   0.575   3.802
  495SOL    HW1 1543   1.336   0.554   3.883
  495SOL    HW2 1544   1.481   0.534   3.811
  496SOL     OW 1545   0.527   0.256   4.052
  496SOL    HW1 1546   0.554   0.197   3.977
  496SOL    HW2 1547   0.527   0.351   4.021
  497SOL     OW 1548   1.111   1.195   4.824
  497SOL    HW1 1549   1.071   1.239   4.905
  497SOL    HW2 1550   1.070   1.232   4.741
  498SOL     OW 1551   1.638   1.099   4.803
  498SOL    HW1 1552   1.643   1.180   4.862
  498SOL    HW2 1553   1.552   1.101   4.752
  499SOL     OW 1554   0.705   1.050   4.092
  499SOL    HW1 1555   0.691   1.057   4.191
  499SOL    HW2 1556   0.789   0.999   4.074
  500SOL     OW 1557   0.410   0.813   4.975
  500SOL    HW1 1558   0.496   0.825   5.025
  500SOL    HW2 1559   0.368   0.726   5.002
  501SOL     OW 1560   1.274   0.386   4.986
  501SOL    HW1 1561   1.295   0.460   5.050
  501SOL    HW2 1562   1.185   0.403   4.943
  502SOL     OW 1563   0.367   1.100   4.225
  502SOL    HW1 1564   0.360   1.183   4.169
  502SOL    HW2 1565   0.371   1.020   4.165
  503SOL     OW 1566   0.566   0.537   4.589
  503SOL    HW1 1567   0.578   0.603   4.515
  503SOL    HW2 1568   0.612   0.571   4.672
  504SOL     OW 1569   1.252   1.348   4.112
  504SOL    HW1 1570   1.302   1.425   4.152
  504SOL    HW2 1571   1.157   1.350   4.144
  505SOL     OW 1572   1.272   1.445   4.866
  505SOL    HW1 1573   1.319   1.458   4.953
  505SOL    HW2 1574   1.206   1.371   4.875
  506SOL     OW 1575   1.582   0.639   4.196
  506SOL    HW1 1576   1.551   0.700   4.269
  506SOL    HW2 1577   1.632   0.691   4.127
  507SOL     OW 1578   0.354   1.510   5.053
  507SOL    HW1 1579   0.333   1.466   4.966
  507SOL    HW2 1580   0.451   1.536   5.056
  508SOL     OW 1581   0.573   0.870   4.753
  508SOL    HW1 1582   0.617   0.959   4.744
  508SOL    HW2 1583   0.510   0.870   4.830
  509SOL     OW 1584   1.360   0.862   4.769
  509SOL    HW1 1585   1.285   0.862   4.703
  509SOL    HW2 1586   1.397   0.770   4.778
  510SOL     OW 1587   1.209   0.525   3.999
  510SOL    HW1 1588   1.222   0.441   4.053
  510SOL    HW2 1589   1.180   0.599   4.059
  511SOL     OW 1590   0.307   0.213   4.955
  511SOL    HW1 1591   0.284   0.250   5.045
  511SOL    HW2 1592   0.277   0.118   4.949
  512SOL     OW 1593   0.037   1.310   5.006
  512SOL    HW1 1594   0.090   1.261   5.074
  512SOL    HW2 1595   0.059   1.408   5.011
  513SOL     OW 1596   0.732   0.634   4.788
  513SOL    HW1 1597   0.791   0.608   4.712
  513SOL    HW2 1598   0.704   0.730   4.777
  514SOL     OW 1599   0.307   0.063   4.342
  514SOL    HW1 1600   0.296   0.157   4.375
  514SOL    HW2 1601   0.302   0.000   4.419
  515SOL     OW 1602   1.622   0.367   4.098
  515SOL    HW1 1603   1.624   0.291   4.162
  515SOL    HW2 1604   1.574   0.444   4.138
  516SOL     OW 1605   1.023   0.766   4.690
  516SOL    HW1 1606   1.038   0.787   4.786
  516SOL    HW2 1607   0.993   0.671   4.681
  517SOL     OW 1608   1.540   0.274   3.849
  517SOL    HW1 1609   1.479   0.199   3.872
  517SOL    HW2 1610   1.562   0.326   3.932
  518SOL     OW 1611   1.303   0.838   3.766
  518SOL    HW1 1612   1.337   0.745   3.781
  518SOL    HW2 1613   1.321   0.865   3.671
  519SOL     OW 1614   1.068   1.333   4.573
  519SOL    HW1 1615   1.075   1.249   4.518
  519SOL    HW2 1616   1.130   1.402   4.537
  520SOL     OW 1617   0.319   0.810   4.673
  520SOL    HW1 1618   0.412   0.846   4.678
  520SOL    HW2 1619   0.313   0.725   4.725
  521SOL     OW 1620   0.339   0.509   4.730
  521SOL    HW1 1621   0.287   0.426   4.713
  521SOL    HW2 1622   0.416   0.514   4.666
  522SOL     OW 1623   1.160   0.207   5.201
  522SOL    HW1 1624   1.160   0.271   5.278
  522SOL    HW2 1625   1.188   0.255   5.118
  523SOL     OW 1626   0.008   1.326   3.924
  523SOL    HW1 1627  -0.085   1.347   3.893
  523SOL    HW2 1628   0.018   1.227   3.937
  524SOL     OW 1629   0.088   1.801   4.651
  524SOL    HW1 1630   0.046   1.715   4.624
  524SOL    HW2 1631   0.182   1.804   4.617
  525SOL     OW 1632   0.504   1.568   4.634
  525SOL    HW1 1633   0.570   1.642   4.643
  525SOL    HW2 1634   0.548   1.489   4.592
  526SOL     OW 1635   1.002   0.796   4.962
  526SOL    HW1 1636   1.043   0.764   5.048
  526SOL    HW2 1637   0.906   0.769   4.959
  527SOL     OW 1638   0.040   0.544   4.838
  527SOL    HW1 1639   0.125   0.511   4.797
  527SOL    HW2 1640   0.053   0.559   4.936
  528SOL     OW 1641   0.815   0.572   4.049
  528SOL    HW1 1642   0.822   0.483   4.003
  528SOL    HW2 1643   0.721   0.606   4.041
  529SOL     OW 1644   1.657   0.604   4.930
  529SOL    HW1 1645   1.619   0.535   4.992
  529SOL    HW2 1646   1.739   0.568   4.886
  530SOL     OW 1647   0.671   0.464   4.993
  530SOL    HW1 1648   0.637   0.375   4.963
  530SOL    HW2 1649   0.697   0.518   4.913
  531SOL     OW 1650   0.930   1.678   5.189
  531SOL    HW1 1651   0.906   1.660   5.094
  531SOL    HW2 1652   0.960   1.772   5.199
  532SOL     OW 1653   0.473   0.500   3.915
  532SOL    HW1 1654   0.534   0.580   3.919
  532SOL    HW2 1655   0.378   0.531   3.922
  533SOL     OW 1656   1.347   1.059   4.958
  533SOL    HW1 1657   1.371   0.996   4.884
  533SOL    HW2 1658   1.257   1.099   4.940
  534SOL     OW 1659   1.302   0.855   4.033
  534SOL    HW1 1660   1.216   0.824   4.075
  534SOL    HW2 1661   1.298   0.841   3.934
  535SOL     OW 1662   1.759   1.747   4.878
  535SOL    HW1 1663   1.820   1.777   4.805
  535SOL    HW2 1664   1.721   1.658   4.856
  536SOL     OW 1665   1.252   1.731   4.852
  536SOL    HW1 1666   1.336   1.736   4.798
  536SOL    HW2 1667   1.229   1.635   4.870
  537SOL     OW 1668   0.083   1.258   4.746
  537SOL    HW1 1669   0.078   1.257   4.846
  537SOL    HW2 1670   0.000   1.217   4.708
  538SOL     OW 1671   1.726   0.135   4.247
  538SOL    HW1 1672   1.799   0.118   4.180
  538SOL    HW2 1673   1.695   0.048   4.285
  539SOL     OW 1674   1.388   1.573   4.201
  539SOL    HW1 1675   1.455   1.585   4.127
  539SOL    HW2 1676   1.348   1.662   4.224
  540SOL     OW 1677   1.280   0.927   4.396
  540SOL    HW1 1678   1.340   0.846   4.398
  540SOL    HW2 1679   1.320   0.996   4.336
  541SOL     OW 1680   0.672   1.616   3.878
  541SOL    HW1 1681   0.681   1.626   3.779
  541SOL    HW2 1682   0.632   1.527   3.899
  542SOL     OW 1683   1.650   1.720   5.118
  542SOL    HW1 1684   1.703   1.730   5.034
  542SOL    HW2 1685   1.623   1.810   5.152
  543SOL     OW 1686   1.841   0.175   4.687
  543SOL    HW1 1687   1.880   0.090   4.651
  543SOL    HW2 1688   1.743   0.177   4.668
  544SOL     OW 1689   0.263   0.326   4.444
  544SOL    HW1 1690   0.184   0.377   4.410
  544SOL    HW2 1691   0.254   0.311   4.542
  545SOL     OW 1692   1.194   1.612   3.755
  545SOL    HW1 1693   1.200   1.519   3.792
  545SOL    HW2 1694   1.135   1.612   3.675
  546SOL     OW 1695   0.822   1.002   5.096
  546SOL    HW1 1696   0.862   1.001   5.004
  546SOL    HW2 1697   0.832   1.094   5.136
  547SOL     OW 1698   0.916   0.910   4.015
  547SOL    HW1 1699   0.979   0.948   3.947
  547SOL    HW2 1700   0.956   0.827   4.054
  548SOL     OW 1701   1.504   1.607   3.768
  548SOL    HW1 1702   1.412   1.644   3.775
  548SOL    HW2 1703   1.542   1.627   3.678
  549SOL     OW 1704   1.039   1.098   4.420
  549SOL    HW1 1705   0.969   1.051   4.474
  549SOL    HW2 1706   1.098   1.030   4.377
  550SOL     OW 1707   1.014   0.236   4.695
  550SOL    HW1 1708   1.006   0.200   4.602
  550SOL    HW2 1709   1.012   0.160   4.760
  551SOL     OW 1710   0.590   1.487   4.215
  551SOL    HW1 1711   0.632   1.429   4.145
  551SOL    HW2 1712   0.546   1.566   4.171
  552SOL     OW 1713   1.709   0.385   5.105
  552SOL    HW1 1714   1.782   0.454   5.109
  552SOL    HW2 1715   1.737   0.310   5.046
  553SOL     OW 1716   0.255   1.348   4.014
  553SOL    HW1 1717   0.159   1.349   3.987
  553SOL    HW2 1718   0.267   1.401   4.098
  554SOL     OW 1719   0.075   0.345   3.757
  554SOL    HW1 1720  -0.017   0.317   3.728
  554SOL    HW2 1721   0.106   0.422   3.701
  555SOL     OW 1722   0.072   0.166   4.042
  555SOL    HW1 1723   0.055   0.249   3.988
  555SOL    HW2 1724   0.162   0.129   4.020
  556SOL     OW 1725   1.183   1.335   3.843
  556SOL    HW1 1726   1.084   1.324   3.845
  556SOL    HW2 1727   1.217   1.350   3.936
  557SOL     OW 1728   1.493   1.767   4.683
  557SOL    HW1 1729   1.526   1.831   4.614
  557SOL    HW2 1730   1.559   1.761   4.758
  558SOL     OW 1731   1.450   1.220   5.357
  558SOL    HW1 1732   1.441   1.210   5.456
  558SOL    HW2 1733   1.546   1.213   5.331
  559SOL     OW 1734   1.674   0.883   4.978
  559SOL    HW1 1735   1.647   0.794   4.941
  559SOL    HW2 1736   1.675   0.951   4.905
  560SOL     OW 1737   1.225   0.325   4.173
  560SOL    HW1 1738   1.290   0.251   4.162
  560SOL    HW2 1739   1.245   0.375   4.257
  561SOL     OW 1740   0.594   0.745   4.376
  561SOL    HW1 1741   0.644   0.830   4.357
  561SOL    HW2 1742   0.506   0.747   4.328
  562SOL     OW 1743   1.730   0.934   5.241
  562SOL    HW1 1744   1.768   1.025   5.256
  562SOL    HW2 1745   1.722   0.917   5.142
  563SOL     OW 1746   0.859   1.374   3.740
  563SOL    HW1 1747   0.813   1.389   3.828
  563SOL    HW2 1748   0.903   1.459   3.710
  564SOL     OW 1749   0.661   1.790   4.677
  564SOL    HW1 1750   0.615   1.878   4.664
  564SOL    HW2 1751   0.760   1.802   4.670
  565SOL     OW 1752   0.859   0.956   4.585
  565SOL    HW1 1753   0.913   0.887   4.633
  565SOL    HW2 1754   0.827   1.025   4.651
  566SOL     OW 1755   1.083   0.984   3.811
  566SOL    HW1 1756   1.060   1.037   3.729
  566SOL    HW2 1757   1.164   0.928   3.792
  567SOL     OW 1758   1.861   1.569   4.575
  567SOL    HW1 1759   1.790   1.557   4.505
  567SOL    HW2 1760   1.862   1.490   4.635
  568SOL     OW 1761   0.079   1.240   4.377
  568SOL    HW1 1762   0.078   1.193   4.465
  568SOL    HW2 1763   0.161   1.212   4.326
  569SOL     OW 1764   1.824   0.192   4.951
  569SOL    HW1 1765   1.820   0.102   4.995
  569SOL    HW2 1766   1.827   0.181   4.852
  570SOL     OW 1767   0.428   0.424   4.244
  570SOL    HW1 1768   0.458   0.352   4.182
  570SOL    HW2 1769   0.389   0.384   4.327
  571SOL     OW 1770   1.705   1.487   4.828
  571SOL    HW1 1771   1.612   1.462   4.801
  571SOL    HW2 1772   1.731   1.437   4.910
  572SOL     OW 1773   0.812   1.586   4.411
  572SOL    HW1 1774   0.844   1.596   4.317
  572SOL    HW2 1775   0.733   1.524   4.413
  573SOL     OW 1776   1.424   0.214   4.836
  573SOL    HW1 1777   1.476   0.149   4.891
  573SOL    HW2 1778   1.375   0.277   4.897
  574SOL     OW 1779   1.001   0.034   4.878
  574SOL    HW1 1780   0.938  -0.038   4.847
  574SOL    HW2 1781   1.094  -0.002   4.878
  575SOL     OW 1782   0.770   1.330   4.025
  575SOL    HW1 1783   0.724   1.243   4.042
  575SOL    HW2 1784   0.861   1.327   4.066
  576SOL     OW 1785   1.352   0.052   3.892
  576SOL    HW1 1786   1.387   0.011   3.808
  576SOL    HW2 1787   1.262   0.014   3.912
  577SOL     OW 1788   1.300   0.453   4.415
  577SOL    HW1 1789   1.241   0.533   4.419
  577SOL    HW2 1790   1.315   0.418   4.508
  578SOL     OW 1791   1.593   0.221   4.606
  578SOL    HW1 1792   1.509   0.220   4.660
  578SOL    HW2 1793   1.595   0.304   4.550
  579SOL     OW 1794   0.039   1.077   4.024
  579SOL    HW1 1795   0.138   1.066   4.015
  579SOL    HW2 1796  -0.001   0.991   4.056
  580SOL     OW 1797   0.875   1.646   4.061
  580SOL    HW1 1798   0.798   1.611   4.007
  580SOL    HW2 1799   0.843   1.717   4.123
  581SOL     OW 1800   0.230   2.490   0.113
  581SOL    HW1 1801   0.137   2.488   0.150
  581SOL    HW2 1802   0.231   2.451   0.021
  582SOL     OW 1803   0.225   2.137   0.996
  582SOL    HW1 1804   0.260   2.120   1.088
  582SOL    HW2 1805   0.137   2.092   0.984
  583SOL     OW 1806   0.019   2.230   0.647
  583SOL    HW1 1807  -0.063   2.273   0.686
  583SOL    HW2 1808  -0.009   2.157   0.584
  584SOL     OW 1809   0.569   3.137   1.165
  584SOL    HW1 1810   0.476   3.130   1.128
  584SOL    HW2 1811   0.580   3.226   1.209
  585SOL     OW 1812   1.555   3.373   0.703
  585SOL    HW1 1813   1.498   3.357   0.784
  585SOL    HW2 1814   1.496   3.383   0.623
  586SOL     OW 1815   1.135   2.565   0.717
  586SOL    HW1 1816   1.192   2.643   0.692
  586SOL    HW2 1817   1.075   2.591   0.793
  587SOL     OW 1818   1.755   2.469   0.231
  587SOL    HW1 1819   1.743   2.456   0.132
  587SOL    HW2 1820   1.725   2.388   0.280
  588SOL     OW 1821   0.768   3.006   1.023
  588SOL    HW1 1822   0.690   3.023   1.083
  588SOL    HW2 1823   0.802   3.093   0.987
  589SOL     OW 1824   0.850   2.660   1.823
  589SOL    HW1 1825   0.846   2.736   1.888
  589SOL    HW2 1826   0.872   2.696   1.732
  590SOL     OW 1827   0.685   2.874   0.665
  590SOL    HW1 1828   0.754   2.858   0.735
  590SOL    HW2 1829   0.612   2.931   0.703
  591SOL     OW 1830   0.686   3.023   1.803
  591SOL    HW1 1831   0.746   3.102   1.817
  591SOL    HW2 1832   0.600   3.054   1.762
  592SOL     OW 1833   0.335   3.297   1.061
  592SOL    HW1 1834   0.257   3.266   1.008
  592SOL    HW2 1835   0.393   3.355   1.004
  593SOL     OW 1836   1.460   3.367   1.339
  593SOL    HW1 1837   1.484   3.461   1.365
  593SOL    HW2 1838   1.444   3.313   1.421
  594SOL     OW 1839   0.438   2.254   1.499
  594SOL    HW1 1840   0.520   2.198   1.508
  594SOL    HW2 1841   0.357   2.196   1.503
  595SOL     OW 1842   1.603   2.309   0.737
  595SOL    HW1 1843   1.529   2.355   0.687
  595SOL    HW2 1844   1.654   2.377   0.790
  596SOL     OW 1845   0.231   3.575   0.483
  596SOL    HW1 1846   0.265   3.652   0.537
  596SOL    HW2 1847   0.275   3.575   0.393
  597SOL     OW 1848   1.127   3.203   1.690
  597SOL    HW1 1849   1.174   3.203   1.778
  597SOL    HW2 1850   1.079   3.116   1.679
  598SOL     OW 1851   0.230   3.296   0.538
  598SOL    HW1 1852   0.204   3.392   0.538
  598SOL    HW2 1853   0.159   3.242   0.583
  599SOL     OW 1854   0.240   2.953   0.886
  599SOL    HW1 1855   0.254   2.869   0.938
  599SOL    HW2 1856   0.185   3.017   0.941
  600SOL     OW 1857   0.620   3.648   1.439
  600SOL    HW1 1858   0.528   3.631   1.474
  600SOL    HW2 1859   0.648   3.740   1.465
  601SOL     OW 1860   0.606   2.826   0.123
  601SOL    HW1 1861   0.613   2.910   0.069
  601SOL    HW2 1862   0.652   2.839   0.211
  602SOL     OW 1863   1.594   1.976   1.480
  602SOL    HW1 1864   1.576   2.043   1.408
  602SOL    HW2 1865   1.591   2.022   1.569
  603SOL     OW 1866   0.122   2.505   0.563
  603SOL    HW1 1867   0.077   2.417   0.580
  603SOL    HW2 1868   0.121   2.559   0.647
  604SOL     OW 1869   1.842   3.629   0.359
  604SOL    HW1 1870   1.896   3.600   0.439
  604SOL    HW2 1871   1.872   3.719   0.330
  605SOL     OW 1872   0.027   3.458   0.117
  605SOL    HW1 1873   0.008   3.362   0.138
  605SOL    HW2 1874  -0.006   3.516   0.192
  606SOL     OW 1875   1.689   2.784   0.612
  606SOL    HW1 1876   1.784   2.755   0.620
  606SOL    HW2 1877   1.681   2.849   0.537
  607SOL     OW 1878   1.641   2.970   0.432
  607SOL    HW1 1879   1.727   2.972   0.380
  607SOL    HW2 1880   1.655   3.017   0.520
  608SOL     OW 1881   0.113   2.599   1.597
  608SOL    HW1 1882   0.201   2.586   1.642
  608SOL    HW2 1883   0.100   2.696   1.575
  609SOL     OW 1884   0.613   3.227   0.726
  609SOL    HW1 1885   0.564   3.140   0.735
  609SOL    HW2 1886   0.590   3.270   0.639
  610SOL     OW 1887   1.293   3.090   1.423
  610SOL    HW1 1888   1.330   3.017   1.365
  610SOL    HW2 1889   1.345   3.095   1.508
  611SOL     OW 1890   0.809   1.866   0.502
  611SOL    HW1 1891   0.849   1.957   0.493
  611SOL    HW2 1892   0.709   1.874   0.508
  612SOL     OW 1893   0.197   2.838   1.264
  612SOL    HW1 1894   0.286   2.793   1.250
  612SOL    HW2 1895   0.124   2.773   1.245
  613SOL     OW 1896   1.525   2.861   0.190
  613SOL    HW1 1897   1.462   2.785   0.203
  613SOL    HW2 1898   1.573   2.879   0.276
  614SOL     OW 1899   1.187   3.654   1.616
  614SOL    HW1 1900   1.211   3.714   1.540
  614SOL    HW2 1901   1.194   3.559   1.586
  615SOL     OW 1902   0.317   2.113   1.801
  615SOL    HW1 1903   0.388   2.184   1.807
  615SOL    HW2 1904   0.229   2.152   1.829
  616SOL     OW 1905   1.466   3.279   0.953
  616SOL    HW1 1906   1.407   3.285   1.033
  616SOL    HW2 1907   1.451   3.191   0.907
  617SOL     OW 1908   1.667   3.576   0.572
  617SOL    HW1 1909   1.626   3.553   0.484
  617SOL    HW2 1910   1.649   3.502   0.637
  618SOL     OW 1911   0.598   2.591   0.270
  618SOL    HW1 1912   0.622   2.660   0.202
  618SOL    HW2 1913   0.520   2.624   0.324
  619SOL     OW 1914   1.281   2.207   0.944
  619SOL    HW1 1915   1.195   2.157   0.931
  619SOL    HW2 1916   1.343   2.153   1.000
  620SOL     OW 1917   1.576   3.524   0.307
  620SOL    HW1 1918   1.665   3.570   0.310
  620SOL    HW2 1919   1.555   3.500   0.212
  621SOL     OW 1920   0.807   2.467   1.465
  621SOL    HW1 1921   0.760   2.464   1.554
  621SOL    HW2 1922   0.756   2.412   1.399
  622SOL     OW 1923   1.394   2.331   1.674
  622SOL    HW1 1924   1.374   2.374   1.762
  622SOL    HW2 1925   1.472   2.269   1.683
  623SOL     OW 1926   0.973   2.752   1.572
  623SOL    HW1 1927   1.019   2.668   1.543
  623SOL    HW2 1928   0.917   2.786   1.497
  624SOL     OW 1929   0.991   2.272   1.242
  624SOL    HW1 1930   0.914   2.306   1.296
  624SOL    HW2 1931   0.957   2.221   1.163
  625SOL     OW 1932   1.041   2.563   0.429
  625SOL    HW1 1933   1.067   2.559   0.525
  625SOL    HW2 1934   0.956   2.512   0.415
  626SOL     OW 1935   0.076   2.673   0.789
  626SOL    HW1 1936   0.175   2.661   0.798
  626SOL    HW2 1937   0.052   2.768   0.810
  627SOL     OW 1938   0.130   3.683   1.571
  627SOL    HW1 1939   0.120   3.668   1.670
  627SOL    HW2 1940   0.044   3.719   1.535
  628SOL     OW 1941   0.865   2.210   0.195
  628SOL    HW1 1942   0.924   2.273   0.146
  628SOL    HW2 1943   0.884   2.116   0.166
  629SOL     OW 1944   1.719   2.447   1.831
  629SOL    HW1 1945   1.693   2.536   1.795
  629SOL    HW2 1946   1.717   2.379   1.758
  630SOL     OW 1947   1.362   3.006   0.545
  630SOL    HW1 1948   1.445   2.977   0.497
  630SOL    HW2 1949   1.313   3.073   0.489
  631SOL     OW 1950   0.550   2.058   0.885
  631SOL    HW1 1951   0.545   2.053   0.985
  631SOL    HW2 1952   0.552   2.154   0.856
  632SOL     OW 1953   1.008   3.318   0.477
  632SOL    HW1 1954   0.962   3.390   0.425
  632SOL    HW2 1955   1.004   3.338   0.575
  633SOL     OW 1956   0.351   3.663   0.853
  633SOL    HW1 1957   0.401   3.577   0.859
  633SOL    HW2 1958   0.416   3.740   0.850
  634SOL     OW 1959   1.795   2.928   0.873
  634SOL    HW1 1960   1.733   2.913   0.797
  634SOL    HW2 1961   1.743   2.939   0.958
  635SOL     OW 1962   1.227   3.412   1.506
  635SOL    HW1 1963   1.233   3.335   1.570
  635SOL    HW2 1964   1.175   3.386   1.426
  636SOL     OW 1965   0.321   2.805   0.242
  636SOL    HW1 1966   0.403   2.844   0.200
  636SOL    HW2 1967   0.294   2.723   0.193
  637SOL     OW 1968   1.458   2.597   0.728
  637SOL    HW1 1969   1.453   2.532   0.803
  637SOL    HW2 1970   1.538   2.656   0.741
  638SOL     OW 1971   0.461   3.128   1.727
  638SOL    HW1 1972   0.411   3.129   1.641
  638SOL    HW2 1973   0.398   3.110   1.803
  639SOL     OW 1974   1.111   3.638   0.237
  639SOL    HW1 1975   1.051   3.576   0.287
  639SOL    HW2 1976   1.142   3.594   0.152
  640SOL     OW 1977   0.202   2.147   1.498
  640SOL    HW1 1978   0.122   2.207   1.485
  640SOL    HW2 1979   0.192   2.098   1.584
  641SOL     OW 1980   1.632   3.239   0.081
  641SOL    HW1 1981   1.600   3.333   0.071
  641SOL    HW2 1982   1.556   3.176   0.069
  642SOL     OW 1983   0.464   3.605   0.323
  642SOL    HW1 1984   0.497   3.644   0.409
  642SOL    HW2 1985   0.540   3.598   0.258
  643SOL     OW 1986   1.400   1.969   0.426
  643SOL    HW1 1987   1.376   1.932   0.336
  643SOL    HW2 1988   1.499   1.985   0.430
  644SOL     OW 1989   0.249   3.647   1.241
  644SOL    HW1 1990   0.306   3.582   1.291
  644SOL    HW2 1991   0.233   3.614   1.148
  645SOL     OW 1992   0.940   3.560   0.904
  645SOL    HW1 1993   1.020   3.503   0.925
  645SOL    HW2 1994   0.891   3.520   0.827
  646SOL     OW 1995   0.382   2.562   0.480
  646SOL    HW1 1996   0.427   2.472   0.477
  646SOL    HW2 1997   0.288   2.551   0.513
  647SOL     OW 1998   1.547   2.084   1.729
  647SOL    HW1 1999   1.542   2.121   1.821
  647SOL    HW2 2000   1.475   2.015   1.717
  648SOL     OW 2001   0.781   2.126   1.749
  648SOL    HW1 2002   0.848   2.065   1.792
  648SOL    HW2 2003   0.708   2.145   1.814
  649SOL     OW 2004   0.888   3.376   1.195
  649SOL    HW1 2005   0.865   3.351   1.101
  649SOL    HW2 2006   0.949   3.307   1.234
  650SOL     OW 2007   1.351   2.452   1.433
  650SOL    HW1 2008   1.379   2.409   1.518
  650SOL    HW2 2009   1.376   2.548   1.434
  651SOL     OW 2010   0.803   3.264   0.924
  651SOL    HW1 2011   0.893   3.278   0.882
  651SOL    HW2 2012   0.732   3.266   0.853
  652SOL     OW 2013   0.922   2.365   0.899
  652SOL    HW1 2014   0.897   2.356   0.803
  652SOL    HW2 2015   0.970   2.283   0.930
  653SOL     OW 2016   0.539   1.926   0.512
  653SOL    HW1 2017   0.458   1.927   0.570
  653SOL    HW2 2018   0.542   2.009   0.457
  654SOL     OW 2019   1.434   3.050   0.041
  654SOL    HW1 2020   1.466   2.974   0.098
  654SOL    HW2 2021   1.342   3.077   0.071
  655SOL     OW 2022   0.297   1.897   0.171
  655SOL    HW1 2023   0.346   1.981   0.150
  655SOL    HW2 2024   0.359   1.832   0.216
  656SOL     OW 2025   0.935   2.098   0.480
  656SOL    HW1 2026   0.887   2.139   0.402
  656SOL    HW2 2027   1.034   2.096   0.461
  657SOL     OW 2028   1.076   2.545   1.464
  657SOL    HW1 2029   0.996   2.484   1.467
  657SOL    HW2 2030   1.157   2.492   1.440
  658SOL     OW 2031   1.227   3.432   0.793
  658SOL    HW1 2032   1.248   3.506   0.728
  658SOL    HW2 2033   1.295   3.432   0.866
  659SOL     OW 2034   0.459   3.014   0.741
  659SOL    HW1 2035   0.388   2.987   0.806
  659SOL    HW2 2036   0.433   2.986   0.648
  660SOL     OW 2037   1.271   3.659   0.591
  660SOL    HW1 2038   1.315   3.723   0.527
  660SOL    HW2 2039   1.221   3.711   0.661
  661SOL     OW 2040   1.032   2.411   0.016
  661SOL    HW1 2041   0.991   2.493  -0.023
  661SOL    HW2 2042   1.096   2.437   0.089
  662SOL     OW 2043   0.078   2.418   1.386
  662SOL    HW1 2044   0.170   2.417   1.345
  662SOL    HW2 2045   0.072   2.492   1.453
  663SOL     OW 2046   0.561   2.084   1.147
  663SOL    HW1 2047   0.599   2.000   1.184
  663SOL    HW2 2048   0.473   2.103   1.191
  664SOL     OW 2049   0.866   2.316   0.642
  664SOL    HW1 2050   0.834   2.388   0.580
  664SOL    HW2 2051   0.890   2.235   0.589
  665SOL     OW 2052   1.017   1.901   0.753
  665SOL    HW1 2053   0.945   1.906   0.684
  665SOL    HW2 2054   0.993   1.832   0.822
  666SOL     OW 2055   1.429   3.035   0.867
  666SOL    HW1 2056   1.374   2.951   0.860
  666SOL    HW2 2057   1.455   3.064   0.775
  667SOL     OW 2058   1.466   2.452   0.992
  667SOL    HW1 2059   1.436   2.357   0.999
  667SOL    HW2 2060   1.539   2.468   1.058
  668SOL     OW 2061   1.857   2.695   0.377
  668SOL    HW1 2062   1.899   2.631   0.441
  668SOL    HW2 2063   1.819   2.644   0.299
  669SOL     OW 2064   0.488   3.247   0.174
  669SOL    HW1 2065   0.401   3.232   0.221
  669SOL    HW2 2066   0.471   3.273   0.079
  670SOL     OW 2067   1.664   3.142   0.657
  670SOL    HW1 2068   1.763   3.150   0.671
  670SOL    HW2 2069   1.619   3.226   0.688
  671SOL     OW 2070   1.390   2.437   0.078
  671SOL    HW1 2071   1.336   2.416   0.159
  671SOL    HW2 2072   1.481   2.396   0.087
  672SOL     OW 2073   0.527   2.118   0.328
  672SOL    HW1 2074   0.554   2.059   0.253
  672SOL    HW2 2075   0.527   2.213   0.297
  673SOL     OW 2076   1.754   3.085   1.588
  673SOL    HW1 2077   1.845   3.046   1.575
  673SOL    HW2 2078   1.762   3.181   1.612
  674SOL     OW 2079   1.064   3.209   1.340
  674SOL    HW1 2080   0.984   3.186   1.395
  674SOL    HW2 2081   1.147   3.183   1.389
  675SOL     OW 2082   1.592   3.491   1.625
  675SOL    HW1 2083   1.619   3.525   1.535
  675SOL    HW2 2084   1.671   3.453   1.671
  676SOL     OW 2085   1.111   3.057   1.100
  676SOL    HW1 2086   1.071   3.101   1.181
  676SOL    HW2 2087   1.070   3.094   1.017
  677SOL     OW 2088   1.638   2.961   1.079
  677SOL    HW1 2089   1.643   3.042   1.138
  677SOL    HW2 2090   1.552   2.963   1.028
  678SOL     OW 2091   0.915   1.951   1.402
  678SOL    HW1 2092   0.940   1.931   1.307
  678SOL    HW2 2093   0.987   2.007   1.444
  679SOL     OW 2094   0.980   2.978   1.719
  679SOL    HW1 2095   0.881   2.984   1.729
  679SOL    HW2 2096   1.003   2.898   1.663
  680SOL     OW 2097   0.705   2.912   0.368
  680SOL    HW1 2098   0.691   2.919   0.467
  680SOL    HW2 2099   0.789   2.861   0.350
  681SOL     OW 2100   0.410   2.675   1.251
  681SOL    HW1 2101   0.496   2.687   1.301
  681SOL    HW2 2102   0.368   2.588   1.278
  682SOL     OW 2103   1.274   2.248   1.262
  682SOL    HW1 2104   1.295   2.322   1.326
  682SOL    HW2 2105   1.185   2.265   1.219
  683SOL     OW 2106   0.064   3.426   1.331
  683SOL    HW1 2107   0.018   3.508   1.297
  683SOL    HW2 2108   0.162   3.445   1.340
  684SOL     OW 2109   0.367   2.962   0.501
  684SOL    HW1 2110   0.360   3.045   0.445
  684SOL    HW2 2111   0.371   2.882   0.441
  685SOL     OW 2112   0.566   2.399   0.865
  685SOL    HW1 2113   0.578   2.465   0.791
  685SOL    HW2 2114   0.612   2.433   0.948
  686SOL     OW 2115   1.252   3.210   0.388
  686SOL    HW1 2116   1.302   3.287   0.428
  686SOL    HW2 2117   1.157   3.212   0.420
  687SOL     OW 2118   1.272   3.307   1.142
  687SOL    HW1 2119   1.319   3.320   1.229
  687SOL    HW2 2120   1.206   3.233   1.151
  688SOL     OW 2121   1.582   2.501   0.472
  688SOL    HW1 2122   1.551   2.562   0.545
  688SOL    HW2 2123   1.632   2.553   0.403
  689SOL     OW 2124   0.354   3.372   1.329
  689SOL    HW1 2125   0.333   3.328   1.242
  689SOL    HW2 2126   0.451   3.398   1.332
  690SOL     OW 2127   0.402   2.613   1.598
  690SOL    HW1 2128   0.470   2.668   1.551
  690SOL    HW2 2129   0.442   2.525   1.625
  691SOL     OW 2130   1.587   2.641   1.670
  691SOL    HW1 2131   1.495   2.679   1.665
  691SOL    HW2 2132   1.647   2.688   1.605
  692SOL     OW 2133   1.013   1.967   1.770
  692SOL    HW1 2134   1.019   2.052   1.718
  692SOL    HW2 2135   1.045   1.891   1.713
  693SOL     OW 2136   0.504   1.912   1.740
  693SOL    HW1 2137   0.462   1.855   1.670
  693SOL    HW2 2138   0.438   1.981   1.772
  694SOL     OW 2139   0.573   2.732   1.029
  694SOL    HW1 2140   0.617   2.821   1.020
  694SOL    HW2 2141   0.510   2.732   1.106
  695SOL     OW 2142   1.360   2.724   1.045
  695SOL    HW1 2143   1.285   2.724   0.979
  695SOL    HW2 2144   1.397   2.632   1.054
  696SOL     OW 2145   1.209   2.387   0.275
  696SOL    HW1 2146   1.222   2.303   0.329
  696SOL    HW2 2147   1.180   2.461   0.335
  697SOL     OW 2148   0.307   2.075   1.231
  697SOL    HW1 2149   0.284   2.112   1.321
  697SOL    HW2 2150   0.277   1.980   1.225
  698SOL     OW 2151   0.037   3.172   1.282
  698SOL    HW1 2152   0.090   3.123   1.350
  698SOL    HW2 2153   0.059   3.270   1.287
  699SOL     OW 2154   0.732   2.496   1.064
  699SOL    HW1 2155   0.791   2.470   0.988
  699SOL    HW2 2156   0.704   2.592   1.053
  700SOL     OW 2157   1.728   2.797   1.854
  700SOL    HW1 2158   1.682   2.790   1.765
  700SOL    HW2 2159   1.666   2.841   1.920
  701SOL     OW 2160   0.307   1.925   0.618
  701SOL    HW1 2161   0.296   2.019   0.651
  701SOL    HW2 2162   0.302   1.862   0.695
  702SOL     OW 2163   1.622   2.229   0.374
  702SOL    HW1 2164   1.624   2.153   0.438
  702SOL    HW2 2165   1.574   2.306   0.414
  703SOL     OW 2166   1.023   2.628   0.966
  703SOL    HW1 2167   1.038   2.649   1.062
  703SOL    HW2 2168   0.993   2.533   0.957
  704SOL     OW 2169   0.980   3.435   1.700
  704SOL    HW1 2170   0.960   3.479   1.612
  704SOL    HW2 2171   1.019   3.344   1.684
  705SOL     OW 2172   1.859   3.380   1.605
  705SOL    HW1 2173   1.873   3.407   1.510
  705SOL    HW2 2174   1.942   3.402   1.658
  706SOL     OW 2175   0.350   2.760   1.804
  706SOL    HW1 2176   0.426   2.804   1.852
  706SOL    HW2 2177   0.385   2.713   1.722
  707SOL     OW 2178   1.540   2.136   0.125
  707SOL    HW1 2179   1.479   2.061   0.148
  707SOL    HW2 2180   1.562   2.188   0.208
  708SOL     OW 2181   1.303   2.700   0.042
  708SOL    HW1 2182   1.337   2.607   0.057
  708SOL    HW2 2183   1.321   2.727  -0.053
  709SOL     OW 2184   1.068   3.195   0.849
  709SOL    HW1 2185   1.075   3.111   0.794
  709SOL    HW2 2186   1.130   3.264   0.813
  710SOL     OW 2187   0.319   2.672   0.949
  710SOL    HW1 2188   0.412   2.708   0.954
  710SOL    HW2 2189   0.313   2.587   1.001
  711SOL     OW 2190   0.339   2.371   1.006
  711SOL    HW1 2191   0.287   2.288   0.989
  711SOL    HW2 2192   0.416   2.376   0.942
  712SOL     OW 2193   1.138   2.242   1.678
  712SOL    HW1 2194   1.093   2.305   1.742
  712SOL    HW2 2195   1.231   2.273   1.661
  713SOL     OW 2196   1.160   2.069   1.477
  713SOL    HW1 2197   1.160   2.133   1.554
  713SOL    HW2 2198   1.188   2.117   1.394
  714SOL     OW 2199   0.008   3.188   0.200
  714SOL    HW1 2200  -0.085   3.209   0.169
  714SOL    HW2 2201   0.018   3.089   0.213
  715SOL     OW 2202   0.088   3.663   0.927
  715SOL    HW1 2203   0.046   3.577   0.900
  715SOL    HW2 2204   0.182   3.666   0.893
  716SOL     OW 2205   0.504   3.430   0.910
  716SOL    HW1 2206   0.570   3.504   0.919
  716SOL    HW2 2207   0.548   3.351   0.868
  717SOL     OW 2208   1.002   2.658   1.238
  717SOL    HW1 2209   1.043   2.626   1.324
  717SOL    HW2 2210   0.906   2.631   1.235
  718SOL     OW 2211   0.040   2.406   1.114
  718SOL    HW1 2212   0.125   2.373   1.073
  718SOL    HW2 2213   0.053   2.421   1.212
  719SOL     OW 2214   0.189   2.382   1.722
  719SOL    HW1 2215   0.248   2.342   1.652
  719SOL    HW2 2216   0.131   2.453   1.681
  720SOL     OW 2217   1.369   2.812   1.660
  720SOL    HW1 2218   1.408   2.901   1.680
  720SOL    HW2 2219   1.379   2.792   1.563
  721SOL     OW 2220   0.815   2.434   0.325
  721SOL    HW1 2221   0.822   2.345   0.279
  721SOL    HW2 2222   0.721   2.468   0.317
  722SOL     OW 2223   1.657   2.466   1.206
  722SOL    HW1 2224   1.619   2.397   1.268
  722SOL    HW2 2225   1.739   2.430   1.162
  723SOL     OW 2226   0.252   3.426   1.744
  723SOL    HW1 2227   0.222   3.483   1.820
  723SOL    HW2 2228   0.245   3.329   1.770
  724SOL     OW 2229   0.671   2.326   1.269
  724SOL    HW1 2230   0.637   2.237   1.239
  724SOL    HW2 2231   0.697   2.380   1.189
  725SOL     OW 2232   0.930   3.540   1.465
  725SOL    HW1 2233   0.906   3.522   1.370
  725SOL    HW2 2234   0.960   3.634   1.475
  726SOL     OW 2235   0.473   2.362   0.191
  726SOL    HW1 2236   0.534   2.442   0.195
  726SOL    HW2 2237   0.378   2.393   0.198
  727SOL     OW 2238   0.159   2.999   1.466
  727SOL    HW1 2239   0.181   2.938   1.542
  727SOL    HW2 2240   0.169   2.950   1.380
  728SOL     OW 2241   1.347   2.921   1.234
  728SOL    HW1 2242   1.371   2.858   1.160
  728SOL    HW2 2243   1.257   2.961   1.216
  729SOL     OW 2244   1.302   2.717   0.309
  729SOL    HW1 2245   1.216   2.686   0.351
  729SOL    HW2 2246   1.298   2.703   0.210
  730SOL     OW 2247   1.759   3.609   1.154
  730SOL    HW1 2248   1.820   3.639   1.081
  730SOL    HW2 2249   1.721   3.520   1.132
  731SOL     OW 2250   1.252   3.593   1.128
  731SOL    HW1 2251   1.336   3.598   1.074
  731SOL    HW2 2252   1.229   3.497   1.146
  732SOL     OW 2253   0.083   3.120   1.022
  732SOL    HW1 2254   0.078   3.119   1.122
  732SOL    HW2 2255   0.000   3.079   0.984
  733SOL     OW 2256   0.688   3.524   1.716
  733SOL    HW1 2257   0.632   3.605   1.725
  733SOL    HW2 2258   0.740   3.528   1.630
  734SOL     OW 2259   0.903   1.948   0.133
  734SOL    HW1 2260   0.954   1.949   0.047
  734SOL    HW2 2261   0.959   1.906   0.204
  735SOL     OW 2262   1.726   1.997   0.523
  735SOL    HW1 2263   1.799   1.980   0.456
  735SOL    HW2 2264   1.695   1.910   0.561
  736SOL     OW 2265   1.388   3.435   0.477
  736SOL    HW1 2266   1.455   3.447   0.403
  736SOL    HW2 2267   1.348   3.524   0.500
  737SOL     OW 2268   0.130   3.656   1.851
  737SOL    HW1 2269   0.089   3.582   1.904
  737SOL    HW2 2270   0.194   3.707   1.909
  738SOL     OW 2271   1.280   2.789   0.672
  738SOL    HW1 2272   1.340   2.708   0.674
  738SOL    HW2 2273   1.320   2.858   0.612
  739SOL     OW 2274   0.830   3.135   1.422
  739SOL    HW1 2275   0.825   3.168   1.517
  739SOL    HW2 2276   0.744   3.154   1.376
  740SOL     OW 2277   0.672   3.478   0.154
  740SOL    HW1 2278   0.681   3.488   0.055
  740SOL    HW2 2279   0.632   3.389   0.175
  741SOL     OW 2280   1.650   3.582   1.394
  741SOL    HW1 2281   1.703   3.592   1.310
  741SOL    HW2 2282   1.623   3.672   1.428
  742SOL     OW 2283   1.841   2.037   0.963
  742SOL    HW1 2284   1.880   1.952   0.927
  742SOL    HW2 2285   1.743   2.039   0.944
  743SOL     OW 2286   0.263   2.188   0.720
  743SOL    HW1 2287   0.184   2.239   0.686
  743SOL    HW2 2288   0.254   2.173   0.818
  744SOL     OW 2289   1.194   3.474   0.031
  744SOL    HW1 2290   1.200   3.381   0.068
  744SOL    HW2 2291   1.135   3.474  -0.049
  745SOL     OW 2292   0.822   2.864   1.372
  745SOL    HW1 2293   0.862   2.863   1.280
  745SOL    HW2 2294   0.832   2.956   1.412
  746SOL     OW 2295   0.916   2.772   0.291
  746SOL    HW1 2296   0.979   2.810   0.223
  746SOL    HW2 2297   0.956   2.689   0.330
  747SOL     OW 2298   1.504   3.469   0.044
  747SOL    HW1 2299   1.412   3.506   0.051
  747SOL    HW2 2300   1.542   3.489  -0.046
  748SOL     OW 2301   0.372   3.150   1.490
  748SOL    HW1 2302   0.359   3.243   1.456
  748SOL    HW2 2303   0.288   3.098   1.477
  749SOL     OW 2304   1.614   3.154   1.289
  749SOL    HW1 2305   1.674   3.157   1.369
  749SOL    HW2 2306   1.539   3.218   1.302
  750SOL     OW 2307   1.039   2.960   0.696
  750SOL    HW1 2308   0.969   2.913   0.750
  750SOL    HW2 2309   1.098   2.892   0.653
  751SOL     OW 2310   1.014   2.098   0.971
  751SOL    HW1 2311   1.006   2.062   0.878
  751SOL    HW2 2312   1.012   2.022   1.036
  752SOL     OW 2313   0.590   3.349   0.491
  752SOL    HW1 2314   0.632   3.291   0.421
  752SOL    HW2 2315   0.546   3.428   0.447
  753SOL     OW 2316   1.709   2.247   1.381
  753SOL    HW1 2317   1.782   2.316   1.385
  753SOL    HW2 2318   1.737   2.172   1.322
  754SOL     OW 2319   0.255   3.210   0.290
  754SOL    HW1 2320   0.159   3.211   0.263
  754SOL    HW2 2321   0.267   3.263   0.374
  755SOL     OW 2322   0.105   2.875   1.726
  755SOL    HW1 2323   0.028   2.842   1.780
  755SOL    HW2 2324   0.190   2.845   1.768
  756SOL     OW 2325   0.672   2.065   1.489
  756SOL    HW1 2326   0.762   2.049   1.449
  756SOL    HW2 2327   0.680   2.070   1.588
  757SOL     OW 2328   0.075   2.207   0.033
  757SOL    HW1 2329  -0.017   2.179   0.004
  757SOL    HW2 2330   0.106   2.284  -0.023
  758SOL     OW 2331   1.440   2.718   1.398
  758SOL    HW1 2332   1.383   2.770   1.335
  758SOL    HW2 2333   1.536   2.730   1.374
  759SOL     OW 2334   0.072   2.028   0.318
  759SOL    HW1 2335   0.055   2.111   0.264
  759SOL    HW2 2336   0.162   1.991   0.296
  760SOL     OW 2337   1.183   3.197   0.119
  760SOL    HW1 2338   1.084   3.186   0.121
  760SOL    HW2 2339   1.217   3.212   0.212
  761SOL     OW 2340   0.613   2.704   1.431
  761SOL    HW1 2341   0.669   2.785   1.414
  761SOL    HW2 2342   0.672   2.624   1.434
  762SOL     OW 2343   1.493   3.629   0.959
  762SOL    HW1 2344   1.526   3.693   0.890
  762SOL    HW2 2345   1.559   3.623   1.034
  763SOL     OW 2346   0.716   2.427   1.708
  763SOL    HW1 2347   0.735   2.492   1.782
  763SOL    HW2 2348   0.776   2.347   1.717
  764SOL     OW 2349   1.450   3.082   1.633
  764SOL    HW1 2350   1.441   3.072   1.732
  764SOL    HW2 2351   1.546   3.075   1.607
  765SOL     OW 2352   0.390   3.603   1.560
  765SOL    HW1 2353   0.299   3.644   1.558
  765SOL    HW2 2354   0.383   3.509   1.592
  766SOL     OW 2355   1.674   2.745   1.254
  766SOL    HW1 2356   1.647   2.656   1.217
  766SOL    HW2 2357   1.675   2.813   1.181
  767SOL     OW 2358   1.225   2.187   0.449
  767SOL    HW1 2359   1.290   2.113   0.438
  767SOL    HW2 2360   1.245   2.237   0.533
  768SOL     OW 2361   0.594   2.607   0.652
  768SOL    HW1 2362   0.644   2.692   0.633
  768SOL    HW2 2363   0.506   2.609   0.604
  769SOL     OW 2364   1.777   2.204   1.642
  769SOL    HW1 2365   1.760   2.235   1.548
  769SOL    HW2 2366   1.693   2.167   1.680
  770SOL     OW 2367   1.730   2.796   1.517
  770SOL    HW1 2368   1.768   2.887   1.532
  770SOL    HW2 2369   1.722   2.779   1.418
  771SOL     OW 2370   0.859   3.236   0.016
  771SOL    HW1 2371   0.813   3.251   0.104
  771SOL    HW2 2372   0.903   3.321  -0.014
  772SOL     OW 2373   0.661   3.652   0.953
  772SOL    HW1 2374   0.615   3.740   0.940
  772SOL    HW2 2375   0.760   3.664   0.946
  773SOL     OW 2376   0.859   2.818   0.861
  773SOL    HW1 2377   0.913   2.749   0.909
  773SOL    HW2 2378   0.827   2.887   0.927
  774SOL     OW 2379   1.083   2.846   0.087
  774SOL    HW1 2380   1.060   2.899   0.005
  774SOL    HW2 2381   1.164   2.790   0.068
  775SOL     OW 2382   1.861   3.431   0.851
  775SOL    HW1 2383   1.790   3.419   0.781
  775SOL    HW2 2384   1.862   3.352   0.911
  776SOL     OW 2385   0.221   3.176   1.844
  776SOL    HW1 2386   0.156   3.103   1.823
  776SOL    HW2 2387   0.225   3.190   1.942
  777SOL     OW 2388   0.079   3.102   0.653
  777SOL    HW1 2389   0.078   3.055   0.741
  777SOL    HW2 2390   0.161   3.074   0.602
  778SOL     OW 2391   0.672   3.253   1.624
  778SOL    HW1 2392   0.594   3.203   1.662
  778SOL    HW2 2393   0.669   3.348   1.655
  779SOL     OW 2394   1.824   2.054   1.227
  779SOL    HW1 2395   1.820   1.964   1.271
  779SOL    HW2 2396   1.827   2.043   1.128
  780SOL     OW 2397   0.428   2.286   0.520
  780SOL    HW1 2398   0.458   2.214   0.458
  780SOL    HW2 2399   0.389   2.246   0.603
  781SOL     OW 2400   1.705   3.349   1.104
  781SOL    HW1 2401   1.612   3.324   1.077
  781SOL    HW2 2402   1.731   3.299   1.186
  782SOL     OW 2403   0.317   2.409   1.280
  782SOL    HW1 2404   0.355   2.350   1.352
  782SOL    HW2 2405   0.357   2.383   1.192
  783SOL     OW 2406   0.812   3.448   0.687
  783SOL    HW1 2407   0.844   3.458   0.593
  783SOL    HW2 2408   0.733   3.386   0.689
  784SOL     OW 2409   1.424   2.076   1.112
  784SOL    HW1 2410   1.476   2.011   1.167
  784SOL    HW2 2411   1.375   2.139   1.173
  785SOL     OW 2412   1.001   1.896   1.154
  785SOL    HW1 2413   0.938   1.824   1.123
  785SOL    HW2 2414   1.094   1.860   1.154
  786SOL     OW 2415   0.770   3.192   0.301
  786SOL    HW1 2416   0.724   3.105   0.318
  786SOL    HW2 2417   0.861   3.189   0.342
  787SOL     OW 2418   0.618   3.429   1.284
  787SOL    HW1 2419   0.613   3.511   1.341
  787SOL    HW2 2420   0.707   3.426   1.239
  788SOL     OW 2421   1.352   1.914   0.168
  788SOL    HW1 2422   1.387   1.873   0.084
  788SOL    HW2 2423   1.262   1.876   0.188
  789SOL     OW 2424   1.300   2.315   0.691
  789SOL    HW1 2425   1.241   2.395   0.695
  789SOL    HW2 2426   1.315   2.280   0.784
  790SOL     OW 2427   1.593   2.083   0.882
  790SOL    HW1 2428   1.509   2.082   0.936
  790SOL    HW2 2429   1.595   2.166   0.826
  791SOL     OW 2430   0.039   2.939   0.300
  791SOL    HW1 2431   0.138   2.928   0.291
  791SOL    HW2 2432  -0.001   2.853   0.332
  792SOL     OW 2433   0.875   3.508   0.337
  792SOL    HW1 2434   0.798   3.473   0.283
  792SOL    HW2 2435   0.843   3.579   0.399
  793SOL     OW 2436   0.230   2.490   1.975
  793SOL    HW1 2437   0.137   2.488   2.012
  793SOL    HW2 2438   0.231   2.451   1.883
  794SOL     OW 2439   0.225   2.137   2.858
  794SOL    HW1 2440   0.260   2.120   2.950
  794SOL    HW2 2441   0.137   2.092   2.846
  795SOL     OW 2442   0.019   2.230   2.509
  795SOL    HW1 2443  -0.063   2.273   2.548
  795SOL    HW2 2444  -0.009   2.157   2.446
  796SOL     OW 2445   0.569   3.137   3.027
  796SOL    HW1 2446   0.476   3.130   2.990
  796SOL    HW2 2447   0.580   3.226   3.071
  797SOL     OW 2448   1.555   3.373   2.565
  797SOL    HW1 2449   1.498   3.357   2.646
  797SOL    HW2 2450   1.496   3.383   2.485
  798SOL     OW 2451   1.135   2.565   2.579
  798SOL    HW1 2452   1.192   2.643   2.554
  798SOL    HW2 2453   1.075   2.591   2.655
  799SOL     OW 2454   1.755   2.469   2.093
  799SOL    HW1 2455   1.743   2.456   1.994
  799SOL    HW2 2456   1.725   2.388   2.142
  800SOL     OW 2457   0.768   3.006   2.885
  800SOL    HW1 2458   0.690   3.023   2.945
  800SOL    HW2 2459   0.802   3.093   2.849
  801SOL     OW 2460   0.850   2.660   3.685
  801SOL    HW1 2461   0.846   2.736   3.750
  801SOL    HW2 2462   0.872   2.696   3.594
  802SOL     OW 2463   0.685   2.874   2.527
  802SOL    HW1 2464   0.754   2.858   2.597
  802SOL    HW2 2465   0.612   2.931   2.565
  803SOL     OW 2466   0.686   3.023   3.665
  803SOL    HW1 2467   0.746   3.102   3.679
  803SOL    HW2 2468   0.600   3.054   3.624
  804SOL     OW 2469   0.335   3.297   2.923
  804SOL    HW1 2470   0.257   3.266   2.870
  804SOL    HW2 2471   0.393   3.355   2.866
  805SOL     OW 2472   1.460   3.367   3.201
  805SOL    HW1 2473   1.484   3.461   3.227
  805SOL    HW2 2474   1.444   3.313   3.283
  806SOL     OW 2475   0.438   2.254   3.361
  806SOL    HW1 2476   0.520   2.198   3.370
  806SOL    HW2 2477   0.357   2.196   3.365
  807SOL     OW 2478   1.603   2.309   2.599
  807SOL    HW1 2479   1.529   2.355   2.549
  807SOL    HW2 2480   1.654   2.377   2.652
  808SOL     OW 2481   0.231   3.575   2.345
  808SOL    HW1 2482   0.265   3.652   2.399
  808SOL    HW2 2483   0.275   3.575   2.255
  809SOL     OW 2484   1.127   3.203   3.552
  809SOL    HW1 2485   1.174   3.203   3.640
  809SOL    HW2 2486   1.079   3.116   3.541
  810SOL     OW 2487   0.230   3.296   2.400
  810SOL    HW1 2488   0.204   3.392   2.400
  810SOL    HW2 2489   0.159   3.242   2.445
  811SOL     OW 2490   0.240   2.953   2.748
  811SOL    HW1 2491   0.254   2.869   2.800
  811SOL    HW2 2492   0.185   3.017   2.803
  812SOL     OW 2493   0.620   3.648   3.301
  812SOL    HW1 2494   0.528   3.631   3.336
  812SOL    HW2 2495   0.648   3.740   3.327
  813SOL     OW 2496   0.606   2.826   1.985
  813SOL    HW1 2497   0.613   2.910   1.931
  813SOL    HW2 2498   0.652   2.839   2.073
  814SOL     OW 2499   1.594   1.976   3.342
  814SOL    HW1 2500   1.576   2.043   3.270
  814SOL    HW2 2501   1.591   2.022   3.431
  815SOL     OW 2502   0.122   2.505   2.425
  815SOL    HW1 2503   0.077   2.417   2.442
  815SOL    HW2 2504   0.121   2.559   2.509
  816SOL     OW 2505   1.842   3.629   2.221
  816SOL    HW1 2506   1.896   3.600   2.301
  816SOL    HW2 2507   1.872   3.719   2.192
  817SOL     OW 2508   0.027   3.458   1.979
  817SOL    HW1 2509   0.008   3.362   2.000
  817SOL    HW2 2510  -0.006   3.516   2.054
  818SOL     OW 2511   1.689   2.784   2.474
  818SOL    HW1 2512   1.784   2.755   2.482
  818SOL    HW2 2513   1.681   2.849   2.399
  819SOL     OW 2514   1.641   2.970   2.294
  819SOL    HW1 2515   1.727   2.972   2.242
  819SOL    HW2 2516   1.655   3.017   2.382
  820SOL     OW 2517   0.113   2.599   3.459
  820SOL    HW1 2518   0.201   2.586   3.504
  820SOL    HW2 2519   0.100   2.696   3.437
  821SOL     OW 2520   0.613   3.227   2.588
  821SOL    HW1 2521   0.564   3.140   2.597
  821SOL    HW2 2522   0.590   3.270   2.501
  822SOL     OW 2523   1.293   3.090   3.285
  822SOL    HW1 2524   1.330   3.017   3.227
  822SOL    HW2 2525   1.345   3.095   3.370
  823SOL     OW 2526   0.809   1.866   2.364
  823SOL    HW1 2527   0.849   1.957   2.355
  823SOL    HW2 2528   0.709   1.874   2.370
  824SOL     OW 2529   0.197   2.838   3.126
  824SOL    HW1 2530   0.286   2.793   3.112
  824SOL    HW2 2531   0.124   2.773   3.107
  825SOL     OW 2532   1.525   2.861   2.052
  825SOL    HW1 2533   1.462   2.785   2.065
  825SOL    HW2 2534   1.573   2.879   2.138
  826SOL     OW 2535   1.187   3.654   3.478
  826SOL    HW1 2536   1.211   3.714   3.402
  826SOL    HW2 2537   1.194   3.559   3.448
  827SOL     OW 2538   0.317   2.113   3.663
  827SOL    HW1 2539   0.388   2.184   3.669
  827SOL    HW2 2540   0.229   2.152   3.691
  828SOL     OW 2541   1.466   3.279   2.815
  828SOL    HW1 2542   1.407   3.285   2.895
  828SOL    HW2 2543   1.451   3.191   2.769
  829SOL     OW 2544   1.667   3.576   2.434
  829SOL    HW1 2545   1.626   3.553   2.346
  829SOL    HW2 2546   1.649   3.502   2.499
  830SOL     OW 2547   0.598   2.591   2.132
  830SOL    HW1 2548   0.622   2.660   2.064
  830SOL    HW2 2549   0.520   2.624   2.186
  831SOL     OW 2550   1.281   2.207   2.806
  831SOL    HW1 2551   1.195   2.157   2.793
  831SOL    HW2 2552   1.343   2.153   2.862
  832SOL     OW 2553   1.576   3.524   2.169
  832SOL    HW1 2554   1.665   3.570   2.172
  832SOL    HW2 2555   1.555   3.500   2.074
  833SOL     OW 2556   0.807   2.467   3.327
  833SOL    HW1 2557   0.760   2.464   3.416
  833SOL    HW2 2558   0.756   2.412   3.261
  834SOL     OW 2559   1.394   2.331   3.536
  834SOL    HW1 2560   1.374   2.374   3.624
  834SOL    HW2 2561   1.472   2.269   3.545
  835SOL     OW 2562   0.973   2.752   3.434
  835SOL    HW1 2563   1.019   2.668   3.405
  835SOL    HW2 2564   0.917   2.786   3.359
  836SOL     OW 2565   0.991   2.272   3.104
  836SOL    HW1 2566   0.914   2.306   3.158
  836SOL    HW2 2567   0.957   2.221   3.025
  837SOL     OW 2568   1.041   2.563   2.291
  837SOL    HW1 2569   1.067   2.559   2.387
  837SOL    HW2 2570   0.956   2.512   2.277
  838SOL     OW 2571   0.076   2.673   2.651
  838SOL    HW1 2572   0.175   2.661   2.660
  838SOL    HW2 2573   0.052   2.768   2.672
  839SOL     OW 2574   0.130   3.683   3.433
  839SOL    HW1 2575   0.120   3.668   3.532
  839SOL    HW2 2576   0.044   3.719   3.397
  840SOL     OW 2577   0.865   2.210   2.057
  840SOL    HW1 2578   0.924   2.273   2.008
  840SOL    HW2 2579   0.884   2.116   2.028
  841SOL     OW 2580   1.719   2.447   3.693
  841SOL    HW1 2581   1.693   2.536   3.657
  841SOL    HW2 2582   1.717   2.379   3.620
  842SOL     OW 2583   1.362   3.006   2.407
  842SOL    HW1 2584   1.445   2.977   2.359
  842SOL    HW2 2585   1.313   3.073   2.351
  843SOL     OW 2586   0.550   2.058   2.747
  843SOL    HW1 2587   0.545   2.053   2.847
  843SOL    HW2 2588   0.552   2.154   2.718
  844SOL     OW 2589   1.008   3.318   2.339
  844SOL    HW1 2590   0.962   3.390   2.287
  844SOL    HW2 2591   1.004   3.338   2.437
  845SOL     OW 2592   0.351   3.663   2.715
  845SOL    HW1 2593   0.401   3.577   2.721
  845SOL    HW2 2594   0.416   3.740   2.712
  846SOL     OW 2595   1.795   2.928   2.735
  846SOL    HW1 2596   1.733   2.913   2.659
  846SOL    HW2 2597   1.743   2.939   2.820
  847SOL     OW 2598   1.227   3.412   3.368
  847SOL    HW1 2599   1.233   3.335   3.432
  847SOL    HW2 2600   1.175   3.386   3.288
  848SOL     OW 2601   0.321   2.805   2.104
  848SOL    HW1 2602   0.403   2.844   2.062
  848SOL    HW2 2603   0.294   2.723   2.055
  849SOL     OW 2604   1.458   2.597   2.590
  849SOL    HW1 2605   1.453   2.532   2.665
  849SOL    HW2 2606   1.538   2.656   2.603
  850SOL     OW 2607   0.461   3.128   3.589
  850SOL    HW1 2608   0.411   3.129   3.503
  850SOL    HW2 2609   0.398   3.110   3.665
  851SOL     OW 2610   1.111   3.638   2.099
  851SOL    HW1 2611   1.051   3.576   2.149
  851SOL    HW2 2612   1.142   3.594   2.014
  852SOL     OW 2613   0.202   2.147   3.360
  852SOL    HW1 2614   0.122   2.207   3.347
  852SOL    HW2 2615   0.192   2.098   3.446
  853SOL     OW 2616   1.632   3.239   1.943
  853SOL    HW1 2617   1.600   3.333   1.933
  853SOL    HW2 2618   1.556   3.176   1.931
  854SOL     OW 2619   0.464   3.605   2.185
  854SOL    HW1 2620   0.497   3.644   2.271
  854SOL    HW2 2621   0.540   3.598   2.120
  855SOL     OW 2622   1.400   1.969   2.288
  855SOL    HW1 2623   1.376   1.932   2.198
  855SOL    HW2 2624   1.499   1.985   2.292
  856SOL     OW 2625   0.249   3.647   3.103
  856SOL    HW1 2626   0.306   3.582   3.153
  856SOL    HW2 2627   0.233   3.614   3.010
  857SOL     OW 2628   0.940   3.560   2.766
  857SOL    HW1 2629   1.020   3.503   2.787
  857SOL    HW2 2630   0.891   3.520   2.689
  858SOL     OW 2631   0.382   2.562   2.342
  858SOL    HW1 2632   0.427   2.472   2.339
  858SOL    HW2 2633   0.288   2.551   2.375
  859SOL     OW 2634   1.547   2.084   3.591
  859SOL    HW1 2635   1.542   2.121   3.683
  859SOL    HW2 2636   1.475   2.015   3.579
  860SOL     OW 2637   0.614   1.984   1.979
  860SOL    HW1 2638   0.712   1.962   1.986
  860SOL    HW2 2639   0.583   1.967   1.886
  861SOL     OW 2640   0.781   2.126   3.611
  861SOL    HW1 2641   0.848   2.065   3.654
  861SOL    HW2 2642   0.708   2.145   3.676
  862SOL     OW 2643   0.888   3.376   3.057
  862SOL    HW1 2644   0.865   3.351   2.963
  862SOL    HW2 2645   0.949   3.307   3.096
  863SOL     OW 2646   1.351   2.452   3.295
  863SOL    HW1 2647   1.379   2.409   3.380
  863SOL    HW2 2648   1.376   2.548   3.296
  864SOL     OW 2649   0.803   3.264   2.786
  864SOL    HW1 2650   0.893   3.278   2.744
  864SOL    HW2 2651   0.732   3.266   2.715
  865SOL     OW 2652   0.922   2.365   2.761
  865SOL    HW1 2653   0.897   2.356   2.665
  865SOL    HW2 2654   0.970   2.283   2.792
  866SOL     OW 2655   0.539   1.926   2.374
  866SOL    HW1 2656   0.458   1.927   2.432
  866SOL    HW2 2657   0.542   2.009   2.319
  867SOL     OW 2658   1.434   3.050   1.903
  867SOL    HW1 2659   1.466   2.974   1.960
  867SOL    HW2 2660   1.342   3.077   1.933
  868SOL     OW 2661   0.297   1.897   2.033
  868SOL    HW1 2662   0.346   1.981   2.012
  868SOL    HW2 2663   0.359   1.832   2.078
  869SOL     OW 2664   0.935   2.098   2.342
  869SOL    HW1 2665   0.887   2.139   2.264
  869SOL    HW2 2666   1.034   2.096   2.323
  870SOL     OW 2667   1.076   2.545   3.326
  870SOL    HW1 2668   0.996   2.484   3.329
  870SOL    HW2 2669   1.157   2.492   3.302
  871SOL     OW 2670   1.227   3.432   2.655
  871SOL    HW1 2671   1.248   3.506   2.590
  871SOL    HW2 2672   1.295   3.432   2.728
  872SOL     OW 2673   0.459   3.014   2.603
  872SOL    HW1 2674   0.388   2.987   2.668
  872SOL    HW2 2675   0.433   2.986   2.510
  873SOL     OW 2676   1.271   3.659   2.453
  873SOL    HW1 2677   1.315   3.723   2.389
  873SOL    HW2 2678   1.221   3.711   2.523
  874SOL     OW 2679   1.032   2.411   1.878
  874SOL    HW1 2680   0.991   2.493   1.839
  874SOL    HW2 2681   1.096   2.437   1.951
  875SOL     OW 2682   0.078   2.418   3.248
  875SOL    HW1 2683   0.170   2.417   3.207
  875SOL    HW2 2684   0.072   2.492   3.315
  876SOL     OW 2685   0.561   2.084   3.009
  876SOL    HW1 2686   0.599   2.000   3.046
  876SOL    HW2 2687   0.473   2.103   3.053
  877SOL     OW 2688   0.866   2.316   2.504
  877SOL    HW1 2689   0.834   2.388   2.442
  877SOL    HW2 2690   0.890   2.235   2.451
  878SOL     OW 2691   1.017   1.901   2.615
  878SOL    HW1 2692   0.945   1.906   2.546
  878SOL    HW2 2693   0.993   1.832   2.684
  879SOL     OW 2694   1.429   3.035   2.729
  879SOL    HW1 2695   1.374   2.951   2.722
  879SOL    HW2 2696   1.455   3.064   2.637
  880SOL     OW 2697   1.466   2.452   2.854
  880SOL    HW1 2698   1.436   2.357   2.861
  880SOL    HW2 2699   1.539   2.468   2.920
  881SOL     OW 2700   1.857   2.695   2.239
  881SOL    HW1 2701   1.899   2.631   2.303
  881SOL    HW2 2702   1.819   2.644   2.161
  882SOL     OW 2703   0.488   3.247   2.036
  882SOL    HW1 2704   0.401   3.232   2.083
  882SOL    HW2 2705   0.471   3.273   1.941
  883SOL     OW 2706   1.664   3.142   2.519
  883SOL    HW1 2707   1.763   3.150   2.533
  883SOL    HW2 2708   1.619   3.226   2.550
  884SOL     OW 2709   1.390   2.437   1.940
  884SOL    HW1 2710   1.336   2.416   2.021
  884SOL    HW2 2711   1.481   2.396   1.949
  885SOL     OW 2712   0.527   2.118   2.190
  885SOL    HW1 2713   0.554   2.059   2.115
  885SOL    HW2 2714   0.527   2.213   2.159
  886SOL     OW 2715   1.754   3.085   3.450
  886SOL    HW1 2716   1.845   3.046   3.437
  886SOL    HW2 2717   1.762   3.181   3.474
  887SOL     OW 2718   1.064   3.209   3.202
  887SOL    HW1 2719   0.984   3.186   3.257
  887SOL    HW2 2720   1.147   3.183   3.251
  888SOL     OW 2721   1.592   3.491   3.487
  888SOL    HW1 2722   1.619   3.525   3.397
  888SOL    HW2 2723   1.671   3.453   3.533
  889SOL     OW 2724   1.111   3.057   2.962
  889SOL    HW1 2725   1.071   3.101   3.043
  889SOL    HW2 2726   1.070   3.094   2.879
  890SOL     OW 2727   1.638   2.961   2.941
  890SOL    HW1 2728   1.643   3.042   3.000
  890SOL    HW2 2729   1.552   2.963   2.890
  891SOL     OW 2730   0.915   1.951   3.264
  891SOL    HW1 2731   0.940   1.931   3.169
  891SOL    HW2 2732   0.987   2.007   3.306
  892SOL     OW 2733   0.980   2.978   3.581
  892SOL    HW1 2734   0.881   2.984   3.591
  892SOL    HW2 2735   1.003   2.898   3.525
  893SOL     OW 2736   0.705   2.912   2.230
  893SOL    HW1 2737   0.691   2.919   2.329
  893SOL    HW2 2738   0.789   2.861   2.212
  894SOL     OW 2739   0.410   2.675   3.113
  894SOL    HW1 2740   0.496   2.687   3.163
  894SOL    HW2 2741   0.368   2.588   3.140
  895SOL     OW 2742   1.274   2.248   3.124
  895SOL    HW1 2743   1.295   2.322   3.188
  895SOL    HW2 2744   1.185   2.265   3.081
  896SOL     OW 2745   0.064   3.426   3.193
  896SOL    HW1 2746   0.018   3.508   3.159
  896SOL    HW2 2747   0.162   3.445   3.202
  897SOL     OW 2748   0.367   2.962   2.363
  897SOL    HW1 2749   0.360   3.045   2.307
  897SOL    HW2 2750   0.371   2.882   2.303
  898SOL     OW 2751   0.566   2.399   2.727
  898SOL    HW1 2752   0.578   2.465   2.653
  898SOL    HW2 2753   0.612   2.433   2.810
  899SOL     OW 2754   1.252   3.210   2.250
  899SOL    HW1 2755   1.302   3.287   2.290
  899SOL    HW2 2756   1.157   3.212   2.282
  900SOL     OW 2757   1.272   3.307   3.004
  900SOL    HW1 2758   1.319   3.320   3.091
  900SOL    HW2 2759   1.206   3.233   3.013
  901SOL     OW 2760   1.582   2.501   2.334
  901SOL    HW1 2761   1.551   2.562   2.407
  901SOL    HW2 2762   1.632   2.553   2.265
  902SOL     OW 2763   0.354   3.372   3.191
  902SOL    HW1 2764   0.333   3.328   3.104
  902SOL    HW2 2765   0.451   3.398   3.194
  903SOL     OW 2766   0.402   2.613   3.460
  903SOL    HW1 2767   0.470   2.668   3.413
  903SOL    HW2 2768   0.442   2.525   3.487
  904SOL     OW 2769   1.587   2.641   3.532
  904SOL    HW1 2770   1.495   2.679   3.527
  904SOL    HW2 2771   1.647   2.688   3.467
  905SOL     OW 2772   1.013   1.967   3.632
  905SOL    HW1 2773   1.019   2.052   3.580
  905SOL    HW2 2774   1.045   1.891   3.575
  906SOL     OW 2775   0.504   1.912   3.602
  906SOL    HW1 2776   0.462   1.855   3.532
  906SOL    HW2 2777   0.438   1.981   3.634
  907SOL     OW 2778   0.573   2.732   2.891
  907SOL    HW1 2779   0.617   2.821   2.882
  907SOL    HW2 2780   0.510   2.732   2.968
  908SOL     OW 2781   1.360   2.724   2.907
  908SOL    HW1 2782   1.285   2.724   2.841
  908SOL    HW2 2783   1.397   2.632   2.916
  909SOL     OW 2784   1.209   2.387   2.137
  909SOL    HW1 2785   1.222   2.303   2.191
  909SOL    HW2 2786   1.180   2.461   2.197
  910SOL     OW 2787   0.307   2.075   3.093
  910SOL    HW1 2788   0.284   2.112   3.183
  910SOL    HW2 2789   0.277   1.980   3.087
  911SOL     OW 2790   0.037   3.172   3.144
  911SOL    HW1 2791   0.090   3.123   3.212
  911SOL    HW2 2792   0.059   3.270   3.149
  912SOL     OW 2793   0.732   2.496   2.926
  912SOL    HW1 2794   0.791   2.470   2.850
  912SOL    HW2 2795   0.704   2.592   2.915
  913SOL     OW 2796   1.728   2.797   3.716
  913SOL    HW1 2797   1.682   2.790   3.627
  913SOL    HW2 2798   1.666   2.841   3.782
  914SOL     OW 2799   0.307   1.925   2.480
  914SOL    HW1 2800   0.296   2.019   2.513
  914SOL    HW2 2801   0.302   1.862   2.557
  915SOL     OW 2802   1.622   2.229   2.236
  915SOL    HW1 2803   1.624   2.153   2.300
  915SOL    HW2 2804   1.574   2.306   2.276
  916SOL     OW 2805   1.023   2.628   2.828
  916SOL    HW1 2806   1.038   2.649   2.924
  916SOL    HW2 2807   0.993   2.533   2.819
  917SOL     OW 2808   0.980   3.435   3.562
  917SOL    HW1 2809   0.960   3.479   3.474
  917SOL    HW2 2810   1.019   3.344   3.546
  918SOL     OW 2811   1.859   3.380   3.467
  918SOL    HW1 2812   1.873   3.407   3.372
  918SOL    HW2 2813   1.942   3.402   3.520
  919SOL     OW 2814   0.350   2.760   3.666
  919SOL    HW1 2815   0.426   2.804   3.714
  919SOL    HW2 2816   0.385   2.713   3.584
  920SOL     OW 2817   1.540   2.136   1.987
  920SOL    HW1 2818   1.479   2.061   2.010
  920SOL    HW2 2819   1.562   2.188   2.070
  921SOL     OW 2820   1.303   2.700   1.904
  921SOL    HW1 2821   1.337   2.607   1.919
  921SOL    HW2 2822   1.321   2.727   1.809
  922SOL     OW 2823   1.068   3.195   2.711
  922SOL    HW1 2824   1.075   3.111   2.656
  922SOL    HW2 2825   1.130   3.264   2.675
  923SOL     OW 2826   0.319   2.672   2.811
  923SOL    HW1 2827   0.412   2.708   2.816
  923SOL    HW2 2828   0.313   2.587   2.863
  924SOL     OW 2829   0.339   2.371   2.868
  924SOL    HW1 2830   0.287   2.288   2.851
  924SOL    HW2 2831   0.416   2.376   2.804
  925SOL     OW 2832   1.138   2.242   3.540
  925SOL    HW1 2833   1.093   2.305   3.604
  925SOL    HW2 2834   1.231   2.273   3.523
  926SOL     OW 2835   1.160   2.069   3.339
  926SOL    HW1 2836   1.160   2.133   3.416
  926SOL    HW2 2837   1.188   2.117   3.256
  927SOL     OW 2838   0.008   3.188   2.062
  927SOL    HW1 2839  -0.085   3.209   2.031
  927SOL    HW2 2840   0.018   3.089   2.075
  928SOL     OW 2841   0.088   3.663   2.789
  928SOL    HW1 2842   0.046   3.577   2.762
  928SOL    HW2 2843   0.182   3.666   2.755
  929SOL     OW 2844   0.504   3.430   2.772
  929SOL    HW1 2845   0.570   3.504   2.781
  929SOL    HW2 2846   0.548   3.351   2.730
  930SOL     OW 2847   1.002   2.658   3.100
  930SOL    HW1 2848   1.043   2.626   3.186
  930SOL    HW2 2849   0.906   2.631   3.097
  931SOL     OW 2850   0.040   2.406   2.976
  931SOL    HW1 2851   0.125   2.373   2.935
  931SOL    HW2 2852   0.053   2.421   3.074
  932SOL     OW 2853   0.189   2.382   3.584
  932SOL    HW1 2854   0.248   2.342   3.514
  932SOL    HW2 2855   0.131   2.453   3.543
  933SOL     OW 2856   1.369   2.812   3.522
  933SOL    HW1 2857   1.408   2.901   3.542
  933SOL    HW2 2858   1.379   2.792   3.425
  934SOL     OW 2859   0.815   2.434   2.187
  934SOL    HW1 2860   0.822   2.345   2.141
  934SOL    HW2 2861   0.721   2.468   2.179
  935SOL     OW 2862   1.657   2.466   3.068
  935SOL    HW1 2863   1.619   2.397   3.130
  935SOL    HW2 2864   1.739   2.430   3.024
  936SOL     OW 2865   0.252   3.426   3.606
  936SOL    HW1 2866   0.222   3.483   3.682
  936SOL    HW2 2867   0.245   3.329   3.632
  937SOL     OW 2868   0.671   2.326   3.131
  937SOL    HW1 2869   0.637   2.237   3.101
  937SOL    HW2 2870   0.697   2.380   3.051
  938SOL     OW 2871   0.930   3.540   3.327
  938SOL    HW1 2872   0.906   3.522   3.232
  938SOL    HW2 2873   0.960   3.634   3.337
  939SOL     OW 2874   0.473   2.362   2.053
  939SOL    HW1 2875   0.534   2.442   2.057
  939SOL    HW2 2876   0.378   2.393   2.060
  940SOL     OW 2877   0.159   2.999   3.328
  940SOL    HW1 2878   0.181   2.938   3.404
  940SOL    HW2 2879   0.169   2.950   3.242
  941SOL     OW 2880   1.347   2.921   3.096
  941SOL    HW1 2881   1.371   2.858   3.022
  941SOL    HW2 2882   1.257   2.961   3.078
  942SOL     OW 2883   1.302   2.717   2.171
  942SOL    HW1 2884   1.216   2.686   2.213
  942SOL    HW2 2885   1.298   2.703   2.072
  943SOL     OW 2886   1.759   3.609   3.016
  943SOL    HW1 2887   1.820   3.639   2.943
  943SOL    HW2 2888   1.721   3.520   2.994
  944SOL     OW 2889   1.252   3.593   2.990
  944SOL    HW1 2890   1.336   3.598   2.936
  944SOL    HW2 2891   1.229   3.497   3.008
  945SOL     OW 2892   0.083   3.120   2.884
  945SOL    HW1 2893   0.078   3.119   2.984
  945SOL    HW2 2894   0.000   3.079   2.846
  946SOL     OW 2895   0.688   3.524   3.578
  946SOL    HW1 2896   0.632   3.605   3.587
  946SOL    HW2 2897   0.740   3.528   3.492
  947SOL     OW 2898   1.726   1.997   2.385
  947SOL    HW1 2899   1.799   1.980   2.318
  947SOL    HW2 2900   1.695   1.910   2.423
  948SOL     OW 2901   1.388   3.435   2.339
  948SOL    HW1 2902   1.455   3.447   2.265
  948SOL    HW2 2903   1.348   3.524   2.362
  949SOL     OW 2904   0.130   3.656   3.713
  949SOL    HW1 2905   0.089   3.582   3.766
  949SOL    HW2 2906   0.194   3.707   3.771
  950SOL     OW 2907   1.280   2.789   2.534
  950SOL    HW1 2908   1.340   2.708   2.536
  950SOL    HW2 2909   1.320   2.858   2.474
  951SOL     OW 2910   0.830   3.135   3.284
  951SOL    HW1 2911   0.825   3.168   3.379
  951SOL    HW2 2912   0.744   3.154   3.238
  952SOL     OW 2913   0.672   3.478   2.016
  952SOL    HW1 2914   0.681   3.488   1.917
  952SOL    HW2 2915   0.632   3.389   2.037
  953SOL     OW 2916   1.650   3.582   3.256
  953SOL    HW1 2917   1.703   3.592   3.172
  953SOL    HW2 2918   1.623   3.672   3.290
  954SOL     OW 2919   1.841   2.037   2.825
  954SOL    HW1 2920   1.880   1.952   2.789
  954SOL    HW2 2921   1.743   2.039   2.806
  955SOL     OW 2922   0.263   2.188   2.582
  955SOL    HW1 2923   0.184   2.239   2.548
  955SOL    HW2 2924   0.254   2.173   2.680
  956SOL     OW 2925   1.194   3.474   1.893
  956SOL    HW1 2926   1.200   3.381   1.930
  956SOL    HW2 2927   1.135   3.474   1.813
  957SOL     OW 2928   0.822   2.864   3.234
  957SOL    HW1 2929   0.862   2.863   3.142
  957SOL    HW2 2930   0.832   2.956   3.274
  958SOL     OW 2931   0.916   2.772   2.153
  958SOL    HW1 2932   0.979   2.810   2.085
  958SOL    HW2 2933   0.956   2.689   2.192
  959SOL     OW 2934   1.504   3.469   1.906
  959SOL    HW1 2935   1.412   3.506   1.913
  959SOL    HW2 2936   1.542   3.489   1.816
  960SOL     OW 2937   0.372   3.150   3.352
  960SOL    HW1 2938   0.359   3.243   3.318
  960SOL    HW2 2939   0.288   3.098   3.339
  961SOL     OW 2940   1.614   3.154   3.151
  961SOL    HW1 2941   1.674   3.157   3.231
  961SOL    HW2 2942   1.539   3.218   3.164
  962SOL     OW 2943   1.039   2.960   2.558
  962SOL    HW1 2944   0.969   2.913   2.612
  962SOL    HW2 2945   1.098   2.892   2.515
  963SOL     OW 2946   1.014   2.098   2.833
  963SOL    HW1 2947   1.006   2.062   2.740
  963SOL    HW2 2948   1.012   2.022   2.898
  964SOL     OW 2949   0.590   3.349   2.353
  964SOL    HW1 2950   0.632   3.291   2.283
  964SOL    HW2 2951   0.546   3.428   2.309
  965SOL     OW 2952   1.709   2.247   3.243
  965SOL    HW1 2953   1.782   2.316   3.247
  965SOL    HW2 2954   1.737   2.172   3.184
  966SOL     OW 2955   0.255   3.210   2.152
  966SOL    HW1 2956   0.159   3.211   2.125
  966SOL    HW2 2957   0.267   3.263   2.236
  967SOL     OW 2958   0.105   2.875   3.588
  967SOL    HW1 2959   0.028   2.842   3.642
  967SOL    HW2 2960   0.190   2.845   3.630
  968SOL     OW 2961   0.672   2.065   3.351
  968SOL    HW1 2962   0.762   2.049   3.311
  968SOL    HW2 2963   0.680   2.070   3.450
  969SOL     OW 2964   0.075   2.207   1.895
  969SOL    HW1 2965  -0.017   2.179   1.866
  969SOL    HW2 2966   0.106   2.284   1.839
  970SOL     OW 2967   1.440   2.718   3.260
  970SOL    HW1 2968   1.383   2.770   3.197
  970SOL    HW2 2969   1.536   2.730   3.236
  971SOL     OW 2970   0.072   2.028   2.180
  971SOL    HW1 2971   0.055   2.111   2.126
  971SOL    HW2 2972   0.162   1.991   2.158
  972SOL     OW 2973   1.183   3.197   1.981
  972SOL    HW1 2974   1.084   3.186   1.983
  972SOL    HW2 2975   1.217   3.212   2.074
  973SOL     OW 2976   0.613   2.704   3.293
  973SOL    HW1 2977   0.669   2.785   3.276
  973SOL    HW2 2978   0.672   2.624   3.296
  974SOL     OW 2979   1.493   3.629   2.821
  974SOL    HW1 2980   1.526   3.693   2.752
  974SOL    HW2 2981   1.559   3.623   2.896
  975SOL     OW 2982   0.716   2.427   3.570
  975SOL    HW1 2983   0.735   2.492   3.644
  975SOL    HW2 2984   0.776   2.347   3.579
  976SOL     OW 2985   1.450   3.082   3.495
  976SOL    HW1 2986   1.441   3.072   3.594
  976SOL    HW2 2987   1.546   3.075   3.469
  977SOL     OW 2988   0.390   3.603   3.422
  977SOL    HW1 2989   0.299   3.644   3.420
  977SOL    HW2 2990   0.383   3.509   3.454
  978SOL     OW 2991   1.674   2.745   3.116
  978SOL    HW1 2992   1.647   2.656   3.079
  978SOL    HW2 2993   1.675   2.813   3.043
  979SOL     OW 2994   1.225   2.187   2.311
  979SOL    HW1 2995   1.290   2.113   2.300
  979SOL    HW2 2996   1.245   2.237   2.395
  980SOL     OW 2997   0.594   2.607   2.514
  980SOL    HW1 2998   0.644   2.692   2.495
  980SOL    HW2 2999   0.506   2.609   2.466
  981SOL     OW 3000   1.777   2.204   3.504
  981SOL    HW1 3001   1.760   2.235   3.410
  981SOL    HW2 3002   1.693   2.167   3.542
  982SOL     OW 3003   1.730   2.796   3.379
  982SOL    HW1 3004   1.768   2.887   3.394
  982SOL    HW2 3005   1.722   2.779   3.280
  983SOL     OW 3006   0.859   3.236   1.878
  983SOL    HW1 3007   0.813   3.251   1.966
  983SOL    HW2 3008   0.903   3.321   1.848
  984SOL     OW 3009   0.661   3.652   2.815
  984SOL    HW1 3010   0.615   3.740   2.802
  984SOL    HW2 3011   0.760   3.664   2.808
  985SOL     OW 3012   0.859   2.818   2.723
  985SOL    HW1 3013   0.913   2.749   2.771
  985SOL    HW2 3014   0.827   2.887   2.789
  986SOL     OW 3015   1.083   2.846   1.949
  986SOL    HW1 3016   1.060   2.899   1.867
  986SOL    HW2 3017   1.164   2.790   1.930
  987SOL     OW 3018   1.861   3.431   2.713
  987SOL    HW1 3019   1.790   3.419   2.643
  987SOL    HW2 3020   1.862   3.352   2.773
  988SOL     OW 3021   0.221   3.176   3.706
  988SOL    HW1 3022   0.156   3.103   3.685
  988SOL    HW2 3023   0.225   3.190   3.804
  989SOL     OW 3024   0.079   3.102   2.515
  989SOL    HW1 3025   0.078   3.055   2.603
  989SOL    HW2 3026   0.161   3.074   2.464
  990SOL     OW 3027   0.672   3.253   3.486
  990SOL    HW1 3028   0.594   3.203   3.524
  990SOL    HW2 3029   0.669   3.348   3.517
  991SOL     OW 3030   1.824   2.054   3.089
  991SOL    HW1 3031   1.820   1.964   3.133
  991SOL    HW2 3032   1.827   2.043   2.990
  992SOL     OW 3033   0.428   2.286   2.382
  992SOL    HW1 3034   0.458   2.214   2.320
  992SOL    HW2 3035   0.389   2.246   2.465
  993SOL     OW 3036   1.705   3.349   2.966
  993SOL    HW1 3037   1.612   3.324   2.939
  993SOL    HW2 3038   1.731   3.299   3.048
  994SOL     OW 3039   0.317   2.409   3.142
  994SOL    HW1 3040   0.355   2.350   3.214
  994SOL    HW2 3041   0.357   2.383   3.054
  995SOL     OW 3042   0.812   3.448   2.549
  995SOL    HW1 3043   0.844   3.458   2.455
  995SOL    HW2 3044   0.733   3.386   2.551
  996SOL     OW 3045   1.424   2.076   2.974
  996SOL    HW1 3046   1.476   2.011   3.029
  996SOL    HW2 3047   1.375   2.139   3.035
  997SOL     OW 3048   1.001   1.896   3.016
  997SOL    HW1 3049   0.938   1.824   2.985
  997SOL    HW2 3050   1.094   1.860   3.016
  998SOL     OW 3051   0.770   3.192   2.163
  998SOL    HW1 3052   0.724   3.105   2.180
  998SOL    HW2 3053   0.861   3.189   2.204
  999SOL     OW 3054   0.618   3.429   3.146
  999SOL    HW1 3055   0.613   3.511   3.203
  999SOL    HW2 3056   0.707   3.426   3.101
 1000SOL     OW 3057   1.352   1.914   2.030
 1000SOL    HW1 3058   1.387   1.873   1.946
 1000SOL    HW2 3059   1.262   1.876   2.050
 1001SOL     OW 3060   1.300   2.315   2.553
 1001SOL    HW1 3061   1.241   2.395   2.557
 1001SOL    HW2 3062   1.315   2.280   2.646
 1002SOL     OW 3063   1.593   2.083   2.744
 1002SOL    HW1 3064   1.509   2.082   2.798
 1002SOL    HW2 3065   1.595   2.166   2.688
 1003SOL     OW 3066   0.039   2.939   2.162
 1003SOL    HW1 3067   0.138   2.928   2.153
 1003SOL    HW2 3068  -0.001   2.853   2.194
 1004SOL     OW 3069   0.875   3.508   2.199
 1004SOL    HW1 3070   0.798   3.473   2.145
 1004SOL    HW2 3071   0.843   3.579   2.261
 1005SOL     OW 3072   0.230   2.490   3.837
 1005SOL    HW1 3073   0.137   2.488   3.874
 1005SOL    HW2 3074   0.231   2.451   3.745
 1006SOL     OW 3075   0.225   2.137   4.720
 1006SOL    HW1 3076   0.260   2.120   4.812
 1006SOL    HW2 3077   0.137   2.092   4.708
 1007SOL     OW 3078   0.019   2.230   4.371
 1007SOL    HW1 3079  -0.063   2.273   4.410
 1007SOL    HW2 3080  -0.009   2.157   4.308
 1008SOL     OW 3081   0.569   3.137   4.889
 1008SOL    HW1 3082   0.476   3.130   4.852
 1008SOL    HW2 3083   0.580   3.226   4.933
 1009SOL     OW 3084   1.555   3.373   4.427
 1009SOL    HW1 3085   1.498   3.357   4.508
 1009SOL    HW2 3086   1.496   3.383   4.347
 1010SOL     OW 3087   1.135   2.565   4.441
 1010SOL    HW1 3088   1.192   2.643   4.416
 1010SOL    HW2 3089   1.075   2.591   4.517
 1011SOL     OW 3090   1.755   2.469   3.955
 1011SOL    HW1 3091   1.743   2.456   3.856
 1011SOL    HW2 3092   1.725   2.388   4.004
 1012SOL     OW 3093   0.768   3.006   4.747
 1012SOL    HW1 3094   0.690   3.023   4.807
 1012SOL    HW2 3095   0.802   3.093   4.711
 1013SOL     OW 3096   0.685   2.874   4.389
 1013SOL    HW1 3097   0.754   2.858   4.459
 1013SOL    HW2 3098   0.612   2.931   4.427
 1014SOL     OW 3099   0.335   3.297   4.785
 1014SOL    HW1 3100   0.257   3.266   4.732
 1014SOL    HW2 3101   0.393   3.355   4.728
 1015SOL     OW 3102   1.603   2.309   4.461
 1015SOL    HW1 3103   1.529   2.355   4.411
 1015SOL    HW2 3104   1.654   2.377   4.514
 1016SOL     OW 3105   0.231   3.575   4.207
 1016SOL    HW1 3106   0.265   3.652   4.261
 1016SOL    HW2 3107   0.275   3.575   4.117
 1017SOL     OW 3108   0.230   3.296   4.262
 1017SOL    HW1 3109   0.204   3.392   4.262
 1017SOL    HW2 3110   0.159   3.242   4.307
 1018SOL     OW 3111   0.240   2.953   4.610
 1018SOL    HW1 3112   0.254   2.869   4.662
 1018SOL    HW2 3113   0.185   3.017   4.665
 1019SOL     OW 3114   0.620   3.648   5.163
 1019SOL    HW1 3115   0.528   3.631   5.198
 1019SOL    HW2 3116   0.648   3.740   5.189
 1020SOL     OW 3117   0.606   2.826   3.847
 1020SOL    HW1 3118   0.613   2.910   3.793
 1020SOL    HW2 3119   0.652   2.839   3.935
 1021SOL     OW 3120   0.122   2.505   4.287
 1021SOL    HW1 3121   0.077   2.417   4.304
 1021SOL    HW2 3122   0.121   2.559   4.371
 1022SOL     OW 3123   1.842   3.629   4.083
 1022SOL    HW1 3124   1.896   3.600   4.163
 1022SOL    HW2 3125   1.872   3.719   4.054
 1023SOL     OW 3126   0.027   3.458   3.841
 1023SOL    HW1 3127   0.008   3.362   3.862
 1023SOL    HW2 3128  -0.006   3.516   3.916
 1024SOL     OW 3129   1.689   2.784   4.336
 1024SOL    HW1 3130   1.784   2.755   4.344
 1024SOL    HW2 3131   1.681   2.849   4.261
 1025SOL     OW 3132   1.641   2.970   4.156
 1025SOL    HW1 3133   1.727   2.972   4.104
 1025SOL    HW2 3134   1.655   3.017   4.244
 1026SOL     OW 3135   0.613   3.227   4.450
 1026SOL    HW1 3136   0.564   3.140   4.459
 1026SOL    HW2 3137   0.590   3.270   4.363
 1027SOL     OW 3138   0.809   1.866   4.226
 1027SOL    HW1 3139   0.849   1.957   4.217
 1027SOL    HW2 3140   0.709   1.874   4.232
 1028SOL     OW 3141   0.197   2.838   4.988
 1028SOL    HW1 3142   0.286   2.793   4.974
 1028SOL    HW2 3143   0.124   2.773   4.969
 1029SOL     OW 3144   1.525   2.861   3.914
 1029SOL    HW1 3145   1.462   2.785   3.927
 1029SOL    HW2 3146   1.573   2.879   4.000
 1030SOL     OW 3147   1.466   3.279   4.677
 1030SOL    HW1 3148   1.407   3.285   4.757
 1030SOL    HW2 3149   1.451   3.191   4.631
 1031SOL     OW 3150   1.667   3.576   4.296
 1031SOL    HW1 3151   1.626   3.553   4.208
 1031SOL    HW2 3152   1.649   3.502   4.361
 1032SOL     OW 3153   0.598   2.591   3.994
 1032SOL    HW1 3154   0.622   2.660   3.926
 1032SOL    HW2 3155   0.520   2.624   4.048
 1033SOL     OW 3156   1.281   2.207   4.668
 1033SOL    HW1 3157   1.195   2.157   4.655
 1033SOL    HW2 3158   1.343   2.153   4.724
 1034SOL     OW 3159   1.576   3.524   4.031
 1034SOL    HW1 3160   1.665   3.570   4.034
 1034SOL    HW2 3161   1.555   3.500   3.936
 1035SOL     OW 3162   0.991   2.272   4.966
 1035SOL    HW1 3163   0.914   2.306   5.020
 1035SOL    HW2 3164   0.957   2.221   4.887
 1036SOL     OW 3165   1.041   2.563   4.153
 1036SOL    HW1 3166   1.067   2.559   4.249
 1036SOL    HW2 3167   0.956   2.512   4.139
 1037SOL     OW 3168   0.076   2.673   4.513
 1037SOL    HW1 3169   0.175   2.661   4.522
 1037SOL    HW2 3170   0.052   2.768   4.534
 1038SOL     OW 3171   0.130   3.683   5.295
 1038SOL    HW1 3172   0.120   3.668   5.394
 1038SOL    HW2 3173   0.044   3.719   5.259
 1039SOL     OW 3174   0.865   2.210   3.919
 1039SOL    HW1 3175   0.924   2.273   3.870
 1039SOL    HW2 3176   0.884   2.116   3.890
 1040SOL     OW 3177   1.362   3.006   4.269
 1040SOL    HW1 3178   1.445   2.977   4.221
 1040SOL    HW2 3179   1.313   3.073   4.213
 1041SOL     OW 3180   0.550   2.058   4.609
 1041SOL    HW1 3181   0.545   2.053   4.709
 1041SOL    HW2 3182   0.552   2.154   4.580
 1042SOL     OW 3183   1.008   3.318   4.201
 1042SOL    HW1 3184   0.962   3.390   4.149
 1042SOL    HW2 3185   1.004   3.338   4.299
 1043SOL     OW 3186   0.351   3.663   4.577
 1043SOL    HW1 3187   0.401   3.577   4.583
 1043SOL    HW2 3188   0.416   3.740   4.574
 1044SOL     OW 3189   1.795   2.928   4.597
 1044SOL    HW1 3190   1.733   2.913   4.521
 1044SOL    HW2 3191   1.743   2.939   4.682
 1045SOL     OW 3192   0.321   2.805   3.966
 1045SOL    HW1 3193   0.403   2.844   3.924
 1045SOL    HW2 3194   0.294   2.723   3.917
 1046SOL     OW 3195   1.458   2.597   4.452
 1046SOL    HW1 3196   1.453   2.532   4.527
 1046SOL    HW2 3197   1.538   2.656   4.465
 1047SOL     OW 3198   1.111   3.638   3.961
 1047SOL    HW1 3199   1.051   3.576   4.011
 1047SOL    HW2 3200   1.142   3.594   3.876
 1048SOL     OW 3201   1.632   3.239   3.805
 1048SOL    HW1 3202   1.600   3.333   3.795
 1048SOL    HW2 3203   1.556   3.176   3.793
 1049SOL     OW 3204   0.464   3.605   4.047
 1049SOL    HW1 3205   0.497   3.644   4.133
 1049SOL    HW2 3206   0.540   3.598   3.982
 1050SOL     OW 3207   1.400   1.969   4.150
 1050SOL    HW1 3208   1.376   1.932   4.060
 1050SOL    HW2 3209   1.499   1.985   4.154
 1051SOL     OW 3210   0.249   3.647   4.965
 1051SOL    HW1 3211   0.306   3.582   5.015
 1051SOL    HW2 3212   0.233   3.614   4.872
 1052SOL     OW 3213   0.940   3.560   4.628
 1052SOL    HW1 3214   1.020   3.503   4.649
 1052SOL    HW2 3215   0.891   3.520   4.551
 1053SOL     OW 3216   0.382   2.562   4.204
 1053SOL    HW1 3217   0.427   2.472   4.201
 1053SOL    HW2 3218   0.288   2.551   4.237
 1054SOL     OW 3219   0.614   1.984   3.841
 1054SOL    HW1 3220   0.712   1.962   3.848
 1054SOL    HW2 3221   0.583   1.967   3.748
 1055SOL     OW 3222   0.803   3.264   4.648
 1055SOL    HW1 3223   0.893   3.278   4.606
 1055SOL    HW2 3224   0.732   3.266   4.577
 1056SOL     OW 3225   0.922   2.365   4.623
 1056SOL    HW1 3226   0.897   2.356   4.527
 1056SOL    HW2 3227   0.970   2.283   4.654
 1057SOL     OW 3228   0.539   1.926   4.236
 1057SOL    HW1 3229   0.458   1.927   4.294
 1057SOL    HW2 3230   0.542   2.009   4.181
 1058SOL     OW 3231   1.434   3.050   3.765
 1058SOL    HW1 3232   1.466   2.974   3.822
 1058SOL    HW2 3233   1.342   3.077   3.795
 1059SOL     OW 3234   0.297   1.897   3.895
 1059SOL    HW1 3235   0.346   1.981   3.874
 1059SOL    HW2 3236   0.359   1.832   3.940
 1060SOL     OW 3237   0.935   2.098   4.204
 1060SOL    HW1 3238   0.887   2.139   4.126
 1060SOL    HW2 3239   1.034   2.096   4.185
 1061SOL     OW 3240   1.227   3.432   4.517
 1061SOL    HW1 3241   1.248   3.506   4.452
 1061SOL    HW2 3242   1.295   3.432   4.590
 1062SOL     OW 3243   0.459   3.014   4.465
 1062SOL    HW1 3244   0.388   2.987   4.530
 1062SOL    HW2 3245   0.433   2.986   4.372
 1063SOL     OW 3246   1.271   3.659   4.315
 1063SOL    HW1 3247   1.315   3.723   4.251
 1063SOL    HW2 3248   1.221   3.711   4.385
 1064SOL     OW 3249   1.032   2.411   3.740
 1064SOL    HW1 3250   0.991   2.493   3.701
 1064SOL    HW2 3251   1.096   2.437   3.813
 1065SOL     OW 3252   0.561   2.084   4.871
 1065SOL    HW1 3253   0.599   2.000   4.908
 1065SOL    HW2 3254   0.473   2.103   4.915
 1066SOL     OW 3255   0.866   2.316   4.366
 1066SOL    HW1 3256   0.834   2.388   4.304
 1066SOL    HW2 3257   0.890   2.235   4.313
 1067SOL     OW 3258   1.017   1.901   4.477
 1067SOL    HW1 3259   0.945   1.906   4.408
 1067SOL    HW2 3260   0.993   1.832   4.546
 1068SOL     OW 3261   1.429   3.035   4.591
 1068SOL    HW1 3262   1.374   2.951   4.584
 1068SOL    HW2 3263   1.455   3.064   4.499
 1069SOL     OW 3264   1.466   2.452   4.716
 1069SOL    HW1 3265   1.436   2.357   4.723
 1069SOL    HW2 3266   1.539   2.468   4.782
 1070SOL     OW 3267   1.857   2.695   4.101
 1070SOL    HW1 3268   1.899   2.631   4.165
 1070SOL    HW2 3269   1.819   2.644   4.023
 1071SOL     OW 3270   0.488   3.247   3.898
 1071SOL    HW1 3271   0.401   3.232   3.945
 1071SOL    HW2 3272   0.471   3.273   3.803
 1072SOL     OW 3273   1.664   3.142   4.381
 1072SOL    HW1 3274   1.763   3.150   4.395
 1072SOL    HW2 3275   1.619   3.226   4.412
 1073SOL     OW 3276   1.390   2.437   3.802
 1073SOL    HW1 3277   1.336   2.416   3.883
 1073SOL    HW2 3278   1.481   2.396   3.811
 1074SOL     OW 3279   0.527   2.118   4.052
 1074SOL    HW1 3280   0.554   2.059   3.977
 1074SOL    HW2 3281   0.527   2.213   4.021
 1075SOL     OW 3282   1.111   3.057   4.824
 1075SOL    HW1 3283   1.071   3.101   4.905
 1075SOL    HW2 3284   1.070   3.094   4.741
 1076SOL     OW 3285   1.638   2.961   4.803
 1076SOL    HW1 3286   1.643   3.042   4.862
 1076SOL    HW2 3287   1.552   2.963   4.752
 1077SOL     OW 3288   0.705   2.912   4.092
 1077SOL    HW1 3289   0.691   2.919   4.191
 1077SOL    HW2 3290   0.789   2.861   4.074
 1078SOL     OW 3291   0.410   2.675   4.975
 1078SOL    HW1 3292   0.496   2.687   5.025
 1078SOL    HW2 3293   0.368   2.588   5.002
 1079SOL     OW 3294   1.274   2.248   4.986
 1079SOL    HW1 3295   1.295   2.322   5.050
 1079SOL    HW2 3296   1.185   2.265   4.943
 1080SOL     OW 3297   0.367   2.962   4.225
 1080SOL    HW1 3298   0.360   3.045   4.169
 1080SOL    HW2 3299   0.371   2.882   4.165
 1081SOL     OW 3300   0.566   2.399   4.589
 1081SOL    HW1 3301   0.578   2.465   4.515
 1081SOL    HW2 3302   0.612   2.433   4.672
 1082SOL     OW 3303   1.252   3.210   4.112
 1082SOL    HW1 3304   1.302   3.287   4.152
 1082SOL    HW2 3305   1.157   3.212   4.144
 1083SOL     OW 3306   1.272   3.307   4.866
 1083SOL    HW1 3307   1.319   3.320   4.953
 1083SOL    HW2 3308   1.206   3.233   4.875
 1084SOL     OW 3309   1.582   2.501   4.196
 1084SOL    HW1 3310   1.551   2.562   4.269
 1084SOL    HW2 3311   1.632   2.553   4.127
 1085SOL     OW 3312   0.354   3.372   5.053
 1085SOL    HW1 3313   0.333   3.328   4.966
 1085SOL    HW2 3314   0.451   3.398   5.056
 1086SOL     OW 3315   0.573   2.732   4.753
 1086SOL    HW1 3316   0.617   2.821   4.744
 1086SOL    HW2 3317   0.510   2.732   4.830
 1087SOL     OW 3318   1.360   2.724   4.769
 1087SOL    HW1 3319   1.285   2.724   4.703
 1087SOL    HW2 3320   1.397   2.632   4.778
 1088SOL     OW 3321   1.209   2.387   3.999
 1088SOL    HW1 3322   1.222   2.303   4.053
 1088SOL    HW2 3323   1.180   2.461   4.059
 1089SOL     OW 3324   0.307   2.075   4.955
 1089SOL    HW1 3325   0.284   2.112   5.045
 1089SOL    HW2 3326   0.277   1.980   4.949
 1090SOL     OW 3327   0.037   3.172   5.006
 1090SOL    HW1 3328   0.090   3.123   5.074
 1090SOL    HW2 3329   0.059   3.270   5.011
 1091SOL     OW 3330   0.732   2.496   4.788
 1091SOL    HW1 3331   0.791   2.470   4.712
 1091SOL    HW2 3332   0.704   2.592   4.777
 1092SOL     OW 3333   0.307   1.925   4.342
 1092SOL    HW1 3334   0.296   2.019   4.375
 1092SOL    HW2 3335   0.302   1.862   4.419
 1093SOL     OW 3336   1.622   2.229   4.098
 1093SOL    HW1 3337   1.624   2.153   4.162
 1093SOL    HW2 3338   1.574   2.306   4.138
 1094SOL     OW 3339   1.023   2.628   4.690
 1094SOL    HW1 3340   1.038   2.649   4.786
 1094SOL    HW2 3341   0.993   2.533   4.681
 1095SOL     OW 3342   1.540   2.136   3.849
 1095SOL    HW1 3343   1.479   2.061   3.872
 1095SOL    HW2 3344   1.562   2.188   3.932
 1096SOL     OW 3345   1.303   2.700   3.766
 1096SOL    HW1 3346   1.337   2.607   3.781
 1096SOL    HW2 3347   1.321   2.727   3.671
 1097SOL     OW 3348   1.068   3.195   4.573
 1097SOL    HW1 3349   1.075   3.111   4.518
 1097SOL    HW2 3350   1.130   3.264   4.537
 1098SOL     OW 3351   0.319   2.672   4.673
 1098SOL    HW1 3352   0.412   2.708   4.678
 1098SOL    HW2 3353   0.313   2.587   4.725
 1099SOL     OW 3354   0.339   2.371   4.730
 1099SOL    HW1 3355   0.287   2.288   4.713
 1099SOL    HW2 3356   0.416   2.376   4.666
 1100SOL     OW 3357   1.160   2.069   5.201
 1100SOL    HW1 3358   1.160   2.133   5.278
 1100SOL    HW2 3359   1.188   2.117   5.118
 1101SOL     OW 3360   0.008   3.188   3.924
 1101SOL    HW1 3361  -0.085   3.209   3.893
 1101SOL    HW2 3362   0.018   3.089   3.937
 1102SOL     OW 3363   0.088   3.663   4.651
 1102SOL    HW1 3364   0.046   3.577   4.624
 1102SOL    HW2 3365   0.182   3.666   4.617
 1103SOL     OW 3366   0.504   3.430   4.634
 1103SOL    HW1 3367   0.570   3.504   4.643
 1103SOL    HW2 3368   0.548   3.351   4.592
 1104SOL     OW 3369   1.002   2.658   4.962
 1104SOL    HW1 3370   1.043   2.626   5.048
 1104SOL    HW2 3371   0.906   2.631   4.959
 1105SOL     OW 3372   0.040   2.406   4.838
 1105SOL    HW1 3373   0.125   2.373   4.797
 1105SOL    HW2 3374   0.053   2.421   4.936
 1106SOL     OW 3375   0.815   2.434   4.049
 1106SOL    HW1 3376   0.822   2.345   4.003
 1106SOL    HW2 3377   0.721   2.468   4.041
 1107SOL     OW 3378   1.657   2.466   4.930
 1107SOL    HW1 3379   1.619   2.397   4.992
 1107SOL    HW2 3380   1.739   2.430   4.886
 1108SOL     OW 3381   0.671   2.326   4.993
 1108SOL    HW1 3382   0.637   2.237   4.963
 1108SOL    HW2 3383   0.697   2.380   4.913
 1109SOL     OW 3384   0.930   3.540   5.189
 1109SOL    HW1 3385   0.906   3.522   5.094
 1109SOL    HW2 3386   0.960   3.634   5.199
 1110SOL     OW 3387   0.473   2.362   3.915
 1110SOL    HW1 3388   0.534   2.442   3.919
 1110SOL    HW2 3389   0.378   2.393   3.922
 1111SOL     OW 3390   1.347   2.921   4.958
 1111SOL    HW1 3391   1.371   2.858   4.884
 1111SOL    HW2 3392   1.257   2.961   4.940
 1112SOL     OW 3393   1.302   2.717   4.033
 1112SOL    HW1 3394   1.216   2.686   4.075
 1112SOL    HW2 3395   1.298   2.703   3.934
 1113SOL     OW 3396   1.759   3.609   4.878
 1113SOL    HW1 3397   1.820   3.639   4.805
 1113SOL    HW2 3398   1.721   3.520   4.856
 1114SOL     OW 3399   1.252   3.593   4.852
 1114SOL    HW1 3400   1.336   3.598   4.798
 1114SOL    HW2 3401   1.229   3.497   4.870
 1115SOL     OW 3402   0.083   3.120   4.746
 1115SOL    HW1 3403   0.078   3.119   4.846
 1115SOL    HW2 3404   0.000   3.079   4.708
 1116SOL     OW 3405   1.726   1.997   4.247
 1116SOL    HW1 3406   1.799   1.980   4.180
 1116SOL    HW2 3407   1.695   1.910   4.285
 1117SOL     OW 3408   1.388   3.435   4.201
 1117SOL    HW1 3409   1.455   3.447   4.127
 1117SOL    HW2 3410   1.348   3.524   4.224
 1118SOL     OW 3411   1.280   2.789   4.396
 1118SOL    HW1 3412   1.340   2.708   4.398
 1118SOL    HW2 3413   1.320   2.858   4.336
 1119SOL     OW 3414   0.672   3.478   3.878
 1119SOL    HW1 3415   0.681   3.488   3.779
 1119SOL    HW2 3416   0.632   3.389   3.899
 1120SOL     OW 3417   1.650   3.582   5.118
 1120SOL    HW1 3418   1.703   3.592   5.034
 1120SOL    HW2 3419   1.623   3.672   5.152
 1121SOL     OW 3420   1.841   2.037   4.687
 1121SOL    HW1 3421   1.880   1.952   4.651
 1121SOL    HW2 3422   1.743   2.039   4.668
 1122SOL     OW 3423   0.263   2.188   4.444
 1122SOL    HW1 3424   0.184   2.239   4.410
 1122SOL    HW2 3425   0.254   2.173   4.542
 1123SOL     OW 3426   1.194   3.474   3.755
 1123SOL    HW1 3427   1.200   3.381   3.792
 1123SOL    HW2 3428   1.135   3.474   3.675
 1124SOL     OW 3429   0.822   2.864   5.096
 1124SOL    HW1 3430   0.862   2.863   5.004
 1124SOL    HW2 3431   0.832   2.956   5.136
 1125SOL     OW 3432   0.916   2.772   4.015
 1125SOL    HW1 3433   0.979   2.810   3.947
 1125SOL    HW2 3434   0.956   2.689   4.054
 1126SOL     OW 3435   1.504   3.469   3.768
 1126SOL    HW1 3436   1.412   3.506   3.775
 1126SOL    HW2 3437   1.542   3.489   3.678
 1127SOL     OW 3438   1.039   2.960   4.420
 1127SOL    HW1 3439   0.969   2.913   4.474
 1127SOL    HW2 3440   1.098   2.892   4.377
 1128SOL     OW 3441   1.014   2.098   4.695
 1128SOL    HW1 3442   1.006   2.062   4.602
 1128SOL    HW2 3443   1.012   2.022   4.760
 1129SOL     OW 3444   0.590   3.349   4.215
 1129SOL    HW1 3445   0.632   3.291   4.145
 1129SOL    HW2 3446   0.546   3.428   4.171
 1130SOL     OW 3447   1.709   2.247   5.105
 1130SOL    HW1 3448   1.782   2.316   5.109
 1130SOL    HW2 3449   1.737   2.172   5.046
 1131SOL     OW 3450   0.255   3.210   4.014
 1131SOL    HW1 3451   0.159   3.211   3.987
 1131SOL    HW2 3452   0.267   3.263   4.098
 1132SOL     OW 3453   0.075   2.207   3.757
 1132SOL    HW1 3454  -0.017   2.179   3.728
 1132SOL    HW2 3455   0.106   2.284   3.701
 1133SOL     OW 3456   0.072   2.028   4.042
 1133SOL    HW1 3457   0.055   2.111   3.988
 1133SOL    HW2 3458   0.162   1.991   4.020
 1134SOL     OW 3459   1.183   3.197   3.843
 1134SOL    HW1 3460   1.084   3.186   3.845
 1134SOL    HW2 3461   1.217   3.212   3.936
 1135SOL     OW 3462   1.493   3.629   4.683
 1135SOL    HW1 3463   1.526   3.693   4.614
 1135SOL    HW2 3464   1.559   3.623   4.758
 1136SOL     OW 3465   1.450   3.082   5.357
 1136SOL    HW1 3466   1.441   3.072   5.456
 1136SOL    HW2 3467   1.546   3.075   5.331
 1137SOL     OW 3468   1.674   2.745   4.978
 1137SOL    HW1 3469   1.647   2.656   4.941
 1137SOL    HW2 3470   1.675   2.813   4.905
 1138SOL     OW 3471   1.225   2.187   4.173
 1138SOL    HW1 3472   1.290   2.113   4.162
 1138SOL    HW2 3473   1.245   2.237   4.257
 1139SOL     OW 3474   0.594   2.607   4.376
 1139SOL    HW1 3475   0.644   2.692   4.357
 1139SOL    HW2 3476   0.506   2.609   4.328
 1140SOL     OW 3477   1.730   2.796   5.241
 1140SOL    HW1 3478   1.768   2.887   5.256
 1140SOL    HW2 3479   1.722   2.779   5.142
 1141SOL     OW 3480   0.859   3.236   3.740
 1141SOL    HW1 3481   0.813   3.251   3.828
 1141SOL    HW2 3482   0.903   3.321   3.710
 1142SOL     OW 3483   0.661   3.652   4.677
 1142SOL    HW1 3484   0.615   3.740   4.664
 1142SOL    HW2 3485   0.760   3.664   4.670
 1143SOL     OW 3486   0.859   2.818   4.585
 1143SOL    HW1 3487   0.913   2.749   4.633
 1143SOL    HW2 3488   0.827   2.887   4.651
 1144SOL     OW 3489   1.083   2.846   3.811
 1144SOL    HW1 3490   1.060   2.899   3.729
 1144SOL    HW2 3491   1.164   2.790   3.792
 1145SOL     OW 3492   1.861   3.431   4.575
 1145SOL    HW1 3493   1.790   3.419   4.505
 1145SOL    HW2 3494   1.862   3.352   4.635
 1146SOL     OW 3495   0.079   3.102   4.377
 1146SOL    HW1 3496   0.078   3.055   4.465
 1146SOL    HW2 3497   0.161   3.074   4.326
 1147SOL     OW 3498   1.824   2.054   4.951
 1147SOL    HW1 3499   1.820   1.964   4.995
 1147SOL    HW2 3500   1.827   2.043   4.852
 1148SOL     OW 3501   0.428   2.286   4.244
 1148SOL    HW1 3502   0.458   2.214   4.182
 1148SOL    HW2 3503   0.389   2.246   4.327
 1149SOL     OW 3504   1.705   3.349   4.828
 1149SOL    HW1 3505   1.612   3.324   4.801
 1149SOL    HW2 3506   1.731   3.299   4.910
 1150SOL     OW 3507   0.812   3.448   4.411
 1150SOL    HW1 3508   0.844   3.458   4.317
 1150SOL    HW2 3509   0.733   3.386   4.413
 1151SOL     OW 3510   1.424   2.076   4.836
 1151SOL    HW1 3511   1.476   2.011   4.891
 1151SOL    HW2 3512   1.375   2.139   4.897
 1152SOL     OW 3513   1.001   1.896   4.878
 1152SOL    HW1 3514   0.938   1.824   4.847
 1152SOL    HW2 3515   1.094   1.860   4.878
 1153SOL     OW 3516   0.770   3.192   4.025
 1153SOL    HW1 3517   0.724   3.105   4.042
 1153SOL    HW2 3518   0.861   3.189   4.066
 1154SOL     OW 3519   1.352   1.914   3.892
 1154SOL    HW1 3520   1.387   1.873   3.808
 1154SOL    HW2 3521   1.262   1.876   3.912
 1155SOL     OW 3522   1.300   2.315   4.415
 1155SOL    HW1 3523   1.241   2.395   4.419
 1155SOL    HW2 3524   1.315   2.280   4.508
 1156SOL     OW 3525   1.593   2.083   4.606
 1156SOL    HW1 3526   1.509   2.082   4.660
 1156SOL    HW2 3527   1.595   2.166   4.550
 1157SOL     OW 3528   0.039   2.939   4.024
 1157SOL    HW1 3529   0.138   2.928   4.015
 1157SOL    HW2 3530  -0.001   2.853   4.056
 1158SOL     OW 3531   0.875   3.508   4.061
 1158SOL    HW1 3532   0.798   3.473   4.007
 1158SOL    HW2 3533   0.843   3.579   4.123
 1159SOL     OW 3534   0.230   4.352   0.113
 1159SOL    HW1 3535   0.137   4.350   0.150
 1159SOL    HW2 3536   0.231   4.313   0.021
 1160SOL     OW 3537   0.225   3.999   0.996
 1160SOL    HW1 3538   0.260   3.982   1.088
 1160SOL    HW2 3539   0.137   3.954   0.984
 1161SOL     OW 3540   0.019   4.092   0.647
 1161SOL    HW1 3541  -0.063   4.135   0.686
 1161SOL    HW2 3542  -0.009   4.019   0.584
 1162SOL     OW 3543   0.569   4.999   1.165
 1162SOL    HW1 3544   0.476   4.992   1.128
 1162SOL    HW2 3545   0.580   5.088   1.209
 1163SOL     OW 3546   1.555   5.235   0.703
 1163SOL    HW1 3547   1.498   5.219   0.784
 1163SOL    HW2 3548   1.496   5.245   0.623
 1164SOL     OW 3549   1.135   4.427   0.717
 1164SOL    HW1 3550   1.192   4.505   0.692
 1164SOL    HW2 3551   1.075   4.453   0.793
 1165SOL     OW 3552   1.755   4.331   0.231
 1165SOL    HW1 3553   1.743   4.318   0.132
 1165SOL    HW2 3554   1.725   4.250   0.280
 1166SOL     OW 3555   0.768   4.868   1.023
 1166SOL    HW1 3556   0.690   4.885   1.083
 1166SOL    HW2 3557   0.802   4.955   0.987
 1167SOL     OW 3558   0.850   4.522   1.823
 1167SOL    HW1 3559   0.846   4.598   1.888
 1167SOL    HW2 3560   0.872   4.558   1.732
 1168SOL     OW 3561   0.685   4.736   0.665
 1168SOL    HW1 3562   0.754   4.720   0.735
 1168SOL    HW2 3563   0.612   4.793   0.703
 1169SOL     OW 3564   0.686   4.885   1.803
 1169SOL    HW1 3565   0.746   4.964   1.817
 1169SOL    HW2 3566   0.600   4.916   1.762
 1170SOL     OW 3567   0.335   5.159   1.061
 1170SOL    HW1 3568   0.257   5.128   1.008
 1170SOL    HW2 3569   0.393   5.217   1.004
 1171SOL     OW 3570   0.438   4.116   1.499
 1171SOL    HW1 3571   0.520   4.060   1.508
 1171SOL    HW2 3572   0.357   4.058   1.503
 1172SOL     OW 3573   1.603   4.171   0.737
 1172SOL    HW1 3574   1.529   4.217   0.687
 1172SOL    HW2 3575   1.654   4.239   0.790
 1173SOL     OW 3576   0.240   4.815   0.886
 1173SOL    HW1 3577   0.254   4.731   0.938
 1173SOL    HW2 3578   0.185   4.879   0.941
 1174SOL     OW 3579   0.606   4.688   0.123
 1174SOL    HW1 3580   0.613   4.772   0.069
 1174SOL    HW2 3581   0.652   4.701   0.211
 1175SOL     OW 3582   1.594   3.838   1.480
 1175SOL    HW1 3583   1.576   3.905   1.408
 1175SOL    HW2 3584   1.591   3.884   1.569
 1176SOL     OW 3585   0.122   4.367   0.563
 1176SOL    HW1 3586   0.077   4.279   0.580
 1176SOL    HW2 3587   0.121   4.421   0.647
 1177SOL     OW 3588   1.689   4.646   0.612
 1177SOL    HW1 3589   1.784   4.617   0.620
 1177SOL    HW2 3590   1.681   4.711   0.537
 1178SOL     OW 3591   1.641   4.832   0.432
 1178SOL    HW1 3592   1.727   4.834   0.380
 1178SOL    HW2 3593   1.655   4.879   0.520
 1179SOL     OW 3594   0.113   4.461   1.597
 1179SOL    HW1 3595   0.201   4.448   1.642
 1179SOL    HW2 3596   0.100   4.558   1.575
 1180SOL     OW 3597   1.293   4.952   1.423
 1180SOL    HW1 3598   1.330   4.879   1.365
 1180SOL    HW2 3599   1.345   4.957   1.508
 1181SOL     OW 3600   0.809   3.728   0.502
 1181SOL    HW1 3601   0.849   3.819   0.493
 1181SOL    HW2 3602   0.709   3.736   0.508
 1182SOL     OW 3603   0.197   4.700   1.264
 1182SOL    HW1 3604   0.286   4.655   1.250
 1182SOL    HW2 3605   0.124   4.635   1.245
 1183SOL     OW 3606   1.525   4.723   0.190
 1183SOL    HW1 3607   1.462   4.647   0.203
 1183SOL    HW2 3608   1.573   4.741   0.276
 1184SOL     OW 3609   0.317   3.975   1.801
 1184SOL    HW1 3610   0.388   4.046   1.807
 1184SOL    HW2 3611   0.229   4.014   1.829
 1185SOL     OW 3612   1.466   5.141   0.953
 1185SOL    HW1 3613   1.407   5.147   1.033
 1185SOL    HW2 3614   1.451   5.053   0.907
 1186SOL     OW 3615   0.598   4.453   0.270
 1186SOL    HW1 3616   0.622   4.522   0.202
 1186SOL    HW2 3617   0.520   4.486   0.324
 1187SOL     OW 3618   1.281   4.069   0.944
 1187SOL    HW1 3619   1.195   4.019   0.931
 1187SOL    HW2 3620   1.343   4.015   1.000
 1188SOL     OW 3621   0.807   4.329   1.465
 1188SOL    HW1 3622   0.760   4.326   1.554
 1188SOL    HW2 3623   0.756   4.274   1.399
 1189SOL     OW 3624   1.394   4.193   1.674
 1189SOL    HW1 3625   1.374   4.236   1.762
 1189SOL    HW2 3626   1.472   4.131   1.683
 1190SOL     OW 3627   0.973   4.614   1.572
 1190SOL    HW1 3628   1.019   4.530   1.543
 1190SOL    HW2 3629   0.917   4.648   1.497
 1191SOL     OW 3630   0.991   4.134   1.242
 1191SOL    HW1 3631   0.914   4.168   1.296
 1191SOL    HW2 3632   0.957   4.083   1.163
 1192SOL     OW 3633   1.041   4.425   0.429
 1192SOL    HW1 3634   1.067   4.421   0.525
 1192SOL    HW2 3635   0.956   4.374   0.415
 1193SOL     OW 3636   0.076   4.535   0.789
 1193SOL    HW1 3637   0.175   4.523   0.798
 1193SOL    HW2 3638   0.052   4.630   0.810
 1194SOL     OW 3639   0.865   4.072   0.195
 1194SOL    HW1 3640   0.924   4.135   0.146
 1194SOL    HW2 3641   0.884   3.978   0.166
 1195SOL     OW 3642   1.719   4.309   1.831
 1195SOL    HW1 3643   1.693   4.398   1.795
 1195SOL    HW2 3644   1.717   4.241   1.758
 1196SOL     OW 3645   1.362   4.868   0.545
 1196SOL    HW1 3646   1.445   4.839   0.497
 1196SOL    HW2 3647   1.313   4.935   0.489
 1197SOL     OW 3648   0.550   3.920   0.885
 1197SOL    HW1 3649   0.545   3.915   0.985
 1197SOL    HW2 3650   0.552   4.016   0.856
 1198SOL     OW 3651   1.795   4.790   0.873
 1198SOL    HW1 3652   1.733   4.775   0.797
 1198SOL    HW2 3653   1.743   4.801   0.958
 1199SOL     OW 3654   0.321   4.667   0.242
 1199SOL    HW1 3655   0.403   4.706   0.200
 1199SOL    HW2 3656   0.294   4.585   0.193
 1200SOL     OW 3657   1.458   4.459   0.728
 1200SOL    HW1 3658   1.453   4.394   0.803
 1200SOL    HW2 3659   1.538   4.518   0.741
 1201SOL     OW 3660   0.202   4.009   1.498
 1201SOL    HW1 3661   0.122   4.069   1.485
 1201SOL    HW2 3662   0.192   3.960   1.584
 1202SOL     OW 3663   1.632   5.101   0.081
 1202SOL    HW1 3664   1.600   5.195   0.071
 1202SOL    HW2 3665   1.556   5.038   0.069
 1203SOL     OW 3666   1.400   3.831   0.426
 1203SOL    HW1 3667   1.376   3.794   0.336
 1203SOL    HW2 3668   1.499   3.847   0.430
 1204SOL     OW 3669   0.382   4.424   0.480
 1204SOL    HW1 3670   0.427   4.334   0.477
 1204SOL    HW2 3671   0.288   4.413   0.513
 1205SOL     OW 3672   1.547   3.946   1.729
 1205SOL    HW1 3673   1.542   3.983   1.821
 1205SOL    HW2 3674   1.475   3.877   1.717
 1206SOL     OW 3675   0.781   3.988   1.749
 1206SOL    HW1 3676   0.848   3.927   1.792
 1206SOL    HW2 3677   0.708   4.007   1.814
 1207SOL     OW 3678   1.351   4.314   1.433
 1207SOL    HW1 3679   1.379   4.271   1.518
 1207SOL    HW2 3680   1.376   4.410   1.434
 1208SOL     OW 3681   0.803   5.126   0.924
 1208SOL    HW1 3682   0.893   5.140   0.882
 1208SOL    HW2 3683   0.732   5.128   0.853
 1209SOL     OW 3684   0.922   4.227   0.899
 1209SOL    HW1 3685   0.897   4.218   0.803
 1209SOL    HW2 3686   0.970   4.145   0.930
 1210SOL     OW 3687   0.539   3.788   0.512
 1210SOL    HW1 3688   0.458   3.789   0.570
 1210SOL    HW2 3689   0.542   3.871   0.457
 1211SOL     OW 3690   1.434   4.912   0.041
 1211SOL    HW1 3691   1.466   4.836   0.098
 1211SOL    HW2 3692   1.342   4.939   0.071
 1212SOL     OW 3693   0.297   3.759   0.171
 1212SOL    HW1 3694   0.346   3.843   0.150
 1212SOL    HW2 3695   0.359   3.694   0.216
 1213SOL     OW 3696   0.935   3.960   0.480
 1213SOL    HW1 3697   0.887   4.001   0.402
 1213SOL    HW2 3698   1.034   3.958   0.461
 1214SOL     OW 3699   1.076   4.407   1.464
 1214SOL    HW1 3700   0.996   4.346   1.467
 1214SOL    HW2 3701   1.157   4.354   1.440
 1215SOL     OW 3702   1.227   5.294   0.793
 1215SOL    HW1 3703   1.248   5.368   0.728
 1215SOL    HW2 3704   1.295   5.294   0.866
 1216SOL     OW 3705   0.459   4.876   0.741
 1216SOL    HW1 3706   0.388   4.849   0.806
 1216SOL    HW2 3707   0.433   4.848   0.648
 1217SOL     OW 3708   1.032   4.273   0.016
 1217SOL    HW1 3709   0.991   4.355  -0.023
 1217SOL    HW2 3710   1.096   4.299   0.089
 1218SOL     OW 3711   0.078   4.280   1.386
 1218SOL    HW1 3712   0.170   4.279   1.345
 1218SOL    HW2 3713   0.072   4.354   1.453
 1219SOL     OW 3714   0.561   3.946   1.147
 1219SOL    HW1 3715   0.599   3.862   1.184
 1219SOL    HW2 3716   0.473   3.965   1.191
 1220SOL     OW 3717   0.866   4.178   0.642
 1220SOL    HW1 3718   0.834   4.250   0.580
 1220SOL    HW2 3719   0.890   4.097   0.589
 1221SOL     OW 3720   1.017   3.763   0.753
 1221SOL    HW1 3721   0.945   3.768   0.684
 1221SOL    HW2 3722   0.993   3.694   0.822
 1222SOL     OW 3723   1.429   4.897   0.867
 1222SOL    HW1 3724   1.374   4.813   0.860
 1222SOL    HW2 3725   1.455   4.926   0.775
 1223SOL     OW 3726   1.466   4.314   0.992
 1223SOL    HW1 3727   1.436   4.219   0.999
 1223SOL    HW2 3728   1.539   4.330   1.058
 1224SOL     OW 3729   1.857   4.557   0.377
 1224SOL    HW1 3730   1.899   4.493   0.441
 1224SOL    HW2 3731   1.819   4.506   0.299
 1225SOL     OW 3732   1.664   5.004   0.657
 1225SOL    HW1 3733   1.763   5.012   0.671
 1225SOL    HW2 3734   1.619   5.088   0.688
 1226SOL     OW 3735   1.390   4.299   0.078
 1226SOL    HW1 3736   1.336   4.278   0.159
 1226SOL    HW2 3737   1.481   4.258   0.087
 1227SOL     OW 3738   0.527   3.980   0.328
 1227SOL    HW1 3739   0.554   3.921   0.253
 1227SOL    HW2 3740   0.527   4.075   0.297
 1228SOL     OW 3741   1.754   4.947   1.588
 1228SOL    HW1 3742   1.845   4.908   1.575
 1228SOL    HW2 3743   1.762   5.043   1.612
 1229SOL     OW 3744   1.638   4.823   1.079
 1229SOL    HW1 3745   1.643   4.904   1.138
 1229SOL    HW2 3746   1.552   4.825   1.028
 1230SOL     OW 3747   0.915   3.813   1.402
 1230SOL    HW1 3748   0.940   3.793   1.307
 1230SOL    HW2 3749   0.987   3.869   1.444
 1231SOL     OW 3750   0.980   4.840   1.719
 1231SOL    HW1 3751   0.881   4.846   1.729
 1231SOL    HW2 3752   1.003   4.760   1.663
 1232SOL     OW 3753   0.705   4.774   0.368
 1232SOL    HW1 3754   0.691   4.781   0.467
 1232SOL    HW2 3755   0.789   4.723   0.350
 1233SOL     OW 3756   0.410   4.537   1.251
 1233SOL    HW1 3757   0.496   4.549   1.301
 1233SOL    HW2 3758   0.368   4.450   1.278
 1234SOL     OW 3759   1.274   4.110   1.262
 1234SOL    HW1 3760   1.295   4.184   1.326
 1234SOL    HW2 3761   1.185   4.127   1.219
 1235SOL     OW 3762   0.367   4.824   0.501
 1235SOL    HW1 3763   0.360   4.907   0.445
 1235SOL    HW2 3764   0.371   4.744   0.441
 1236SOL     OW 3765   0.566   4.261   0.865
 1236SOL    HW1 3766   0.578   4.327   0.791
 1236SOL    HW2 3767   0.612   4.295   0.948
 1237SOL     OW 3768   1.582   4.363   0.472
 1237SOL    HW1 3769   1.551   4.424   0.545
 1237SOL    HW2 3770   1.632   4.415   0.403
 1238SOL     OW 3771   0.402   4.475   1.598
 1238SOL    HW1 3772   0.470   4.530   1.551
 1238SOL    HW2 3773   0.442   4.387   1.625
 1239SOL     OW 3774   1.587   4.503   1.670
 1239SOL    HW1 3775   1.495   4.541   1.665
 1239SOL    HW2 3776   1.647   4.550   1.605
 1240SOL     OW 3777   1.013   3.829   1.770
 1240SOL    HW1 3778   1.019   3.914   1.718
 1240SOL    HW2 3779   1.045   3.753   1.713
 1241SOL     OW 3780   0.504   3.774   1.740
 1241SOL    HW1 3781   0.462   3.717   1.670
 1241SOL    HW2 3782   0.438   3.843   1.772
 1242SOL     OW 3783   0.573   4.594   1.029
 1242SOL    HW1 3784   0.617   4.683   1.020
 1242SOL    HW2 3785   0.510   4.594   1.106
 1243SOL     OW 3786   1.360   4.586   1.045
 1243SOL    HW1 3787   1.285   4.586   0.979
 1243SOL    HW2 3788   1.397   4.494   1.054
 1244SOL     OW 3789   1.209   4.249   0.275
 1244SOL    HW1 3790   1.222   4.165   0.329
 1244SOL    HW2 3791   1.180   4.323   0.335
 1245SOL     OW 3792   0.307   3.937   1.231
 1245SOL    HW1 3793   0.284   3.974   1.321
 1245SOL    HW2 3794   0.277   3.842   1.225
 1246SOL     OW 3795   0.037   5.034   1.282
 1246SOL    HW1 3796   0.090   4.985   1.350
 1246SOL    HW2 3797   0.059   5.132   1.287
 1247SOL     OW 3798   0.732   4.358   1.064
 1247SOL    HW1 3799   0.791   4.332   0.988
 1247SOL    HW2 3800   0.704   4.454   1.053
 1248SOL     OW 3801   1.728   4.659   1.854
 1248SOL    HW1 3802   1.682   4.652   1.765
 1248SOL    HW2 3803   1.666   4.703   1.920
 1249SOL     OW 3804   0.307   3.787   0.618
 1249SOL    HW1 3805   0.296   3.881   0.651
 1249SOL    HW2 3806   0.302   3.724   0.695
 1250SOL     OW 3807   1.622   4.091   0.374
 1250SOL    HW1 3808   1.624   4.015   0.438
 1250SOL    HW2 3809   1.574   4.168   0.414
 1251SOL     OW 3810   1.023   4.490   0.966
 1251SOL    HW1 3811   1.038   4.511   1.062
 1251SOL    HW2 3812   0.993   4.395   0.957
 1252SOL     OW 3813   1.859   5.242   1.605
 1252SOL    HW1 3814   1.873   5.269   1.510
 1252SOL    HW2 3815   1.942   5.264   1.658
 1253SOL     OW 3816   0.350   4.622   1.804
 1253SOL    HW1 3817   0.426   4.666   1.852
 1253SOL    HW2 3818   0.385   4.575   1.722
 1254SOL     OW 3819   1.540   3.998   0.125
 1254SOL    HW1 3820   1.479   3.923   0.148
 1254SOL    HW2 3821   1.562   4.050   0.208
 1255SOL     OW 3822   1.303   4.562   0.042
 1255SOL    HW1 3823   1.337   4.469   0.057
 1255SOL    HW2 3824   1.321   4.589  -0.053
 1256SOL     OW 3825   0.319   4.534   0.949
 1256SOL    HW1 3826   0.412   4.570   0.954
 1256SOL    HW2 3827   0.313   4.449   1.001
 1257SOL     OW 3828   0.339   4.233   1.006
 1257SOL    HW1 3829   0.287   4.150   0.989
 1257SOL    HW2 3830   0.416   4.238   0.942
 1258SOL     OW 3831   1.138   4.104   1.678
 1258SOL    HW1 3832   1.093   4.167   1.742
 1258SOL    HW2 3833   1.231   4.135   1.661
 1259SOL     OW 3834   1.160   3.931   1.477
 1259SOL    HW1 3835   1.160   3.995   1.554
 1259SOL    HW2 3836   1.188   3.979   1.394
 1260SOL     OW 3837   0.008   5.050   0.200
 1260SOL    HW1 3838  -0.085   5.071   0.169
 1260SOL    HW2 3839   0.018   4.951   0.213
 1261SOL     OW 3840   1.002   4.520   1.238
 1261SOL    HW1 3841   1.043   4.488   1.324
 1261SOL    HW2 3842   0.906   4.493   1.235
 1262SOL     OW 3843   0.040   4.268   1.114
 1262SOL    HW1 3844   0.125   4.235   1.073
 1262SOL    HW2 3845   0.053   4.283   1.212
 1263SOL     OW 3846   0.189   4.244   1.722
 1263SOL    HW1 3847   0.248   4.204   1.652
 1263SOL    HW2 3848   0.131   4.315   1.681
 1264SOL     OW 3849   1.369   4.674   1.660
 1264SOL    HW1 3850   1.408   4.763   1.680
 1264SOL    HW2 3851   1.379   4.654   1.563
 1265SOL     OW 3852   0.815   4.296   0.325
 1265SOL    HW1 3853   0.822   4.207   0.279
 1265SOL    HW2 3854   0.721   4.330   0.317
 1266SOL     OW 3855   1.657   4.328   1.206
 1266SOL    HW1 3856   1.619   4.259   1.268
 1266SOL    HW2 3857   1.739   4.292   1.162
 1267SOL     OW 3858   0.671   4.188   1.269
 1267SOL    HW1 3859   0.637   4.099   1.239
 1267SOL    HW2 3860   0.697   4.242   1.189
 1268SOL     OW 3861   0.473   4.224   0.191
 1268SOL    HW1 3862   0.534   4.304   0.195
 1268SOL    HW2 3863   0.378   4.255   0.198
 1269SOL     OW 3864   0.159   4.861   1.466
 1269SOL    HW1 3865   0.181   4.800   1.542
 1269SOL    HW2 3866   0.169   4.812   1.380
 1270SOL     OW 3867   1.347   4.783   1.234
 1270SOL    HW1 3868   1.371   4.720   1.160
 1270SOL    HW2 3869   1.257   4.823   1.216
 1271SOL     OW 3870   1.302   4.579   0.309
 1271SOL    HW1 3871   1.216   4.548   0.351
 1271SOL    HW2 3872   1.298   4.565   0.210
 1272SOL     OW 3873   0.083   4.982   1.022
 1272SOL    HW1 3874   0.078   4.981   1.122
 1272SOL    HW2 3875   0.000   4.941   0.984
 1273SOL     OW 3876   0.903   3.810   0.133
 1273SOL    HW1 3877   0.954   3.811   0.047
 1273SOL    HW2 3878   0.959   3.768   0.204
 1274SOL     OW 3879   1.726   3.859   0.523
 1274SOL    HW1 3880   1.799   3.842   0.456
 1274SOL    HW2 3881   1.695   3.772   0.561
 1275SOL     OW 3882   1.280   4.651   0.672
 1275SOL    HW1 3883   1.340   4.570   0.674
 1275SOL    HW2 3884   1.320   4.720   0.612
 1276SOL     OW 3885   0.830   4.997   1.422
 1276SOL    HW1 3886   0.825   5.030   1.517
 1276SOL    HW2 3887   0.744   5.016   1.376
 1277SOL     OW 3888   1.841   3.899   0.963
 1277SOL    HW1 3889   1.880   3.814   0.927
 1277SOL    HW2 3890   1.743   3.901   0.944
 1278SOL     OW 3891   0.263   4.050   0.720
 1278SOL    HW1 3892   0.184   4.101   0.686
 1278SOL    HW2 3893   0.254   4.035   0.818
 1279SOL     OW 3894   0.822   4.726   1.372
 1279SOL    HW1 3895   0.862   4.725   1.280
 1279SOL    HW2 3896   0.832   4.818   1.412
 1280SOL     OW 3897   0.916   4.634   0.291
 1280SOL    HW1 3898   0.979   4.672   0.223
 1280SOL    HW2 3899   0.956   4.551   0.330
 1281SOL     OW 3900   0.372   5.012   1.490
 1281SOL    HW1 3901   0.359   5.105   1.456
 1281SOL    HW2 3902   0.288   4.960   1.477
 1282SOL     OW 3903   1.614   5.016   1.289
 1282SOL    HW1 3904   1.674   5.019   1.369
 1282SOL    HW2 3905   1.539   5.080   1.302
 1283SOL     OW 3906   1.039   4.822   0.696
 1283SOL    HW1 3907   0.969   4.775   0.750
 1283SOL    HW2 3908   1.098   4.754   0.653
 1284SOL     OW 3909   1.014   3.960   0.971
 1284SOL    HW1 3910   1.006   3.924   0.878
 1284SOL    HW2 3911   1.012   3.884   1.036
 1285SOL     OW 3912   1.709   4.109   1.381
 1285SOL    HW1 3913   1.782   4.178   1.385
 1285SOL    HW2 3914   1.737   4.034   1.322
 1286SOL     OW 3915   0.105   4.737   1.726
 1286SOL    HW1 3916   0.028   4.704   1.780
 1286SOL    HW2 3917   0.190   4.707   1.768
 1287SOL     OW 3918   0.672   3.927   1.489
 1287SOL    HW1 3919   0.762   3.911   1.449
 1287SOL    HW2 3920   0.680   3.932   1.588
 1288SOL     OW 3921   0.075   4.069   0.033
 1288SOL    HW1 3922  -0.017   4.041   0.004
 1288SOL    HW2 3923   0.106   4.146  -0.023
 1289SOL     OW 3924   1.440   4.580   1.398
 1289SOL    HW1 3925   1.383   4.632   1.335
 1289SOL    HW2 3926   1.536   4.592   1.374
 1290SOL     OW 3927   0.072   3.890   0.318
 1290SOL    HW1 3928   0.055   3.973   0.264
 1290SOL    HW2 3929   0.162   3.853   0.296
 1291SOL     OW 3930   0.613   4.566   1.431
 1291SOL    HW1 3931   0.669   4.647   1.414
 1291SOL    HW2 3932   0.672   4.486   1.434
 1292SOL     OW 3933   0.716   4.289   1.708
 1292SOL    HW1 3934   0.735   4.354   1.782
 1292SOL    HW2 3935   0.776   4.209   1.717
 1293SOL     OW 3936   1.450   4.944   1.633
 1293SOL    HW1 3937   1.441   4.934   1.732
 1293SOL    HW2 3938   1.546   4.937   1.607
 1294SOL     OW 3939   1.674   4.607   1.254
 1294SOL    HW1 3940   1.647   4.518   1.217
 1294SOL    HW2 3941   1.675   4.675   1.181
 1295SOL     OW 3942   1.225   4.049   0.449
 1295SOL    HW1 3943   1.290   3.975   0.438
 1295SOL    HW2 3944   1.245   4.099   0.533
 1296SOL     OW 3945   0.594   4.469   0.652
 1296SOL    HW1 3946   0.644   4.554   0.633
 1296SOL    HW2 3947   0.506   4.471   0.604
 1297SOL     OW 3948   1.777   4.066   1.642
 1297SOL    HW1 3949   1.760   4.097   1.548
 1297SOL    HW2 3950   1.693   4.029   1.680
 1298SOL     OW 3951   1.730   4.658   1.517
 1298SOL    HW1 3952   1.768   4.749   1.532
 1298SOL    HW2 3953   1.722   4.641   1.418
 1299SOL     OW 3954   0.859   4.680   0.861
 1299SOL    HW1 3955   0.913   4.611   0.909
 1299SOL    HW2 3956   0.827   4.749   0.927
 1300SOL     OW 3957   1.083   4.708   0.087
 1300SOL    HW1 3958   1.060   4.761   0.005
 1300SOL    HW2 3959   1.164   4.652   0.068
 1301SOL     OW 3960   0.079   4.964   0.653
 1301SOL    HW1 3961   0.078   4.917   0.741
 1301SOL    HW2 3962   0.161   4.936   0.602
 1302SOL     OW 3963   1.824   3.916   1.227
 1302SOL    HW1 3964   1.820   3.826   1.271
 1302SOL    HW2 3965   1.827   3.905   1.128
 1303SOL     OW 3966   0.428   4.148   0.520
 1303SOL    HW1 3967   0.458   4.076   0.458
 1303SOL    HW2 3968   0.389   4.108   0.603
 1304SOL     OW 3969   0.317   4.271   1.280
 1304SOL    HW1 3970   0.355   4.212   1.352
 1304SOL    HW2 3971   0.357   4.245   1.192
 1305SOL     OW 3972   1.424   3.938   1.112
 1305SOL    HW1 3973   1.476   3.873   1.167
 1305SOL    HW2 3974   1.375   4.001   1.173
 1306SOL     OW 3975   1.001   3.758   1.154
 1306SOL    HW1 3976   0.938   3.686   1.123
 1306SOL    HW2 3977   1.094   3.722   1.154
 1307SOL     OW 3978   0.770   5.054   0.301
 1307SOL    HW1 3979   0.724   4.967   0.318
 1307SOL    HW2 3980   0.861   5.051   0.342
 1308SOL     OW 3981   1.352   3.776   0.168
 1308SOL    HW1 3982   1.387   3.735   0.084
 1308SOL    HW2 3983   1.262   3.738   0.188
 1309SOL     OW 3984   1.300   4.177   0.691
 1309SOL    HW1 3985   1.241   4.257   0.695
 1309SOL    HW2 3986   1.315   4.142   0.784
 1310SOL     OW 3987   1.593   3.945   0.882
 1310SOL    HW1 3988   1.509   3.944   0.936
 1310SOL    HW2 3989   1.595   4.028   0.826
 1311SOL     OW 3990   0.039   4.801   0.300
 1311SOL    HW1 3991   0.138   4.790   0.291
 1311SOL    HW2 3992  -0.001   4.715   0.332
 1312SOL     OW 3993   0.230   4.352   1.975
 1312SOL    HW1 3994   0.137   4.350   2.012
 1312SOL    HW2 3995   0.231   4.313   1.883
 1313SOL     OW 3996   0.225   3.999   2.858
 1313SOL    HW1 3997   0.260   3.982   2.950
 1313SOL    HW2 3998   0.137   3.954   2.846
 1314SOL     OW 3999   0.019   4.092   2.509
 1314SOL    HW1 4000  -0.063   4.135   2.548
 1314SOL    HW2 4001  -0.009   4.019   2.446
 1315SOL     OW 4002   0.569   4.999   3.027
 1315SOL    HW1 4003   0.476   4.992   2.990
 1315SOL    HW2 4004   0.580   5.088   3.071
 1316SOL     OW 4005   1.555   5.235   2.565
 1316SOL    HW1 4006   1.498   5.219   2.646
 1316SOL    HW2 4007   1.496   5.245   2.485
 1317SOL     OW 4008   1.135   4.427   2.579
 1317SOL    HW1 4009   1.192   4.505   2.554
 1317SOL    HW2 4010   1.075   4.453   2.655
 1318SOL     OW 4011   1.755   4.331   2.093
 1318SOL    HW1 4012   1.743   4.318   1.994
 1318SOL    HW2 4013   1.725   4.250   2.142
 1319SOL     OW 4014   0.768   4.868   2.885
 1319SOL    HW1 4015   0.690   4.885   2.945
 1319SOL    HW2 4016   0.802   4.955   2.849
 1320SOL     OW 4017   0.850   4.522   3.685
 1320SOL    HW1 4018   0.846   4.598   3.750
 1320SOL    HW2 4019   0.872   4.558   3.594
 1321SOL     OW 4020   0.685   4.736   2.527
 1321SOL    HW1 4021   0.754   4.720   2.597
 1321SOL    HW2 4022   0.612   4.793   2.565
 1322SOL     OW 4023   0.686   4.885   3.665
 1322SOL    HW1 4024   0.746   4.964   3.679
 1322SOL    HW2 4025   0.600   4.916   3.624
 1323SOL     OW 4026   0.335   5.159   2.923
 1323SOL    HW1 4027   0.257   5.128   2.870
 1323SOL    HW2 4028   0.393   5.217   2.866
 1324SOL     OW 4029   0.438   4.116   3.361
 1324SOL    HW1 4030   0.520   4.060   3.370
 1324SOL    HW2 4031   0.357   4.058   3.365
 1325SOL     OW 4032   1.603   4.171   2.599
 1325SOL    HW1 4033   1.529   4.217   2.549
 1325SOL    HW2 4034   1.654   4.239   2.652
 1326SOL     OW 4035   0.240   4.815   2.748
 1326SOL    HW1 4036   0.254   4.731   2.800
 1326SOL    HW2 4037   0.185   4.879   2.803
 1327SOL     OW 4038   0.606   4.688   1.985
 1327SOL    HW1 4039   0.613   4.772   1.931
 1327SOL    HW2 4040   0.652   4.701   2.073
 1328SOL     OW 4041   1.594   3.838   3.342
 1328SOL    HW1 4042   1.576   3.905   3.270
 1328SOL    HW2 4043   1.591   3.884   3.431
 1329SOL     OW 4044   0.122   4.367   2.425
 1329SOL    HW1 4045   0.077   4.279   2.442
 1329SOL    HW2 4046   0.121   4.421   2.509
 1330SOL     OW 4047   1.689   4.646   2.474
 1330SOL    HW1 4048   1.784   4.617   2.482
 1330SOL    HW2 4049   1.681   4.711   2.399
 1331SOL     OW 4050   1.641   4.832   2.294
 1331SOL    HW1 4051   1.727   4.834   2.242
 1331SOL    HW2 4052   1.655   4.879   2.382
 1332SOL     OW 4053   0.113   4.461   3.459
 1332SOL    HW1 4054   0.201   4.448   3.504
 1332SOL    HW2 4055   0.100   4.558   3.437
 1333SOL     OW 4056   1.293   4.952   3.285
 1333SOL    HW1 4057   1.330   4.879   3.227
 1333SOL    HW2 4058   1.345   4.957   3.370
 1334SOL     OW 4059   0.809   3.728   2.364
 1334SOL    HW1 4060   0.849   3.819   2.355
 1334SOL    HW2 4061   0.709   3.736   2.370
 1335SOL     OW 4062   0.197   4.700   3.126
 1335SOL    HW1 4063   0.286   4.655   3.112
 1335SOL    HW2 4064   0.124   4.635   3.107
 1336SOL     OW 4065   1.525   4.723   2.052
 1336SOL    HW1 4066   1.462   4.647   2.065
 1336SOL    HW2 4067   1.573   4.741   2.138
 1337SOL     OW 4068   0.317   3.975   3.663
 1337SOL    HW1 4069   0.388   4.046   3.669
 1337SOL    HW2 4070   0.229   4.014   3.691
 1338SOL     OW 4071   1.466   5.141   2.815
 1338SOL    HW1 4072   1.407   5.147   2.895
 1338SOL    HW2 4073   1.451   5.053   2.769
 1339SOL     OW 4074   0.598   4.453   2.132
 1339SOL    HW1 4075   0.622   4.522   2.064
 1339SOL    HW2 4076   0.520   4.486   2.186
 1340SOL     OW 4077   1.281   4.069   2.806
 1340SOL    HW1 4078   1.195   4.019   2.793
 1340SOL    HW2 4079   1.343   4.015   2.862
 1341SOL     OW 4080   0.807   4.329   3.327
 1341SOL    HW1 4081   0.760   4.326   3.416
 1341SOL    HW2 4082   0.756   4.274   3.261
 1342SOL     OW 4083   1.394   4.193   3.536
 1342SOL    HW1 4084   1.374   4.236   3.624
 1342SOL    HW2 4085   1.472   4.131   3.545
 1343SOL     OW 4086   0.973   4.614   3.434
 1343SOL    HW1 4087   1.019   4.530   3.405
 1343SOL    HW2 4088   0.917   4.648   3.359
 1344SOL     OW 4089   0.991   4.134   3.104
 1344SOL    HW1 4090   0.914   4.168   3.158
 1344SOL    HW2 4091   0.957   4.083   3.025
 1345SOL     OW 4092   1.041   4.425   2.291
 1345SOL    HW1 4093   1.067   4.421   2.387
 1345SOL    HW2 4094   0.956   4.374   2.277
 1346SOL     OW 4095   0.076   4.535   2.651
 1346SOL    HW1 4096   0.175   4.523   2.660
 1346SOL    HW2 4097   0.052   4.630   2.672
 1347SOL     OW 4098   0.865   4.072   2.057
 1347SOL    HW1 4099   0.924   4.135   2.008
 1347SOL    HW2 4100   0.884   3.978   2.028
 1348SOL     OW 4101   1.719   4.309   3.693
 1348SOL    HW1 4102   1.693   4.398   3.657
 1348SOL    HW2 4103   1.717   4.241   3.620
 1349SOL     OW 4104   1.362   4.868   2.407
 1349SOL    HW1 4105   1.445   4.839   2.359
 1349SOL    HW2 4106   1.313   4.935   2.351
 1350SOL     OW 4107   0.550   3.920   2.747
 1350SOL    HW1 4108   0.545   3.915   2.847
 1350SOL    HW2 4109   0.552   4.016   2.718
 1351SOL     OW 4110   1.795   4.790   2.735
 1351SOL    HW1 4111   1.733   4.775   2.659
 1351SOL    HW2 4112   1.743   4.801   2.820
 1352SOL     OW 4113   0.321   4.667   2.104
 1352SOL    HW1 4114   0.403   4.706   2.062
 1352SOL    HW2 4115   0.294   4.585   2.055
 1353SOL     OW 4116   1.458   4.459   2.590
 1353SOL    HW1 4117   1.453   4.394   2.665
 1353SOL    HW2 4118   1.538   4.518   2.603
 1354SOL     OW 4119   0.202   4.009   3.360
 1354SOL    HW1 4120   0.122   4.069   3.347
 1354SOL    HW2 4121   0.192   3.960   3.446
 1355SOL     OW 4122   1.632   5.101   1.943
 1355SOL    HW1 4123   1.600   5.195   1.933
 1355SOL    HW2 4124   1.556   5.038   1.931
 1356SOL     OW 4125   1.400   3.831   2.288
 1356SOL    HW1 4126   1.376   3.794   2.198
 1356SOL    HW2 4127   1.499   3.847   2.292
 1357SOL     OW 4128   0.382   4.424   2.342
 1357SOL    HW1 4129   0.427   4.334   2.339
 1357SOL    HW2 4130   0.288   4.413   2.375
 1358SOL     OW 4131   1.547   3.946   3.591
 1358SOL    HW1 4132   1.542   3.983   3.683
 1358SOL    HW2 4133   1.475   3.877   3.579
 1359SOL     OW 4134   0.614   3.846   1.979
 1359SOL    HW1 4135   0.712   3.824   1.986
 1359SOL    HW2 4136   0.583   3.829   1.886
 1360SOL     OW 4137   0.781   3.988   3.611
 1360SOL    HW1 4138   0.848   3.927   3.654
 1360SOL    HW2 4139   0.708   4.007   3.676
 1361SOL     OW 4140   1.351   4.314   3.295
 1361SOL    HW1 4141   1.379   4.271   3.380
 1361SOL    HW2 4142   1.376   4.410   3.296
 1362SOL     OW 4143   0.803   5.126   2.786
 1362SOL    HW1 4144   0.893   5.140   2.744
 1362SOL    HW2 4145   0.732   5.128   2.715
 1363SOL     OW 4146   0.922   4.227   2.761
 1363SOL    HW1 4147   0.897   4.218   2.665
 1363SOL    HW2 4148   0.970   4.145   2.792
 1364SOL     OW 4149   0.539   3.788   2.374
 1364SOL    HW1 4150   0.458   3.789   2.432
 1364SOL    HW2 4151   0.542   3.871   2.319
 1365SOL     OW 4152   1.434   4.912   1.903
 1365SOL    HW1 4153   1.466   4.836   1.960
 1365SOL    HW2 4154   1.342   4.939   1.933
 1366SOL     OW 4155   0.297   3.759   2.033
 1366SOL    HW1 4156   0.346   3.843   2.012
 1366SOL    HW2 4157   0.359   3.694   2.078
 1367SOL     OW 4158   0.935   3.960   2.342
 1367SOL    HW1 4159   0.887   4.001   2.264
 1367SOL    HW2 4160   1.034   3.958   2.323
 1368SOL     OW 4161   1.076   4.407   3.326
 1368SOL    HW1 4162   0.996   4.346   3.329
 1368SOL    HW2 4163   1.157   4.354   3.302
 1369SOL     OW 4164   1.227   5.294   2.655
 1369SOL    HW1 4165   1.248   5.368   2.590
 1369SOL    HW2 4166   1.295   5.294   2.728
 1370SOL     OW 4167   0.459   4.876   2.603
 1370SOL    HW1 4168   0.388   4.849   2.668
 1370SOL    HW2 4169   0.433   4.848   2.510
 1371SOL     OW 4170   1.032   4.273   1.878
 1371SOL    HW1 4171   0.991   4.355   1.839
 1371SOL    HW2 4172   1.096   4.299   1.951
 1372SOL     OW 4173   0.078   4.280   3.248
 1372SOL    HW1 4174   0.170   4.279   3.207
 1372SOL    HW2 4175   0.072   4.354   3.315
 1373SOL     OW 4176   0.561   3.946   3.009
 1373SOL    HW1 4177   0.599   3.862   3.046
 1373SOL    HW2 4178   0.473   3.965   3.053
 1374SOL     OW 4179   0.866   4.178   2.504
 1374SOL    HW1 4180   0.834   4.250   2.442
 1374SOL    HW2 4181   0.890   4.097   2.451
 1375SOL     OW 4182   1.017   3.763   2.615
 1375SOL    HW1 4183   0.945   3.768   2.546
 1375SOL    HW2 4184   0.993   3.694   2.684
 1376SOL     OW 4185   1.429   4.897   2.729
 1376SOL    HW1 4186   1.374   4.813   2.722
 1376SOL    HW2 4187   1.455   4.926   2.637
 1377SOL     OW 4188   1.466   4.314   2.854
 1377SOL    HW1 4189   1.436   4.219   2.861
 1377SOL    HW2 4190   1.539   4.330   2.920
 1378SOL     OW 4191   1.857   4.557   2.239
 1378SOL    HW1 4192   1.899   4.493   2.303
 1378SOL    HW2 4193   1.819   4.506   2.161
 1379SOL     OW 4194   1.664   5.004   2.519
 1379SOL    HW1 4195   1.763   5.012   2.533
 1379SOL    HW2 4196   1.619   5.088   2.550
 1380SOL     OW 4197   1.390   4.299   1.940
 1380SOL    HW1 4198   1.336   4.278   2.021
 1380SOL    HW2 4199   1.481   4.258   1.949
 1381SOL     OW 4200   0.527   3.980   2.190
 1381SOL    HW1 4201   0.554   3.921   2.115
 1381SOL    HW2 4202   0.527   4.075   2.159
 1382SOL     OW 4203   1.754   4.947   3.450
 1382SOL    HW1 4204   1.845   4.908   3.437
 1382SOL    HW2 4205   1.762   5.043   3.474
 1383SOL     OW 4206   1.638   4.823   2.941
 1383SOL    HW1 4207   1.643   4.904   3.000
 1383SOL    HW2 4208   1.552   4.825   2.890
 1384SOL     OW 4209   0.915   3.813   3.264
 1384SOL    HW1 4210   0.940   3.793   3.169
 1384SOL    HW2 4211   0.987   3.869   3.306
 1385SOL     OW 4212   0.980   4.840   3.581
 1385SOL    HW1 4213   0.881   4.846   3.591
 1385SOL    HW2 4214   1.003   4.760   3.525
 1386SOL     OW 4215   0.705   4.774   2.230
 1386SOL    HW1 4216   0.691   4.781   2.329
 1386SOL    HW2 4217   0.789   4.723   2.212
 1387SOL     OW 4218   0.410   4.537   3.113
 1387SOL    HW1 4219   0.496   4.549   3.163
 1387SOL    HW2 4220   0.368   4.450   3.140
 1388SOL     OW 4221   1.274   4.110   3.124
 1388SOL    HW1 4222   1.295   4.184   3.188
 1388SOL    HW2 4223   1.185   4.127   3.081
 1389SOL     OW 4224   0.367   4.824   2.363
 1389SOL    HW1 4225   0.360   4.907   2.307
 1389SOL    HW2 4226   0.371   4.744   2.303
 1390SOL     OW 4227   0.566   4.261   2.727
 1390SOL    HW1 4228   0.578   4.327   2.653
 1390SOL    HW2 4229   0.612   4.295   2.810
 1391SOL     OW 4230   1.582   4.363   2.334
 1391SOL    HW1 4231   1.551   4.424   2.407
 1391SOL    HW2 4232   1.632   4.415   2.265
 1392SOL     OW 4233   0.402   4.475   3.460
 1392SOL    HW1 4234   0.470   4.530   3.413
 1392SOL    HW2 4235   0.442   4.387   3.487
 1393SOL     OW 4236   1.587   4.503   3.532
 1393SOL    HW1 4237   1.495   4.541   3.527
 1393SOL    HW2 4238   1.647   4.550   3.467
 1394SOL     OW 4239   1.013   3.829   3.632
 1394SOL    HW1 4240   1.019   3.914   3.580
 1394SOL    HW2 4241   1.045   3.753   3.575
 1395SOL     OW 4242   0.504   3.774   3.602
 1395SOL    HW1 4243   0.462   3.717   3.532
 1395SOL    HW2 4244   0.438   3.843   3.634
 1396SOL     OW 4245   0.573   4.594   2.891
 1396SOL    HW1 4246   0.617   4.683   2.882
 1396SOL    HW2 4247   0.510   4.594   2.968
 1397SOL     OW 4248   1.360   4.586   2.907
 1397SOL    HW1 4249   1.285   4.586   2.841
 1397SOL    HW2 4250   1.397   4.494   2.916
 1398SOL     OW 4251   1.209   4.249   2.137
 1398SOL    HW1 4252   1.222   4.165   2.191
 1398SOL    HW2 4253   1.180   4.323   2.197
 1399SOL     OW 4254   0.307   3.937   3.093
 1399SOL    HW1 4255   0.284   3.974   3.183
 1399SOL    HW2 4256   0.277   3.842   3.087
 1400SOL     OW 4257   0.037   5.034   3.144
 1400SOL    HW1 4258   0.090   4.985   3.212
 1400SOL    HW2 4259   0.059   5.132   3.149
 1401SOL     OW 4260   0.732   4.358   2.926
 1401SOL    HW1 4261   0.791   4.332   2.850
 1401SOL    HW2 4262   0.704   4.454   2.915
 1402SOL     OW 4263   1.728   4.659   3.716
 1402SOL    HW1 4264   1.682   4.652   3.627
 1402SOL    HW2 4265   1.666   4.703   3.782
 1403SOL     OW 4266   0.307   3.787   2.480
 1403SOL    HW1 4267   0.296   3.881   2.513
 1403SOL    HW2 4268   0.302   3.724   2.557
 1404SOL     OW 4269   1.622   4.091   2.236
 1404SOL    HW1 4270   1.624   4.015   2.300
 1404SOL    HW2 4271   1.574   4.168   2.276
 1405SOL     OW 4272   1.023   4.490   2.828
 1405SOL    HW1 4273   1.038   4.511   2.924
 1405SOL    HW2 4274   0.993   4.395   2.819
 1406SOL     OW 4275   1.859   5.242   3.467
 1406SOL    HW1 4276   1.873   5.269   3.372
 1406SOL    HW2 4277   1.942   5.264   3.520
 1407SOL     OW 4278   0.350   4.622   3.666
 1407SOL    HW1 4279   0.426   4.666   3.714
 1407SOL    HW2 4280   0.385   4.575   3.584
 1408SOL     OW 4281   1.540   3.998   1.987
 1408SOL    HW1 4282   1.479   3.923   2.010
 1408SOL    HW2 4283   1.562   4.050   2.070
 1409SOL     OW 4284   1.303   4.562   1.904
 1409SOL    HW1 4285   1.337   4.469   1.919
 1409SOL    HW2 4286   1.321   4.589   1.809
 1410SOL     OW 4287   0.319   4.534   2.811
 1410SOL    HW1 4288   0.412   4.570   2.816
 1410SOL    HW2 4289   0.313   4.449   2.863
 1411SOL     OW 4290   0.339   4.233   2.868
 1411SOL    HW1 4291   0.287   4.150   2.851
 1411SOL    HW2 4292   0.416   4.238   2.804
 1412SOL     OW 4293   1.138   4.104   3.540
 1412SOL    HW1 4294   1.093   4.167   3.604
 1412SOL    HW2 4295   1.231   4.135   3.523
 1413SOL     OW 4296   1.160   3.931   3.339
 1413SOL    HW1 4297   1.160   3.995   3.416
 1413SOL    HW2 4298   1.188   3.979   3.256
 1414SOL     OW 4299   0.008   5.050   2.062
 1414SOL    HW1 4300  -0.085   5.071   2.031
 1414SOL    HW2 4301   0.018   4.951   2.075
 1415SOL     OW 4302   1.002   4.520   3.100
 1415SOL    HW1 4303   1.043   4.488   3.186
 1415SOL    HW2 4304   0.906   4.493   3.097
 1416SOL     OW 4305   0.040   4.268   2.976
 1416SOL    HW1 4306   0.125   4.235   2.935
 1416SOL    HW2 4307   0.053   4.283   3.074
 1417SOL     OW 4308   0.189   4.244   3.584
 1417SOL    HW1 4309   0.248   4.204   3.514
 1417SOL    HW2 4310   0.131   4.315   3.543
 1418SOL     OW 4311   1.369   4.674   3.522
 1418SOL    HW1 4312   1.408   4.763   3.542
 1418SOL    HW2 4313   1.379   4.654   3.425
 1419SOL     OW 4314   0.815   4.296   2.187
 1419SOL    HW1 4315   0.822   4.207   2.141
 1419SOL    HW2 4316   0.721   4.330   2.179
 1420SOL     OW 4317   1.657   4.328   3.068
 1420SOL    HW1 4318   1.619   4.259   3.130
 1420SOL    HW2 4319   1.739   4.292   3.024
 1421SOL     OW 4320   0.671   4.188   3.131
 1421SOL    HW1 4321   0.637   4.099   3.101
 1421SOL    HW2 4322   0.697   4.242   3.051
 1422SOL     OW 4323   0.473   4.224   2.053
 1422SOL    HW1 4324   0.534   4.304   2.057
 1422SOL    HW2 4325   0.378   4.255   2.060
 1423SOL     OW 4326   0.159   4.861   3.328
 1423SOL    HW1 4327   0.181   4.800   3.404
 1423SOL    HW2 4328   0.169   4.812   3.242
 1424SOL     OW 4329   1.347   4.783   3.096
 1424SOL    HW1 4330   1.371   4.720   3.022
 1424SOL    HW2 4331   1.257   4.823   3.078
 1425SOL     OW 4332   1.302   4.579   2.171
 1425SOL    HW1 4333   1.216   4.548   2.213
 1425SOL    HW2 4334   1.298   4.565   2.072
 1426SOL     OW 4335   0.083   4.982   2.884
 1426SOL    HW1 4336   0.078   4.981   2.984
 1426SOL    HW2 4337   0.000   4.941   2.846
 1427SOL     OW 4338   1.726   3.859   2.385
 1427SOL    HW1 4339   1.799   3.842   2.318
 1427SOL    HW2 4340   1.695   3.772   2.423
 1428SOL     OW 4341   1.280   4.651   2.534
 1428SOL    HW1 4342   1.340   4.570   2.536
 1428SOL    HW2 4343   1.320   4.720   2.474
 1429SOL     OW 4344   0.830   4.997   3.284
 1429SOL    HW1 4345   0.825   5.030   3.379
 1429SOL    HW2 4346   0.744   5.016   3.238
 1430SOL     OW 4347   1.841   3.899   2.825
 1430SOL    HW1 4348   1.880   3.814   2.789
 1430SOL    HW2 4349   1.743   3.901   2.806
 1431SOL     OW 4350   0.263   4.050   2.582
 1431SOL    HW1 4351   0.184   4.101   2.548
 1431SOL    HW2 4352   0.254   4.035   2.680
 1432SOL     OW 4353   1.194   5.336   1.893
 1432SOL    HW1 4354   1.200   5.243   1.930
 1432SOL    HW2 4355   1.135   5.336   1.813
 1433SOL     OW 4356   0.822   4.726   3.234
 1433SOL    HW1 4357   0.862   4.725   3.142
 1433SOL    HW2 4358   0.832   4.818   3.274
 1434SOL     OW 4359   0.916   4.634   2.153
 1434SOL    HW1 4360   0.979   4.672   2.085
 1434SOL    HW2 4361   0.956   4.551   2.192
 1435SOL     OW 4362   0.372   5.012   3.352
 1435SOL    HW1 4363   0.359   5.105   3.318
 1435SOL    HW2 4364   0.288   4.960   3.339
 1436SOL     OW 4365   1.614   5.016   3.151
 1436SOL    HW1 4366   1.674   5.019   3.231
 1436SOL    HW2 4367   1.539   5.080   3.164
 1437SOL     OW 4368   1.039   4.822   2.558
 1437SOL    HW1 4369   0.969   4.775   2.612
 1437SOL    HW2 4370   1.098   4.754   2.515
 1438SOL     OW 4371   1.014   3.960   2.833
 1438SOL    HW1 4372   1.006   3.924   2.740
 1438SOL    HW2 4373   1.012   3.884   2.898
 1439SOL     OW 4374   1.709   4.109   3.243
 1439SOL    HW1 4375   1.782   4.178   3.247
 1439SOL    HW2 4376   1.737   4.034   3.184
 1440SOL     OW 4377   0.105   4.737   3.588
 1440SOL    HW1 4378   0.028   4.704   3.642
 1440SOL    HW2 4379   0.190   4.707   3.630
 1441SOL     OW 4380   0.672   3.927   3.351
 1441SOL    HW1 4381   0.762   3.911   3.311
 1441SOL    HW2 4382   0.680   3.932   3.450
 1442SOL     OW 4383   0.075   4.069   1.895
 1442SOL    HW1 4384  -0.017   4.041   1.866
 1442SOL    HW2 4385   0.106   4.146   1.839
 1443SOL     OW 4386   1.440   4.580   3.260
 1443SOL    HW1 4387   1.383   4.632   3.197
 1443SOL    HW2 4388   1.536   4.592   3.236
 1444SOL     OW 4389   0.072   3.890   2.180
 1444SOL    HW1 4390   0.055   3.973   2.126
 1444SOL    HW2 4391   0.162   3.853   2.158
 1445SOL     OW 4392   0.613   4.566   3.293
 1445SOL    HW1 4393   0.669   4.647   3.276
 1445SOL    HW2 4394   0.672   4.486   3.296
 1446SOL     OW 4395   0.716   4.289   3.570
 1446SOL    HW1 4396   0.735   4.354   3.644
 1446SOL    HW2 4397   0.776   4.209   3.579
 1447SOL     OW 4398   1.450   4.944   3.495
 1447SOL    HW1 4399   1.441   4.934   3.594
 1447SOL    HW2 4400   1.546   4.937   3.469
 1448SOL     OW 4401   1.674   4.607   3.116
 1448SOL    HW1 4402   1.647   4.518   3.079
 1448SOL    HW2 4403   1.675   4.675   3.043
 1449SOL     OW 4404   1.225   4.049   2.311
 1449SOL    HW1 4405   1.290   3.975   2.300
 1449SOL    HW2 4406   1.245   4.099   2.395
 1450SOL     OW 4407   0.594   4.469   2.514
 1450SOL    HW1 4408   0.644   4.554   2.495
 1450SOL    HW2 4409   0.506   4.471   2.466
 1451SOL     OW 4410   1.777   4.066   3.504
 1451SOL    HW1 4411   1.760   4.097   3.410
 1451SOL    HW2 4412   1.693   4.029   3.542
 1452SOL     OW 4413   1.730   4.658   3.379
 1452SOL    HW1 4414   1.768   4.749   3.394
 1452SOL    HW2 4415   1.722   4.641   3.280
 1453SOL     OW 4416   0.859   4.680   2.723
 1453SOL    HW1 4417   0.913   4.611   2.771
 1453SOL    HW2 4418   0.827   4.749   2.789
 1454SOL     OW 4419   1.083   4.708   1.949
 1454SOL    HW1 4420   1.060   4.761   1.867
 1454SOL    HW2 4421   1.164   4.652   1.930
 1455SOL     OW 4422   0.079   4.964   2.515
 1455SOL    HW1 4423   0.078   4.917   2.603
 1455SOL    HW2 4424   0.161   4.936   2.464
 1456SOL     OW 4425   1.824   3.916   3.089
 1456SOL    HW1 4426   1.820   3.826   3.133
 1456SOL    HW2 4427   1.827   3.905   2.990
 1457SOL     OW 4428   0.428   4.148   2.382
 1457SOL    HW1 4429   0.458   4.076   2.320
 1457SOL    HW2 4430   0.389   4.108   2.465
 1458SOL     OW 4431   0.317   4.271   3.142
 1458SOL    HW1 4432   0.355   4.212   3.214
 1458SOL    HW2 4433   0.357   4.245   3.054
 1459SOL     OW 4434   1.424   3.938   2.974
 1459SOL    HW1 4435   1.476   3.873   3.029
 1459SOL    HW2 4436   1.375   4.001   3.035
 1460SOL     OW 4437   1.001   3.758   3.016
 1460SOL    HW1 4438   0.938   3.686   2.985
 1460SOL    HW2 4439   1.094   3.722   3.016
 1461SOL     OW 4440   0.770   5.054   2.163
 1461SOL    HW1 4441   0.724   4.967   2.180
 1461SOL    HW2 4442   0.861   5.051   2.204
 1462SOL     OW 4443   1.352   3.776   2.030
 1462SOL    HW1 4444   1.387   3.735   1.946
 1462SOL    HW2 4445   1.262   3.738   2.050
 1463SOL     OW 4446   1.300   4.177   2.553
 1463SOL    HW1 4447   1.241   4.257   2.557
 1463SOL    HW2 4448   1.315   4.142   2.646
 1464SOL     OW 4449   1.593   3.945   2.744
 1464SOL    HW1 4450   1.509   3.944   2.798
 1464SOL    HW2 4451   1.595   4.028   2.688
 1465SOL     OW 4452   0.039   4.801   2.162
 1465SOL    HW1 4453   0.138   4.790   2.153
 1465SOL    HW2 4454  -0.001   4.715   2.194
 1466SOL     OW 4455   0.230   4.352   3.837
 1466SOL    HW1 4456   0.137   4.350   3.874
 1466SOL    HW2 4457   0.231   4.313   3.745
 1467SOL     OW 4458   0.225   3.999   4.720
 1467SOL    HW1 4459   0.260   3.982   4.812
 1467SOL    HW2 4460   0.137   3.954   4.708
 1468SOL     OW 4461   0.019   4.092   4.371
 1468SOL    HW1 4462  -0.063   4.135   4.410
 1468SOL    HW2 4463  -0.009   4.019   4.308
 1469SOL     OW 4464   0.569   4.999   4.889
 1469SOL    HW1 4465   0.476   4.992   4.852
 1469SOL    HW2 4466   0.580   5.088   4.933
 1470SOL     OW 4467   1.555   5.235   4.427
 1470SOL    HW1 4468   1.498   5.219   4.508
 1470SOL    HW2 4469   1.496   5.245   4.347
 1471SOL     OW 4470   1.135   4.427   4.441
 1471SOL    HW1 4471   1.192   4.505   4.416
 1471SOL    HW2 4472   1.075   4.453   4.517
 1472SOL     OW 4473   1.755   4.331   3.955
 1472SOL    HW1 4474   1.743   4.318   3.856
 1472SOL    HW2 4475   1.725   4.250   4.004
 1473SOL     OW 4476   0.768   4.868   4.747
 1473SOL    HW1 4477   0.690   4.885   4.807
 1473SOL    HW2 4478   0.802   4.955   4.711
 1474SOL     OW 4479   0.685   4.736   4.389
 1474SOL    HW1 4480   0.754   4.720   4.459
 1474SOL    HW2 4481   0.612   4.793   4.427
 1475SOL     OW 4482   0.335   5.159   4.785
 1475SOL    HW1 4483   0.257   5.128   4.732
 1475SOL    HW2 4484   0.393   5.217   4.728
 1476SOL     OW 4485   1.603   4.171   4.461
 1476SOL    HW1 4486   1.529   4.217   4.411
 1476SOL    HW2 4487   1.654   4.239   4.514
 1477SOL     OW 4488   0.240   4.815   4.610
 1477SOL    HW1 4489   0.254   4.731   4.662
 1477SOL    HW2 4490   0.185   4.879   4.665
 1478SOL     OW 4491   0.606   4.688   3.847
 1478SOL    HW1 4492   0.613   4.772   3.793
 1478SOL    HW2 4493   0.652   4.701   3.935
 1479SOL     OW 4494   0.122   4.367   4.287
 1479SOL    HW1 4495   0.077   4.279   4.304
 1479SOL    HW2 4496   0.121   4.421   4.371
 1480SOL     OW 4497   1.689   4.646   4.336
 1480SOL    HW1 4498   1.784   4.617   4.344
 1480SOL    HW2 4499   1.681   4.711   4.261
 1481SOL     OW 4500   1.641   4.832   4.156
 1481SOL    HW1 4501   1.727   4.834   4.104
 1481SOL    HW2 4502   1.655   4.879   4.244
 1482SOL     OW 4503   0.809   3.728   4.226
 1482SOL    HW1 4504   0.849   3.819   4.217
 1482SOL    HW2 4505   0.709   3.736   4.232
 1483SOL     OW 4506   0.197   4.700   4.988
 1483SOL    HW1 4507   0.286   4.655   4.974
 1483SOL    HW2 4508   0.124   4.635   4.969
 1484SOL     OW 4509   1.525   4.723   3.914
 1484SOL    HW1 4510   1.462   4.647   3.927
 1484SOL    HW2 4511   1.573   4.741   4.000
 1485SOL     OW 4512   1.466   5.141   4.677
 1485SOL    HW1 4513   1.407   5.147   4.757
 1485SOL    HW2 4514   1.451   5.053   4.631
 1486SOL     OW 4515   0.598   4.453   3.994
 1486SOL    HW1 4516   0.622   4.522   3.926
 1486SOL    HW2 4517   0.520   4.486   4.048
 1487SOL     OW 4518   1.281   4.069   4.668
 1487SOL    HW1 4519   1.195   4.019   4.655
 1487SOL    HW2 4520   1.343   4.015   4.724
 1488SOL     OW 4521   0.991   4.134   4.966
 1488SOL    HW1 4522   0.914   4.168   5.020
 1488SOL    HW2 4523   0.957   4.083   4.887
 1489SOL     OW 4524   1.041   4.425   4.153
 1489SOL    HW1 4525   1.067   4.421   4.249
 1489SOL    HW2 4526   0.956   4.374   4.139
 1490SOL     OW 4527   0.076   4.535   4.513
 1490SOL    HW1 4528   0.175   4.523   4.522
 1490SOL    HW2 4529   0.052   4.630   4.534
 1491SOL     OW 4530   0.865   4.072   3.919
 1491SOL    HW1 4531   0.924   4.135   3.870
 1491SOL    HW2 4532   0.884   3.978   3.890
 1492SOL     OW 4533   1.362   4.868   4.269
 1492SOL    HW1 4534   1.445   4.839   4.221
 1492SOL    HW2 4535   1.313   4.935   4.213
 1493SOL     OW 4536   0.550   3.920   4.609
 1493SOL    HW1 4537   0.545   3.915   4.709
 1493SOL    HW2 4538   0.552   4.016   4.580
 1494SOL     OW 4539   1.795   4.790   4.597
 1494SOL    HW1 4540   1.733   4.775   4.521
 1494SOL    HW2 4541   1.743   4.801   4.682
 1495SOL     OW 4542   0.321   4.667   3.966
 1495SOL    HW1 4543   0.403   4.706   3.924
 1495SOL    HW2 4544   0.294   4.585   3.917
 1496SOL     OW 4545   1.458   4.459   4.452
 1496SOL    HW1 4546   1.453   4.394   4.527
 1496SOL    HW2 4547   1.538   4.518   4.465
 1497SOL     OW 4548   1.632   5.101   3.805
 1497SOL    HW1 4549   1.600   5.195   3.795
 1497SOL    HW2 4550   1.556   5.038   3.793
 1498SOL     OW 4551   1.400   3.831   4.150
 1498SOL    HW1 4552   1.376   3.794   4.060
 1498SOL    HW2 4553   1.499   3.847   4.154
 1499SOL     OW 4554   0.382   4.424   4.204
 1499SOL    HW1 4555   0.427   4.334   4.201
 1499SOL    HW2 4556   0.288   4.413   4.237
 1500SOL     OW 4557   0.614   3.846   3.841
 1500SOL    HW1 4558   0.712   3.824   3.848
 1500SOL    HW2 4559   0.583   3.829   3.748
 1501SOL     OW 4560   0.803   5.126   4.648
 1501SOL    HW1 4561   0.893   5.140   4.606
 1501SOL    HW2 4562   0.732   5.128   4.577
 1502SOL     OW 4563   0.922   4.227   4.623
 1502SOL    HW1 4564   0.897   4.218   4.527
 1502SOL    HW2 4565   0.970   4.145   4.654
 1503SOL     OW 4566   0.539   3.788   4.236
 1503SOL    HW1 4567   0.458   3.789   4.294
 1503SOL    HW2 4568   0.542   3.871   4.181
 1504SOL     OW 4569   1.434   4.912   3.765
 1504SOL    HW1 4570   1.466   4.836   3.822
 1504SOL    HW2 4571   1.342   4.939   3.795
 1505SOL     OW 4572   0.297   3.759   3.895
 1505SOL    HW1 4573   0.346   3.843   3.874
 1505SOL    HW2 4574   0.359   3.694   3.940
 1506SOL     OW 4575   0.935   3.960   4.204
 1506SOL    HW1 4576   0.887   4.001   4.126
 1506SOL    HW2 4577   1.034   3.958   4.185
 1507SOL     OW 4578   1.227   5.294   4.517
 1507SOL    HW1 4579   1.248   5.368   4.452
 1507SOL    HW2 4580   1.295   5.294   4.590
 1508SOL     OW 4581   0.459   4.876   4.465
 1508SOL    HW1 4582   0.388   4.849   4.530
 1508SOL    HW2 4583   0.433   4.848   4.372
 1509SOL     OW 4584   1.032   4.273   3.740
 1509SOL    HW1 4585   0.991   4.355   3.701
 1509SOL    HW2 4586   1.096   4.299   3.813
 1510SOL     OW 4587   0.561   3.946   4.871
 1510SOL    HW1 4588   0.599   3.862   4.908
 1510SOL    HW2 4589   0.473   3.965   4.915
 1511SOL     OW 4590   0.866   4.178   4.366
 1511SOL    HW1 4591   0.834   4.250   4.304
 1511SOL    HW2 4592   0.890   4.097   4.313
 1512SOL     OW 4593   1.017   3.763   4.477
 1512SOL    HW1 4594   0.945   3.768   4.408
 1512SOL    HW2 4595   0.993   3.694   4.546
 1513SOL     OW 4596   1.429   4.897   4.591
 1513SOL    HW1 4597   1.374   4.813   4.584
 1513SOL    HW2 4598   1.455   4.926   4.499
 1514SOL     OW 4599   1.466   4.314   4.716
 1514SOL    HW1 4600   1.436   4.219   4.723
 1514SOL    HW2 4601   1.539   4.330   4.782
 1515SOL     OW 4602   1.857   4.557   4.101
 1515SOL    HW1 4603   1.899   4.493   4.165
 1515SOL    HW2 4604   1.819   4.506   4.023
 1516SOL     OW 4605   1.664   5.004   4.381
 1516SOL    HW1 4606   1.763   5.012   4.395
 1516SOL    HW2 4607   1.619   5.088   4.412
 1517SOL     OW 4608   1.390   4.299   3.802
 1517SOL    HW1 4609   1.336   4.278   3.883
 1517SOL    HW2 4610   1.481   4.258   3.811
 1518SOL     OW 4611   0.527   3.980   4.052
 1518SOL    HW1 4612   0.554   3.921   3.977
 1518SOL    HW2 4613   0.527   4.075   4.021
 1519SOL     OW 4614   1.638   4.823   4.803
 1519SOL    HW1 4615   1.643   4.904   4.862
 1519SOL    HW2 4616   1.552   4.825   4.752
 1520SOL     OW 4617   0.705   4.774   4.092
 1520SOL    HW1 4618   0.691   4.781   4.191
 1520SOL    HW2 4619   0.789   4.723   4.074
 1521SOL     OW 4620   0.410   4.537   4.975
 1521SOL    HW1 4621   0.496   4.549   5.025
 1521SOL    HW2 4622   0.368   4.450   5.002
 1522SOL     OW 4623   1.274   4.110   4.986
 1522SOL    HW1 4624   1.295   4.184   5.050
 1522SOL    HW2 4625   1.185   4.127   4.943
 1523SOL     OW 4626   0.367   4.824   4.225
 1523SOL    HW1 4627   0.360   4.907   4.169
 1523SOL    HW2 4628   0.371   4.744   4.165
 1524SOL     OW 4629   0.566   4.261   4.589
 1524SOL    HW1 4630   0.578   4.327   4.515
 1524SOL    HW2 4631   0.612   4.295   4.672
 1525SOL     OW 4632   1.582   4.363   4.196
 1525SOL    HW1 4633   1.551   4.424   4.269
 1525SOL    HW2 4634   1.632   4.415   4.127
 1526SOL     OW 4635   0.573   4.594   4.753
 1526SOL    HW1 4636   0.617   4.683   4.744
 1526SOL    HW2 4637   0.510   4.594   4.830
 1527SOL     OW 4638   1.360   4.586   4.769
 1527SOL    HW1 4639   1.285   4.586   4.703
 1527SOL    HW2 4640   1.397   4.494   4.778
 1528SOL     OW 4641   1.209   4.249   3.999
 1528SOL    HW1 4642   1.222   4.165   4.053
 1528SOL    HW2 4643   1.180   4.323   4.059
 1529SOL     OW 4644   0.307   3.937   4.955
 1529SOL    HW1 4645   0.284   3.974   5.045
 1529SOL    HW2 4646   0.277   3.842   4.949
 1530SOL     OW 4647   0.037   5.034   5.006
 1530SOL    HW1 4648   0.090   4.985   5.074
 1530SOL    HW2 4649   0.059   5.132   5.011
 1531SOL     OW 4650   0.732   4.358   4.788
 1531SOL    HW1 4651   0.791   4.332   4.712
 1531SOL    HW2 4652   0.704   4.454   4.777
 1532SOL     OW 4653   0.307   3.787   4.342
 1532SOL    HW1 4654   0.296   3.881   4.375
 1532SOL    HW2 4655   0.302   3.724   4.419
 1533SOL     OW 4656   1.622   4.091   4.098
 1533SOL    HW1 4657   1.624   4.015   4.162
 1533SOL    HW2 4658   1.574   4.168   4.138
 1534SOL     OW 4659   1.023   4.490   4.690
 1534SOL    HW1 4660   1.038   4.511   4.786
 1534SOL    HW2 4661   0.993   4.395   4.681
 1535SOL     OW 4662   1.540   3.998   3.849
 1535SOL    HW1 4663   1.479   3.923   3.872
 1535SOL    HW2 4664   1.562   4.050   3.932
 1536SOL     OW 4665   1.303   4.562   3.766
 1536SOL    HW1 4666   1.337   4.469   3.781
 1536SOL    HW2 4667   1.321   4.589   3.671
 1537SOL     OW 4668   0.319   4.534   4.673
 1537SOL    HW1 4669   0.412   4.570   4.678
 1537SOL    HW2 4670   0.313   4.449   4.725
 1538SOL     OW 4671   0.339   4.233   4.730
 1538SOL    HW1 4672   0.287   4.150   4.713
 1538SOL    HW2 4673   0.416   4.238   4.666
 1539SOL     OW 4674   1.160   3.931   5.201
 1539SOL    HW1 4675   1.160   3.995   5.278
 1539SOL    HW2 4676   1.188   3.979   5.118
 1540SOL     OW 4677   0.008   5.050   3.924
 1540SOL    HW1 4678  -0.085   5.071   3.893
 1540SOL    HW2 4679   0.018   4.951   3.937
 1541SOL     OW 4680   1.002   4.520   4.962
 1541SOL    HW1 4681   1.043   4.488   5.048
 1541SOL    HW2 4682   0.906   4.493   4.959
 1542SOL     OW 4683   0.040   4.268   4.838
 1542SOL    HW1 4684   0.125   4.235   4.797
 1542SOL    HW2 4685   0.053   4.283   4.936
 1543SOL     OW 4686   0.815   4.296   4.049
 1543SOL    HW1 4687   0.822   4.207   4.003
 1543SOL    HW2 4688   0.721   4.330   4.041
 1544SOL     OW 4689   1.657   4.328   4.930
 1544SOL    HW1 4690   1.619   4.259   4.992
 1544SOL    HW2 4691   1.739   4.292   4.886
 1545SOL     OW 4692   0.671   4.188   4.993
 1545SOL    HW1 4693   0.637   4.099   4.963
 1545SOL    HW2 4694   0.697   4.242   4.913
 1546SOL     OW 4695   0.473   4.224   3.915
 1546SOL    HW1 4696   0.534   4.304   3.919
 1546SOL    HW2 4697   0.378   4.255   3.922
 1547SOL     OW 4698   1.347   4.783   4.958
 1547SOL    HW1 4699   1.371   4.720   4.884
 1547SOL    HW2 4700   1.257   4.823   4.940
 1548SOL     OW 4701   1.302   4.579   4.033
 1548SOL    HW1 4702   1.216   4.548   4.075
 1548SOL    HW2 4703   1.298   4.565   3.934
 1549SOL     OW 4704   0.083   4.982   4.746
 1549SOL    HW1 4705   0.078   4.981   4.846
 1549SOL    HW2 4706   0.000   4.941   4.708
 1550SOL     OW 4707   1.726   3.859   4.247
 1550SOL    HW1 4708   1.799   3.842   4.180
 1550SOL    HW2 4709   1.695   3.772   4.285
 1551SOL     OW 4710   1.280   4.651   4.396
 1551SOL    HW1 4711   1.340   4.570   4.398
 1551SOL    HW2 4712   1.320   4.720   4.336
 1552SOL     OW 4713   0.830   4.997   5.146
 1552SOL    HW1 4714   0.825   5.030   5.241
 1552SOL    HW2 4715   0.744   5.016   5.100
 1553SOL     OW 4716   1.841   3.899   4.687
 1553SOL    HW1 4717   1.880   3.814   4.651
 1553SOL    HW2 4718   1.743   3.901   4.668
 1554SOL     OW 4719   0.263   4.050   4.444
 1554SOL    HW1 4720   0.184   4.101   4.410
 1554SOL    HW2 4721   0.254   4.035   4.542
 1555SOL     OW 4722   1.194   5.336   3.755
 1555SOL    HW1 4723   1.200   5.243   3.792
 1555SOL    HW2 4724   1.135   5.336   3.675
 1556SOL     OW 4725   0.822   4.726   5.096
 1556SOL    HW1 4726   0.862   4.725   5.004
 1556SOL    HW2 4727   0.832   4.818   5.136
 1557SOL     OW 4728   0.916   4.634   4.015
 1557SOL    HW1 4729   0.979   4.672   3.947
 1557SOL    HW2 4730   0.956   4.551   4.054
 1558SOL     OW 4731   1.039   4.822   4.420
 1558SOL    HW1 4732   0.969   4.775   4.474
 1558SOL    HW2 4733   1.098   4.754   4.377
 1559SOL     OW 4734   1.014   3.960   4.695
 1559SOL    HW1 4735   1.006   3.924   4.602
 1559SOL    HW2 4736   1.012   3.884   4.760
 1560SOL     OW 4737   1.709   4.109   5.105
 1560SOL    HW1 4738   1.782   4.178   5.109
 1560SOL    HW2 4739   1.737   4.034   5.046
 1561SOL     OW 4740   0.075   4.069   3.757
 1561SOL    HW1 4741  -0.017   4.041   3.728
 1561SOL    HW2 4742   0.106   4.146   3.701
 1562SOL     OW 4743   0.072   3.890   4.042
 1562SOL    HW1 4744   0.055   3.973   3.988
 1562SOL    HW2 4745   0.162   3.853   4.020
 1563SOL     OW 4746   1.450   4.944   5.357
 1563SOL    HW1 4747   1.441   4.934   5.456
 1563SOL    HW2 4748   1.546   4.937   5.331
 1564SOL     OW 4749   1.674   4.607   4.978
 1564SOL    HW1 4750   1.647   4.518   4.941
 1564SOL    HW2 4751   1.675   4.675   4.905
 1565SOL     OW 4752   1.225   4.049   4.173
 1565SOL    HW1 4753   1.290   3.975   4.162
 1565SOL    HW2 4754   1.245   4.099   4.257
 1566SOL     OW 4755   0.594   4.469   4.376
 1566SOL    HW1 4756   0.644   4.554   4.357
 1566SOL    HW2 4757   0.506   4.471   4.328
 1567SOL     OW 4758   1.730   4.658   5.241
 1567SOL    HW1 4759   1.768   4.749   5.256
 1567SOL    HW2 4760   1.722   4.641   5.142
 1568SOL     OW 4761   0.859   4.680   4.585
 1568SOL    HW1 4762   0.913   4.611   4.633
 1568SOL    HW2 4763   0.827   4.749   4.651
 1569SOL     OW 4764   1.083   4.708   3.811
 1569SOL    HW1 4765   1.060   4.761   3.729
 1569SOL    HW2 4766   1.164   4.652   3.792
 1570SOL     OW 4767   0.079   4.964   4.377
 1570SOL    HW1 4768   0.078   4.917   4.465
 1570SOL    HW2 4769   0.161   4.936   4.326
 1571SOL     OW 4770   1.824   3.916   4.951
 1571SOL    HW1 4771   1.820   3.826   4.995
 1571SOL    HW2 4772   1.827   3.905   4.852
 1572SOL     OW 4773   0.428   4.148   4.244
 1572SOL    HW1 4774   0.458   4.076   4.182
 1572SOL    HW2 4775   0.389   4.108   4.327
 1573SOL     OW 4776   1.424   3.938   4.836
 1573SOL    HW1 4777   1.476   3.873   4.891
 1573SOL    HW2 4778   1.375   4.001   4.897
 1574SOL     OW 4779   1.001   3.758   4.878
 1574SOL    HW1 4780   0.938   3.686   4.847
 1574SOL    HW2 4781   1.094   3.722   4.878
 1575SOL     OW 4782   0.770   5.054   4.025
 1575SOL    HW1 4783   0.724   4.967   4.042
 1575SOL    HW2 4784   0.861   5.051   4.066
 1576SOL     OW 4785   1.352   3.776   3.892
 1576SOL    HW1 4786   1.387   3.735   3.808
 1576SOL    HW2 4787   1.262   3.738   3.912
 1577SOL     OW 4788   1.300   4.177   4.415
 1577SOL    HW1 4789   1.241   4.257   4.419
 1577SOL    HW2 4790   1.315   4.142   4.508
 1578SOL     OW 4791   1.593   3.945   4.606
 1578SOL    HW1 4792   1.509   3.944   4.660
 1578SOL    HW2 4793   1.595   4.028   4.550
 1579SOL     OW 4794   0.039   4.801   4.024
 1579SOL    HW1 4795   0.138   4.790   4.015
 1579SOL    HW2 4796  -0.001   4.715   4.056
 1580SOL     OW 4797   2.092   0.628   0.113
 1580SOL    HW1 4798   1.999   0.626   0.150
 1580SOL    HW2 4799   2.093   0.589   0.021
 1581SOL     OW 4800   2.087   0.275   0.996
 1581SOL    HW1 4801   2.122   0.258   1.088
 1581SOL    HW2 4802   1.999   0.230   0.984
 1582SOL     OW 4803   1.881   0.368   0.647
 1582SOL    HW1 4804   1.799   0.411   0.686
 1582SOL    HW2 4805   1.853   0.295   0.584
 1583SOL     OW 4806   2.431   1.275   1.165
 1583SOL    HW1 4807   2.338   1.268   1.128
 1583SOL    HW2 4808   2.442   1.364   1.209
 1584SOL     OW 4809   3.417   1.511   0.703
 1584SOL    HW1 4810   3.360   1.495   0.784
 1584SOL    HW2 4811   3.358   1.521   0.623
 1585SOL     OW 4812   2.997   0.703   0.717
 1585SOL    HW1 4813   3.054   0.781   0.692
 1585SOL    HW2 4814   2.937   0.729   0.793
 1586SOL     OW 4815   3.617   0.607   0.231
 1586SOL    HW1 4816   3.605   0.594   0.132
 1586SOL    HW2 4817   3.587   0.526   0.280
 1587SOL     OW 4818   2.630   1.144   1.023
 1587SOL    HW1 4819   2.552   1.161   1.083
 1587SOL    HW2 4820   2.664   1.231   0.987
 1588SOL     OW 4821   2.712   0.798   1.823
 1588SOL    HW1 4822   2.708   0.874   1.888
 1588SOL    HW2 4823   2.734   0.834   1.732
 1589SOL     OW 4824   2.547   1.012   0.665
 1589SOL    HW1 4825   2.616   0.996   0.735
 1589SOL    HW2 4826   2.474   1.069   0.703
 1590SOL     OW 4827   2.548   1.161   1.803
 1590SOL    HW1 4828   2.608   1.240   1.817
 1590SOL    HW2 4829   2.462   1.192   1.762
 1591SOL     OW 4830   2.197   1.435   1.061
 1591SOL    HW1 4831   2.119   1.404   1.008
 1591SOL    HW2 4832   2.255   1.493   1.004
 1592SOL     OW 4833   3.322   1.505   1.339
 1592SOL    HW1 4834   3.346   1.599   1.365
 1592SOL    HW2 4835   3.306   1.451   1.421
 1593SOL     OW 4836   2.300   0.392   1.499
 1593SOL    HW1 4837   2.382   0.336   1.508
 1593SOL    HW2 4838   2.219   0.334   1.503
 1594SOL     OW 4839   3.465   0.447   0.737
 1594SOL    HW1 4840   3.391   0.493   0.687
 1594SOL    HW2 4841   3.516   0.515   0.790
 1595SOL     OW 4842   2.093   1.713   0.483
 1595SOL    HW1 4843   2.127   1.790   0.537
 1595SOL    HW2 4844   2.137   1.713   0.393
 1596SOL     OW 4845   2.989   1.341   1.690
 1596SOL    HW1 4846   3.036   1.341   1.778
 1596SOL    HW2 4847   2.941   1.254   1.679
 1597SOL     OW 4848   2.092   1.434   0.538
 1597SOL    HW1 4849   2.066   1.530   0.538
 1597SOL    HW2 4850   2.021   1.380   0.583
 1598SOL     OW 4851   2.102   1.091   0.886
 1598SOL    HW1 4852   2.116   1.007   0.938
 1598SOL    HW2 4853   2.047   1.155   0.941
 1599SOL     OW 4854   2.482   1.786   1.439
 1599SOL    HW1 4855   2.390   1.769   1.474
 1599SOL    HW2 4856   2.510   1.878   1.465
 1600SOL     OW 4857   2.468   0.964   0.123
 1600SOL    HW1 4858   2.475   1.048   0.069
 1600SOL    HW2 4859   2.514   0.977   0.211
 1601SOL     OW 4860   3.456   0.114   1.480
 1601SOL    HW1 4861   3.438   0.181   1.408
 1601SOL    HW2 4862   3.453   0.160   1.569
 1602SOL     OW 4863   1.984   0.643   0.563
 1602SOL    HW1 4864   1.939   0.555   0.580
 1602SOL    HW2 4865   1.983   0.697   0.647
 1603SOL     OW 4866   3.704   1.767   0.359
 1603SOL    HW1 4867   3.758   1.738   0.439
 1603SOL    HW2 4868   3.734   1.857   0.330
 1604SOL     OW 4869   1.889   1.596   0.117
 1604SOL    HW1 4870   1.870   1.500   0.138
 1604SOL    HW2 4871   1.856   1.654   0.192
 1605SOL     OW 4872   3.551   0.922   0.612
 1605SOL    HW1 4873   3.646   0.893   0.620
 1605SOL    HW2 4874   3.543   0.987   0.537
 1606SOL     OW 4875   3.503   1.108   0.432
 1606SOL    HW1 4876   3.589   1.110   0.380
 1606SOL    HW2 4877   3.517   1.155   0.520
 1607SOL     OW 4878   1.975   0.737   1.597
 1607SOL    HW1 4879   2.063   0.724   1.642
 1607SOL    HW2 4880   1.962   0.834   1.575
 1608SOL     OW 4881   2.475   1.365   0.726
 1608SOL    HW1 4882   2.426   1.278   0.735
 1608SOL    HW2 4883   2.452   1.408   0.639
 1609SOL     OW 4884   3.155   1.228   1.423
 1609SOL    HW1 4885   3.192   1.155   1.365
 1609SOL    HW2 4886   3.207   1.233   1.508
 1610SOL     OW 4887   2.671   0.004   0.502
 1610SOL    HW1 4888   2.711   0.095   0.493
 1610SOL    HW2 4889   2.571   0.012   0.508
 1611SOL     OW 4890   2.059   0.976   1.264
 1611SOL    HW1 4891   2.148   0.931   1.250
 1611SOL    HW2 4892   1.986   0.911   1.245
 1612SOL     OW 4893   3.387   0.999   0.190
 1612SOL    HW1 4894   3.324   0.923   0.203
 1612SOL    HW2 4895   3.435   1.017   0.276
 1613SOL     OW 4896   3.049   1.792   1.616
 1613SOL    HW1 4897   3.073   1.852   1.540
 1613SOL    HW2 4898   3.056   1.697   1.586
 1614SOL     OW 4899   2.179   0.251   1.801
 1614SOL    HW1 4900   2.250   0.322   1.807
 1614SOL    HW2 4901   2.091   0.290   1.829
 1615SOL     OW 4902   3.328   1.417   0.953
 1615SOL    HW1 4903   3.269   1.423   1.033
 1615SOL    HW2 4904   3.313   1.329   0.907
 1616SOL     OW 4905   3.529   1.714   0.572
 1616SOL    HW1 4906   3.488   1.691   0.484
 1616SOL    HW2 4907   3.511   1.640   0.637
 1617SOL     OW 4908   2.460   0.729   0.270
 1617SOL    HW1 4909   2.484   0.798   0.202
 1617SOL    HW2 4910   2.382   0.762   0.324
 1618SOL     OW 4911   3.143   0.345   0.944
 1618SOL    HW1 4912   3.057   0.295   0.931
 1618SOL    HW2 4913   3.205   0.291   1.000
 1619SOL     OW 4914   3.438   1.662   0.307
 1619SOL    HW1 4915   3.527   1.708   0.310
 1619SOL    HW2 4916   3.417   1.638   0.212
 1620SOL     OW 4917   2.669   0.605   1.465
 1620SOL    HW1 4918   2.622   0.602   1.554
 1620SOL    HW2 4919   2.618   0.550   1.399
 1621SOL     OW 4920   3.256   0.469   1.674
 1621SOL    HW1 4921   3.236   0.512   1.762
 1621SOL    HW2 4922   3.334   0.407   1.683
 1622SOL     OW 4923   2.835   0.890   1.572
 1622SOL    HW1 4924   2.881   0.806   1.543
 1622SOL    HW2 4925   2.779   0.924   1.497
 1623SOL     OW 4926   2.853   0.410   1.242
 1623SOL    HW1 4927   2.776   0.444   1.296
 1623SOL    HW2 4928   2.819   0.359   1.163
 1624SOL     OW 4929   2.903   0.701   0.429
 1624SOL    HW1 4930   2.929   0.697   0.525
 1624SOL    HW2 4931   2.818   0.650   0.415
 1625SOL     OW 4932   1.938   0.811   0.789
 1625SOL    HW1 4933   2.037   0.799   0.798
 1625SOL    HW2 4934   1.914   0.906   0.810
 1626SOL     OW 4935   1.992   1.821   1.571
 1626SOL    HW1 4936   1.982   1.806   1.670
 1626SOL    HW2 4937   1.906   1.857   1.535
 1627SOL     OW 4938   2.727   0.348   0.195
 1627SOL    HW1 4939   2.786   0.411   0.146
 1627SOL    HW2 4940   2.746   0.254   0.166
 1628SOL     OW 4941   3.581   0.585   1.831
 1628SOL    HW1 4942   3.555   0.674   1.795
 1628SOL    HW2 4943   3.579   0.517   1.758
 1629SOL     OW 4944   3.224   1.144   0.545
 1629SOL    HW1 4945   3.307   1.115   0.497
 1629SOL    HW2 4946   3.175   1.211   0.489
 1630SOL     OW 4947   2.412   0.196   0.885
 1630SOL    HW1 4948   2.407   0.191   0.985
 1630SOL    HW2 4949   2.414   0.292   0.856
 1631SOL     OW 4950   2.870   1.456   0.477
 1631SOL    HW1 4951   2.824   1.528   0.425
 1631SOL    HW2 4952   2.866   1.476   0.575
 1632SOL     OW 4953   2.213   1.801   0.853
 1632SOL    HW1 4954   2.263   1.715   0.859
 1632SOL    HW2 4955   2.278   1.878   0.850
 1633SOL     OW 4956   3.657   1.066   0.873
 1633SOL    HW1 4957   3.595   1.051   0.797
 1633SOL    HW2 4958   3.605   1.077   0.958
 1634SOL     OW 4959   3.089   1.550   1.506
 1634SOL    HW1 4960   3.095   1.473   1.570
 1634SOL    HW2 4961   3.037   1.524   1.426
 1635SOL     OW 4962   2.183   0.943   0.242
 1635SOL    HW1 4963   2.265   0.982   0.200
 1635SOL    HW2 4964   2.156   0.861   0.193
 1636SOL     OW 4965   3.320   0.735   0.728
 1636SOL    HW1 4966   3.315   0.670   0.803
 1636SOL    HW2 4967   3.400   0.794   0.741
 1637SOL     OW 4968   2.323   1.266   1.727
 1637SOL    HW1 4969   2.273   1.267   1.641
 1637SOL    HW2 4970   2.260   1.248   1.803
 1638SOL     OW 4971   2.973   1.776   0.237
 1638SOL    HW1 4972   2.913   1.714   0.287
 1638SOL    HW2 4973   3.004   1.732   0.152
 1639SOL     OW 4974   2.064   0.285   1.498
 1639SOL    HW1 4975   1.984   0.345   1.485
 1639SOL    HW2 4976   2.054   0.236   1.584
 1640SOL     OW 4977   3.494   1.377   0.081
 1640SOL    HW1 4978   3.462   1.471   0.071
 1640SOL    HW2 4979   3.418   1.314   0.069
 1641SOL     OW 4980   2.326   1.743   0.323
 1641SOL    HW1 4981   2.359   1.782   0.409
 1641SOL    HW2 4982   2.402   1.736   0.258
 1642SOL     OW 4983   3.262   0.107   0.426
 1642SOL    HW1 4984   3.238   0.070   0.336
 1642SOL    HW2 4985   3.361   0.123   0.430
 1643SOL     OW 4986   2.111   1.785   1.241
 1643SOL    HW1 4987   2.168   1.720   1.291
 1643SOL    HW2 4988   2.095   1.752   1.148
 1644SOL     OW 4989   2.802   1.698   0.904
 1644SOL    HW1 4990   2.882   1.641   0.925
 1644SOL    HW2 4991   2.753   1.658   0.827
 1645SOL     OW 4992   2.244   0.700   0.480
 1645SOL    HW1 4993   2.289   0.610   0.477
 1645SOL    HW2 4994   2.150   0.689   0.513
 1646SOL     OW 4995   3.409   0.222   1.729
 1646SOL    HW1 4996   3.404   0.259   1.821
 1646SOL    HW2 4997   3.337   0.153   1.717
 1647SOL     OW 4998   2.476   0.122   0.117
 1647SOL    HW1 4999   2.574   0.100   0.124
 1647SOL    HW2 5000   2.445   0.105   0.024
 1648SOL     OW 5001   2.643   0.264   1.749
 1648SOL    HW1 5002   2.710   0.203   1.792
 1648SOL    HW2 5003   2.570   0.283   1.814
 1649SOL     OW 5004   2.750   1.514   1.195
 1649SOL    HW1 5005   2.727   1.489   1.101
 1649SOL    HW2 5006   2.811   1.445   1.234
 1650SOL     OW 5007   3.213   0.590   1.433
 1650SOL    HW1 5008   3.241   0.547   1.518
 1650SOL    HW2 5009   3.238   0.686   1.434
 1651SOL     OW 5010   2.665   1.402   0.924
 1651SOL    HW1 5011   2.755   1.416   0.882
 1651SOL    HW2 5012   2.594   1.404   0.853
 1652SOL     OW 5013   2.784   0.503   0.899
 1652SOL    HW1 5014   2.759   0.494   0.803
 1652SOL    HW2 5015   2.832   0.421   0.930
 1653SOL     OW 5016   2.401   0.064   0.512
 1653SOL    HW1 5017   2.320   0.065   0.570
 1653SOL    HW2 5018   2.404   0.147   0.457
 1654SOL     OW 5019   3.296   1.188   0.041
 1654SOL    HW1 5020   3.328   1.112   0.098
 1654SOL    HW2 5021   3.204   1.215   0.071
 1655SOL     OW 5022   2.159   0.035   0.171
 1655SOL    HW1 5023   2.208   0.119   0.150
 1655SOL    HW2 5024   2.221  -0.030   0.216
 1656SOL     OW 5025   2.797   0.236   0.480
 1656SOL    HW1 5026   2.749   0.277   0.402
 1656SOL    HW2 5027   2.896   0.234   0.461
 1657SOL     OW 5028   2.938   0.683   1.464
 1657SOL    HW1 5029   2.858   0.622   1.467
 1657SOL    HW2 5030   3.019   0.630   1.440
 1658SOL     OW 5031   3.089   1.570   0.793
 1658SOL    HW1 5032   3.110   1.644   0.728
 1658SOL    HW2 5033   3.157   1.570   0.866
 1659SOL     OW 5034   2.321   1.152   0.741
 1659SOL    HW1 5035   2.250   1.125   0.806
 1659SOL    HW2 5036   2.295   1.124   0.648
 1660SOL     OW 5037   3.133   1.797   0.591
 1660SOL    HW1 5038   3.177   1.861   0.527
 1660SOL    HW2 5039   3.083   1.849   0.661
 1661SOL     OW 5040   2.894   0.549   0.016
 1661SOL    HW1 5041   2.853   0.631  -0.023
 1661SOL    HW2 5042   2.958   0.575   0.089
 1662SOL     OW 5043   1.940   0.556   1.386
 1662SOL    HW1 5044   2.032   0.555   1.345
 1662SOL    HW2 5045   1.934   0.630   1.453
 1663SOL     OW 5046   2.423   0.222   1.147
 1663SOL    HW1 5047   2.461   0.138   1.184
 1663SOL    HW2 5048   2.335   0.241   1.191
 1664SOL     OW 5049   2.728   0.454   0.642
 1664SOL    HW1 5050   2.696   0.526   0.580
 1664SOL    HW2 5051   2.752   0.373   0.589
 1665SOL     OW 5052   2.879   0.039   0.753
 1665SOL    HW1 5053   2.807   0.044   0.684
 1665SOL    HW2 5054   2.855  -0.030   0.822
 1666SOL     OW 5055   3.291   1.173   0.867
 1666SOL    HW1 5056   3.236   1.089   0.860
 1666SOL    HW2 5057   3.317   1.202   0.775
 1667SOL     OW 5058   3.328   0.590   0.992
 1667SOL    HW1 5059   3.298   0.495   0.999
 1667SOL    HW2 5060   3.401   0.606   1.058
 1668SOL     OW 5061   2.350   1.385   0.174
 1668SOL    HW1 5062   2.263   1.370   0.221
 1668SOL    HW2 5063   2.333   1.411   0.079
 1669SOL     OW 5064   3.526   1.280   0.657
 1669SOL    HW1 5065   3.625   1.288   0.671
 1669SOL    HW2 5066   3.481   1.364   0.688
 1670SOL     OW 5067   3.252   0.575   0.078
 1670SOL    HW1 5068   3.198   0.554   0.159
 1670SOL    HW2 5069   3.343   0.534   0.087
 1671SOL     OW 5070   2.389   0.256   0.328
 1671SOL    HW1 5071   2.416   0.197   0.253
 1671SOL    HW2 5072   2.389   0.351   0.297
 1672SOL     OW 5073   3.616   1.223   1.588
 1672SOL    HW1 5074   3.707   1.184   1.575
 1672SOL    HW2 5075   3.624   1.319   1.612
 1673SOL     OW 5076   2.926   1.347   1.340
 1673SOL    HW1 5077   2.846   1.324   1.395
 1673SOL    HW2 5078   3.009   1.321   1.389
 1674SOL     OW 5079   3.454   1.629   1.625
 1674SOL    HW1 5080   3.481   1.663   1.535
 1674SOL    HW2 5081   3.533   1.591   1.671
 1675SOL     OW 5082   2.973   1.195   1.100
 1675SOL    HW1 5083   2.933   1.239   1.181
 1675SOL    HW2 5084   2.932   1.232   1.017
 1676SOL     OW 5085   3.500   1.099   1.079
 1676SOL    HW1 5086   3.505   1.180   1.138
 1676SOL    HW2 5087   3.414   1.101   1.028
 1677SOL     OW 5088   2.777   0.089   1.402
 1677SOL    HW1 5089   2.802   0.069   1.307
 1677SOL    HW2 5090   2.849   0.145   1.444
 1678SOL     OW 5091   2.842   1.116   1.719
 1678SOL    HW1 5092   2.743   1.122   1.729
 1678SOL    HW2 5093   2.865   1.036   1.663
 1679SOL     OW 5094   2.567   1.050   0.368
 1679SOL    HW1 5095   2.553   1.057   0.467
 1679SOL    HW2 5096   2.651   0.999   0.350
 1680SOL     OW 5097   2.272   0.813   1.251
 1680SOL    HW1 5098   2.358   0.825   1.301
 1680SOL    HW2 5099   2.230   0.726   1.278
 1681SOL     OW 5100   3.136   0.386   1.262
 1681SOL    HW1 5101   3.157   0.460   1.326
 1681SOL    HW2 5102   3.047   0.403   1.219
 1682SOL     OW 5103   1.926   1.564   1.331
 1682SOL    HW1 5104   1.880   1.646   1.297
 1682SOL    HW2 5105   2.024   1.583   1.340
 1683SOL     OW 5106   2.229   1.100   0.501
 1683SOL    HW1 5107   2.222   1.183   0.445
 1683SOL    HW2 5108   2.233   1.020   0.441
 1684SOL     OW 5109   2.428   0.537   0.865
 1684SOL    HW1 5110   2.440   0.603   0.791
 1684SOL    HW2 5111   2.474   0.571   0.948
 1685SOL     OW 5112   3.114   1.348   0.388
 1685SOL    HW1 5113   3.164   1.425   0.428
 1685SOL    HW2 5114   3.019   1.350   0.420
 1686SOL     OW 5115   3.134   1.445   1.142
 1686SOL    HW1 5116   3.181   1.458   1.229
 1686SOL    HW2 5117   3.068   1.371   1.151
 1687SOL     OW 5118   3.444   0.639   0.472
 1687SOL    HW1 5119   3.413   0.700   0.545
 1687SOL    HW2 5120   3.494   0.691   0.403
 1688SOL     OW 5121   2.216   1.510   1.329
 1688SOL    HW1 5122   2.195   1.466   1.242
 1688SOL    HW2 5123   2.313   1.536   1.332
 1689SOL     OW 5124   2.264   0.751   1.598
 1689SOL    HW1 5125   2.332   0.806   1.551
 1689SOL    HW2 5126   2.304   0.663   1.625
 1690SOL     OW 5127   3.449   0.779   1.670
 1690SOL    HW1 5128   3.357   0.817   1.665
 1690SOL    HW2 5129   3.509   0.826   1.605
 1691SOL     OW 5130   2.875   0.105   1.770
 1691SOL    HW1 5131   2.881   0.190   1.718
 1691SOL    HW2 5132   2.907   0.029   1.713
 1692SOL     OW 5133   2.366   0.050   1.740
 1692SOL    HW1 5134   2.324  -0.007   1.670
 1692SOL    HW2 5135   2.300   0.119   1.772
 1693SOL     OW 5136   2.435   0.870   1.029
 1693SOL    HW1 5137   2.479   0.959   1.020
 1693SOL    HW2 5138   2.372   0.870   1.106
 1694SOL     OW 5139   3.222   0.862   1.045
 1694SOL    HW1 5140   3.147   0.862   0.979
 1694SOL    HW2 5141   3.259   0.770   1.054
 1695SOL     OW 5142   3.071   0.525   0.275
 1695SOL    HW1 5143   3.084   0.441   0.329
 1695SOL    HW2 5144   3.042   0.599   0.335
 1696SOL     OW 5145   2.169   0.213   1.231
 1696SOL    HW1 5146   2.146   0.250   1.321
 1696SOL    HW2 5147   2.139   0.118   1.225
 1697SOL     OW 5148   1.899   1.310   1.282
 1697SOL    HW1 5149   1.952   1.261   1.350
 1697SOL    HW2 5150   1.921   1.408   1.287
 1698SOL     OW 5151   2.594   0.634   1.064
 1698SOL    HW1 5152   2.653   0.608   0.988
 1698SOL    HW2 5153   2.566   0.730   1.053
 1699SOL     OW 5154   3.590   0.935   1.854
 1699SOL    HW1 5155   3.544   0.928   1.765
 1699SOL    HW2 5156   3.528   0.979   1.920
 1700SOL     OW 5157   2.169   0.063   0.618
 1700SOL    HW1 5158   2.158   0.157   0.651
 1700SOL    HW2 5159   2.164   0.000   0.695
 1701SOL     OW 5160   3.484   0.367   0.374
 1701SOL    HW1 5161   3.486   0.291   0.438
 1701SOL    HW2 5162   3.436   0.444   0.414
 1702SOL     OW 5163   2.885   0.766   0.966
 1702SOL    HW1 5164   2.900   0.787   1.062
 1702SOL    HW2 5165   2.855   0.671   0.957
 1703SOL     OW 5166   2.842   1.573   1.700
 1703SOL    HW1 5167   2.822   1.617   1.612
 1703SOL    HW2 5168   2.881   1.482   1.684
 1704SOL     OW 5169   3.721   1.518   1.605
 1704SOL    HW1 5170   3.735   1.545   1.510
 1704SOL    HW2 5171   3.804   1.540   1.658
 1705SOL     OW 5172   2.212   0.898   1.804
 1705SOL    HW1 5173   2.288   0.942   1.852
 1705SOL    HW2 5174   2.247   0.851   1.722
 1706SOL     OW 5175   3.402   0.274   0.125
 1706SOL    HW1 5176   3.341   0.199   0.148
 1706SOL    HW2 5177   3.424   0.326   0.208
 1707SOL     OW 5178   3.165   0.838   0.042
 1707SOL    HW1 5179   3.199   0.745   0.057
 1707SOL    HW2 5180   3.183   0.865  -0.053
 1708SOL     OW 5181   2.930   1.333   0.849
 1708SOL    HW1 5182   2.937   1.249   0.794
 1708SOL    HW2 5183   2.992   1.402   0.813
 1709SOL     OW 5184   2.181   0.810   0.949
 1709SOL    HW1 5185   2.274   0.846   0.954
 1709SOL    HW2 5186   2.175   0.725   1.001
 1710SOL     OW 5187   2.201   0.509   1.006
 1710SOL    HW1 5188   2.149   0.426   0.989
 1710SOL    HW2 5189   2.278   0.514   0.942
 1711SOL     OW 5190   3.000   0.380   1.678
 1711SOL    HW1 5191   2.955   0.443   1.742
 1711SOL    HW2 5192   3.093   0.411   1.661
 1712SOL     OW 5193   3.022   0.207   1.477
 1712SOL    HW1 5194   3.022   0.271   1.554
 1712SOL    HW2 5195   3.050   0.255   1.394
 1713SOL     OW 5196   1.950   1.801   0.927
 1713SOL    HW1 5197   1.908   1.715   0.900
 1713SOL    HW2 5198   2.044   1.804   0.893
 1714SOL     OW 5199   2.366   1.568   0.910
 1714SOL    HW1 5200   2.432   1.642   0.919
 1714SOL    HW2 5201   2.410   1.489   0.868
 1715SOL     OW 5202   2.864   0.796   1.238
 1715SOL    HW1 5203   2.905   0.764   1.324
 1715SOL    HW2 5204   2.768   0.769   1.235
 1716SOL     OW 5205   1.902   0.544   1.114
 1716SOL    HW1 5206   1.987   0.511   1.073
 1716SOL    HW2 5207   1.915   0.559   1.212
 1717SOL     OW 5208   2.051   0.520   1.722
 1717SOL    HW1 5209   2.110   0.480   1.652
 1717SOL    HW2 5210   1.993   0.591   1.681
 1718SOL     OW 5211   3.231   0.950   1.660
 1718SOL    HW1 5212   3.270   1.039   1.680
 1718SOL    HW2 5213   3.241   0.930   1.563
 1719SOL     OW 5214   2.677   0.572   0.325
 1719SOL    HW1 5215   2.684   0.483   0.279
 1719SOL    HW2 5216   2.583   0.606   0.317
 1720SOL     OW 5217   3.519   0.604   1.206
 1720SOL    HW1 5218   3.481   0.535   1.268
 1720SOL    HW2 5219   3.601   0.568   1.162
 1721SOL     OW 5220   2.114   1.564   1.744
 1721SOL    HW1 5221   2.084   1.621   1.820
 1721SOL    HW2 5222   2.107   1.467   1.770
 1722SOL     OW 5223   2.533   0.464   1.269
 1722SOL    HW1 5224   2.499   0.375   1.239
 1722SOL    HW2 5225   2.559   0.518   1.189
 1723SOL     OW 5226   2.792   1.678   1.465
 1723SOL    HW1 5227   2.768   1.660   1.370
 1723SOL    HW2 5228   2.822   1.772   1.475
 1724SOL     OW 5229   2.335   0.500   0.191
 1724SOL    HW1 5230   2.396   0.580   0.195
 1724SOL    HW2 5231   2.240   0.531   0.198
 1725SOL     OW 5232   2.021   1.137   1.466
 1725SOL    HW1 5233   2.043   1.076   1.542
 1725SOL    HW2 5234   2.031   1.088   1.380
 1726SOL     OW 5235   3.209   1.059   1.234
 1726SOL    HW1 5236   3.233   0.996   1.160
 1726SOL    HW2 5237   3.119   1.099   1.216
 1727SOL     OW 5238   3.164   0.855   0.309
 1727SOL    HW1 5239   3.078   0.824   0.351
 1727SOL    HW2 5240   3.160   0.841   0.210
 1728SOL     OW 5241   3.621   1.747   1.154
 1728SOL    HW1 5242   3.682   1.777   1.081
 1728SOL    HW2 5243   3.583   1.658   1.132
 1729SOL     OW 5244   3.114   1.731   1.128
 1729SOL    HW1 5245   3.198   1.736   1.074
 1729SOL    HW2 5246   3.091   1.635   1.146
 1730SOL     OW 5247   1.945   1.258   1.022
 1730SOL    HW1 5248   1.940   1.257   1.122
 1730SOL    HW2 5249   1.862   1.217   0.984
 1731SOL     OW 5250   2.550   1.662   1.716
 1731SOL    HW1 5251   2.494   1.743   1.725
 1731SOL    HW2 5252   2.602   1.666   1.630
 1732SOL     OW 5253   2.765   0.086   0.133
 1732SOL    HW1 5254   2.816   0.087   0.047
 1732SOL    HW2 5255   2.821   0.044   0.204
 1733SOL     OW 5256   3.588   0.135   0.523
 1733SOL    HW1 5257   3.661   0.118   0.456
 1733SOL    HW2 5258   3.557   0.048   0.561
 1734SOL     OW 5259   3.250   1.573   0.477
 1734SOL    HW1 5260   3.317   1.585   0.403
 1734SOL    HW2 5261   3.210   1.662   0.500
 1735SOL     OW 5262   1.992   1.794   1.851
 1735SOL    HW1 5263   1.951   1.720   1.904
 1735SOL    HW2 5264   2.056   1.845   1.909
 1736SOL     OW 5265   3.142   0.927   0.672
 1736SOL    HW1 5266   3.202   0.846   0.674
 1736SOL    HW2 5267   3.182   0.996   0.612
 1737SOL     OW 5268   2.692   1.273   1.422
 1737SOL    HW1 5269   2.687   1.306   1.517
 1737SOL    HW2 5270   2.606   1.292   1.376
 1738SOL     OW 5271   2.534   1.616   0.154
 1738SOL    HW1 5272   2.543   1.626   0.055
 1738SOL    HW2 5273   2.494   1.527   0.175
 1739SOL     OW 5274   3.512   1.720   1.394
 1739SOL    HW1 5275   3.565   1.730   1.310
 1739SOL    HW2 5276   3.485   1.810   1.428
 1740SOL     OW 5277   3.703   0.175   0.963
 1740SOL    HW1 5278   3.742   0.090   0.927
 1740SOL    HW2 5279   3.605   0.177   0.944
 1741SOL     OW 5280   2.125   0.326   0.720
 1741SOL    HW1 5281   2.046   0.377   0.686
 1741SOL    HW2 5282   2.116   0.311   0.818
 1742SOL     OW 5283   3.056   1.612   0.031
 1742SOL    HW1 5284   3.062   1.519   0.068
 1742SOL    HW2 5285   2.997   1.612  -0.049
 1743SOL     OW 5286   2.684   1.002   1.372
 1743SOL    HW1 5287   2.724   1.001   1.280
 1743SOL    HW2 5288   2.694   1.094   1.412
 1744SOL     OW 5289   2.778   0.910   0.291
 1744SOL    HW1 5290   2.841   0.948   0.223
 1744SOL    HW2 5291   2.818   0.827   0.330
 1745SOL     OW 5292   3.366   1.607   0.044
 1745SOL    HW1 5293   3.274   1.644   0.051
 1745SOL    HW2 5294   3.404   1.627  -0.046
 1746SOL     OW 5295   2.234   1.288   1.490
 1746SOL    HW1 5296   2.221   1.381   1.456
 1746SOL    HW2 5297   2.150   1.236   1.477
 1747SOL     OW 5298   3.476   1.292   1.289
 1747SOL    HW1 5299   3.536   1.295   1.369
 1747SOL    HW2 5300   3.401   1.356   1.302
 1748SOL     OW 5301   2.901   1.098   0.696
 1748SOL    HW1 5302   2.831   1.051   0.750
 1748SOL    HW2 5303   2.960   1.030   0.653
 1749SOL     OW 5304   2.876   0.236   0.971
 1749SOL    HW1 5305   2.868   0.200   0.878
 1749SOL    HW2 5306   2.874   0.160   1.036
 1750SOL     OW 5307   2.452   1.487   0.491
 1750SOL    HW1 5308   2.494   1.429   0.421
 1750SOL    HW2 5309   2.408   1.566   0.447
 1751SOL     OW 5310   3.571   0.385   1.381
 1751SOL    HW1 5311   3.644   0.454   1.385
 1751SOL    HW2 5312   3.599   0.310   1.322
 1752SOL     OW 5313   2.117   1.348   0.290
 1752SOL    HW1 5314   2.021   1.349   0.263
 1752SOL    HW2 5315   2.129   1.401   0.374
 1753SOL     OW 5316   1.967   1.013   1.726
 1753SOL    HW1 5317   1.890   0.980   1.780
 1753SOL    HW2 5318   2.052   0.983   1.768
 1754SOL     OW 5319   2.534   0.203   1.489
 1754SOL    HW1 5320   2.624   0.187   1.449
 1754SOL    HW2 5321   2.542   0.208   1.588
 1755SOL     OW 5322   3.302   0.856   1.398
 1755SOL    HW1 5323   3.245   0.908   1.335
 1755SOL    HW2 5324   3.398   0.868   1.374
 1756SOL     OW 5325   1.934   0.166   0.318
 1756SOL    HW1 5326   1.917   0.249   0.264
 1756SOL    HW2 5327   2.024   0.129   0.296
 1757SOL     OW 5328   3.045   1.335   0.119
 1757SOL    HW1 5329   2.946   1.324   0.121
 1757SOL    HW2 5330   3.079   1.350   0.212
 1758SOL     OW 5331   2.475   0.842   1.431
 1758SOL    HW1 5332   2.531   0.923   1.414
 1758SOL    HW2 5333   2.534   0.762   1.434
 1759SOL     OW 5334   3.355   1.767   0.959
 1759SOL    HW1 5335   3.388   1.831   0.890
 1759SOL    HW2 5336   3.421   1.761   1.034
 1760SOL     OW 5337   2.578   0.565   1.708
 1760SOL    HW1 5338   2.597   0.630   1.782
 1760SOL    HW2 5339   2.638   0.485   1.717
 1761SOL     OW 5340   3.312   1.220   1.633
 1761SOL    HW1 5341   3.303   1.210   1.732
 1761SOL    HW2 5342   3.408   1.213   1.607
 1762SOL     OW 5343   2.252   1.741   1.560
 1762SOL    HW1 5344   2.161   1.782   1.558
 1762SOL    HW2 5345   2.245   1.647   1.592
 1763SOL     OW 5346   3.536   0.883   1.254
 1763SOL    HW1 5347   3.509   0.794   1.217
 1763SOL    HW2 5348   3.537   0.951   1.181
 1764SOL     OW 5349   3.087   0.325   0.449
 1764SOL    HW1 5350   3.152   0.251   0.438
 1764SOL    HW2 5351   3.107   0.375   0.533
 1765SOL     OW 5352   2.456   0.745   0.652
 1765SOL    HW1 5353   2.506   0.830   0.633
 1765SOL    HW2 5354   2.368   0.747   0.604
 1766SOL     OW 5355   3.639   0.342   1.642
 1766SOL    HW1 5356   3.622   0.373   1.548
 1766SOL    HW2 5357   3.555   0.305   1.680
 1767SOL     OW 5358   3.592   0.934   1.517
 1767SOL    HW1 5359   3.630   1.025   1.532
 1767SOL    HW2 5360   3.584   0.917   1.418
 1768SOL     OW 5361   2.721   1.374   0.016
 1768SOL    HW1 5362   2.675   1.389   0.104
 1768SOL    HW2 5363   2.765   1.459  -0.014
 1769SOL     OW 5364   2.523   1.790   0.953
 1769SOL    HW1 5365   2.477   1.878   0.940
 1769SOL    HW2 5366   2.622   1.802   0.946
 1770SOL     OW 5367   2.721   0.956   0.861
 1770SOL    HW1 5368   2.775   0.887   0.909
 1770SOL    HW2 5369   2.689   1.025   0.927
 1771SOL     OW 5370   2.945   0.984   0.087
 1771SOL    HW1 5371   2.922   1.037   0.005
 1771SOL    HW2 5372   3.026   0.928   0.068
 1772SOL     OW 5373   3.723   1.569   0.851
 1772SOL    HW1 5374   3.652   1.557   0.781
 1772SOL    HW2 5375   3.724   1.490   0.911
 1773SOL     OW 5376   2.083   1.314   1.844
 1773SOL    HW1 5377   2.018   1.241   1.823
 1773SOL    HW2 5378   2.087   1.328   1.942
 1774SOL     OW 5379   1.941   1.240   0.653
 1774SOL    HW1 5380   1.940   1.193   0.741
 1774SOL    HW2 5381   2.023   1.212   0.602
 1775SOL     OW 5382   2.534   1.391   1.624
 1775SOL    HW1 5383   2.456   1.341   1.662
 1775SOL    HW2 5384   2.531   1.486   1.655
 1776SOL     OW 5385   3.686   0.192   1.227
 1776SOL    HW1 5386   3.682   0.102   1.271
 1776SOL    HW2 5387   3.689   0.181   1.128
 1777SOL     OW 5388   2.290   0.424   0.520
 1777SOL    HW1 5389   2.320   0.352   0.458
 1777SOL    HW2 5390   2.251   0.384   0.603
 1778SOL     OW 5391   3.567   1.487   1.104
 1778SOL    HW1 5392   3.474   1.462   1.077
 1778SOL    HW2 5393   3.593   1.437   1.186
 1779SOL     OW 5394   2.179   0.547   1.280
 1779SOL    HW1 5395   2.217   0.488   1.352
 1779SOL    HW2 5396   2.219   0.521   1.192
 1780SOL     OW 5397   2.674   1.586   0.687
 1780SOL    HW1 5398   2.706   1.596   0.593
 1780SOL    HW2 5399   2.595   1.524   0.689
 1781SOL     OW 5400   3.286   0.214   1.112
 1781SOL    HW1 5401   3.338   0.149   1.167
 1781SOL    HW2 5402   3.237   0.277   1.173
 1782SOL     OW 5403   2.863   0.034   1.154
 1782SOL    HW1 5404   2.800  -0.038   1.123
 1782SOL    HW2 5405   2.956  -0.002   1.154
 1783SOL     OW 5406   2.632   1.330   0.301
 1783SOL    HW1 5407   2.586   1.243   0.318
 1783SOL    HW2 5408   2.723   1.327   0.342
 1784SOL     OW 5409   2.480   1.567   1.284
 1784SOL    HW1 5410   2.475   1.649   1.341
 1784SOL    HW2 5411   2.569   1.564   1.239
 1785SOL     OW 5412   3.214   0.052   0.168
 1785SOL    HW1 5413   3.249   0.011   0.084
 1785SOL    HW2 5414   3.124   0.014   0.188
 1786SOL     OW 5415   3.162   0.453   0.691
 1786SOL    HW1 5416   3.103   0.533   0.695
 1786SOL    HW2 5417   3.177   0.418   0.784
 1787SOL     OW 5418   3.455   0.221   0.882
 1787SOL    HW1 5419   3.371   0.220   0.936
 1787SOL    HW2 5420   3.457   0.304   0.826
 1788SOL     OW 5421   1.901   1.077   0.300
 1788SOL    HW1 5422   2.000   1.066   0.291
 1788SOL    HW2 5423   1.861   0.991   0.332
 1789SOL     OW 5424   2.737   1.646   0.337
 1789SOL    HW1 5425   2.660   1.611   0.283
 1789SOL    HW2 5426   2.705   1.717   0.399
 1790SOL     OW 5427   2.092   0.628   1.975
 1790SOL    HW1 5428   1.999   0.626   2.012
 1790SOL    HW2 5429   2.093   0.589   1.883
 1791SOL     OW 5430   2.087   0.275   2.858
 1791SOL    HW1 5431   2.122   0.258   2.950
 1791SOL    HW2 5432   1.999   0.230   2.846
 1792SOL     OW 5433   1.881   0.368   2.509
 1792SOL    HW1 5434   1.799   0.411   2.548
 1792SOL    HW2 5435   1.853   0.295   2.446
 1793SOL     OW 5436   2.431   1.275   3.027
 1793SOL    HW1 5437   2.338   1.268   2.990
 1793SOL    HW2 5438   2.442   1.364   3.071
 1794SOL     OW 5439   3.417   1.511   2.565
 1794SOL    HW1 5440   3.360   1.495   2.646
 1794SOL    HW2 5441   3.358   1.521   2.485
 1795SOL     OW 5442   2.997   0.703   2.579
 1795SOL    HW1 5443   3.054   0.781   2.554
 1795SOL    HW2 5444   2.937   0.729   2.655
 1796SOL     OW 5445   3.617   0.607   2.093
 1796SOL    HW1 5446   3.605   0.594   1.994
 1796SOL    HW2 5447   3.587   0.526   2.142
 1797SOL     OW 5448   2.630   1.144   2.885
 1797SOL    HW1 5449   2.552   1.161   2.945
 1797SOL    HW2 5450   2.664   1.231   2.849
 1798SOL     OW 5451   2.712   0.798   3.685
 1798SOL    HW1 5452   2.708   0.874   3.750
 1798SOL    HW2 5453   2.734   0.834   3.594
 1799SOL     OW 5454   2.547   1.012   2.527
 1799SOL    HW1 5455   2.616   0.996   2.597
 1799SOL    HW2 5456   2.474   1.069   2.565
 1800SOL     OW 5457   2.548   1.161   3.665
 1800SOL    HW1 5458   2.608   1.240   3.679
 1800SOL    HW2 5459   2.462   1.192   3.624
 1801SOL     OW 5460   2.197   1.435   2.923
 1801SOL    HW1 5461   2.119   1.404   2.870
 1801SOL    HW2 5462   2.255   1.493   2.866
 1802SOL     OW 5463   3.322   1.505   3.201
 1802SOL    HW1 5464   3.346   1.599   3.227
 1802SOL    HW2 5465   3.306   1.451   3.283
 1803SOL     OW 5466   2.300   0.392   3.361
 1803SOL    HW1 5467   2.382   0.336   3.370
 1803SOL    HW2 5468   2.219   0.334   3.365
 1804SOL     OW 5469   3.465   0.447   2.599
 1804SOL    HW1 5470   3.391   0.493   2.549
 1804SOL    HW2 5471   3.516   0.515   2.652
 1805SOL     OW 5472   2.093   1.713   2.345
 1805SOL    HW1 5473   2.127   1.790   2.399
 1805SOL    HW2 5474   2.137   1.713   2.255
 1806SOL     OW 5475   2.989   1.341   3.552
 1806SOL    HW1 5476   3.036   1.341   3.640
 1806SOL    HW2 5477   2.941   1.254   3.541
 1807SOL     OW 5478   2.092   1.434   2.400
 1807SOL    HW1 5479   2.066   1.530   2.400
 1807SOL    HW2 5480   2.021   1.380   2.445
 1808SOL     OW 5481   2.102   1.091   2.748
 1808SOL    HW1 5482   2.116   1.007   2.800
 1808SOL    HW2 5483   2.047   1.155   2.803
 1809SOL     OW 5484   2.482   1.786   3.301
 1809SOL    HW1 5485   2.390   1.769   3.336
 1809SOL    HW2 5486   2.510   1.878   3.327
 1810SOL     OW 5487   2.468   0.964   1.985
 1810SOL    HW1 5488   2.475   1.048   1.931
 1810SOL    HW2 5489   2.514   0.977   2.073
 1811SOL     OW 5490   3.456   0.114   3.342
 1811SOL    HW1 5491   3.438   0.181   3.270
 1811SOL    HW2 5492   3.453   0.160   3.431
 1812SOL     OW 5493   1.984   0.643   2.425
 1812SOL    HW1 5494   1.939   0.555   2.442
 1812SOL    HW2 5495   1.983   0.697   2.509
 1813SOL     OW 5496   3.704   1.767   2.221
 1813SOL    HW1 5497   3.758   1.738   2.301
 1813SOL    HW2 5498   3.734   1.857   2.192
 1814SOL     OW 5499   1.889   1.596   1.979
 1814SOL    HW1 5500   1.870   1.500   2.000
 1814SOL    HW2 5501   1.856   1.654   2.054
 1815SOL     OW 5502   3.551   0.922   2.474
 1815SOL    HW1 5503   3.646   0.893   2.482
 1815SOL    HW2 5504   3.543   0.987   2.399
 1816SOL     OW 5505   3.503   1.108   2.294
 1816SOL    HW1 5506   3.589   1.110   2.242
 1816SOL    HW2 5507   3.517   1.155   2.382
 1817SOL     OW 5508   1.975   0.737   3.459
 1817SOL    HW1 5509   2.063   0.724   3.504
 1817SOL    HW2 5510   1.962   0.834   3.437
 1818SOL     OW 5511   2.475   1.365   2.588
 1818SOL    HW1 5512   2.426   1.278   2.597
 1818SOL    HW2 5513   2.452   1.408   2.501
 1819SOL     OW 5514   3.155   1.228   3.285
 1819SOL    HW1 5515   3.192   1.155   3.227
 1819SOL    HW2 5516   3.207   1.233   3.370
 1820SOL     OW 5517   2.671   0.004   2.364
 1820SOL    HW1 5518   2.711   0.095   2.355
 1820SOL    HW2 5519   2.571   0.012   2.370
 1821SOL     OW 5520   2.059   0.976   3.126
 1821SOL    HW1 5521   2.148   0.931   3.112
 1821SOL    HW2 5522   1.986   0.911   3.107
 1822SOL     OW 5523   3.387   0.999   2.052
 1822SOL    HW1 5524   3.324   0.923   2.065
 1822SOL    HW2 5525   3.435   1.017   2.138
 1823SOL     OW 5526   3.049   1.792   3.478
 1823SOL    HW1 5527   3.073   1.852   3.402
 1823SOL    HW2 5528   3.056   1.697   3.448
 1824SOL     OW 5529   2.179   0.251   3.663
 1824SOL    HW1 5530   2.250   0.322   3.669
 1824SOL    HW2 5531   2.091   0.290   3.691
 1825SOL     OW 5532   3.328   1.417   2.815
 1825SOL    HW1 5533   3.269   1.423   2.895
 1825SOL    HW2 5534   3.313   1.329   2.769
 1826SOL     OW 5535   3.529   1.714   2.434
 1826SOL    HW1 5536   3.488   1.691   2.346
 1826SOL    HW2 5537   3.511   1.640   2.499
 1827SOL     OW 5538   2.460   0.729   2.132
 1827SOL    HW1 5539   2.484   0.798   2.064
 1827SOL    HW2 5540   2.382   0.762   2.186
 1828SOL     OW 5541   3.143   0.345   2.806
 1828SOL    HW1 5542   3.057   0.295   2.793
 1828SOL    HW2 5543   3.205   0.291   2.862
 1829SOL     OW 5544   3.438   1.662   2.169
 1829SOL    HW1 5545   3.527   1.708   2.172
 1829SOL    HW2 5546   3.417   1.638   2.074
 1830SOL     OW 5547   2.669   0.605   3.327
 1830SOL    HW1 5548   2.622   0.602   3.416
 1830SOL    HW2 5549   2.618   0.550   3.261
 1831SOL     OW 5550   3.256   0.469   3.536
 1831SOL    HW1 5551   3.236   0.512   3.624
 1831SOL    HW2 5552   3.334   0.407   3.545
 1832SOL     OW 5553   2.835   0.890   3.434
 1832SOL    HW1 5554   2.881   0.806   3.405
 1832SOL    HW2 5555   2.779   0.924   3.359
 1833SOL     OW 5556   2.853   0.410   3.104
 1833SOL    HW1 5557   2.776   0.444   3.158
 1833SOL    HW2 5558   2.819   0.359   3.025
 1834SOL     OW 5559   2.903   0.701   2.291
 1834SOL    HW1 5560   2.929   0.697   2.387
 1834SOL    HW2 5561   2.818   0.650   2.277
 1835SOL     OW 5562   1.938   0.811   2.651
 1835SOL    HW1 5563   2.037   0.799   2.660
 1835SOL    HW2 5564   1.914   0.906   2.672
 1836SOL     OW 5565   1.992   1.821   3.433
 1836SOL    HW1 5566   1.982   1.806   3.532
 1836SOL    HW2 5567   1.906   1.857   3.397
 1837SOL     OW 5568   2.727   0.348   2.057
 1837SOL    HW1 5569   2.786   0.411   2.008
 1837SOL    HW2 5570   2.746   0.254   2.028
 1838SOL     OW 5571   3.581   0.585   3.693
 1838SOL    HW1 5572   3.555   0.674   3.657
 1838SOL    HW2 5573   3.579   0.517   3.620
 1839SOL     OW 5574   3.224   1.144   2.407
 1839SOL    HW1 5575   3.307   1.115   2.359
 1839SOL    HW2 5576   3.175   1.211   2.351
 1840SOL     OW 5577   2.412   0.196   2.747
 1840SOL    HW1 5578   2.407   0.191   2.847
 1840SOL    HW2 5579   2.414   0.292   2.718
 1841SOL     OW 5580   2.870   1.456   2.339
 1841SOL    HW1 5581   2.824   1.528   2.287
 1841SOL    HW2 5582   2.866   1.476   2.437
 1842SOL     OW 5583   2.213   1.801   2.715
 1842SOL    HW1 5584   2.263   1.715   2.721
 1842SOL    HW2 5585   2.278   1.878   2.712
 1843SOL     OW 5586   3.657   1.066   2.735
 1843SOL    HW1 5587   3.595   1.051   2.659
 1843SOL    HW2 5588   3.605   1.077   2.820
 1844SOL     OW 5589   3.089   1.550   3.368
 1844SOL    HW1 5590   3.095   1.473   3.432
 1844SOL    HW2 5591   3.037   1.524   3.288
 1845SOL     OW 5592   2.183   0.943   2.104
 1845SOL    HW1 5593   2.265   0.982   2.062
 1845SOL    HW2 5594   2.156   0.861   2.055
 1846SOL     OW 5595   3.320   0.735   2.590
 1846SOL    HW1 5596   3.315   0.670   2.665
 1846SOL    HW2 5597   3.400   0.794   2.603
 1847SOL     OW 5598   2.323   1.266   3.589
 1847SOL    HW1 5599   2.273   1.267   3.503
 1847SOL    HW2 5600   2.260   1.248   3.665
 1848SOL     OW 5601   2.973   1.776   2.099
 1848SOL    HW1 5602   2.913   1.714   2.149
 1848SOL    HW2 5603   3.004   1.732   2.014
 1849SOL     OW 5604   2.064   0.285   3.360
 1849SOL    HW1 5605   1.984   0.345   3.347
 1849SOL    HW2 5606   2.054   0.236   3.446
 1850SOL     OW 5607   3.494   1.377   1.943
 1850SOL    HW1 5608   3.462   1.471   1.933
 1850SOL    HW2 5609   3.418   1.314   1.931
 1851SOL     OW 5610   2.326   1.743   2.185
 1851SOL    HW1 5611   2.359   1.782   2.271
 1851SOL    HW2 5612   2.402   1.736   2.120
 1852SOL     OW 5613   3.262   0.107   2.288
 1852SOL    HW1 5614   3.238   0.070   2.198
 1852SOL    HW2 5615   3.361   0.123   2.292
 1853SOL     OW 5616   2.111   1.785   3.103
 1853SOL    HW1 5617   2.168   1.720   3.153
 1853SOL    HW2 5618   2.095   1.752   3.010
 1854SOL     OW 5619   2.802   1.698   2.766
 1854SOL    HW1 5620   2.882   1.641   2.787
 1854SOL    HW2 5621   2.753   1.658   2.689
 1855SOL     OW 5622   2.244   0.700   2.342
 1855SOL    HW1 5623   2.289   0.610   2.339
 1855SOL    HW2 5624   2.150   0.689   2.375
 1856SOL     OW 5625   3.409   0.222   3.591
 1856SOL    HW1 5626   3.404   0.259   3.683
 1856SOL    HW2 5627   3.337   0.153   3.579
 1857SOL     OW 5628   2.476   0.122   1.979
 1857SOL    HW1 5629   2.574   0.100   1.986
 1857SOL    HW2 5630   2.445   0.105   1.886
 1858SOL     OW 5631   2.643   0.264   3.611
 1858SOL    HW1 5632   2.710   0.203   3.654
 1858SOL    HW2 5633   2.570   0.283   3.676
 1859SOL     OW 5634   2.750   1.514   3.057
 1859SOL    HW1 5635   2.727   1.489   2.963
 1859SOL    HW2 5636   2.811   1.445   3.096
 1860SOL     OW 5637   3.213   0.590   3.295
 1860SOL    HW1 5638   3.241   0.547   3.380
 1860SOL    HW2 5639   3.238   0.686   3.296
 1861SOL     OW 5640   2.665   1.402   2.786
 1861SOL    HW1 5641   2.755   1.416   2.744
 1861SOL    HW2 5642   2.594   1.404   2.715
 1862SOL     OW 5643   2.784   0.503   2.761
 1862SOL    HW1 5644   2.759   0.494   2.665
 1862SOL    HW2 5645   2.832   0.421   2.792
 1863SOL     OW 5646   2.401   0.064   2.374
 1863SOL    HW1 5647   2.320   0.065   2.432
 1863SOL    HW2 5648   2.404   0.147   2.319
 1864SOL     OW 5649   3.296   1.188   1.903
 1864SOL    HW1 5650   3.328   1.112   1.960
 1864SOL    HW2 5651   3.204   1.215   1.933
 1865SOL     OW 5652   2.159   0.035   2.033
 1865SOL    HW1 5653   2.208   0.119   2.012
 1865SOL    HW2 5654   2.221  -0.030   2.078
 1866SOL     OW 5655   2.797   0.236   2.342
 1866SOL    HW1 5656   2.749   0.277   2.264
 1866SOL    HW2 5657   2.896   0.234   2.323
 1867SOL     OW 5658   2.938   0.683   3.326
 1867SOL    HW1 5659   2.858   0.622   3.329
 1867SOL    HW2 5660   3.019   0.630   3.302
 1868SOL     OW 5661   3.089   1.570   2.655
 1868SOL    HW1 5662   3.110   1.644   2.590
 1868SOL    HW2 5663   3.157   1.570   2.728
 1869SOL     OW 5664   2.321   1.152   2.603
 1869SOL    HW1 5665   2.250   1.125   2.668
 1869SOL    HW2 5666   2.295   1.124   2.510
 1870SOL     OW 5667   3.133   1.797   2.453
 1870SOL    HW1 5668   3.177   1.861   2.389
 1870SOL    HW2 5669   3.083   1.849   2.523
 1871SOL     OW 5670   2.894   0.549   1.878
 1871SOL    HW1 5671   2.853   0.631   1.839
 1871SOL    HW2 5672   2.958   0.575   1.951
 1872SOL     OW 5673   1.940   0.556   3.248
 1872SOL    HW1 5674   2.032   0.555   3.207
 1872SOL    HW2 5675   1.934   0.630   3.315
 1873SOL     OW 5676   2.423   0.222   3.009
 1873SOL    HW1 5677   2.461   0.138   3.046
 1873SOL    HW2 5678   2.335   0.241   3.053
 1874SOL     OW 5679   2.728   0.454   2.504
 1874SOL    HW1 5680   2.696   0.526   2.442
 1874SOL    HW2 5681   2.752   0.373   2.451
 1875SOL     OW 5682   2.879   0.039   2.615
 1875SOL    HW1 5683   2.807   0.044   2.546
 1875SOL    HW2 5684   2.855  -0.030   2.684
 1876SOL     OW 5685   3.291   1.173   2.729
 1876SOL    HW1 5686   3.236   1.089   2.722
 1876SOL    HW2 5687   3.317   1.202   2.637
 1877SOL     OW 5688   3.328   0.590   2.854
 1877SOL    HW1 5689   3.298   0.495   2.861
 1877SOL    HW2 5690   3.401   0.606   2.920
 1878SOL     OW 5691   3.719   0.833   2.239
 1878SOL    HW1 5692   3.761   0.769   2.303
 1878SOL    HW2 5693   3.681   0.782   2.161
 1879SOL     OW 5694   2.350   1.385   2.036
 1879SOL    HW1 5695   2.263   1.370   2.083
 1879SOL    HW2 5696   2.333   1.411   1.941
 1880SOL     OW 5697   3.526   1.280   2.519
 1880SOL    HW1 5698   3.625   1.288   2.533
 1880SOL    HW2 5699   3.481   1.364   2.550
 1881SOL     OW 5700   3.252   0.575   1.940
 1881SOL    HW1 5701   3.198   0.554   2.021
 1881SOL    HW2 5702   3.343   0.534   1.949
 1882SOL     OW 5703   2.389   0.256   2.190
 1882SOL    HW1 5704   2.416   0.197   2.115
 1882SOL    HW2 5705   2.389   0.351   2.159
 1883SOL     OW 5706   3.616   1.223   3.450
 1883SOL    HW1 5707   3.707   1.184   3.437
 1883SOL    HW2 5708   3.624   1.319   3.474
 1884SOL     OW 5709   2.926   1.347   3.202
 1884SOL    HW1 5710   2.846   1.324   3.257
 1884SOL    HW2 5711   3.009   1.321   3.251
 1885SOL     OW 5712   3.454   1.629   3.487
 1885SOL    HW1 5713   3.481   1.663   3.397
 1885SOL    HW2 5714   3.533   1.591   3.533
 1886SOL     OW 5715   2.973   1.195   2.962
 1886SOL    HW1 5716   2.933   1.239   3.043
 1886SOL    HW2 5717   2.932   1.232   2.879
 1887SOL     OW 5718   3.500   1.099   2.941
 1887SOL    HW1 5719   3.505   1.180   3.000
 1887SOL    HW2 5720   3.414   1.101   2.890
 1888SOL     OW 5721   2.777   0.089   3.264
 1888SOL    HW1 5722   2.802   0.069   3.169
 1888SOL    HW2 5723   2.849   0.145   3.306
 1889SOL     OW 5724   2.842   1.116   3.581
 1889SOL    HW1 5725   2.743   1.122   3.591
 1889SOL    HW2 5726   2.865   1.036   3.525
 1890SOL     OW 5727   2.567   1.050   2.230
 1890SOL    HW1 5728   2.553   1.057   2.329
 1890SOL    HW2 5729   2.651   0.999   2.212
 1891SOL     OW 5730   2.272   0.813   3.113
 1891SOL    HW1 5731   2.358   0.825   3.163
 1891SOL    HW2 5732   2.230   0.726   3.140
 1892SOL     OW 5733   3.136   0.386   3.124
 1892SOL    HW1 5734   3.157   0.460   3.188
 1892SOL    HW2 5735   3.047   0.403   3.081
 1893SOL     OW 5736   1.926   1.564   3.193
 1893SOL    HW1 5737   1.880   1.646   3.159
 1893SOL    HW2 5738   2.024   1.583   3.202
 1894SOL     OW 5739   2.229   1.100   2.363
 1894SOL    HW1 5740   2.222   1.183   2.307
 1894SOL    HW2 5741   2.233   1.020   2.303
 1895SOL     OW 5742   2.428   0.537   2.727
 1895SOL    HW1 5743   2.440   0.603   2.653
 1895SOL    HW2 5744   2.474   0.571   2.810
 1896SOL     OW 5745   3.114   1.348   2.250
 1896SOL    HW1 5746   3.164   1.425   2.290
 1896SOL    HW2 5747   3.019   1.350   2.282
 1897SOL     OW 5748   3.134   1.445   3.004
 1897SOL    HW1 5749   3.181   1.458   3.091
 1897SOL    HW2 5750   3.068   1.371   3.013
 1898SOL     OW 5751   3.444   0.639   2.334
 1898SOL    HW1 5752   3.413   0.700   2.407
 1898SOL    HW2 5753   3.494   0.691   2.265
 1899SOL     OW 5754   2.216   1.510   3.191
 1899SOL    HW1 5755   2.195   1.466   3.104
 1899SOL    HW2 5756   2.313   1.536   3.194
 1900SOL     OW 5757   2.264   0.751   3.460
 1900SOL    HW1 5758   2.332   0.806   3.413
 1900SOL    HW2 5759   2.304   0.663   3.487
 1901SOL     OW 5760   3.449   0.779   3.532
 1901SOL    HW1 5761   3.357   0.817   3.527
 1901SOL    HW2 5762   3.509   0.826   3.467
 1902SOL     OW 5763   2.875   0.105   3.632
 1902SOL    HW1 5764   2.881   0.190   3.580
 1902SOL    HW2 5765   2.907   0.029   3.575
 1903SOL     OW 5766   2.366   0.050   3.602
 1903SOL    HW1 5767   2.324  -0.007   3.532
 1903SOL    HW2 5768   2.300   0.119   3.634
 1904SOL     OW 5769   2.435   0.870   2.891
 1904SOL    HW1 5770   2.479   0.959   2.882
 1904SOL    HW2 5771   2.372   0.870   2.968
 1905SOL     OW 5772   3.222   0.862   2.907
 1905SOL    HW1 5773   3.147   0.862   2.841
 1905SOL    HW2 5774   3.259   0.770   2.916
 1906SOL     OW 5775   3.071   0.525   2.137
 1906SOL    HW1 5776   3.084   0.441   2.191
 1906SOL    HW2 5777   3.042   0.599   2.197
 1907SOL     OW 5778   2.169   0.213   3.093
 1907SOL    HW1 5779   2.146   0.250   3.183
 1907SOL    HW2 5780   2.139   0.118   3.087
 1908SOL     OW 5781   1.899   1.310   3.144
 1908SOL    HW1 5782   1.952   1.261   3.212
 1908SOL    HW2 5783   1.921   1.408   3.149
 1909SOL     OW 5784   2.594   0.634   2.926
 1909SOL    HW1 5785   2.653   0.608   2.850
 1909SOL    HW2 5786   2.566   0.730   2.915
 1910SOL     OW 5787   3.590   0.935   3.716
 1910SOL    HW1 5788   3.544   0.928   3.627
 1910SOL    HW2 5789   3.528   0.979   3.782
 1911SOL     OW 5790   2.169   0.063   2.480
 1911SOL    HW1 5791   2.158   0.157   2.513
 1911SOL    HW2 5792   2.164   0.000   2.557
 1912SOL     OW 5793   3.484   0.367   2.236
 1912SOL    HW1 5794   3.486   0.291   2.300
 1912SOL    HW2 5795   3.436   0.444   2.276
 1913SOL     OW 5796   2.885   0.766   2.828
 1913SOL    HW1 5797   2.900   0.787   2.924
 1913SOL    HW2 5798   2.855   0.671   2.819
 1914SOL     OW 5799   2.842   1.573   3.562
 1914SOL    HW1 5800   2.822   1.617   3.474
 1914SOL    HW2 5801   2.881   1.482   3.546
 1915SOL     OW 5802   3.721   1.518   3.467
 1915SOL    HW1 5803   3.735   1.545   3.372
 1915SOL    HW2 5804   3.804   1.540   3.520
 1916SOL     OW 5805   2.212   0.898   3.666
 1916SOL    HW1 5806   2.288   0.942   3.714
 1916SOL    HW2 5807   2.247   0.851   3.584
 1917SOL     OW 5808   3.402   0.274   1.987
 1917SOL    HW1 5809   3.341   0.199   2.010
 1917SOL    HW2 5810   3.424   0.326   2.070
 1918SOL     OW 5811   3.165   0.838   1.904
 1918SOL    HW1 5812   3.199   0.745   1.919
 1918SOL    HW2 5813   3.183   0.865   1.809
 1919SOL     OW 5814   2.930   1.333   2.711
 1919SOL    HW1 5815   2.937   1.249   2.656
 1919SOL    HW2 5816   2.992   1.402   2.675
 1920SOL     OW 5817   2.181   0.810   2.811
 1920SOL    HW1 5818   2.274   0.846   2.816
 1920SOL    HW2 5819   2.175   0.725   2.863
 1921SOL     OW 5820   2.201   0.509   2.868
 1921SOL    HW1 5821   2.149   0.426   2.851
 1921SOL    HW2 5822   2.278   0.514   2.804
 1922SOL     OW 5823   3.000   0.380   3.540
 1922SOL    HW1 5824   2.955   0.443   3.604
 1922SOL    HW2 5825   3.093   0.411   3.523
 1923SOL     OW 5826   3.022   0.207   3.339
 1923SOL    HW1 5827   3.022   0.271   3.416
 1923SOL    HW2 5828   3.050   0.255   3.256
 1924SOL     OW 5829   1.870   1.326   2.062
 1924SOL    HW1 5830   1.777   1.347   2.031
 1924SOL    HW2 5831   1.880   1.227   2.075
 1925SOL     OW 5832   1.950   1.801   2.789
 1925SOL    HW1 5833   1.908   1.715   2.762
 1925SOL    HW2 5834   2.044   1.804   2.755
 1926SOL     OW 5835   2.366   1.568   2.772
 1926SOL    HW1 5836   2.432   1.642   2.781
 1926SOL    HW2 5837   2.410   1.489   2.730
 1927SOL     OW 5838   2.864   0.796   3.100
 1927SOL    HW1 5839   2.905   0.764   3.186
 1927SOL    HW2 5840   2.768   0.769   3.097
 1928SOL     OW 5841   1.902   0.544   2.976
 1928SOL    HW1 5842   1.987   0.511   2.935
 1928SOL    HW2 5843   1.915   0.559   3.074
 1929SOL     OW 5844   2.051   0.520   3.584
 1929SOL    HW1 5845   2.110   0.480   3.514
 1929SOL    HW2 5846   1.993   0.591   3.543
 1930SOL     OW 5847   3.231   0.950   3.522
 1930SOL    HW1 5848   3.270   1.039   3.542
 1930SOL    HW2 5849   3.241   0.930   3.425
 1931SOL     OW 5850   2.677   0.572   2.187
 1931SOL    HW1 5851   2.684   0.483   2.141
 1931SOL    HW2 5852   2.583   0.606   2.179
 1932SOL     OW 5853   3.519   0.604   3.068
 1932SOL    HW1 5854   3.481   0.535   3.130
 1932SOL    HW2 5855   3.601   0.568   3.024
 1933SOL     OW 5856   2.114   1.564   3.606
 1933SOL    HW1 5857   2.084   1.621   3.682
 1933SOL    HW2 5858   2.107   1.467   3.632
 1934SOL     OW 5859   2.533   0.464   3.131
 1934SOL    HW1 5860   2.499   0.375   3.101
 1934SOL    HW2 5861   2.559   0.518   3.051
 1935SOL     OW 5862   2.792   1.678   3.327
 1935SOL    HW1 5863   2.768   1.660   3.232
 1935SOL    HW2 5864   2.822   1.772   3.337
 1936SOL     OW 5865   2.335   0.500   2.053
 1936SOL    HW1 5866   2.396   0.580   2.057
 1936SOL    HW2 5867   2.240   0.531   2.060
 1937SOL     OW 5868   2.021   1.137   3.328
 1937SOL    HW1 5869   2.043   1.076   3.404
 1937SOL    HW2 5870   2.031   1.088   3.242
 1938SOL     OW 5871   3.209   1.059   3.096
 1938SOL    HW1 5872   3.233   0.996   3.022
 1938SOL    HW2 5873   3.119   1.099   3.078
 1939SOL     OW 5874   3.164   0.855   2.171
 1939SOL    HW1 5875   3.078   0.824   2.213
 1939SOL    HW2 5876   3.160   0.841   2.072
 1940SOL     OW 5877   3.621   1.747   3.016
 1940SOL    HW1 5878   3.682   1.777   2.943
 1940SOL    HW2 5879   3.583   1.658   2.994
 1941SOL     OW 5880   3.114   1.731   2.990
 1941SOL    HW1 5881   3.198   1.736   2.936
 1941SOL    HW2 5882   3.091   1.635   3.008
 1942SOL     OW 5883   1.945   1.258   2.884
 1942SOL    HW1 5884   1.940   1.257   2.984
 1942SOL    HW2 5885   1.862   1.217   2.846
 1943SOL     OW 5886   2.550   1.662   3.578
 1943SOL    HW1 5887   2.494   1.743   3.587
 1943SOL    HW2 5888   2.602   1.666   3.492
 1944SOL     OW 5889   3.588   0.135   2.385
 1944SOL    HW1 5890   3.661   0.118   2.318
 1944SOL    HW2 5891   3.557   0.048   2.423
 1945SOL     OW 5892   3.250   1.573   2.339
 1945SOL    HW1 5893   3.317   1.585   2.265
 1945SOL    HW2 5894   3.210   1.662   2.362
 1946SOL     OW 5895   1.992   1.794   3.713
 1946SOL    HW1 5896   1.951   1.720   3.766
 1946SOL    HW2 5897   2.056   1.845   3.771
 1947SOL     OW 5898   3.142   0.927   2.534
 1947SOL    HW1 5899   3.202   0.846   2.536
 1947SOL    HW2 5900   3.182   0.996   2.474
 1948SOL     OW 5901   2.692   1.273   3.284
 1948SOL    HW1 5902   2.687   1.306   3.379
 1948SOL    HW2 5903   2.606   1.292   3.238
 1949SOL     OW 5904   2.534   1.616   2.016
 1949SOL    HW1 5905   2.543   1.626   1.917
 1949SOL    HW2 5906   2.494   1.527   2.037
 1950SOL     OW 5907   3.512   1.720   3.256
 1950SOL    HW1 5908   3.565   1.730   3.172
 1950SOL    HW2 5909   3.485   1.810   3.290
 1951SOL     OW 5910   3.703   0.175   2.825
 1951SOL    HW1 5911   3.742   0.090   2.789
 1951SOL    HW2 5912   3.605   0.177   2.806
 1952SOL     OW 5913   2.125   0.326   2.582
 1952SOL    HW1 5914   2.046   0.377   2.548
 1952SOL    HW2 5915   2.116   0.311   2.680
 1953SOL     OW 5916   3.056   1.612   1.893
 1953SOL    HW1 5917   3.062   1.519   1.930
 1953SOL    HW2 5918   2.997   1.612   1.813
 1954SOL     OW 5919   2.684   1.002   3.234
 1954SOL    HW1 5920   2.724   1.001   3.142
 1954SOL    HW2 5921   2.694   1.094   3.274
 1955SOL     OW 5922   2.778   0.910   2.153
 1955SOL    HW1 5923   2.841   0.948   2.085
 1955SOL    HW2 5924   2.818   0.827   2.192
 1956SOL     OW 5925   3.366   1.607   1.906
 1956SOL    HW1 5926   3.274   1.644   1.913
 1956SOL    HW2 5927   3.404   1.627   1.816
 1957SOL     OW 5928   2.234   1.288   3.352
 1957SOL    HW1 5929   2.221   1.381   3.318
 1957SOL    HW2 5930   2.150   1.236   3.339
 1958SOL     OW 5931   3.476   1.292   3.151
 1958SOL    HW1 5932   3.536   1.295   3.231
 1958SOL    HW2 5933   3.401   1.356   3.164
 1959SOL     OW 5934   2.901   1.098   2.558
 1959SOL    HW1 5935   2.831   1.051   2.612
 1959SOL    HW2 5936   2.960   1.030   2.515
 1960SOL     OW 5937   2.876   0.236   2.833
 1960SOL    HW1 5938   2.868   0.200   2.740
 1960SOL    HW2 5939   2.874   0.160   2.898
 1961SOL     OW 5940   2.452   1.487   2.353
 1961SOL    HW1 5941   2.494   1.429   2.283
 1961SOL    HW2 5942   2.408   1.566   2.309
 1962SOL     OW 5943   3.571   0.385   3.243
 1962SOL    HW1 5944   3.644   0.454   3.247
 1962SOL    HW2 5945   3.599   0.310   3.184
 1963SOL     OW 5946   2.117   1.348   2.152
 1963SOL    HW1 5947   2.021   1.349   2.125
 1963SOL    HW2 5948   2.129   1.401   2.236
 1964SOL     OW 5949   1.967   1.013   3.588
 1964SOL    HW1 5950   1.890   0.980   3.642
 1964SOL    HW2 5951   2.052   0.983   3.630
 1965SOL     OW 5952   2.534   0.203   3.351
 1965SOL    HW1 5953   2.624   0.187   3.311
 1965SOL    HW2 5954   2.542   0.208   3.450
 1966SOL     OW 5955   1.937   0.345   1.895
 1966SOL    HW1 5956   1.845   0.317   1.866
 1966SOL    HW2 5957   1.968   0.422   1.839
 1967SOL     OW 5958   3.302   0.856   3.260
 1967SOL    HW1 5959   3.245   0.908   3.197
 1967SOL    HW2 5960   3.398   0.868   3.236
 1968SOL     OW 5961   1.934   0.166   2.180
 1968SOL    HW1 5962   1.917   0.249   2.126
 1968SOL    HW2 5963   2.024   0.129   2.158
 1969SOL     OW 5964   3.045   1.335   1.981
 1969SOL    HW1 5965   2.946   1.324   1.983
 1969SOL    HW2 5966   3.079   1.350   2.074
 1970SOL     OW 5967   2.475   0.842   3.293
 1970SOL    HW1 5968   2.531   0.923   3.276
 1970SOL    HW2 5969   2.534   0.762   3.296
 1971SOL     OW 5970   3.355   1.767   2.821
 1971SOL    HW1 5971   3.388   1.831   2.752
 1971SOL    HW2 5972   3.421   1.761   2.896
 1972SOL     OW 5973   2.578   0.565   3.570
 1972SOL    HW1 5974   2.597   0.630   3.644
 1972SOL    HW2 5975   2.638   0.485   3.579
 1973SOL     OW 5976   3.312   1.220   3.495
 1973SOL    HW1 5977   3.303   1.210   3.594
 1973SOL    HW2 5978   3.408   1.213   3.469
 1974SOL     OW 5979   2.252   1.741   3.422
 1974SOL    HW1 5980   2.161   1.782   3.420
 1974SOL    HW2 5981   2.245   1.647   3.454
 1975SOL     OW 5982   3.536   0.883   3.116
 1975SOL    HW1 5983   3.509   0.794   3.079
 1975SOL    HW2 5984   3.537   0.951   3.043
 1976SOL     OW 5985   3.087   0.325   2.311
 1976SOL    HW1 5986   3.152   0.251   2.300
 1976SOL    HW2 5987   3.107   0.375   2.395
 1977SOL     OW 5988   2.456   0.745   2.514
 1977SOL    HW1 5989   2.506   0.830   2.495
 1977SOL    HW2 5990   2.368   0.747   2.466
 1978SOL     OW 5991   3.639   0.342   3.504
 1978SOL    HW1 5992   3.622   0.373   3.410
 1978SOL    HW2 5993   3.555   0.305   3.542
 1979SOL     OW 5994   3.592   0.934   3.379
 1979SOL    HW1 5995   3.630   1.025   3.394
 1979SOL    HW2 5996   3.584   0.917   3.280
 1980SOL     OW 5997   2.721   1.374   1.878
 1980SOL    HW1 5998   2.675   1.389   1.966
 1980SOL    HW2 5999   2.765   1.459   1.848
 1981SOL     OW 6000   2.523   1.790   2.815
 1981SOL    HW1 6001   2.477   1.878   2.802
 1981SOL    HW2 6002   2.622   1.802   2.808
 1982SOL     OW 6003   2.721   0.956   2.723
 1982SOL    HW1 6004   2.775   0.887   2.771
 1982SOL    HW2 6005   2.689   1.025   2.789
 1983SOL     OW 6006   2.945   0.984   1.949
 1983SOL    HW1 6007   2.922   1.037   1.867
 1983SOL    HW2 6008   3.026   0.928   1.930
 1984SOL     OW 6009   3.723   1.569   2.713
 1984SOL    HW1 6010   3.652   1.557   2.643
 1984SOL    HW2 6011   3.724   1.490   2.773
 1985SOL     OW 6012   2.083   1.314   3.706
 1985SOL    HW1 6013   2.018   1.241   3.685
 1985SOL    HW2 6014   2.087   1.328   3.804
 1986SOL     OW 6015   1.941   1.240   2.515
 1986SOL    HW1 6016   1.940   1.193   2.603
 1986SOL    HW2 6017   2.023   1.212   2.464
 1987SOL     OW 6018   2.534   1.391   3.486
 1987SOL    HW1 6019   2.456   1.341   3.524
 1987SOL    HW2 6020   2.531   1.486   3.517
 1988SOL     OW 6021   3.686   0.192   3.089
 1988SOL    HW1 6022   3.682   0.102   3.133
 1988SOL    HW2 6023   3.689   0.181   2.990
 1989SOL     OW 6024   2.290   0.424   2.382
 1989SOL    HW1 6025   2.320   0.352   2.320
 1989SOL    HW2 6026   2.251   0.384   2.465
 1990SOL     OW 6027   3.567   1.487   2.966
 1990SOL    HW1 6028   3.474   1.462   2.939
 1990SOL    HW2 6029   3.593   1.437   3.048
 1991SOL     OW 6030   2.179   0.547   3.142
 1991SOL    HW1 6031   2.217   0.488   3.214
 1991SOL    HW2 6032   2.219   0.521   3.054
 1992SOL     OW 6033   2.674   1.586   2.549
 1992SOL    HW1 6034   2.706   1.596   2.455
 1992SOL    HW2 6035   2.595   1.524   2.551
 1993SOL     OW 6036   3.286   0.214   2.974
 1993SOL    HW1 6037   3.338   0.149   3.029
 1993SOL    HW2 6038   3.237   0.277   3.035
 1994SOL     OW 6039   2.863   0.034   3.016
 1994SOL    HW1 6040   2.800  -0.038   2.985
 1994SOL    HW2 6041   2.956  -0.002   3.016
 1995SOL     OW 6042   2.632   1.330   2.163
 1995SOL    HW1 6043   2.586   1.243   2.180
 1995SOL    HW2 6044   2.723   1.327   2.204
 1996SOL     OW 6045   2.480   1.567   3.146
 1996SOL    HW1 6046   2.475   1.649   3.203
 1996SOL    HW2 6047   2.569   1.564   3.101
 1997SOL     OW 6048   3.214   0.052   2.030
 1997SOL    HW1 6049   3.249   0.011   1.946
 1997SOL    HW2 6050   3.124   0.014   2.050
 1998SOL     OW 6051   3.162   0.453   2.553
 1998SOL    HW1 6052   3.103   0.533   2.557
 1998SOL    HW2 6053   3.177   0.418   2.646
 1999SOL     OW 6054   3.455   0.221   2.744
 1999SOL    HW1 6055   3.371   0.220   2.798
 1999SOL    HW2 6056   3.457   0.304   2.688
 2000SOL     OW 6057   1.901   1.077   2.162
 2000SOL    HW1 6058   2.000   1.066   2.153
 2000SOL    HW2 6059   1.861   0.991   2.194
 2001SOL     OW 6060   2.737   1.646   2.199
 2001SOL    HW1 6061   2.660   1.611   2.145
 2001SOL    HW2 6062   2.705   1.717   2.261
 2002SOL     OW 6063   2.092   0.628   3.837
 2002SOL    HW1 6064   1.999   0.626   3.874
 2002SOL    HW2 6065   2.093   0.589   3.745
 2003SOL     OW 6066   2.087   0.275   4.720
 2003SOL    HW1 6067   2.122   0.258   4.812
 2003SOL    HW2 6068   1.999   0.230   4.708
 2004SOL     OW 6069   1.881   0.368   4.371
 2004SOL    HW1 6070   1.799   0.411   4.410
 2004SOL    HW2 6071   1.853   0.295   4.308
 2005SOL     OW 6072   2.431   1.275   4.889
 2005SOL    HW1 6073   2.338   1.268   4.852
 2005SOL    HW2 6074   2.442   1.364   4.933
 2006SOL     OW 6075   3.417   1.511   4.427
 2006SOL    HW1 6076   3.360   1.495   4.508
 2006SOL    HW2 6077   3.358   1.521   4.347
 2007SOL     OW 6078   2.997   0.703   4.441
 2007SOL    HW1 6079   3.054   0.781   4.416
 2007SOL    HW2 6080   2.937   0.729   4.517
 2008SOL     OW 6081   3.617   0.607   3.955
 2008SOL    HW1 6082   3.605   0.594   3.856
 2008SOL    HW2 6083   3.587   0.526   4.004
 2009SOL     OW 6084   2.630   1.144   4.747
 2009SOL    HW1 6085   2.552   1.161   4.807
 2009SOL    HW2 6086   2.664   1.231   4.711
 2010SOL     OW 6087   2.547   1.012   4.389
 2010SOL    HW1 6088   2.616   0.996   4.459
 2010SOL    HW2 6089   2.474   1.069   4.427
 2011SOL     OW 6090   2.197   1.435   4.785
 2011SOL    HW1 6091   2.119   1.404   4.732
 2011SOL    HW2 6092   2.255   1.493   4.728
 2012SOL     OW 6093   3.465   0.447   4.461
 2012SOL    HW1 6094   3.391   0.493   4.411
 2012SOL    HW2 6095   3.516   0.515   4.514
 2013SOL     OW 6096   2.093   1.713   4.207
 2013SOL    HW1 6097   2.127   1.790   4.261
 2013SOL    HW2 6098   2.137   1.713   4.117
 2014SOL     OW 6099   2.092   1.434   4.262
 2014SOL    HW1 6100   2.066   1.530   4.262
 2014SOL    HW2 6101   2.021   1.380   4.307
 2015SOL     OW 6102   2.102   1.091   4.610
 2015SOL    HW1 6103   2.116   1.007   4.662
 2015SOL    HW2 6104   2.047   1.155   4.665
 2016SOL     OW 6105   2.482   1.786   5.163
 2016SOL    HW1 6106   2.390   1.769   5.198
 2016SOL    HW2 6107   2.510   1.878   5.189
 2017SOL     OW 6108   2.468   0.964   3.847
 2017SOL    HW1 6109   2.475   1.048   3.793
 2017SOL    HW2 6110   2.514   0.977   3.935
 2018SOL     OW 6111   1.984   0.643   4.287
 2018SOL    HW1 6112   1.939   0.555   4.304
 2018SOL    HW2 6113   1.983   0.697   4.371
 2019SOL     OW 6114   3.704   1.767   4.083
 2019SOL    HW1 6115   3.758   1.738   4.163
 2019SOL    HW2 6116   3.734   1.857   4.054
 2020SOL     OW 6117   1.889   1.596   3.841
 2020SOL    HW1 6118   1.870   1.500   3.862
 2020SOL    HW2 6119   1.856   1.654   3.916
 2021SOL     OW 6120   3.551   0.922   4.336
 2021SOL    HW1 6121   3.646   0.893   4.344
 2021SOL    HW2 6122   3.543   0.987   4.261
 2022SOL     OW 6123   3.503   1.108   4.156
 2022SOL    HW1 6124   3.589   1.110   4.104
 2022SOL    HW2 6125   3.517   1.155   4.244
 2023SOL     OW 6126   2.475   1.365   4.450
 2023SOL    HW1 6127   2.426   1.278   4.459
 2023SOL    HW2 6128   2.452   1.408   4.363
 2024SOL     OW 6129   2.671   0.004   4.226
 2024SOL    HW1 6130   2.711   0.095   4.217
 2024SOL    HW2 6131   2.571   0.012   4.232
 2025SOL     OW 6132   2.059   0.976   4.988
 2025SOL    HW1 6133   2.148   0.931   4.974
 2025SOL    HW2 6134   1.986   0.911   4.969
 2026SOL     OW 6135   3.387   0.999   3.914
 2026SOL    HW1 6136   3.324   0.923   3.927
 2026SOL    HW2 6137   3.435   1.017   4.000
 2027SOL     OW 6138   3.328   1.417   4.677
 2027SOL    HW1 6139   3.269   1.423   4.757
 2027SOL    HW2 6140   3.313   1.329   4.631
 2028SOL     OW 6141   3.529   1.714   4.296
 2028SOL    HW1 6142   3.488   1.691   4.208
 2028SOL    HW2 6143   3.511   1.640   4.361
 2029SOL     OW 6144   2.460   0.729   3.994
 2029SOL    HW1 6145   2.484   0.798   3.926
 2029SOL    HW2 6146   2.382   0.762   4.048
 2030SOL     OW 6147   3.143   0.345   4.668
 2030SOL    HW1 6148   3.057   0.295   4.655
 2030SOL    HW2 6149   3.205   0.291   4.724
 2031SOL     OW 6150   3.438   1.662   4.031
 2031SOL    HW1 6151   3.527   1.708   4.034
 2031SOL    HW2 6152   3.417   1.638   3.936
 2032SOL     OW 6153   2.853   0.410   4.966
 2032SOL    HW1 6154   2.776   0.444   5.020
 2032SOL    HW2 6155   2.819   0.359   4.887
 2033SOL     OW 6156   2.903   0.701   4.153
 2033SOL    HW1 6157   2.929   0.697   4.249
 2033SOL    HW2 6158   2.818   0.650   4.139
 2034SOL     OW 6159   1.938   0.811   4.513
 2034SOL    HW1 6160   2.037   0.799   4.522
 2034SOL    HW2 6161   1.914   0.906   4.534
 2035SOL     OW 6162   2.727   0.348   3.919
 2035SOL    HW1 6163   2.786   0.411   3.870
 2035SOL    HW2 6164   2.746   0.254   3.890
 2036SOL     OW 6165   3.224   1.144   4.269
 2036SOL    HW1 6166   3.307   1.115   4.221
 2036SOL    HW2 6167   3.175   1.211   4.213
 2037SOL     OW 6168   2.412   0.196   4.609
 2037SOL    HW1 6169   2.407   0.191   4.709
 2037SOL    HW2 6170   2.414   0.292   4.580
 2038SOL     OW 6171   2.870   1.456   4.201
 2038SOL    HW1 6172   2.824   1.528   4.149
 2038SOL    HW2 6173   2.866   1.476   4.299
 2039SOL     OW 6174   2.213   1.801   4.577
 2039SOL    HW1 6175   2.263   1.715   4.583
 2039SOL    HW2 6176   2.278   1.878   4.574
 2040SOL     OW 6177   3.657   1.066   4.597
 2040SOL    HW1 6178   3.595   1.051   4.521
 2040SOL    HW2 6179   3.605   1.077   4.682
 2041SOL     OW 6180   2.183   0.943   3.966
 2041SOL    HW1 6181   2.265   0.982   3.924
 2041SOL    HW2 6182   2.156   0.861   3.917
 2042SOL     OW 6183   3.320   0.735   4.452
 2042SOL    HW1 6184   3.315   0.670   4.527
 2042SOL    HW2 6185   3.400   0.794   4.465
 2043SOL     OW 6186   2.973   1.776   3.961
 2043SOL    HW1 6187   2.913   1.714   4.011
 2043SOL    HW2 6188   3.004   1.732   3.876
 2044SOL     OW 6189   3.494   1.377   3.805
 2044SOL    HW1 6190   3.462   1.471   3.795
 2044SOL    HW2 6191   3.418   1.314   3.793
 2045SOL     OW 6192   2.326   1.743   4.047
 2045SOL    HW1 6193   2.359   1.782   4.133
 2045SOL    HW2 6194   2.402   1.736   3.982
 2046SOL     OW 6195   3.262   0.107   4.150
 2046SOL    HW1 6196   3.238   0.070   4.060
 2046SOL    HW2 6197   3.361   0.123   4.154
 2047SOL     OW 6198   2.111   1.785   4.965
 2047SOL    HW1 6199   2.168   1.720   5.015
 2047SOL    HW2 6200   2.095   1.752   4.872
 2048SOL     OW 6201   2.802   1.698   4.628
 2048SOL    HW1 6202   2.882   1.641   4.649
 2048SOL    HW2 6203   2.753   1.658   4.551
 2049SOL     OW 6204   2.244   0.700   4.204
 2049SOL    HW1 6205   2.289   0.610   4.201
 2049SOL    HW2 6206   2.150   0.689   4.237
 2050SOL     OW 6207   2.476   0.122   3.841
 2050SOL    HW1 6208   2.574   0.100   3.848
 2050SOL    HW2 6209   2.445   0.105   3.748
 2051SOL     OW 6210   2.665   1.402   4.648
 2051SOL    HW1 6211   2.755   1.416   4.606
 2051SOL    HW2 6212   2.594   1.404   4.577
 2052SOL     OW 6213   2.784   0.503   4.623
 2052SOL    HW1 6214   2.759   0.494   4.527
 2052SOL    HW2 6215   2.832   0.421   4.654
 2053SOL     OW 6216   2.401   0.064   4.236
 2053SOL    HW1 6217   2.320   0.065   4.294
 2053SOL    HW2 6218   2.404   0.147   4.181
 2054SOL     OW 6219   3.296   1.188   3.765
 2054SOL    HW1 6220   3.328   1.112   3.822
 2054SOL    HW2 6221   3.204   1.215   3.795
 2055SOL     OW 6222   2.159   0.035   3.895
 2055SOL    HW1 6223   2.208   0.119   3.874
 2055SOL    HW2 6224   2.221  -0.030   3.940
 2056SOL     OW 6225   2.797   0.236   4.204
 2056SOL    HW1 6226   2.749   0.277   4.126
 2056SOL    HW2 6227   2.896   0.234   4.185
 2057SOL     OW 6228   3.089   1.570   4.517
 2057SOL    HW1 6229   3.110   1.644   4.452
 2057SOL    HW2 6230   3.157   1.570   4.590
 2058SOL     OW 6231   2.321   1.152   4.465
 2058SOL    HW1 6232   2.250   1.125   4.530
 2058SOL    HW2 6233   2.295   1.124   4.372
 2059SOL     OW 6234   3.133   1.797   4.315
 2059SOL    HW1 6235   3.177   1.861   4.251
 2059SOL    HW2 6236   3.083   1.849   4.385
 2060SOL     OW 6237   2.894   0.549   3.740
 2060SOL    HW1 6238   2.853   0.631   3.701
 2060SOL    HW2 6239   2.958   0.575   3.813
 2061SOL     OW 6240   2.423   0.222   4.871
 2061SOL    HW1 6241   2.461   0.138   4.908
 2061SOL    HW2 6242   2.335   0.241   4.915
 2062SOL     OW 6243   2.728   0.454   4.366
 2062SOL    HW1 6244   2.696   0.526   4.304
 2062SOL    HW2 6245   2.752   0.373   4.313
 2063SOL     OW 6246   2.879   0.039   4.477
 2063SOL    HW1 6247   2.807   0.044   4.408
 2063SOL    HW2 6248   2.855  -0.030   4.546
 2064SOL     OW 6249   3.291   1.173   4.591
 2064SOL    HW1 6250   3.236   1.089   4.584
 2064SOL    HW2 6251   3.317   1.202   4.499
 2065SOL     OW 6252   3.328   0.590   4.716
 2065SOL    HW1 6253   3.298   0.495   4.723
 2065SOL    HW2 6254   3.401   0.606   4.782
 2066SOL     OW 6255   3.719   0.833   4.101
 2066SOL    HW1 6256   3.761   0.769   4.165
 2066SOL    HW2 6257   3.681   0.782   4.023
 2067SOL     OW 6258   2.350   1.385   3.898
 2067SOL    HW1 6259   2.263   1.370   3.945
 2067SOL    HW2 6260   2.333   1.411   3.803
 2068SOL     OW 6261   3.526   1.280   4.381
 2068SOL    HW1 6262   3.625   1.288   4.395
 2068SOL    HW2 6263   3.481   1.364   4.412
 2069SOL     OW 6264   3.252   0.575   3.802
 2069SOL    HW1 6265   3.198   0.554   3.883
 2069SOL    HW2 6266   3.343   0.534   3.811
 2070SOL     OW 6267   2.389   0.256   4.052
 2070SOL    HW1 6268   2.416   0.197   3.977
 2070SOL    HW2 6269   2.389   0.351   4.021
 2071SOL     OW 6270   2.973   1.195   4.824
 2071SOL    HW1 6271   2.933   1.239   4.905
 2071SOL    HW2 6272   2.932   1.232   4.741
 2072SOL     OW 6273   3.500   1.099   4.803
 2072SOL    HW1 6274   3.505   1.180   4.862
 2072SOL    HW2 6275   3.414   1.101   4.752
 2073SOL     OW 6276   2.567   1.050   4.092
 2073SOL    HW1 6277   2.553   1.057   4.191
 2073SOL    HW2 6278   2.651   0.999   4.074
 2074SOL     OW 6279   2.272   0.813   4.975
 2074SOL    HW1 6280   2.358   0.825   5.025
 2074SOL    HW2 6281   2.230   0.726   5.002
 2075SOL     OW 6282   3.136   0.386   4.986
 2075SOL    HW1 6283   3.157   0.460   5.050
 2075SOL    HW2 6284   3.047   0.403   4.943
 2076SOL     OW 6285   2.229   1.100   4.225
 2076SOL    HW1 6286   2.222   1.183   4.169
 2076SOL    HW2 6287   2.233   1.020   4.165
 2077SOL     OW 6288   2.428   0.537   4.589
 2077SOL    HW1 6289   2.440   0.603   4.515
 2077SOL    HW2 6290   2.474   0.571   4.672
 2078SOL     OW 6291   3.114   1.348   4.112
 2078SOL    HW1 6292   3.164   1.425   4.152
 2078SOL    HW2 6293   3.019   1.350   4.144
 2079SOL     OW 6294   3.134   1.445   4.866
 2079SOL    HW1 6295   3.181   1.458   4.953
 2079SOL    HW2 6296   3.068   1.371   4.875
 2080SOL     OW 6297   3.444   0.639   4.196
 2080SOL    HW1 6298   3.413   0.700   4.269
 2080SOL    HW2 6299   3.494   0.691   4.127
 2081SOL     OW 6300   2.216   1.510   5.053
 2081SOL    HW1 6301   2.195   1.466   4.966
 2081SOL    HW2 6302   2.313   1.536   5.056
 2082SOL     OW 6303   2.435   0.870   4.753
 2082SOL    HW1 6304   2.479   0.959   4.744
 2082SOL    HW2 6305   2.372   0.870   4.830
 2083SOL     OW 6306   3.222   0.862   4.769
 2083SOL    HW1 6307   3.147   0.862   4.703
 2083SOL    HW2 6308   3.259   0.770   4.778
 2084SOL     OW 6309   3.071   0.525   3.999
 2084SOL    HW1 6310   3.084   0.441   4.053
 2084SOL    HW2 6311   3.042   0.599   4.059
 2085SOL     OW 6312   2.169   0.213   4.955
 2085SOL    HW1 6313   2.146   0.250   5.045
 2085SOL    HW2 6314   2.139   0.118   4.949
 2086SOL     OW 6315   1.899   1.310   5.006
 2086SOL    HW1 6316   1.952   1.261   5.074
 2086SOL    HW2 6317   1.921   1.408   5.011
 2087SOL     OW 6318   2.594   0.634   4.788
 2087SOL    HW1 6319   2.653   0.608   4.712
 2087SOL    HW2 6320   2.566   0.730   4.777
 2088SOL     OW 6321   2.169   0.063   4.342
 2088SOL    HW1 6322   2.158   0.157   4.375
 2088SOL    HW2 6323   2.164   0.000   4.419
 2089SOL     OW 6324   3.484   0.367   4.098
 2089SOL    HW1 6325   3.486   0.291   4.162
 2089SOL    HW2 6326   3.436   0.444   4.138
 2090SOL     OW 6327   2.885   0.766   4.690
 2090SOL    HW1 6328   2.900   0.787   4.786
 2090SOL    HW2 6329   2.855   0.671   4.681
 2091SOL     OW 6330   3.402   0.274   3.849
 2091SOL    HW1 6331   3.341   0.199   3.872
 2091SOL    HW2 6332   3.424   0.326   3.932
 2092SOL     OW 6333   3.165   0.838   3.766
 2092SOL    HW1 6334   3.199   0.745   3.781
 2092SOL    HW2 6335   3.183   0.865   3.671
 2093SOL     OW 6336   2.930   1.333   4.573
 2093SOL    HW1 6337   2.937   1.249   4.518
 2093SOL    HW2 6338   2.992   1.402   4.537
 2094SOL     OW 6339   2.181   0.810   4.673
 2094SOL    HW1 6340   2.274   0.846   4.678
 2094SOL    HW2 6341   2.175   0.725   4.725
 2095SOL     OW 6342   2.201   0.509   4.730
 2095SOL    HW1 6343   2.149   0.426   4.713
 2095SOL    HW2 6344   2.278   0.514   4.666
 2096SOL     OW 6345   3.022   0.207   5.201
 2096SOL    HW1 6346   3.022   0.271   5.278
 2096SOL    HW2 6347   3.050   0.255   5.118
 2097SOL     OW 6348   1.870   1.326   3.924
 2097SOL    HW1 6349   1.777   1.347   3.893
 2097SOL    HW2 6350   1.880   1.227   3.937
 2098SOL     OW 6351   1.950   1.801   4.651
 2098SOL    HW1 6352   1.908   1.715   4.624
 2098SOL    HW2 6353   2.044   1.804   4.617
 2099SOL     OW 6354   2.366   1.568   4.634
 2099SOL    HW1 6355   2.432   1.642   4.643
 2099SOL    HW2 6356   2.410   1.489   4.592
 2100SOL     OW 6357   2.864   0.796   4.962
 2100SOL    HW1 6358   2.905   0.764   5.048
 2100SOL    HW2 6359   2.768   0.769   4.959
 2101SOL     OW 6360   1.902   0.544   4.838
 2101SOL    HW1 6361   1.987   0.511   4.797
 2101SOL    HW2 6362   1.915   0.559   4.936
 2102SOL     OW 6363   2.677   0.572   4.049
 2102SOL    HW1 6364   2.684   0.483   4.003
 2102SOL    HW2 6365   2.583   0.606   4.041
 2103SOL     OW 6366   3.519   0.604   4.930
 2103SOL    HW1 6367   3.481   0.535   4.992
 2103SOL    HW2 6368   3.601   0.568   4.886
 2104SOL     OW 6369   2.533   0.464   4.993
 2104SOL    HW1 6370   2.499   0.375   4.963
 2104SOL    HW2 6371   2.559   0.518   4.913
 2105SOL     OW 6372   2.792   1.678   5.189
 2105SOL    HW1 6373   2.768   1.660   5.094
 2105SOL    HW2 6374   2.822   1.772   5.199
 2106SOL     OW 6375   2.335   0.500   3.915
 2106SOL    HW1 6376   2.396   0.580   3.919
 2106SOL    HW2 6377   2.240   0.531   3.922
 2107SOL     OW 6378   3.209   1.059   4.958
 2107SOL    HW1 6379   3.233   0.996   4.884
 2107SOL    HW2 6380   3.119   1.099   4.940
 2108SOL     OW 6381   3.164   0.855   4.033
 2108SOL    HW1 6382   3.078   0.824   4.075
 2108SOL    HW2 6383   3.160   0.841   3.934
 2109SOL     OW 6384   3.621   1.747   4.878
 2109SOL    HW1 6385   3.682   1.777   4.805
 2109SOL    HW2 6386   3.583   1.658   4.856
 2110SOL     OW 6387   3.114   1.731   4.852
 2110SOL    HW1 6388   3.198   1.736   4.798
 2110SOL    HW2 6389   3.091   1.635   4.870
 2111SOL     OW 6390   1.945   1.258   4.746
 2111SOL    HW1 6391   1.940   1.257   4.846
 2111SOL    HW2 6392   1.862   1.217   4.708
 2112SOL     OW 6393   3.588   0.135   4.247
 2112SOL    HW1 6394   3.661   0.118   4.180
 2112SOL    HW2 6395   3.557   0.048   4.285
 2113SOL     OW 6396   3.250   1.573   4.201
 2113SOL    HW1 6397   3.317   1.585   4.127
 2113SOL    HW2 6398   3.210   1.662   4.224
 2114SOL     OW 6399   3.142   0.927   4.396
 2114SOL    HW1 6400   3.202   0.846   4.398
 2114SOL    HW2 6401   3.182   0.996   4.336
 2115SOL     OW 6402   2.534   1.616   3.878
 2115SOL    HW1 6403   2.543   1.626   3.779
 2115SOL    HW2 6404   2.494   1.527   3.899
 2116SOL     OW 6405   3.512   1.720   5.118
 2116SOL    HW1 6406   3.565   1.730   5.034
 2116SOL    HW2 6407   3.485   1.810   5.152
 2117SOL     OW 6408   3.703   0.175   4.687
 2117SOL    HW1 6409   3.742   0.090   4.651
 2117SOL    HW2 6410   3.605   0.177   4.668
 2118SOL     OW 6411   2.125   0.326   4.444
 2118SOL    HW1 6412   2.046   0.377   4.410
 2118SOL    HW2 6413   2.116   0.311   4.542
 2119SOL     OW 6414   3.056   1.612   3.755
 2119SOL    HW1 6415   3.062   1.519   3.792
 2119SOL    HW2 6416   2.997   1.612   3.675
 2120SOL     OW 6417   2.684   1.002   5.096
 2120SOL    HW1 6418   2.724   1.001   5.004
 2120SOL    HW2 6419   2.694   1.094   5.136
 2121SOL     OW 6420   2.778   0.910   4.015
 2121SOL    HW1 6421   2.841   0.948   3.947
 2121SOL    HW2 6422   2.818   0.827   4.054
 2122SOL     OW 6423   3.366   1.607   3.768
 2122SOL    HW1 6424   3.274   1.644   3.775
 2122SOL    HW2 6425   3.404   1.627   3.678
 2123SOL     OW 6426   2.901   1.098   4.420
 2123SOL    HW1 6427   2.831   1.051   4.474
 2123SOL    HW2 6428   2.960   1.030   4.377
 2124SOL     OW 6429   2.876   0.236   4.695
 2124SOL    HW1 6430   2.868   0.200   4.602
 2124SOL    HW2 6431   2.874   0.160   4.760
 2125SOL     OW 6432   2.452   1.487   4.215
 2125SOL    HW1 6433   2.494   1.429   4.145
 2125SOL    HW2 6434   2.408   1.566   4.171
 2126SOL     OW 6435   3.571   0.385   5.105
 2126SOL    HW1 6436   3.644   0.454   5.109
 2126SOL    HW2 6437   3.599   0.310   5.046
 2127SOL     OW 6438   2.117   1.348   4.014
 2127SOL    HW1 6439   2.021   1.349   3.987
 2127SOL    HW2 6440   2.129   1.401   4.098
 2128SOL     OW 6441   1.937   0.345   3.757
 2128SOL    HW1 6442   1.845   0.317   3.728
 2128SOL    HW2 6443   1.968   0.422   3.701
 2129SOL     OW 6444   1.934   0.166   4.042
 2129SOL    HW1 6445   1.917   0.249   3.988
 2129SOL    HW2 6446   2.024   0.129   4.020
 2130SOL     OW 6447   3.045   1.335   3.843
 2130SOL    HW1 6448   2.946   1.324   3.845
 2130SOL    HW2 6449   3.079   1.350   3.936
 2131SOL     OW 6450   3.355   1.767   4.683
 2131SOL    HW1 6451   3.388   1.831   4.614
 2131SOL    HW2 6452   3.421   1.761   4.758
 2132SOL     OW 6453   3.312   1.220   5.357
 2132SOL    HW1 6454   3.303   1.210   5.456
 2132SOL    HW2 6455   3.408   1.213   5.331
 2133SOL     OW 6456   3.536   0.883   4.978
 2133SOL    HW1 6457   3.509   0.794   4.941
 2133SOL    HW2 6458   3.537   0.951   4.905
 2134SOL     OW 6459   3.087   0.325   4.173
 2134SOL    HW1 6460   3.152   0.251   4.162
 2134SOL    HW2 6461   3.107   0.375   4.257
 2135SOL     OW 6462   2.456   0.745   4.376
 2135SOL    HW1 6463   2.506   0.830   4.357
 2135SOL    HW2 6464   2.368   0.747   4.328
 2136SOL     OW 6465   2.721   1.374   3.740
 2136SOL    HW1 6466   2.675   1.389   3.828
 2136SOL    HW2 6467   2.765   1.459   3.710
 2137SOL     OW 6468   2.523   1.790   4.677
 2137SOL    HW1 6469   2.477   1.878   4.664
 2137SOL    HW2 6470   2.622   1.802   4.670
 2138SOL     OW 6471   2.721   0.956   4.585
 2138SOL    HW1 6472   2.775   0.887   4.633
 2138SOL    HW2 6473   2.689   1.025   4.651
 2139SOL     OW 6474   2.945   0.984   3.811
 2139SOL    HW1 6475   2.922   1.037   3.729
 2139SOL    HW2 6476   3.026   0.928   3.792
 2140SOL     OW 6477   3.723   1.569   4.575
 2140SOL    HW1 6478   3.652   1.557   4.505
 2140SOL    HW2 6479   3.724   1.490   4.635
 2141SOL     OW 6480   1.941   1.240   4.377
 2141SOL    HW1 6481   1.940   1.193   4.465
 2141SOL    HW2 6482   2.023   1.212   4.326
 2142SOL     OW 6483   3.686   0.192   4.951
 2142SOL    HW1 6484   3.682   0.102   4.995
 2142SOL    HW2 6485   3.689   0.181   4.852
 2143SOL     OW 6486   2.290   0.424   4.244
 2143SOL    HW1 6487   2.320   0.352   4.182
 2143SOL    HW2 6488   2.251   0.384   4.327
 2144SOL     OW 6489   3.567   1.487   4.828
 2144SOL    HW1 6490   3.474   1.462   4.801
 2144SOL    HW2 6491   3.593   1.437   4.910
 2145SOL     OW 6492   2.674   1.586   4.411
 2145SOL    HW1 6493   2.706   1.596   4.317
 2145SOL    HW2 6494   2.595   1.524   4.413
 2146SOL     OW 6495   3.286   0.214   4.836
 2146SOL    HW1 6496   3.338   0.149   4.891
 2146SOL    HW2 6497   3.237   0.277   4.897
 2147SOL     OW 6498   2.863   0.034   4.878
 2147SOL    HW1 6499   2.800  -0.038   4.847
 2147SOL    HW2 6500   2.956  -0.002   4.878
 2148SOL     OW 6501   2.632   1.330   4.025
 2148SOL    HW1 6502   2.586   1.243   4.042
 2148SOL    HW2 6503   2.723   1.327   4.066
 2149SOL     OW 6504   3.214   0.052   3.892
 2149SOL    HW1 6505   3.249   0.011   3.808
 2149SOL    HW2 6506   3.124   0.014   3.912
 2150SOL     OW 6507   3.162   0.453   4.415
 2150SOL    HW1 6508   3.103   0.533   4.419
 2150SOL    HW2 6509   3.177   0.418   4.508
 2151SOL     OW 6510   3.455   0.221   4.606
 2151SOL    HW1 6511   3.371   0.220   4.660
 2151SOL    HW2 6512   3.457   0.304   4.550
 2152SOL     OW 6513   1.901   1.077   4.024
 2152SOL    HW1 6514   2.000   1.066   4.015
 2152SOL    HW2 6515   1.861   0.991   4.056
 2153SOL     OW 6516   2.737   1.646   4.061
 2153SOL    HW1 6517   2.660   1.611   4.007
 2153SOL    HW2 6518   2.705   1.717   4.123
 2154SOL     OW 6519   2.092   2.490   0.113
 2154SOL    HW1 6520   1.999   2.488   0.150
 2154SOL    HW2 6521   2.093   2.451   0.021
 2155SOL     OW 6522   2.087   2.137   0.996
 2155SOL    HW1 6523   2.122   2.120   1.088
 2155SOL    HW2 6524   1.999   2.092   0.984
 2156SOL     OW 6525   1.881   2.230   0.647
 2156SOL    HW1 6526   1.799   2.273   0.686
 2156SOL    HW2 6527   1.853   2.157   0.584
 2157SOL     OW 6528   2.431   3.137   1.165
 2157SOL    HW1 6529   2.338   3.130   1.128
 2157SOL    HW2 6530   2.442   3.226   1.209
 2158SOL     OW 6531   3.417   3.373   0.703
 2158SOL    HW1 6532   3.360   3.357   0.784
 2158SOL    HW2 6533   3.358   3.383   0.623
 2159SOL     OW 6534   2.997   2.565   0.717
 2159SOL    HW1 6535   3.054   2.643   0.692
 2159SOL    HW2 6536   2.937   2.591   0.793
 2160SOL     OW 6537   3.617   2.469   0.231
 2160SOL    HW1 6538   3.605   2.456   0.132
 2160SOL    HW2 6539   3.587   2.388   0.280
 2161SOL     OW 6540   2.630   3.006   1.023
 2161SOL    HW1 6541   2.552   3.023   1.083
 2161SOL    HW2 6542   2.664   3.093   0.987
 2162SOL     OW 6543   2.712   2.660   1.823
 2162SOL    HW1 6544   2.708   2.736   1.888
 2162SOL    HW2 6545   2.734   2.696   1.732
 2163SOL     OW 6546   2.547   2.874   0.665
 2163SOL    HW1 6547   2.616   2.858   0.735
 2163SOL    HW2 6548   2.474   2.931   0.703
 2164SOL     OW 6549   2.548   3.023   1.803
 2164SOL    HW1 6550   2.608   3.102   1.817
 2164SOL    HW2 6551   2.462   3.054   1.762
 2165SOL     OW 6552   2.197   3.297   1.061
 2165SOL    HW1 6553   2.119   3.266   1.008
 2165SOL    HW2 6554   2.255   3.355   1.004
 2166SOL     OW 6555   3.322   3.367   1.339
 2166SOL    HW1 6556   3.346   3.461   1.365
 2166SOL    HW2 6557   3.306   3.313   1.421
 2167SOL     OW 6558   2.300   2.254   1.499
 2167SOL    HW1 6559   2.382   2.198   1.508
 2167SOL    HW2 6560   2.219   2.196   1.503
 2168SOL     OW 6561   3.465   2.309   0.737
 2168SOL    HW1 6562   3.391   2.355   0.687
 2168SOL    HW2 6563   3.516   2.377   0.790
 2169SOL     OW 6564   2.093   3.575   0.483
 2169SOL    HW1 6565   2.127   3.652   0.537
 2169SOL    HW2 6566   2.137   3.575   0.393
 2170SOL     OW 6567   2.989   3.203   1.690
 2170SOL    HW1 6568   3.036   3.203   1.778
 2170SOL    HW2 6569   2.941   3.116   1.679
 2171SOL     OW 6570   2.092   3.296   0.538
 2171SOL    HW1 6571   2.066   3.392   0.538
 2171SOL    HW2 6572   2.021   3.242   0.583
 2172SOL     OW 6573   2.102   2.953   0.886
 2172SOL    HW1 6574   2.116   2.869   0.938
 2172SOL    HW2 6575   2.047   3.017   0.941
 2173SOL     OW 6576   2.482   3.648   1.439
 2173SOL    HW1 6577   2.390   3.631   1.474
 2173SOL    HW2 6578   2.510   3.740   1.465
 2174SOL     OW 6579   2.468   2.826   0.123
 2174SOL    HW1 6580   2.475   2.910   0.069
 2174SOL    HW2 6581   2.514   2.839   0.211
 2175SOL     OW 6582   3.456   1.976   1.480
 2175SOL    HW1 6583   3.438   2.043   1.408
 2175SOL    HW2 6584   3.453   2.022   1.569
 2176SOL     OW 6585   1.984   2.505   0.563
 2176SOL    HW1 6586   1.939   2.417   0.580
 2176SOL    HW2 6587   1.983   2.559   0.647
 2177SOL     OW 6588   3.704   3.629   0.359
 2177SOL    HW1 6589   3.758   3.600   0.439
 2177SOL    HW2 6590   3.734   3.719   0.330
 2178SOL     OW 6591   1.889   3.458   0.117
 2178SOL    HW1 6592   1.870   3.362   0.138
 2178SOL    HW2 6593   1.856   3.516   0.192
 2179SOL     OW 6594   3.551   2.784   0.612
 2179SOL    HW1 6595   3.646   2.755   0.620
 2179SOL    HW2 6596   3.543   2.849   0.537
 2180SOL     OW 6597   3.503   2.970   0.432
 2180SOL    HW1 6598   3.589   2.972   0.380
 2180SOL    HW2 6599   3.517   3.017   0.520
 2181SOL     OW 6600   1.975   2.599   1.597
 2181SOL    HW1 6601   2.063   2.586   1.642
 2181SOL    HW2 6602   1.962   2.696   1.575
 2182SOL     OW 6603   2.475   3.227   0.726
 2182SOL    HW1 6604   2.426   3.140   0.735
 2182SOL    HW2 6605   2.452   3.270   0.639
 2183SOL     OW 6606   3.155   3.090   1.423
 2183SOL    HW1 6607   3.192   3.017   1.365
 2183SOL    HW2 6608   3.207   3.095   1.508
 2184SOL     OW 6609   2.671   1.866   0.502
 2184SOL    HW1 6610   2.711   1.957   0.493
 2184SOL    HW2 6611   2.571   1.874   0.508
 2185SOL     OW 6612   2.059   2.838   1.264
 2185SOL    HW1 6613   2.148   2.793   1.250
 2185SOL    HW2 6614   1.986   2.773   1.245
 2186SOL     OW 6615   3.387   2.861   0.190
 2186SOL    HW1 6616   3.324   2.785   0.203
 2186SOL    HW2 6617   3.435   2.879   0.276
 2187SOL     OW 6618   3.049   3.654   1.616
 2187SOL    HW1 6619   3.073   3.714   1.540
 2187SOL    HW2 6620   3.056   3.559   1.586
 2188SOL     OW 6621   2.179   2.113   1.801
 2188SOL    HW1 6622   2.250   2.184   1.807
 2188SOL    HW2 6623   2.091   2.152   1.829
 2189SOL     OW 6624   3.328   3.279   0.953
 2189SOL    HW1 6625   3.269   3.285   1.033
 2189SOL    HW2 6626   3.313   3.191   0.907
 2190SOL     OW 6627   3.529   3.576   0.572
 2190SOL    HW1 6628   3.488   3.553   0.484
 2190SOL    HW2 6629   3.511   3.502   0.637
 2191SOL     OW 6630   2.460   2.591   0.270
 2191SOL    HW1 6631   2.484   2.660   0.202
 2191SOL    HW2 6632   2.382   2.624   0.324
 2192SOL     OW 6633   3.143   2.207   0.944
 2192SOL    HW1 6634   3.057   2.157   0.931
 2192SOL    HW2 6635   3.205   2.153   1.000
 2193SOL     OW 6636   3.438   3.524   0.307
 2193SOL    HW1 6637   3.527   3.570   0.310
 2193SOL    HW2 6638   3.417   3.500   0.212
 2194SOL     OW 6639   2.669   2.467   1.465
 2194SOL    HW1 6640   2.622   2.464   1.554
 2194SOL    HW2 6641   2.618   2.412   1.399
 2195SOL     OW 6642   3.256   2.331   1.674
 2195SOL    HW1 6643   3.236   2.374   1.762
 2195SOL    HW2 6644   3.334   2.269   1.683
 2196SOL     OW 6645   2.835   2.752   1.572
 2196SOL    HW1 6646   2.881   2.668   1.543
 2196SOL    HW2 6647   2.779   2.786   1.497
 2197SOL     OW 6648   2.853   2.272   1.242
 2197SOL    HW1 6649   2.776   2.306   1.296
 2197SOL    HW2 6650   2.819   2.221   1.163
 2198SOL     OW 6651   2.903   2.563   0.429
 2198SOL    HW1 6652   2.929   2.559   0.525
 2198SOL    HW2 6653   2.818   2.512   0.415
 2199SOL     OW 6654   1.938   2.673   0.789
 2199SOL    HW1 6655   2.037   2.661   0.798
 2199SOL    HW2 6656   1.914   2.768   0.810
 2200SOL     OW 6657   1.992   3.683   1.571
 2200SOL    HW1 6658   1.982   3.668   1.670
 2200SOL    HW2 6659   1.906   3.719   1.535
 2201SOL     OW 6660   2.727   2.210   0.195
 2201SOL    HW1 6661   2.786   2.273   0.146
 2201SOL    HW2 6662   2.746   2.116   0.166
 2202SOL     OW 6663   3.581   2.447   1.831
 2202SOL    HW1 6664   3.555   2.536   1.795
 2202SOL    HW2 6665   3.579   2.379   1.758
 2203SOL     OW 6666   3.224   3.006   0.545
 2203SOL    HW1 6667   3.307   2.977   0.497
 2203SOL    HW2 6668   3.175   3.073   0.489
 2204SOL     OW 6669   2.412   2.058   0.885
 2204SOL    HW1 6670   2.407   2.053   0.985
 2204SOL    HW2 6671   2.414   2.154   0.856
 2205SOL     OW 6672   2.870   3.318   0.477
 2205SOL    HW1 6673   2.824   3.390   0.425
 2205SOL    HW2 6674   2.866   3.338   0.575
 2206SOL     OW 6675   2.213   3.663   0.853
 2206SOL    HW1 6676   2.263   3.577   0.859
 2206SOL    HW2 6677   2.278   3.740   0.850
 2207SOL     OW 6678   3.657   2.928   0.873
 2207SOL    HW1 6679   3.595   2.913   0.797
 2207SOL    HW2 6680   3.605   2.939   0.958
 2208SOL     OW 6681   3.089   3.412   1.506
 2208SOL    HW1 6682   3.095   3.335   1.570
 2208SOL    HW2 6683   3.037   3.386   1.426
 2209SOL     OW 6684   2.183   2.805   0.242
 2209SOL    HW1 6685   2.265   2.844   0.200
 2209SOL    HW2 6686   2.156   2.723   0.193
 2210SOL     OW 6687   3.320   2.597   0.728
 2210SOL    HW1 6688   3.315   2.532   0.803
 2210SOL    HW2 6689   3.400   2.656   0.741
 2211SOL     OW 6690   2.323   3.128   1.727
 2211SOL    HW1 6691   2.273   3.129   1.641
 2211SOL    HW2 6692   2.260   3.110   1.803
 2212SOL     OW 6693   2.973   3.638   0.237
 2212SOL    HW1 6694   2.913   3.576   0.287
 2212SOL    HW2 6695   3.004   3.594   0.152
 2213SOL     OW 6696   2.064   2.147   1.498
 2213SOL    HW1 6697   1.984   2.207   1.485
 2213SOL    HW2 6698   2.054   2.098   1.584
 2214SOL     OW 6699   3.494   3.239   0.081
 2214SOL    HW1 6700   3.462   3.333   0.071
 2214SOL    HW2 6701   3.418   3.176   0.069
 2215SOL     OW 6702   2.326   3.605   0.323
 2215SOL    HW1 6703   2.359   3.644   0.409
 2215SOL    HW2 6704   2.402   3.598   0.258
 2216SOL     OW 6705   3.262   1.969   0.426
 2216SOL    HW1 6706   3.238   1.932   0.336
 2216SOL    HW2 6707   3.361   1.985   0.430
 2217SOL     OW 6708   2.111   3.647   1.241
 2217SOL    HW1 6709   2.168   3.582   1.291
 2217SOL    HW2 6710   2.095   3.614   1.148
 2218SOL     OW 6711   2.802   3.560   0.904
 2218SOL    HW1 6712   2.882   3.503   0.925
 2218SOL    HW2 6713   2.753   3.520   0.827
 2219SOL     OW 6714   2.244   2.562   0.480
 2219SOL    HW1 6715   2.289   2.472   0.477
 2219SOL    HW2 6716   2.150   2.551   0.513
 2220SOL     OW 6717   3.409   2.084   1.729
 2220SOL    HW1 6718   3.404   2.121   1.821
 2220SOL    HW2 6719   3.337   2.015   1.717
 2221SOL     OW 6720   2.643   2.126   1.749
 2221SOL    HW1 6721   2.710   2.065   1.792
 2221SOL    HW2 6722   2.570   2.145   1.814
 2222SOL     OW 6723   2.750   3.376   1.195
 2222SOL    HW1 6724   2.727   3.351   1.101
 2222SOL    HW2 6725   2.811   3.307   1.234
 2223SOL     OW 6726   3.213   2.452   1.433
 2223SOL    HW1 6727   3.241   2.409   1.518
 2223SOL    HW2 6728   3.238   2.548   1.434
 2224SOL     OW 6729   2.665   3.264   0.924
 2224SOL    HW1 6730   2.755   3.278   0.882
 2224SOL    HW2 6731   2.594   3.266   0.853
 2225SOL     OW 6732   2.784   2.365   0.899
 2225SOL    HW1 6733   2.759   2.356   0.803
 2225SOL    HW2 6734   2.832   2.283   0.930
 2226SOL     OW 6735   2.401   1.926   0.512
 2226SOL    HW1 6736   2.320   1.927   0.570
 2226SOL    HW2 6737   2.404   2.009   0.457
 2227SOL     OW 6738   3.296   3.050   0.041
 2227SOL    HW1 6739   3.328   2.974   0.098
 2227SOL    HW2 6740   3.204   3.077   0.071
 2228SOL     OW 6741   2.159   1.897   0.171
 2228SOL    HW1 6742   2.208   1.981   0.150
 2228SOL    HW2 6743   2.221   1.832   0.216
 2229SOL     OW 6744   2.797   2.098   0.480
 2229SOL    HW1 6745   2.749   2.139   0.402
 2229SOL    HW2 6746   2.896   2.096   0.461
 2230SOL     OW 6747   2.938   2.545   1.464
 2230SOL    HW1 6748   2.858   2.484   1.467
 2230SOL    HW2 6749   3.019   2.492   1.440
 2231SOL     OW 6750   3.089   3.432   0.793
 2231SOL    HW1 6751   3.110   3.506   0.728
 2231SOL    HW2 6752   3.157   3.432   0.866
 2232SOL     OW 6753   2.321   3.014   0.741
 2232SOL    HW1 6754   2.250   2.987   0.806
 2232SOL    HW2 6755   2.295   2.986   0.648
 2233SOL     OW 6756   3.133   3.659   0.591
 2233SOL    HW1 6757   3.177   3.723   0.527
 2233SOL    HW2 6758   3.083   3.711   0.661
 2234SOL     OW 6759   2.894   2.411   0.016
 2234SOL    HW1 6760   2.853   2.493  -0.023
 2234SOL    HW2 6761   2.958   2.437   0.089
 2235SOL     OW 6762   1.940   2.418   1.386
 2235SOL    HW1 6763   2.032   2.417   1.345
 2235SOL    HW2 6764   1.934   2.492   1.453
 2236SOL     OW 6765   2.423   2.084   1.147
 2236SOL    HW1 6766   2.461   2.000   1.184
 2236SOL    HW2 6767   2.335   2.103   1.191
 2237SOL     OW 6768   2.728   2.316   0.642
 2237SOL    HW1 6769   2.696   2.388   0.580
 2237SOL    HW2 6770   2.752   2.235   0.589
 2238SOL     OW 6771   2.879   1.901   0.753
 2238SOL    HW1 6772   2.807   1.906   0.684
 2238SOL    HW2 6773   2.855   1.832   0.822
 2239SOL     OW 6774   3.291   3.035   0.867
 2239SOL    HW1 6775   3.236   2.951   0.860
 2239SOL    HW2 6776   3.317   3.064   0.775
 2240SOL     OW 6777   3.328   2.452   0.992
 2240SOL    HW1 6778   3.298   2.357   0.999
 2240SOL    HW2 6779   3.401   2.468   1.058
 2241SOL     OW 6780   3.719   2.695   0.377
 2241SOL    HW1 6781   3.761   2.631   0.441
 2241SOL    HW2 6782   3.681   2.644   0.299
 2242SOL     OW 6783   2.350   3.247   0.174
 2242SOL    HW1 6784   2.263   3.232   0.221
 2242SOL    HW2 6785   2.333   3.273   0.079
 2243SOL     OW 6786   3.526   3.142   0.657
 2243SOL    HW1 6787   3.625   3.150   0.671
 2243SOL    HW2 6788   3.481   3.226   0.688
 2244SOL     OW 6789   3.252   2.437   0.078
 2244SOL    HW1 6790   3.198   2.416   0.159
 2244SOL    HW2 6791   3.343   2.396   0.087
 2245SOL     OW 6792   2.389   2.118   0.328
 2245SOL    HW1 6793   2.416   2.059   0.253
 2245SOL    HW2 6794   2.389   2.213   0.297
 2246SOL     OW 6795   3.616   3.085   1.588
 2246SOL    HW1 6796   3.707   3.046   1.575
 2246SOL    HW2 6797   3.624   3.181   1.612
 2247SOL     OW 6798   2.926   3.209   1.340
 2247SOL    HW1 6799   2.846   3.186   1.395
 2247SOL    HW2 6800   3.009   3.183   1.389
 2248SOL     OW 6801   3.454   3.491   1.625
 2248SOL    HW1 6802   3.481   3.525   1.535
 2248SOL    HW2 6803   3.533   3.453   1.671
 2249SOL     OW 6804   2.973   3.057   1.100
 2249SOL    HW1 6805   2.933   3.101   1.181
 2249SOL    HW2 6806   2.932   3.094   1.017
 2250SOL     OW 6807   3.500   2.961   1.079
 2250SOL    HW1 6808   3.505   3.042   1.138
 2250SOL    HW2 6809   3.414   2.963   1.028
 2251SOL     OW 6810   2.777   1.951   1.402
 2251SOL    HW1 6811   2.802   1.931   1.307
 2251SOL    HW2 6812   2.849   2.007   1.444
 2252SOL     OW 6813   2.842   2.978   1.719
 2252SOL    HW1 6814   2.743   2.984   1.729
 2252SOL    HW2 6815   2.865   2.898   1.663
 2253SOL     OW 6816   2.567   2.912   0.368
 2253SOL    HW1 6817   2.553   2.919   0.467
 2253SOL    HW2 6818   2.651   2.861   0.350
 2254SOL     OW 6819   2.272   2.675   1.251
 2254SOL    HW1 6820   2.358   2.687   1.301
 2254SOL    HW2 6821   2.230   2.588   1.278
 2255SOL     OW 6822   3.136   2.248   1.262
 2255SOL    HW1 6823   3.157   2.322   1.326
 2255SOL    HW2 6824   3.047   2.265   1.219
 2256SOL     OW 6825   1.926   3.426   1.331
 2256SOL    HW1 6826   1.880   3.508   1.297
 2256SOL    HW2 6827   2.024   3.445   1.340
 2257SOL     OW 6828   2.229   2.962   0.501
 2257SOL    HW1 6829   2.222   3.045   0.445
 2257SOL    HW2 6830   2.233   2.882   0.441
 2258SOL     OW 6831   2.428   2.399   0.865
 2258SOL    HW1 6832   2.440   2.465   0.791
 2258SOL    HW2 6833   2.474   2.433   0.948
 2259SOL     OW 6834   3.114   3.210   0.388
 2259SOL    HW1 6835   3.164   3.287   0.428
 2259SOL    HW2 6836   3.019   3.212   0.420
 2260SOL     OW 6837   3.134   3.307   1.142
 2260SOL    HW1 6838   3.181   3.320   1.229
 2260SOL    HW2 6839   3.068   3.233   1.151
 2261SOL     OW 6840   3.444   2.501   0.472
 2261SOL    HW1 6841   3.413   2.562   0.545
 2261SOL    HW2 6842   3.494   2.553   0.403
 2262SOL     OW 6843   2.216   3.372   1.329
 2262SOL    HW1 6844   2.195   3.328   1.242
 2262SOL    HW2 6845   2.313   3.398   1.332
 2263SOL     OW 6846   2.264   2.613   1.598
 2263SOL    HW1 6847   2.332   2.668   1.551
 2263SOL    HW2 6848   2.304   2.525   1.625
 2264SOL     OW 6849   3.449   2.641   1.670
 2264SOL    HW1 6850   3.357   2.679   1.665
 2264SOL    HW2 6851   3.509   2.688   1.605
 2265SOL     OW 6852   2.875   1.967   1.770
 2265SOL    HW1 6853   2.881   2.052   1.718
 2265SOL    HW2 6854   2.907   1.891   1.713
 2266SOL     OW 6855   2.366   1.912   1.740
 2266SOL    HW1 6856   2.324   1.855   1.670
 2266SOL    HW2 6857   2.300   1.981   1.772
 2267SOL     OW 6858   2.435   2.732   1.029
 2267SOL    HW1 6859   2.479   2.821   1.020
 2267SOL    HW2 6860   2.372   2.732   1.106
 2268SOL     OW 6861   3.222   2.724   1.045
 2268SOL    HW1 6862   3.147   2.724   0.979
 2268SOL    HW2 6863   3.259   2.632   1.054
 2269SOL     OW 6864   3.071   2.387   0.275
 2269SOL    HW1 6865   3.084   2.303   0.329
 2269SOL    HW2 6866   3.042   2.461   0.335
 2270SOL     OW 6867   2.169   2.075   1.231
 2270SOL    HW1 6868   2.146   2.112   1.321
 2270SOL    HW2 6869   2.139   1.980   1.225
 2271SOL     OW 6870   1.899   3.172   1.282
 2271SOL    HW1 6871   1.952   3.123   1.350
 2271SOL    HW2 6872   1.921   3.270   1.287
 2272SOL     OW 6873   2.594   2.496   1.064
 2272SOL    HW1 6874   2.653   2.470   0.988
 2272SOL    HW2 6875   2.566   2.592   1.053
 2273SOL     OW 6876   3.590   2.797   1.854
 2273SOL    HW1 6877   3.544   2.790   1.765
 2273SOL    HW2 6878   3.528   2.841   1.920
 2274SOL     OW 6879   2.169   1.925   0.618
 2274SOL    HW1 6880   2.158   2.019   0.651
 2274SOL    HW2 6881   2.164   1.862   0.695
 2275SOL     OW 6882   3.484   2.229   0.374
 2275SOL    HW1 6883   3.486   2.153   0.438
 2275SOL    HW2 6884   3.436   2.306   0.414
 2276SOL     OW 6885   2.885   2.628   0.966
 2276SOL    HW1 6886   2.900   2.649   1.062
 2276SOL    HW2 6887   2.855   2.533   0.957
 2277SOL     OW 6888   2.842   3.435   1.700
 2277SOL    HW1 6889   2.822   3.479   1.612
 2277SOL    HW2 6890   2.881   3.344   1.684
 2278SOL     OW 6891   3.721   3.380   1.605
 2278SOL    HW1 6892   3.735   3.407   1.510
 2278SOL    HW2 6893   3.804   3.402   1.658
 2279SOL     OW 6894   2.212   2.760   1.804
 2279SOL    HW1 6895   2.288   2.804   1.852
 2279SOL    HW2 6896   2.247   2.713   1.722
 2280SOL     OW 6897   3.402   2.136   0.125
 2280SOL    HW1 6898   3.341   2.061   0.148
 2280SOL    HW2 6899   3.424   2.188   0.208
 2281SOL     OW 6900   3.165   2.700   0.042
 2281SOL    HW1 6901   3.199   2.607   0.057
 2281SOL    HW2 6902   3.183   2.727  -0.053
 2282SOL     OW 6903   2.930   3.195   0.849
 2282SOL    HW1 6904   2.937   3.111   0.794
 2282SOL    HW2 6905   2.992   3.264   0.813
 2283SOL     OW 6906   2.181   2.672   0.949
 2283SOL    HW1 6907   2.274   2.708   0.954
 2283SOL    HW2 6908   2.175   2.587   1.001
 2284SOL     OW 6909   2.201   2.371   1.006
 2284SOL    HW1 6910   2.149   2.288   0.989
 2284SOL    HW2 6911   2.278   2.376   0.942
 2285SOL     OW 6912   3.000   2.242   1.678
 2285SOL    HW1 6913   2.955   2.305   1.742
 2285SOL    HW2 6914   3.093   2.273   1.661
 2286SOL     OW 6915   3.022   2.069   1.477
 2286SOL    HW1 6916   3.022   2.133   1.554
 2286SOL    HW2 6917   3.050   2.117   1.394
 2287SOL     OW 6918   1.950   3.663   0.927
 2287SOL    HW1 6919   1.908   3.577   0.900
 2287SOL    HW2 6920   2.044   3.666   0.893
 2288SOL     OW 6921   2.366   3.430   0.910
 2288SOL    HW1 6922   2.432   3.504   0.919
 2288SOL    HW2 6923   2.410   3.351   0.868
 2289SOL     OW 6924   2.864   2.658   1.238
 2289SOL    HW1 6925   2.905   2.626   1.324
 2289SOL    HW2 6926   2.768   2.631   1.235
 2290SOL     OW 6927   1.902   2.406   1.114
 2290SOL    HW1 6928   1.987   2.373   1.073
 2290SOL    HW2 6929   1.915   2.421   1.212
 2291SOL     OW 6930   2.051   2.382   1.722
 2291SOL    HW1 6931   2.110   2.342   1.652
 2291SOL    HW2 6932   1.993   2.453   1.681
 2292SOL     OW 6933   3.231   2.812   1.660
 2292SOL    HW1 6934   3.270   2.901   1.680
 2292SOL    HW2 6935   3.241   2.792   1.563
 2293SOL     OW 6936   2.677   2.434   0.325
 2293SOL    HW1 6937   2.684   2.345   0.279
 2293SOL    HW2 6938   2.583   2.468   0.317
 2294SOL     OW 6939   3.519   2.466   1.206
 2294SOL    HW1 6940   3.481   2.397   1.268
 2294SOL    HW2 6941   3.601   2.430   1.162
 2295SOL     OW 6942   2.114   3.426   1.744
 2295SOL    HW1 6943   2.084   3.483   1.820
 2295SOL    HW2 6944   2.107   3.329   1.770
 2296SOL     OW 6945   2.533   2.326   1.269
 2296SOL    HW1 6946   2.499   2.237   1.239
 2296SOL    HW2 6947   2.559   2.380   1.189
 2297SOL     OW 6948   2.792   3.540   1.465
 2297SOL    HW1 6949   2.768   3.522   1.370
 2297SOL    HW2 6950   2.822   3.634   1.475
 2298SOL     OW 6951   2.335   2.362   0.191
 2298SOL    HW1 6952   2.396   2.442   0.195
 2298SOL    HW2 6953   2.240   2.393   0.198
 2299SOL     OW 6954   2.021   2.999   1.466
 2299SOL    HW1 6955   2.043   2.938   1.542
 2299SOL    HW2 6956   2.031   2.950   1.380
 2300SOL     OW 6957   3.209   2.921   1.234
 2300SOL    HW1 6958   3.233   2.858   1.160
 2300SOL    HW2 6959   3.119   2.961   1.216
 2301SOL     OW 6960   3.164   2.717   0.309
 2301SOL    HW1 6961   3.078   2.686   0.351
 2301SOL    HW2 6962   3.160   2.703   0.210
 2302SOL     OW 6963   3.621   3.609   1.154
 2302SOL    HW1 6964   3.682   3.639   1.081
 2302SOL    HW2 6965   3.583   3.520   1.132
 2303SOL     OW 6966   3.114   3.593   1.128
 2303SOL    HW1 6967   3.198   3.598   1.074
 2303SOL    HW2 6968   3.091   3.497   1.146
 2304SOL     OW 6969   1.945   3.120   1.022
 2304SOL    HW1 6970   1.940   3.119   1.122
 2304SOL    HW2 6971   1.862   3.079   0.984
 2305SOL     OW 6972   2.550   3.524   1.716
 2305SOL    HW1 6973   2.494   3.605   1.725
 2305SOL    HW2 6974   2.602   3.528   1.630
 2306SOL     OW 6975   2.765   1.948   0.133
 2306SOL    HW1 6976   2.816   1.949   0.047
 2306SOL    HW2 6977   2.821   1.906   0.204
 2307SOL     OW 6978   3.588   1.997   0.523
 2307SOL    HW1 6979   3.661   1.980   0.456
 2307SOL    HW2 6980   3.557   1.910   0.561
 2308SOL     OW 6981   3.250   3.435   0.477
 2308SOL    HW1 6982   3.317   3.447   0.403
 2308SOL    HW2 6983   3.210   3.524   0.500
 2309SOL     OW 6984   1.992   3.656   1.851
 2309SOL    HW1 6985   1.951   3.582   1.904
 2309SOL    HW2 6986   2.056   3.707   1.909
 2310SOL     OW 6987   3.142   2.789   0.672
 2310SOL    HW1 6988   3.202   2.708   0.674
 2310SOL    HW2 6989   3.182   2.858   0.612
 2311SOL     OW 6990   2.692   3.135   1.422
 2311SOL    HW1 6991   2.687   3.168   1.517
 2311SOL    HW2 6992   2.606   3.154   1.376
 2312SOL     OW 6993   2.534   3.478   0.154
 2312SOL    HW1 6994   2.543   3.488   0.055
 2312SOL    HW2 6995   2.494   3.389   0.175
 2313SOL     OW 6996   3.512   3.582   1.394
 2313SOL    HW1 6997   3.565   3.592   1.310
 2313SOL    HW2 6998   3.485   3.672   1.428
 2314SOL     OW 6999   3.703   2.037   0.963
 2314SOL    HW1 7000   3.742   1.952   0.927
 2314SOL    HW2 7001   3.605   2.039   0.944
 2315SOL     OW 7002   2.125   2.188   0.720
 2315SOL    HW1 7003   2.046   2.239   0.686
 2315SOL    HW2 7004   2.116   2.173   0.818
 2316SOL     OW 7005   3.056   3.474   0.031
 2316SOL    HW1 7006   3.062   3.381   0.068
 2316SOL    HW2 7007   2.997   3.474  -0.049
 2317SOL     OW 7008   2.684   2.864   1.372
 2317SOL    HW1 7009   2.724   2.863   1.280
 2317SOL    HW2 7010   2.694   2.956   1.412
 2318SOL     OW 7011   2.778   2.772   0.291
 2318SOL    HW1 7012   2.841   2.810   0.223
 2318SOL    HW2 7013   2.818   2.689   0.330
 2319SOL     OW 7014   3.366   3.469   0.044
 2319SOL    HW1 7015   3.274   3.506   0.051
 2319SOL    HW2 7016   3.404   3.489  -0.046
 2320SOL     OW 7017   2.234   3.150   1.490
 2320SOL    HW1 7018   2.221   3.243   1.456
 2320SOL    HW2 7019   2.150   3.098   1.477
 2321SOL     OW 7020   3.476   3.154   1.289
 2321SOL    HW1 7021   3.536   3.157   1.369
 2321SOL    HW2 7022   3.401   3.218   1.302
 2322SOL     OW 7023   2.901   2.960   0.696
 2322SOL    HW1 7024   2.831   2.913   0.750
 2322SOL    HW2 7025   2.960   2.892   0.653
 2323SOL     OW 7026   2.876   2.098   0.971
 2323SOL    HW1 7027   2.868   2.062   0.878
 2323SOL    HW2 7028   2.874   2.022   1.036
 2324SOL     OW 7029   2.452   3.349   0.491
 2324SOL    HW1 7030   2.494   3.291   0.421
 2324SOL    HW2 7031   2.408   3.428   0.447
 2325SOL     OW 7032   3.571   2.247   1.381
 2325SOL    HW1 7033   3.644   2.316   1.385
 2325SOL    HW2 7034   3.599   2.172   1.322
 2326SOL     OW 7035   2.117   3.210   0.290
 2326SOL    HW1 7036   2.021   3.211   0.263
 2326SOL    HW2 7037   2.129   3.263   0.374
 2327SOL     OW 7038   1.967   2.875   1.726
 2327SOL    HW1 7039   1.890   2.842   1.780
 2327SOL    HW2 7040   2.052   2.845   1.768
 2328SOL     OW 7041   2.534   2.065   1.489
 2328SOL    HW1 7042   2.624   2.049   1.449
 2328SOL    HW2 7043   2.542   2.070   1.588
 2329SOL     OW 7044   3.302   2.718   1.398
 2329SOL    HW1 7045   3.245   2.770   1.335
 2329SOL    HW2 7046   3.398   2.730   1.374
 2330SOL     OW 7047   1.934   2.028   0.318
 2330SOL    HW1 7048   1.917   2.111   0.264
 2330SOL    HW2 7049   2.024   1.991   0.296
 2331SOL     OW 7050   3.045   3.197   0.119
 2331SOL    HW1 7051   2.946   3.186   0.121
 2331SOL    HW2 7052   3.079   3.212   0.212
 2332SOL     OW 7053   2.475   2.704   1.431
 2332SOL    HW1 7054   2.531   2.785   1.414
 2332SOL    HW2 7055   2.534   2.624   1.434
 2333SOL     OW 7056   3.355   3.629   0.959
 2333SOL    HW1 7057   3.388   3.693   0.890
 2333SOL    HW2 7058   3.421   3.623   1.034
 2334SOL     OW 7059   2.578   2.427   1.708
 2334SOL    HW1 7060   2.597   2.492   1.782
 2334SOL    HW2 7061   2.638   2.347   1.717
 2335SOL     OW 7062   3.312   3.082   1.633
 2335SOL    HW1 7063   3.303   3.072   1.732
 2335SOL    HW2 7064   3.408   3.075   1.607
 2336SOL     OW 7065   2.252   3.603   1.560
 2336SOL    HW1 7066   2.161   3.644   1.558
 2336SOL    HW2 7067   2.245   3.509   1.592
 2337SOL     OW 7068   3.536   2.745   1.254
 2337SOL    HW1 7069   3.509   2.656   1.217
 2337SOL    HW2 7070   3.537   2.813   1.181
 2338SOL     OW 7071   3.087   2.187   0.449
 2338SOL    HW1 7072   3.152   2.113   0.438
 2338SOL    HW2 7073   3.107   2.237   0.533
 2339SOL     OW 7074   2.456   2.607   0.652
 2339SOL    HW1 7075   2.506   2.692   0.633
 2339SOL    HW2 7076   2.368   2.609   0.604
 2340SOL     OW 7077   3.639   2.204   1.642
 2340SOL    HW1 7078   3.622   2.235   1.548
 2340SOL    HW2 7079   3.555   2.167   1.680
 2341SOL     OW 7080   3.592   2.796   1.517
 2341SOL    HW1 7081   3.630   2.887   1.532
 2341SOL    HW2 7082   3.584   2.779   1.418
 2342SOL     OW 7083   2.721   3.236   0.016
 2342SOL    HW1 7084   2.675   3.251   0.104
 2342SOL    HW2 7085   2.765   3.321  -0.014
 2343SOL     OW 7086   2.523   3.652   0.953
 2343SOL    HW1 7087   2.477   3.740   0.940
 2343SOL    HW2 7088   2.622   3.664   0.946
 2344SOL     OW 7089   2.721   2.818   0.861
 2344SOL    HW1 7090   2.775   2.749   0.909
 2344SOL    HW2 7091   2.689   2.887   0.927
 2345SOL     OW 7092   2.945   2.846   0.087
 2345SOL    HW1 7093   2.922   2.899   0.005
 2345SOL    HW2 7094   3.026   2.790   0.068
 2346SOL     OW 7095   3.723   3.431   0.851
 2346SOL    HW1 7096   3.652   3.419   0.781
 2346SOL    HW2 7097   3.724   3.352   0.911
 2347SOL     OW 7098   2.083   3.176   1.844
 2347SOL    HW1 7099   2.018   3.103   1.823
 2347SOL    HW2 7100   2.087   3.190   1.942
 2348SOL     OW 7101   1.941   3.102   0.653
 2348SOL    HW1 7102   1.940   3.055   0.741
 2348SOL    HW2 7103   2.023   3.074   0.602
 2349SOL     OW 7104   2.534   3.253   1.624
 2349SOL    HW1 7105   2.456   3.203   1.662
 2349SOL    HW2 7106   2.531   3.348   1.655
 2350SOL     OW 7107   3.686   2.054   1.227
 2350SOL    HW1 7108   3.682   1.964   1.271
 2350SOL    HW2 7109   3.689   2.043   1.128
 2351SOL     OW 7110   2.290   2.286   0.520
 2351SOL    HW1 7111   2.320   2.214   0.458
 2351SOL    HW2 7112   2.251   2.246   0.603
 2352SOL     OW 7113   3.567   3.349   1.104
 2352SOL    HW1 7114   3.474   3.324   1.077
 2352SOL    HW2 7115   3.593   3.299   1.186
 2353SOL     OW 7116   2.179   2.409   1.280
 2353SOL    HW1 7117   2.217   2.350   1.352
 2353SOL    HW2 7118   2.219   2.383   1.192
 2354SOL     OW 7119   2.674   3.448   0.687
 2354SOL    HW1 7120   2.706   3.458   0.593
 2354SOL    HW2 7121   2.595   3.386   0.689
 2355SOL     OW 7122   3.286   2.076   1.112
 2355SOL    HW1 7123   3.338   2.011   1.167
 2355SOL    HW2 7124   3.237   2.139   1.173
 2356SOL     OW 7125   2.863   1.896   1.154
 2356SOL    HW1 7126   2.800   1.824   1.123
 2356SOL    HW2 7127   2.956   1.860   1.154
 2357SOL     OW 7128   2.632   3.192   0.301
 2357SOL    HW1 7129   2.586   3.105   0.318
 2357SOL    HW2 7130   2.723   3.189   0.342
 2358SOL     OW 7131   2.480   3.429   1.284
 2358SOL    HW1 7132   2.475   3.511   1.341
 2358SOL    HW2 7133   2.569   3.426   1.239
 2359SOL     OW 7134   3.214   1.914   0.168
 2359SOL    HW1 7135   3.249   1.873   0.084
 2359SOL    HW2 7136   3.124   1.876   0.188
 2360SOL     OW 7137   3.162   2.315   0.691
 2360SOL    HW1 7138   3.103   2.395   0.695
 2360SOL    HW2 7139   3.177   2.280   0.784
 2361SOL     OW 7140   3.455   2.083   0.882
 2361SOL    HW1 7141   3.371   2.082   0.936
 2361SOL    HW2 7142   3.457   2.166   0.826
 2362SOL     OW 7143   1.901   2.939   0.300
 2362SOL    HW1 7144   2.000   2.928   0.291
 2362SOL    HW2 7145   1.861   2.853   0.332
 2363SOL     OW 7146   2.737   3.508   0.337
 2363SOL    HW1 7147   2.660   3.473   0.283
 2363SOL    HW2 7148   2.705   3.579   0.399
 2364SOL     OW 7149   2.092   2.490   1.975
 2364SOL    HW1 7150   1.999   2.488   2.012
 2364SOL    HW2 7151   2.093   2.451   1.883
 2365SOL     OW 7152   2.087   2.137   2.858
 2365SOL    HW1 7153   2.122   2.120   2.950
 2365SOL    HW2 7154   1.999   2.092   2.846
 2366SOL     OW 7155   1.881   2.230   2.509
 2366SOL    HW1 7156   1.799   2.273   2.548
 2366SOL    HW2 7157   1.853   2.157   2.446
 2367SOL     OW 7158   2.431   3.137   3.027
 2367SOL    HW1 7159   2.338   3.130   2.990
 2367SOL    HW2 7160   2.442   3.226   3.071
 2368SOL     OW 7161   3.417   3.373   2.565
 2368SOL    HW1 7162   3.360   3.357   2.646
 2368SOL    HW2 7163   3.358   3.383   2.485
 2369SOL     OW 7164   3.617   2.469   2.093
 2369SOL    HW1 7165   3.605   2.456   1.994
 2369SOL    HW2 7166   3.587   2.388   2.142
 2370SOL     OW 7167   2.630   3.006   2.885
 2370SOL    HW1 7168   2.552   3.023   2.945
 2370SOL    HW2 7169   2.664   3.093   2.849
 2371SOL     OW 7170   2.712   2.660   3.685
 2371SOL    HW1 7171   2.708   2.736   3.750
 2371SOL    HW2 7172   2.734   2.696   3.594
 2372SOL     OW 7173   2.548   3.023   3.665
 2372SOL    HW1 7174   2.608   3.102   3.679
 2372SOL    HW2 7175   2.462   3.054   3.624
 2373SOL     OW 7176   2.197   3.297   2.923
 2373SOL    HW1 7177   2.119   3.266   2.870
 2373SOL    HW2 7178   2.255   3.355   2.866
 2374SOL     OW 7179   3.322   3.367   3.201
 2374SOL    HW1 7180   3.346   3.461   3.227
 2374SOL    HW2 7181   3.306   3.313   3.283
 2375SOL     OW 7182   2.300   2.254   3.361
 2375SOL    HW1 7183   2.382   2.198   3.370
 2375SOL    HW2 7184   2.219   2.196   3.365
 2376SOL     OW 7185   3.465   2.309   2.599
 2376SOL    HW1 7186   3.391   2.355   2.549
 2376SOL    HW2 7187   3.516   2.377   2.652
 2377SOL     OW 7188   2.093   3.575   2.345
 2377SOL    HW1 7189   2.127   3.652   2.399
 2377SOL    HW2 7190   2.137   3.575   2.255
 2378SOL     OW 7191   2.989   3.203   3.552
 2378SOL    HW1 7192   3.036   3.203   3.640
 2378SOL    HW2 7193   2.941   3.116   3.541
 2379SOL     OW 7194   2.092   3.296   2.400
 2379SOL    HW1 7195   2.066   3.392   2.400
 2379SOL    HW2 7196   2.021   3.242   2.445
 2380SOL     OW 7197   2.102   2.953   2.748
 2380SOL    HW1 7198   2.116   2.869   2.800
 2380SOL    HW2 7199   2.047   3.017   2.803
 2381SOL     OW 7200   2.482   3.648   3.301
 2381SOL    HW1 7201   2.390   3.631   3.336
 2381SOL    HW2 7202   2.510   3.740   3.327
 2382SOL     OW 7203   2.468   2.826   1.985
 2382SOL    HW1 7204   2.475   2.910   1.931
 2382SOL    HW2 7205   2.514   2.839   2.073
 2383SOL     OW 7206   3.456   1.976   3.342
 2383SOL    HW1 7207   3.438   2.043   3.270
 2383SOL    HW2 7208   3.453   2.022   3.431
 2384SOL     OW 7209   3.704   3.629   2.221
 2384SOL    HW1 7210   3.758   3.600   2.301
 2384SOL    HW2 7211   3.734   3.719   2.192
 2385SOL     OW 7212   1.889   3.458   1.979
 2385SOL    HW1 7213   1.870   3.362   2.000
 2385SOL    HW2 7214   1.856   3.516   2.054
 2386SOL     OW 7215   3.551   2.784   2.474
 2386SOL    HW1 7216   3.646   2.755   2.482
 2386SOL    HW2 7217   3.543   2.849   2.399
 2387SOL     OW 7218   3.503   2.970   2.294
 2387SOL    HW1 7219   3.589   2.972   2.242
 2387SOL    HW2 7220   3.517   3.017   2.382
 2388SOL     OW 7221   1.975   2.599   3.459
 2388SOL    HW1 7222   2.063   2.586   3.504
 2388SOL    HW2 7223   1.962   2.696   3.437
 2389SOL     OW 7224   2.475   3.227   2.588
 2389SOL    HW1 7225   2.426   3.140   2.597
 2389SOL    HW2 7226   2.452   3.270   2.501
 2390SOL     OW 7227   3.155   3.090   3.285
 2390SOL    HW1 7228   3.192   3.017   3.227
 2390SOL    HW2 7229   3.207   3.095   3.370
 2391SOL     OW 7230   2.671   1.866   2.364
 2391SOL    HW1 7231   2.711   1.957   2.355
 2391SOL    HW2 7232   2.571   1.874   2.370
 2392SOL     OW 7233   2.059   2.838   3.126
 2392SOL    HW1 7234   2.148   2.793   3.112
 2392SOL    HW2 7235   1.986   2.773   3.107
 2393SOL     OW 7236   3.387   2.861   2.052
 2393SOL    HW1 7237   3.324   2.785   2.065
 2393SOL    HW2 7238   3.435   2.879   2.138
 2394SOL     OW 7239   3.049   3.654   3.478
 2394SOL    HW1 7240   3.073   3.714   3.402
 2394SOL    HW2 7241   3.056   3.559   3.448
 2395SOL     OW 7242   2.179   2.113   3.663
 2395SOL    HW1 7243   2.250   2.184   3.669
 2395SOL    HW2 7244   2.091   2.152   3.691
 2396SOL     OW 7245   3.328   3.279   2.815
 2396SOL    HW1 7246   3.269   3.285   2.895
 2396SOL    HW2 7247   3.313   3.191   2.769
 2397SOL     OW 7248   3.529   3.576   2.434
 2397SOL    HW1 7249   3.488   3.553   2.346
 2397SOL    HW2 7250   3.511   3.502   2.499
 2398SOL     OW 7251   2.460   2.591   2.132
 2398SOL    HW1 7252   2.484   2.660   2.064
 2398SOL    HW2 7253   2.382   2.624   2.186
 2399SOL     OW 7254   3.143   2.207   2.806
 2399SOL    HW1 7255   3.057   2.157   2.793
 2399SOL    HW2 7256   3.205   2.153   2.862
 2400SOL     OW 7257   3.438   3.524   2.169
 2400SOL    HW1 7258   3.527   3.570   2.172
 2400SOL    HW2 7259   3.417   3.500   2.074
 2401SOL     OW 7260   2.669   2.467   3.327
 2401SOL    HW1 7261   2.622   2.464   3.416
 2401SOL    HW2 7262   2.618   2.412   3.261
 2402SOL     OW 7263   3.256   2.331   3.536
 2402SOL    HW1 7264   3.236   2.374   3.624
 2402SOL    HW2 7265   3.334   2.269   3.545
 2403SOL     OW 7266   2.835   2.752   3.434
 2403SOL    HW1 7267   2.881   2.668   3.405
 2403SOL    HW2 7268   2.779   2.786   3.359
 2404SOL     OW 7269   2.853   2.272   3.104
 2404SOL    HW1 7270   2.776   2.306   3.158
 2404SOL    HW2 7271   2.819   2.221   3.025
 2405SOL     OW 7272   2.903   2.563   2.291
 2405SOL    HW1 7273   2.929   2.559   2.387
 2405SOL    HW2 7274   2.818   2.512   2.277
 2406SOL     OW 7275   1.938   2.673   2.651
 2406SOL    HW1 7276   2.037   2.661   2.660
 2406SOL    HW2 7277   1.914   2.768   2.672
 2407SOL     OW 7278   1.992   3.683   3.433
 2407SOL    HW1 7279   1.982   3.668   3.532
 2407SOL    HW2 7280   1.906   3.719   3.397
 2408SOL     OW 7281   2.727   2.210   2.057
 2408SOL    HW1 7282   2.786   2.273   2.008
 2408SOL    HW2 7283   2.746   2.116   2.028
 2409SOL     OW 7284   3.581   2.447   3.693
 2409SOL    HW1 7285   3.555   2.536   3.657
 2409SOL    HW2 7286   3.579   2.379   3.620
 2410SOL     OW 7287   3.224   3.006   2.407
 2410SOL    HW1 7288   3.307   2.977   2.359
 2410SOL    HW2 7289   3.175   3.073   2.351
 2411SOL     OW 7290   2.412   2.058   2.747
 2411SOL    HW1 7291   2.407   2.053   2.847
 2411SOL    HW2 7292   2.414   2.154   2.718
 2412SOL     OW 7293   2.870   3.318   2.339
 2412SOL    HW1 7294   2.824   3.390   2.287
 2412SOL    HW2 7295   2.866   3.338   2.437
 2413SOL     OW 7296   2.213   3.663   2.715
 2413SOL    HW1 7297   2.263   3.577   2.721
 2413SOL    HW2 7298   2.278   3.740   2.712
 2414SOL     OW 7299   3.657   2.928   2.735
 2414SOL    HW1 7300   3.595   2.913   2.659
 2414SOL    HW2 7301   3.605   2.939   2.820
 2415SOL     OW 7302   3.089   3.412   3.368
 2415SOL    HW1 7303   3.095   3.335   3.432
 2415SOL    HW2 7304   3.037   3.386   3.288
 2416SOL     OW 7305   2.183   2.805   2.104
 2416SOL    HW1 7306   2.265   2.844   2.062
 2416SOL    HW2 7307   2.156   2.723   2.055
 2417SOL     OW 7308   3.320   2.597   2.590
 2417SOL    HW1 7309   3.315   2.532   2.665
 2417SOL    HW2 7310   3.400   2.656   2.603
 2418SOL     OW 7311   2.323   3.128   3.589
 2418SOL    HW1 7312   2.273   3.129   3.503
 2418SOL    HW2 7313   2.260   3.110   3.665
 2419SOL     OW 7314   2.973   3.638   2.099
 2419SOL    HW1 7315   2.913   3.576   2.149
 2419SOL    HW2 7316   3.004   3.594   2.014
 2420SOL     OW 7317   2.064   2.147   3.360
 2420SOL    HW1 7318   1.984   2.207   3.347
 2420SOL    HW2 7319   2.054   2.098   3.446
 2421SOL     OW 7320   3.494   3.239   1.943
 2421SOL    HW1 7321   3.462   3.333   1.933
 2421SOL    HW2 7322   3.418   3.176   1.931
 2422SOL     OW 7323   2.326   3.605   2.185
 2422SOL    HW1 7324   2.359   3.644   2.271
 2422SOL    HW2 7325   2.402   3.598   2.120
 2423SOL     OW 7326   3.262   1.969   2.288
 2423SOL    HW1 7327   3.238   1.932   2.198
 2423SOL    HW2 7328   3.361   1.985   2.292
 2424SOL     OW 7329   2.111   3.647   3.103
 2424SOL    HW1 7330   2.168   3.582   3.153
 2424SOL    HW2 7331   2.095   3.614   3.010
 2425SOL     OW 7332   2.802   3.560   2.766
 2425SOL    HW1 7333   2.882   3.503   2.787
 2425SOL    HW2 7334   2.753   3.520   2.689
 2426SOL     OW 7335   2.244   2.562   2.342
 2426SOL    HW1 7336   2.289   2.472   2.339
 2426SOL    HW2 7337   2.150   2.551   2.375
 2427SOL     OW 7338   3.409   2.084   3.591
 2427SOL    HW1 7339   3.404   2.121   3.683
 2427SOL    HW2 7340   3.337   2.015   3.579
 2428SOL     OW 7341   2.476   1.984   1.979
 2428SOL    HW1 7342   2.574   1.962   1.986
 2428SOL    HW2 7343   2.445   1.967   1.886
 2429SOL     OW 7344   2.643   2.126   3.611
 2429SOL    HW1 7345   2.710   2.065   3.654
 2429SOL    HW2 7346   2.570   2.145   3.676
 2430SOL     OW 7347   2.750   3.376   3.057
 2430SOL    HW1 7348   2.727   3.351   2.963
 2430SOL    HW2 7349   2.811   3.307   3.096
 2431SOL     OW 7350   3.213   2.452   3.295
 2431SOL    HW1 7351   3.241   2.409   3.380
 2431SOL    HW2 7352   3.238   2.548   3.296
 2432SOL     OW 7353   2.665   3.264   2.786
 2432SOL    HW1 7354   2.755   3.278   2.744
 2432SOL    HW2 7355   2.594   3.266   2.715
 2433SOL     OW 7356   2.401   1.926   2.374
 2433SOL    HW1 7357   2.320   1.927   2.432
 2433SOL    HW2 7358   2.404   2.009   2.319
 2434SOL     OW 7359   3.296   3.050   1.903
 2434SOL    HW1 7360   3.328   2.974   1.960
 2434SOL    HW2 7361   3.204   3.077   1.933
 2435SOL     OW 7362   2.159   1.897   2.033
 2435SOL    HW1 7363   2.208   1.981   2.012
 2435SOL    HW2 7364   2.221   1.832   2.078
 2436SOL     OW 7365   2.797   2.098   2.342
 2436SOL    HW1 7366   2.749   2.139   2.264
 2436SOL    HW2 7367   2.896   2.096   2.323
 2437SOL     OW 7368   2.938   2.545   3.326
 2437SOL    HW1 7369   2.858   2.484   3.329
 2437SOL    HW2 7370   3.019   2.492   3.302
 2438SOL     OW 7371   3.089   3.432   2.655
 2438SOL    HW1 7372   3.110   3.506   2.590
 2438SOL    HW2 7373   3.157   3.432   2.728
 2439SOL     OW 7374   2.321   3.014   2.603
 2439SOL    HW1 7375   2.250   2.987   2.668
 2439SOL    HW2 7376   2.295   2.986   2.510
 2440SOL     OW 7377   3.133   3.659   2.453
 2440SOL    HW1 7378   3.177   3.723   2.389
 2440SOL    HW2 7379   3.083   3.711   2.523
 2441SOL     OW 7380   2.894   2.411   1.878
 2441SOL    HW1 7381   2.853   2.493   1.839
 2441SOL    HW2 7382   2.958   2.437   1.951
 2442SOL     OW 7383   1.940   2.418   3.248
 2442SOL    HW1 7384   2.032   2.417   3.207
 2442SOL    HW2 7385   1.934   2.492   3.315
 2443SOL     OW 7386   2.423   2.084   3.009
 2443SOL    HW1 7387   2.461   2.000   3.046
 2443SOL    HW2 7388   2.335   2.103   3.053
 2444SOL     OW 7389   2.879   1.901   2.615
 2444SOL    HW1 7390   2.807   1.906   2.546
 2444SOL    HW2 7391   2.855   1.832   2.684
 2445SOL     OW 7392   3.291   3.035   2.729
 2445SOL    HW1 7393   3.236   2.951   2.722
 2445SOL    HW2 7394   3.317   3.064   2.637
 2446SOL     OW 7395   3.328   2.452   2.854
 2446SOL    HW1 7396   3.298   2.357   2.861
 2446SOL    HW2 7397   3.401   2.468   2.920
 2447SOL     OW 7398   3.719   2.695   2.239
 2447SOL    HW1 7399   3.761   2.631   2.303
 2447SOL    HW2 7400   3.681   2.644   2.161
 2448SOL     OW 7401   2.350   3.247   2.036
 2448SOL    HW1 7402   2.263   3.232   2.083
 2448SOL    HW2 7403   2.333   3.273   1.941
 2449SOL     OW 7404   3.526   3.142   2.519
 2449SOL    HW1 7405   3.625   3.150   2.533
 2449SOL    HW2 7406   3.481   3.226   2.550
 2450SOL     OW 7407   3.252   2.437   1.940
 2450SOL    HW1 7408   3.198   2.416   2.021
 2450SOL    HW2 7409   3.343   2.396   1.949
 2451SOL     OW 7410   2.389   2.118   2.190
 2451SOL    HW1 7411   2.416   2.059   2.115
 2451SOL    HW2 7412   2.389   2.213   2.159
 2452SOL     OW 7413   3.616   3.085   3.450
 2452SOL    HW1 7414   3.707   3.046   3.437
 2452SOL    HW2 7415   3.624   3.181   3.474
 2453SOL     OW 7416   2.926   3.209   3.202
 2453SOL    HW1 7417   2.846   3.186   3.257
 2453SOL    HW2 7418   3.009   3.183   3.251
 2454SOL     OW 7419   3.454   3.491   3.487
 2454SOL    HW1 7420   3.481   3.525   3.397
 2454SOL    HW2 7421   3.533   3.453   3.533
 2455SOL     OW 7422   2.973   3.057   2.962
 2455SOL    HW1 7423   2.933   3.101   3.043
 2455SOL    HW2 7424   2.932   3.094   2.879
 2456SOL     OW 7425   3.500   2.961   2.941
 2456SOL    HW1 7426   3.505   3.042   3.000
 2456SOL    HW2 7427   3.414   2.963   2.890
 2457SOL     OW 7428   2.777   1.951   3.264
 2457SOL    HW1 7429   2.802   1.931   3.169
 2457SOL    HW2 7430   2.849   2.007   3.306
 2458SOL     OW 7431   2.842   2.978   3.581
 2458SOL    HW1 7432   2.743   2.984   3.591
 2458SOL    HW2 7433   2.865   2.898   3.525
 2459SOL     OW 7434   2.272   2.675   3.113
 2459SOL    HW1 7435   2.358   2.687   3.163
 2459SOL    HW2 7436   2.230   2.588   3.140
 2460SOL     OW 7437   3.136   2.248   3.124
 2460SOL    HW1 7438   3.157   2.322   3.188
 2460SOL    HW2 7439   3.047   2.265   3.081
 2461SOL     OW 7440   1.926   3.426   3.193
 2461SOL    HW1 7441   1.880   3.508   3.159
 2461SOL    HW2 7442   2.024   3.445   3.202
 2462SOL     OW 7443   2.229   2.962   2.363
 2462SOL    HW1 7444   2.222   3.045   2.307
 2462SOL    HW2 7445   2.233   2.882   2.303
 2463SOL     OW 7446   3.114   3.210   2.250
 2463SOL    HW1 7447   3.164   3.287   2.290
 2463SOL    HW2 7448   3.019   3.212   2.282
 2464SOL     OW 7449   3.134   3.307   3.004
 2464SOL    HW1 7450   3.181   3.320   3.091
 2464SOL    HW2 7451   3.068   3.233   3.013
 2465SOL     OW 7452   3.444   2.501   2.334
 2465SOL    HW1 7453   3.413   2.562   2.407
 2465SOL    HW2 7454   3.494   2.553   2.265
 2466SOL     OW 7455   2.216   3.372   3.191
 2466SOL    HW1 7456   2.195   3.328   3.104
 2466SOL    HW2 7457   2.313   3.398   3.194
 2467SOL     OW 7458   2.264   2.613   3.460
 2467SOL    HW1 7459   2.332   2.668   3.413
 2467SOL    HW2 7460   2.304   2.525   3.487
 2468SOL     OW 7461   3.449   2.641   3.532
 2468SOL    HW1 7462   3.357   2.679   3.527
 2468SOL    HW2 7463   3.509   2.688   3.467
 2469SOL     OW 7464   2.875   1.967   3.632
 2469SOL    HW1 7465   2.881   2.052   3.580
 2469SOL    HW2 7466   2.907   1.891   3.575
 2470SOL     OW 7467   2.366   1.912   3.602
 2470SOL    HW1 7468   2.324   1.855   3.532
 2470SOL    HW2 7469   2.300   1.981   3.634
 2471SOL     OW 7470   2.435   2.732   2.891
 2471SOL    HW1 7471   2.479   2.821   2.882
 2471SOL    HW2 7472   2.372   2.732   2.968
 2472SOL     OW 7473   3.222   2.724   2.907
 2472SOL    HW1 7474   3.147   2.724   2.841
 2472SOL    HW2 7475   3.259   2.632   2.916
 2473SOL     OW 7476   3.071   2.387   2.137
 2473SOL    HW1 7477   3.084   2.303   2.191
 2473SOL    HW2 7478   3.042   2.461   2.197
 2474SOL     OW 7479   2.169   2.075   3.093
 2474SOL    HW1 7480   2.146   2.112   3.183
 2474SOL    HW2 7481   2.139   1.980   3.087
 2475SOL     OW 7482   1.899   3.172   3.144
 2475SOL    HW1 7483   1.952   3.123   3.212
 2475SOL    HW2 7484   1.921   3.270   3.149
 2476SOL     OW 7485   3.590   2.797   3.716
 2476SOL    HW1 7486   3.544   2.790   3.627
 2476SOL    HW2 7487   3.528   2.841   3.782
 2477SOL     OW 7488   2.169   1.925   2.480
 2477SOL    HW1 7489   2.158   2.019   2.513
 2477SOL    HW2 7490   2.164   1.862   2.557
 2478SOL     OW 7491   3.484   2.229   2.236
 2478SOL    HW1 7492   3.486   2.153   2.300
 2478SOL    HW2 7493   3.436   2.306   2.276
 2479SOL     OW 7494   2.885   2.628   2.828
 2479SOL    HW1 7495   2.900   2.649   2.924
 2479SOL    HW2 7496   2.855   2.533   2.819
 2480SOL     OW 7497   2.842   3.435   3.562
 2480SOL    HW1 7498   2.822   3.479   3.474
 2480SOL    HW2 7499   2.881   3.344   3.546
 2481SOL     OW 7500   3.721   3.380   3.467
 2481SOL    HW1 7501   3.735   3.407   3.372
 2481SOL    HW2 7502   3.804   3.402   3.520
 2482SOL     OW 7503   2.212   2.760   3.666
 2482SOL    HW1 7504   2.288   2.804   3.714
 2482SOL    HW2 7505   2.247   2.713   3.584
 2483SOL     OW 7506   3.402   2.136   1.987
 2483SOL    HW1 7507   3.341   2.061   2.010
 2483SOL    HW2 7508   3.424   2.188   2.070
 2484SOL     OW 7509   3.165   2.700   1.904
 2484SOL    HW1 7510   3.199   2.607   1.919
 2484SOL    HW2 7511   3.183   2.727   1.809
 2485SOL     OW 7512   2.930   3.195   2.711
 2485SOL    HW1 7513   2.937   3.111   2.656
 2485SOL    HW2 7514   2.992   3.264   2.675
 2486SOL     OW 7515   2.181   2.672   2.811
 2486SOL    HW1 7516   2.274   2.708   2.816
 2486SOL    HW2 7517   2.175   2.587   2.863
 2487SOL     OW 7518   2.201   2.371   2.868
 2487SOL    HW1 7519   2.149   2.288   2.851
 2487SOL    HW2 7520   2.278   2.376   2.804
 2488SOL     OW 7521   3.000   2.242   3.540
 2488SOL    HW1 7522   2.955   2.305   3.604
 2488SOL    HW2 7523   3.093   2.273   3.523
 2489SOL     OW 7524   3.022   2.069   3.339
 2489SOL    HW1 7525   3.022   2.133   3.416
 2489SOL    HW2 7526   3.050   2.117   3.256
 2490SOL     OW 7527   1.870   3.188   2.062
 2490SOL    HW1 7528   1.777   3.209   2.031
 2490SOL    HW2 7529   1.880   3.089   2.075
 2491SOL     OW 7530   1.950   3.663   2.789
 2491SOL    HW1 7531   1.908   3.577   2.762
 2491SOL    HW2 7532   2.044   3.666   2.755
 2492SOL     OW 7533   2.366   3.430   2.772
 2492SOL    HW1 7534   2.432   3.504   2.781
 2492SOL    HW2 7535   2.410   3.351   2.730
 2493SOL     OW 7536   2.864   2.658   3.100
 2493SOL    HW1 7537   2.905   2.626   3.186
 2493SOL    HW2 7538   2.768   2.631   3.097
 2494SOL     OW 7539   1.902   2.406   2.976
 2494SOL    HW1 7540   1.987   2.373   2.935
 2494SOL    HW2 7541   1.915   2.421   3.074
 2495SOL     OW 7542   2.051   2.382   3.584
 2495SOL    HW1 7543   2.110   2.342   3.514
 2495SOL    HW2 7544   1.993   2.453   3.543
 2496SOL     OW 7545   3.231   2.812   3.522
 2496SOL    HW1 7546   3.270   2.901   3.542
 2496SOL    HW2 7547   3.241   2.792   3.425
 2497SOL     OW 7548   2.677   2.434   2.187
 2497SOL    HW1 7549   2.684   2.345   2.141
 2497SOL    HW2 7550   2.583   2.468   2.179
 2498SOL     OW 7551   3.519   2.466   3.068
 2498SOL    HW1 7552   3.481   2.397   3.130
 2498SOL    HW2 7553   3.601   2.430   3.024
 2499SOL     OW 7554   2.114   3.426   3.606
 2499SOL    HW1 7555   2.084   3.483   3.682
 2499SOL    HW2 7556   2.107   3.329   3.632
 2500SOL     OW 7557   2.533   2.326   3.131
 2500SOL    HW1 7558   2.499   2.237   3.101
 2500SOL    HW2 7559   2.559   2.380   3.051
 2501SOL     OW 7560   2.792   3.540   3.327
 2501SOL    HW1 7561   2.768   3.522   3.232
 2501SOL    HW2 7562   2.822   3.634   3.337
 2502SOL     OW 7563   2.335   2.362   2.053
 2502SOL    HW1 7564   2.396   2.442   2.057
 2502SOL    HW2 7565   2.240   2.393   2.060
 2503SOL     OW 7566   2.021   2.999   3.328
 2503SOL    HW1 7567   2.043   2.938   3.404
 2503SOL    HW2 7568   2.031   2.950   3.242
 2504SOL     OW 7569   3.209   2.921   3.096
 2504SOL    HW1 7570   3.233   2.858   3.022
 2504SOL    HW2 7571   3.119   2.961   3.078
 2505SOL     OW 7572   3.164   2.717   2.171
 2505SOL    HW1 7573   3.078   2.686   2.213
 2505SOL    HW2 7574   3.160   2.703   2.072
 2506SOL     OW 7575   3.621   3.609   3.016
 2506SOL    HW1 7576   3.682   3.639   2.943
 2506SOL    HW2 7577   3.583   3.520   2.994
 2507SOL     OW 7578   3.114   3.593   2.990
 2507SOL    HW1 7579   3.198   3.598   2.936
 2507SOL    HW2 7580   3.091   3.497   3.008
 2508SOL     OW 7581   1.945   3.120   2.884
 2508SOL    HW1 7582   1.940   3.119   2.984
 2508SOL    HW2 7583   1.862   3.079   2.846
 2509SOL     OW 7584   2.550   3.524   3.578
 2509SOL    HW1 7585   2.494   3.605   3.587
 2509SOL    HW2 7586   2.602   3.528   3.492
 2510SOL     OW 7587   3.588   1.997   2.385
 2510SOL    HW1 7588   3.661   1.980   2.318
 2510SOL    HW2 7589   3.557   1.910   2.423
 2511SOL     OW 7590   3.250   3.435   2.339
 2511SOL    HW1 7591   3.317   3.447   2.265
 2511SOL    HW2 7592   3.210   3.524   2.362
 2512SOL     OW 7593   1.992   3.656   3.713
 2512SOL    HW1 7594   1.951   3.582   3.766
 2512SOL    HW2 7595   2.056   3.707   3.771
 2513SOL     OW 7596   3.142   2.789   2.534
 2513SOL    HW1 7597   3.202   2.708   2.536
 2513SOL    HW2 7598   3.182   2.858   2.474
 2514SOL     OW 7599   2.692   3.135   3.284
 2514SOL    HW1 7600   2.687   3.168   3.379
 2514SOL    HW2 7601   2.606   3.154   3.238
 2515SOL     OW 7602   2.534   3.478   2.016
 2515SOL    HW1 7603   2.543   3.488   1.917
 2515SOL    HW2 7604   2.494   3.389   2.037
 2516SOL     OW 7605   3.512   3.582   3.256
 2516SOL    HW1 7606   3.565   3.592   3.172
 2516SOL    HW2 7607   3.485   3.672   3.290
 2517SOL     OW 7608   3.703   2.037   2.825
 2517SOL    HW1 7609   3.742   1.952   2.789
 2517SOL    HW2 7610   3.605   2.039   2.806
 2518SOL     OW 7611   3.056   3.474   1.893
 2518SOL    HW1 7612   3.062   3.381   1.930
 2518SOL    HW2 7613   2.997   3.474   1.813
 2519SOL     OW 7614   2.684   2.864   3.234
 2519SOL    HW1 7615   2.724   2.863   3.142
 2519SOL    HW2 7616   2.694   2.956   3.274
 2520SOL     OW 7617   2.778   2.772   2.153
 2520SOL    HW1 7618   2.841   2.810   2.085
 2520SOL    HW2 7619   2.818   2.689   2.192
 2521SOL     OW 7620   3.366   3.469   1.906
 2521SOL    HW1 7621   3.274   3.506   1.913
 2521SOL    HW2 7622   3.404   3.489   1.816
 2522SOL     OW 7623   2.234   3.150   3.352
 2522SOL    HW1 7624   2.221   3.243   3.318
 2522SOL    HW2 7625   2.150   3.098   3.339
 2523SOL     OW 7626   3.476   3.154   3.151
 2523SOL    HW1 7627   3.536   3.157   3.231
 2523SOL    HW2 7628   3.401   3.218   3.164
 2524SOL     OW 7629   2.901   2.960   2.558
 2524SOL    HW1 7630   2.831   2.913   2.612
 2524SOL    HW2 7631   2.960   2.892   2.515
 2525SOL     OW 7632   2.876   2.098   2.833
 2525SOL    HW1 7633   2.868   2.062   2.740
 2525SOL    HW2 7634   2.874   2.022   2.898
 2526SOL     OW 7635   2.452   3.349   2.353
 2526SOL    HW1 7636   2.494   3.291   2.283
 2526SOL    HW2 7637   2.408   3.428   2.309
 2527SOL     OW 7638   3.571   2.247   3.243
 2527SOL    HW1 7639   3.644   2.316   3.247
 2527SOL    HW2 7640   3.599   2.172   3.184
 2528SOL     OW 7641   2.117   3.210   2.152
 2528SOL    HW1 7642   2.021   3.211   2.125
 2528SOL    HW2 7643   2.129   3.263   2.236
 2529SOL     OW 7644   1.967   2.875   3.588
 2529SOL    HW1 7645   1.890   2.842   3.642
 2529SOL    HW2 7646   2.052   2.845   3.630
 2530SOL     OW 7647   2.534   2.065   3.351
 2530SOL    HW1 7648   2.624   2.049   3.311
 2530SOL    HW2 7649   2.542   2.070   3.450
 2531SOL     OW 7650   1.937   2.207   1.895
 2531SOL    HW1 7651   1.845   2.179   1.866
 2531SOL    HW2 7652   1.968   2.284   1.839
 2532SOL     OW 7653   3.302   2.718   3.260
 2532SOL    HW1 7654   3.245   2.770   3.197
 2532SOL    HW2 7655   3.398   2.730   3.236
 2533SOL     OW 7656   1.934   2.028   2.180
 2533SOL    HW1 7657   1.917   2.111   2.126
 2533SOL    HW2 7658   2.024   1.991   2.158
 2534SOL     OW 7659   3.045   3.197   1.981
 2534SOL    HW1 7660   2.946   3.186   1.983
 2534SOL    HW2 7661   3.079   3.212   2.074
 2535SOL     OW 7662   2.475   2.704   3.293
 2535SOL    HW1 7663   2.531   2.785   3.276
 2535SOL    HW2 7664   2.534   2.624   3.296
 2536SOL     OW 7665   3.355   3.629   2.821
 2536SOL    HW1 7666   3.388   3.693   2.752
 2536SOL    HW2 7667   3.421   3.623   2.896
 2537SOL     OW 7668   2.578   2.427   3.570
 2537SOL    HW1 7669   2.597   2.492   3.644
 2537SOL    HW2 7670   2.638   2.347   3.579
 2538SOL     OW 7671   3.312   3.082   3.495
 2538SOL    HW1 7672   3.303   3.072   3.594
 2538SOL    HW2 7673   3.408   3.075   3.469
 2539SOL     OW 7674   2.252   3.603   3.422
 2539SOL    HW1 7675   2.161   3.644   3.420
 2539SOL    HW2 7676   2.245   3.509   3.454
 2540SOL     OW 7677   3.536   2.745   3.116
 2540SOL    HW1 7678   3.509   2.656   3.079
 2540SOL    HW2 7679   3.537   2.813   3.043
 2541SOL     OW 7680   3.087   2.187   2.311
 2541SOL    HW1 7681   3.152   2.113   2.300
 2541SOL    HW2 7682   3.107   2.237   2.395
 2542SOL     OW 7683   3.639   2.204   3.504
 2542SOL    HW1 7684   3.622   2.235   3.410
 2542SOL    HW2 7685   3.555   2.167   3.542
 2543SOL     OW 7686   3.592   2.796   3.379
 2543SOL    HW1 7687   3.630   2.887   3.394
 2543SOL    HW2 7688   3.584   2.779   3.280
 2544SOL     OW 7689   2.721   3.236   1.878
 2544SOL    HW1 7690   2.675   3.251   1.966
 2544SOL    HW2 7691   2.765   3.321   1.848
 2545SOL     OW 7692   2.523   3.652   2.815
 2545SOL    HW1 7693   2.477   3.740   2.802
 2545SOL    HW2 7694   2.622   3.664   2.808
 2546SOL     OW 7695   2.945   2.846   1.949
 2546SOL    HW1 7696   2.922   2.899   1.867
 2546SOL    HW2 7697   3.026   2.790   1.930
 2547SOL     OW 7698   3.723   3.431   2.713
 2547SOL    HW1 7699   3.652   3.419   2.643
 2547SOL    HW2 7700   3.724   3.352   2.773
 2548SOL     OW 7701   2.083   3.176   3.706
 2548SOL    HW1 7702   2.018   3.103   3.685
 2548SOL    HW2 7703   2.087   3.190   3.804
 2549SOL     OW 7704   1.941   3.102   2.515
 2549SOL    HW1 7705   1.940   3.055   2.603
 2549SOL    HW2 7706   2.023   3.074   2.464
 2550SOL     OW 7707   2.534   3.253   3.486
 2550SOL    HW1 7708   2.456   3.203   3.524
 2550SOL    HW2 7709   2.531   3.348   3.517
 2551SOL     OW 7710   3.686   2.054   3.089
 2551SOL    HW1 7711   3.682   1.964   3.133
 2551SOL    HW2 7712   3.689   2.043   2.990
 2552SOL     OW 7713   3.567   3.349   2.966
 2552SOL    HW1 7714   3.474   3.324   2.939
 2552SOL    HW2 7715   3.593   3.299   3.048
 2553SOL     OW 7716   2.179   2.409   3.142
 2553SOL    HW1 7717   2.217   2.350   3.214
 2553SOL    HW2 7718   2.219   2.383   3.054
 2554SOL     OW 7719   2.674   3.448   2.549
 2554SOL    HW1 7720   2.706   3.458   2.455
 2554SOL    HW2 7721   2.595   3.386   2.551
 2555SOL     OW 7722   3.286   2.076   2.974
 2555SOL    HW1 7723   3.338   2.011   3.029
 2555SOL    HW2 7724   3.237   2.139   3.035
 2556SOL     OW 7725   2.863   1.896   3.016
 2556SOL    HW1 7726   2.800   1.824   2.985
 2556SOL    HW2 7727   2.956   1.860   3.016
 2557SOL     OW 7728   2.632   3.192   2.163
 2557SOL    HW1 7729   2.586   3.105   2.180
 2557SOL    HW2 7730   2.723   3.189   2.204
 2558SOL     OW 7731   2.480   3.429   3.146
 2558SOL    HW1 7732   2.475   3.511   3.203
 2558SOL    HW2 7733   2.569   3.426   3.101
 2559SOL     OW 7734   3.214   1.914   2.030
 2559SOL    HW1 7735   3.249   1.873   1.946
 2559SOL    HW2 7736   3.124   1.876   2.050
 2560SOL     OW 7737   3.455   2.083   2.744
 2560SOL    HW1 7738   3.371   2.082   2.798
 2560SOL    HW2 7739   3.457   2.166   2.688
 2561SOL     OW 7740   1.901   2.939   2.162
 2561SOL    HW1 7741   2.000   2.928   2.153
 2561SOL    HW2 7742   1.861   2.853   2.194
 2562SOL     OW 7743   2.737   3.508   2.199
 2562SOL    HW1 7744   2.660   3.473   2.145
 2562SOL    HW2 7745   2.705   3.579   2.261
 2563SOL     OW 7746   2.092   2.490   3.837
 2563SOL    HW1 7747   1.999   2.488   3.874
 2563SOL    HW2 7748   2.093   2.451   3.745
 2564SOL     OW 7749   2.087   2.137   4.720
 2564SOL    HW1 7750   2.122   2.120   4.812
 2564SOL    HW2 7751   1.999   2.092   4.708
 2565SOL     OW 7752   1.881   2.230   4.371
 2565SOL    HW1 7753   1.799   2.273   4.410
 2565SOL    HW2 7754   1.853   2.157   4.308
 2566SOL     OW 7755   2.431   3.137   4.889
 2566SOL    HW1 7756   2.338   3.130   4.852
 2566SOL    HW2 7757   2.442   3.226   4.933
 2567SOL     OW 7758   3.417   3.373   4.427
 2567SOL    HW1 7759   3.360   3.357   4.508
 2567SOL    HW2 7760   3.358   3.383   4.347
 2568SOL     OW 7761   2.997   2.565   4.441
 2568SOL    HW1 7762   3.054   2.643   4.416
 2568SOL    HW2 7763   2.937   2.591   4.517
 2569SOL     OW 7764   3.617   2.469   3.955
 2569SOL    HW1 7765   3.605   2.456   3.856
 2569SOL    HW2 7766   3.587   2.388   4.004
 2570SOL     OW 7767   2.630   3.006   4.747
 2570SOL    HW1 7768   2.552   3.023   4.807
 2570SOL    HW2 7769   2.664   3.093   4.711
 2571SOL     OW 7770   2.547   2.874   4.389
 2571SOL    HW1 7771   2.616   2.858   4.459
 2571SOL    HW2 7772   2.474   2.931   4.427
 2572SOL     OW 7773   2.197   3.297   4.785
 2572SOL    HW1 7774   2.119   3.266   4.732
 2572SOL    HW2 7775   2.255   3.355   4.728
 2573SOL     OW 7776   3.465   2.309   4.461
 2573SOL    HW1 7777   3.391   2.355   4.411
 2573SOL    HW2 7778   3.516   2.377   4.514
 2574SOL     OW 7779   2.093   3.575   4.207
 2574SOL    HW1 7780   2.127   3.652   4.261
 2574SOL    HW2 7781   2.137   3.575   4.117
 2575SOL     OW 7782   2.092   3.296   4.262
 2575SOL    HW1 7783   2.066   3.392   4.262
 2575SOL    HW2 7784   2.021   3.242   4.307
 2576SOL     OW 7785   2.102   2.953   4.610
 2576SOL    HW1 7786   2.116   2.869   4.662
 2576SOL    HW2 7787   2.047   3.017   4.665
 2577SOL     OW 7788   2.482   3.648   5.163
 2577SOL    HW1 7789   2.390   3.631   5.198
 2577SOL    HW2 7790   2.510   3.740   5.189
 2578SOL     OW 7791   2.468   2.826   3.847
 2578SOL    HW1 7792   2.475   2.910   3.793
 2578SOL    HW2 7793   2.514   2.839   3.935
 2579SOL     OW 7794   1.984   2.505   4.287
 2579SOL    HW1 7795   1.939   2.417   4.304
 2579SOL    HW2 7796   1.983   2.559   4.371
 2580SOL     OW 7797   3.704   3.629   4.083
 2580SOL    HW1 7798   3.758   3.600   4.163
 2580SOL    HW2 7799   3.734   3.719   4.054
 2581SOL     OW 7800   1.889   3.458   3.841
 2581SOL    HW1 7801   1.870   3.362   3.862
 2581SOL    HW2 7802   1.856   3.516   3.916
 2582SOL     OW 7803   3.551   2.784   4.336
 2582SOL    HW1 7804   3.646   2.755   4.344
 2582SOL    HW2 7805   3.543   2.849   4.261
 2583SOL     OW 7806   3.503   2.970   4.156
 2583SOL    HW1 7807   3.589   2.972   4.104
 2583SOL    HW2 7808   3.517   3.017   4.244
 2584SOL     OW 7809   2.475   3.227   4.450
 2584SOL    HW1 7810   2.426   3.140   4.459
 2584SOL    HW2 7811   2.452   3.270   4.363
 2585SOL     OW 7812   2.671   1.866   4.226
 2585SOL    HW1 7813   2.711   1.957   4.217
 2585SOL    HW2 7814   2.571   1.874   4.232
 2586SOL     OW 7815   2.059   2.838   4.988
 2586SOL    HW1 7816   2.148   2.793   4.974
 2586SOL    HW2 7817   1.986   2.773   4.969
 2587SOL     OW 7818   3.387   2.861   3.914
 2587SOL    HW1 7819   3.324   2.785   3.927
 2587SOL    HW2 7820   3.435   2.879   4.000
 2588SOL     OW 7821   3.328   3.279   4.677
 2588SOL    HW1 7822   3.269   3.285   4.757
 2588SOL    HW2 7823   3.313   3.191   4.631
 2589SOL     OW 7824   3.529   3.576   4.296
 2589SOL    HW1 7825   3.488   3.553   4.208
 2589SOL    HW2 7826   3.511   3.502   4.361
 2590SOL     OW 7827   2.460   2.591   3.994
 2590SOL    HW1 7828   2.484   2.660   3.926
 2590SOL    HW2 7829   2.382   2.624   4.048
 2591SOL     OW 7830   3.143   2.207   4.668
 2591SOL    HW1 7831   3.057   2.157   4.655
 2591SOL    HW2 7832   3.205   2.153   4.724
 2592SOL     OW 7833   3.438   3.524   4.031
 2592SOL    HW1 7834   3.527   3.570   4.034
 2592SOL    HW2 7835   3.417   3.500   3.936
 2593SOL     OW 7836   2.853   2.272   4.966
 2593SOL    HW1 7837   2.776   2.306   5.020
 2593SOL    HW2 7838   2.819   2.221   4.887
 2594SOL     OW 7839   2.903   2.563   4.153
 2594SOL    HW1 7840   2.929   2.559   4.249
 2594SOL    HW2 7841   2.818   2.512   4.139
 2595SOL     OW 7842   1.938   2.673   4.513
 2595SOL    HW1 7843   2.037   2.661   4.522
 2595SOL    HW2 7844   1.914   2.768   4.534
 2596SOL     OW 7845   2.727   2.210   3.919
 2596SOL    HW1 7846   2.786   2.273   3.870
 2596SOL    HW2 7847   2.746   2.116   3.890
 2597SOL     OW 7848   3.224   3.006   4.269
 2597SOL    HW1 7849   3.307   2.977   4.221
 2597SOL    HW2 7850   3.175   3.073   4.213
 2598SOL     OW 7851   2.412   2.058   4.609
 2598SOL    HW1 7852   2.407   2.053   4.709
 2598SOL    HW2 7853   2.414   2.154   4.580
 2599SOL     OW 7854   2.870   3.318   4.201
 2599SOL    HW1 7855   2.824   3.390   4.149
 2599SOL    HW2 7856   2.866   3.338   4.299
 2600SOL     OW 7857   2.213   3.663   4.577
 2600SOL    HW1 7858   2.263   3.577   4.583
 2600SOL    HW2 7859   2.278   3.740   4.574
 2601SOL     OW 7860   3.657   2.928   4.597
 2601SOL    HW1 7861   3.595   2.913   4.521
 2601SOL    HW2 7862   3.605   2.939   4.682
 2602SOL     OW 7863   2.183   2.805   3.966
 2602SOL    HW1 7864   2.265   2.844   3.924
 2602SOL    HW2 7865   2.156   2.723   3.917
 2603SOL     OW 7866   3.320   2.597   4.452
 2603SOL    HW1 7867   3.315   2.532   4.527
 2603SOL    HW2 7868   3.400   2.656   4.465
 2604SOL     OW 7869   2.973   3.638   3.961
 2604SOL    HW1 7870   2.913   3.576   4.011
 2604SOL    HW2 7871   3.004   3.594   3.876
 2605SOL     OW 7872   3.494   3.239   3.805
 2605SOL    HW1 7873   3.462   3.333   3.795
 2605SOL    HW2 7874   3.418   3.176   3.793
 2606SOL     OW 7875   2.326   3.605   4.047
 2606SOL    HW1 7876   2.359   3.644   4.133
 2606SOL    HW2 7877   2.402   3.598   3.982
 2607SOL     OW 7878   3.262   1.969   4.150
 2607SOL    HW1 7879   3.238   1.932   4.060
 2607SOL    HW2 7880   3.361   1.985   4.154
 2608SOL     OW 7881   2.111   3.647   4.965
 2608SOL    HW1 7882   2.168   3.582   5.015
 2608SOL    HW2 7883   2.095   3.614   4.872
 2609SOL     OW 7884   2.802   3.560   4.628
 2609SOL    HW1 7885   2.882   3.503   4.649
 2609SOL    HW2 7886   2.753   3.520   4.551
 2610SOL     OW 7887   2.244   2.562   4.204
 2610SOL    HW1 7888   2.289   2.472   4.201
 2610SOL    HW2 7889   2.150   2.551   4.237
 2611SOL     OW 7890   2.476   1.984   3.841
 2611SOL    HW1 7891   2.574   1.962   3.848
 2611SOL    HW2 7892   2.445   1.967   3.748
 2612SOL     OW 7893   2.665   3.264   4.648
 2612SOL    HW1 7894   2.755   3.278   4.606
 2612SOL    HW2 7895   2.594   3.266   4.577
 2613SOL     OW 7896   2.784   2.365   4.623
 2613SOL    HW1 7897   2.759   2.356   4.527
 2613SOL    HW2 7898   2.832   2.283   4.654
 2614SOL     OW 7899   2.401   1.926   4.236
 2614SOL    HW1 7900   2.320   1.927   4.294
 2614SOL    HW2 7901   2.404   2.009   4.181
 2615SOL     OW 7902   3.296   3.050   3.765
 2615SOL    HW1 7903   3.328   2.974   3.822
 2615SOL    HW2 7904   3.204   3.077   3.795
 2616SOL     OW 7905   2.159   1.897   3.895
 2616SOL    HW1 7906   2.208   1.981   3.874
 2616SOL    HW2 7907   2.221   1.832   3.940
 2617SOL     OW 7908   2.797   2.098   4.204
 2617SOL    HW1 7909   2.749   2.139   4.126
 2617SOL    HW2 7910   2.896   2.096   4.185
 2618SOL     OW 7911   3.089   3.432   4.517
 2618SOL    HW1 7912   3.110   3.506   4.452
 2618SOL    HW2 7913   3.157   3.432   4.590
 2619SOL     OW 7914   2.321   3.014   4.465
 2619SOL    HW1 7915   2.250   2.987   4.530
 2619SOL    HW2 7916   2.295   2.986   4.372
 2620SOL     OW 7917   3.133   3.659   4.315
 2620SOL    HW1 7918   3.177   3.723   4.251
 2620SOL    HW2 7919   3.083   3.711   4.385
 2621SOL     OW 7920   2.894   2.411   3.740
 2621SOL    HW1 7921   2.853   2.493   3.701
 2621SOL    HW2 7922   2.958   2.437   3.813
 2622SOL     OW 7923   2.423   2.084   4.871
 2622SOL    HW1 7924   2.461   2.000   4.908
 2622SOL    HW2 7925   2.335   2.103   4.915
 2623SOL     OW 7926   2.728   2.316   4.366
 2623SOL    HW1 7927   2.696   2.388   4.304
 2623SOL    HW2 7928   2.752   2.235   4.313
 2624SOL     OW 7929   2.879   1.901   4.477
 2624SOL    HW1 7930   2.807   1.906   4.408
 2624SOL    HW2 7931   2.855   1.832   4.546
 2625SOL     OW 7932   3.291   3.035   4.591
 2625SOL    HW1 7933   3.236   2.951   4.584
 2625SOL    HW2 7934   3.317   3.064   4.499
 2626SOL     OW 7935   3.328   2.452   4.716
 2626SOL    HW1 7936   3.298   2.357   4.723
 2626SOL    HW2 7937   3.401   2.468   4.782
 2627SOL     OW 7938   3.719   2.695   4.101
 2627SOL    HW1 7939   3.761   2.631   4.165
 2627SOL    HW2 7940   3.681   2.644   4.023
 2628SOL     OW 7941   2.350   3.247   3.898
 2628SOL    HW1 7942   2.263   3.232   3.945
 2628SOL    HW2 7943   2.333   3.273   3.803
 2629SOL     OW 7944   3.526   3.142   4.381
 2629SOL    HW1 7945   3.625   3.150   4.395
 2629SOL    HW2 7946   3.481   3.226   4.412
 2630SOL     OW 7947   3.252   2.437   3.802
 2630SOL    HW1 7948   3.198   2.416   3.883
 2630SOL    HW2 7949   3.343   2.396   3.811
 2631SOL     OW 7950   2.389   2.118   4.052
 2631SOL    HW1 7951   2.416   2.059   3.977
 2631SOL    HW2 7952   2.389   2.213   4.021
 2632SOL     OW 7953   2.973   3.057   4.824
 2632SOL    HW1 7954   2.933   3.101   4.905
 2632SOL    HW2 7955   2.932   3.094   4.741
 2633SOL     OW 7956   3.500   2.961   4.803
 2633SOL    HW1 7957   3.505   3.042   4.862
 2633SOL    HW2 7958   3.414   2.963   4.752
 2634SOL     OW 7959   2.567   2.912   4.092
 2634SOL    HW1 7960   2.553   2.919   4.191
 2634SOL    HW2 7961   2.651   2.861   4.074
 2635SOL     OW 7962   2.272   2.675   4.975
 2635SOL    HW1 7963   2.358   2.687   5.025
 2635SOL    HW2 7964   2.230   2.588   5.002
 2636SOL     OW 7965   3.136   2.248   4.986
 2636SOL    HW1 7966   3.157   2.322   5.050
 2636SOL    HW2 7967   3.047   2.265   4.943
 2637SOL     OW 7968   2.229   2.962   4.225
 2637SOL    HW1 7969   2.222   3.045   4.169
 2637SOL    HW2 7970   2.233   2.882   4.165
 2638SOL     OW 7971   2.428   2.399   4.589
 2638SOL    HW1 7972   2.440   2.465   4.515
 2638SOL    HW2 7973   2.474   2.433   4.672
 2639SOL     OW 7974   3.114   3.210   4.112
 2639SOL    HW1 7975   3.164   3.287   4.152
 2639SOL    HW2 7976   3.019   3.212   4.144
 2640SOL     OW 7977   3.134   3.307   4.866
 2640SOL    HW1 7978   3.181   3.320   4.953
 2640SOL    HW2 7979   3.068   3.233   4.875
 2641SOL     OW 7980   3.444   2.501   4.196
 2641SOL    HW1 7981   3.413   2.562   4.269
 2641SOL    HW2 7982   3.494   2.553   4.127
 2642SOL     OW 7983   2.216   3.372   5.053
 2642SOL    HW1 7984   2.195   3.328   4.966
 2642SOL    HW2 7985   2.313   3.398   5.056
 2643SOL     OW 7986   2.435   2.732   4.753
 2643SOL    HW1 7987   2.479   2.821   4.744
 2643SOL    HW2 7988   2.372   2.732   4.830
 2644SOL     OW 7989   3.222   2.724   4.769
 2644SOL    HW1 7990   3.147   2.724   4.703
 2644SOL    HW2 7991   3.259   2.632   4.778
 2645SOL     OW 7992   3.071   2.387   3.999
 2645SOL    HW1 7993   3.084   2.303   4.053
 2645SOL    HW2 7994   3.042   2.461   4.059
 2646SOL     OW 7995   2.169   2.075   4.955
 2646SOL    HW1 7996   2.146   2.112   5.045
 2646SOL    HW2 7997   2.139   1.980   4.949
 2647SOL     OW 7998   1.899   3.172   5.006
 2647SOL    HW1 7999   1.952   3.123   5.074
 2647SOL    HW2 8000   1.921   3.270   5.011
 2648SOL     OW 8001   2.594   2.496   4.788
 2648SOL    HW1 8002   2.653   2.470   4.712
 2648SOL    HW2 8003   2.566   2.592   4.777
 2649SOL     OW 8004   2.169   1.925   4.342
 2649SOL    HW1 8005   2.158   2.019   4.375
 2649SOL    HW2 8006   2.164   1.862   4.419
 2650SOL     OW 8007   3.484   2.229   4.098
 2650SOL    HW1 8008   3.486   2.153   4.162
 2650SOL    HW2 8009   3.436   2.306   4.138
 2651SOL     OW 8010   2.885   2.628   4.690
 2651SOL    HW1 8011   2.900   2.649   4.786
 2651SOL    HW2 8012   2.855   2.533   4.681
 2652SOL     OW 8013   3.402   2.136   3.849
 2652SOL    HW1 8014   3.341   2.061   3.872
 2652SOL    HW2 8015   3.424   2.188   3.932
 2653SOL     OW 8016   3.165   2.700   3.766
 2653SOL    HW1 8017   3.199   2.607   3.781
 2653SOL    HW2 8018   3.183   2.727   3.671
 2654SOL     OW 8019   2.930   3.195   4.573
 2654SOL    HW1 8020   2.937   3.111   4.518
 2654SOL    HW2 8021   2.992   3.264   4.537
 2655SOL     OW 8022   2.181   2.672   4.673
 2655SOL    HW1 8023   2.274   2.708   4.678
 2655SOL    HW2 8024   2.175   2.587   4.725
 2656SOL     OW 8025   2.201   2.371   4.730
 2656SOL    HW1 8026   2.149   2.288   4.713
 2656SOL    HW2 8027   2.278   2.376   4.666
 2657SOL     OW 8028   3.022   2.069   5.201
 2657SOL    HW1 8029   3.022   2.133   5.278
 2657SOL    HW2 8030   3.050   2.117   5.118
 2658SOL     OW 8031   1.870   3.188   3.924
 2658SOL    HW1 8032   1.777   3.209   3.893
 2658SOL    HW2 8033   1.880   3.089   3.937
 2659SOL     OW 8034   1.950   3.663   4.651
 2659SOL    HW1 8035   1.908   3.577   4.624
 2659SOL    HW2 8036   2.044   3.666   4.617
 2660SOL     OW 8037   2.366   3.430   4.634
 2660SOL    HW1 8038   2.432   3.504   4.643
 2660SOL    HW2 8039   2.410   3.351   4.592
 2661SOL     OW 8040   2.864   2.658   4.962
 2661SOL    HW1 8041   2.905   2.626   5.048
 2661SOL    HW2 8042   2.768   2.631   4.959
 2662SOL     OW 8043   1.902   2.406   4.838
 2662SOL    HW1 8044   1.987   2.373   4.797
 2662SOL    HW2 8045   1.915   2.421   4.936
 2663SOL     OW 8046   2.677   2.434   4.049
 2663SOL    HW1 8047   2.684   2.345   4.003
 2663SOL    HW2 8048   2.583   2.468   4.041
 2664SOL     OW 8049   3.519   2.466   4.930
 2664SOL    HW1 8050   3.481   2.397   4.992
 2664SOL    HW2 8051   3.601   2.430   4.886
 2665SOL     OW 8052   2.533   2.326   4.993
 2665SOL    HW1 8053   2.499   2.237   4.963
 2665SOL    HW2 8054   2.559   2.380   4.913
 2666SOL     OW 8055   2.792   3.540   5.189
 2666SOL    HW1 8056   2.768   3.522   5.094
 2666SOL    HW2 8057   2.822   3.634   5.199
 2667SOL     OW 8058   2.335   2.362   3.915
 2667SOL    HW1 8059   2.396   2.442   3.919
 2667SOL    HW2 8060   2.240   2.393   3.922
 2668SOL     OW 8061   3.209   2.921   4.958
 2668SOL    HW1 8062   3.233   2.858   4.884
 2668SOL    HW2 8063   3.119   2.961   4.940
 2669SOL     OW 8064   3.164   2.717   4.033
 2669SOL    HW1 8065   3.078   2.686   4.075
 2669SOL    HW2 8066   3.160   2.703   3.934
 2670SOL     OW 8067   3.621   3.609   4.878
 2670SOL    HW1 8068   3.682   3.639   4.805
 2670SOL    HW2 8069   3.583   3.520   4.856
 2671SOL     OW 8070   3.114   3.593   4.852
 2671SOL    HW1 8071   3.198   3.598   4.798
 2671SOL    HW2 8072   3.091   3.497   4.870
 2672SOL     OW 8073   1.945   3.120   4.746
 2672SOL    HW1 8074   1.940   3.119   4.846
 2672SOL    HW2 8075   1.862   3.079   4.708
 2673SOL     OW 8076   3.588   1.997   4.247
 2673SOL    HW1 8077   3.661   1.980   4.180
 2673SOL    HW2 8078   3.557   1.910   4.285
 2674SOL     OW 8079   3.250   3.435   4.201
 2674SOL    HW1 8080   3.317   3.447   4.127
 2674SOL    HW2 8081   3.210   3.524   4.224
 2675SOL     OW 8082   3.142   2.789   4.396
 2675SOL    HW1 8083   3.202   2.708   4.398
 2675SOL    HW2 8084   3.182   2.858   4.336
 2676SOL     OW 8085   2.534   3.478   3.878
 2676SOL    HW1 8086   2.543   3.488   3.779
 2676SOL    HW2 8087   2.494   3.389   3.899
 2677SOL     OW 8088   3.512   3.582   5.118
 2677SOL    HW1 8089   3.565   3.592   5.034
 2677SOL    HW2 8090   3.485   3.672   5.152
 2678SOL     OW 8091   3.703   2.037   4.687
 2678SOL    HW1 8092   3.742   1.952   4.651
 2678SOL    HW2 8093   3.605   2.039   4.668
 2679SOL     OW 8094   2.125   2.188   4.444
 2679SOL    HW1 8095   2.046   2.239   4.410
 2679SOL    HW2 8096   2.116   2.173   4.542
 2680SOL     OW 8097   3.056   3.474   3.755
 2680SOL    HW1 8098   3.062   3.381   3.792
 2680SOL    HW2 8099   2.997   3.474   3.675
 2681SOL     OW 8100   2.684   2.864   5.096
 2681SOL    HW1 8101   2.724   2.863   5.004
 2681SOL    HW2 8102   2.694   2.956   5.136
 2682SOL     OW 8103   2.778   2.772   4.015
 2682SOL    HW1 8104   2.841   2.810   3.947
 2682SOL    HW2 8105   2.818   2.689   4.054
 2683SOL     OW 8106   3.366   3.469   3.768
 2683SOL    HW1 8107   3.274   3.506   3.775
 2683SOL    HW2 8108   3.404   3.489   3.678
 2684SOL     OW 8109   2.901   2.960   4.420
 2684SOL    HW1 8110   2.831   2.913   4.474
 2684SOL    HW2 8111   2.960   2.892   4.377
 2685SOL     OW 8112   2.876   2.098   4.695
 2685SOL    HW1 8113   2.868   2.062   4.602
 2685SOL    HW2 8114   2.874   2.022   4.760
 2686SOL     OW 8115   2.452   3.349   4.215
 2686SOL    HW1 8116   2.494   3.291   4.145
 2686SOL    HW2 8117   2.408   3.428   4.171
 2687SOL     OW 8118   3.571   2.247   5.105
 2687SOL    HW1 8119   3.644   2.316   5.109
 2687SOL    HW2 8120   3.599   2.172   5.046
 2688SOL     OW 8121   2.117   3.210   4.014
 2688SOL    HW1 8122   2.021   3.211   3.987
 2688SOL    HW2 8123   2.129   3.263   4.098
 2689SOL     OW 8124   1.937   2.207   3.757
 2689SOL    HW1 8125   1.845   2.179   3.728
 2689SOL    HW2 8126   1.968   2.284   3.701
 2690SOL     OW 8127   1.934   2.028   4.042
 2690SOL    HW1 8128   1.917   2.111   3.988
 2690SOL    HW2 8129   2.024   1.991   4.020
 2691SOL     OW 8130   3.045   3.197   3.843
 2691SOL    HW1 8131   2.946   3.186   3.845
 2691SOL    HW2 8132   3.079   3.212   3.936
 2692SOL     OW 8133   3.355   3.629   4.683
 2692SOL    HW1 8134   3.388   3.693   4.614
 2692SOL    HW2 8135   3.421   3.623   4.758
 2693SOL     OW 8136   3.312   3.082   5.357
 2693SOL    HW1 8137   3.303   3.072   5.456
 2693SOL    HW2 8138   3.408   3.075   5.331
 2694SOL     OW 8139   3.536   2.745   4.978
 2694SOL    HW1 8140   3.509   2.656   4.941
 2694SOL    HW2 8141   3.537   2.813   4.905
 2695SOL     OW 8142   3.087   2.187   4.173
 2695SOL    HW1 8143   3.152   2.113   4.162
 2695SOL    HW2 8144   3.107   2.237   4.257
 2696SOL     OW 8145   2.456   2.607   4.376
 2696SOL    HW1 8146   2.506   2.692   4.357
 2696SOL    HW2 8147   2.368   2.609   4.328
 2697SOL     OW 8148   3.592   2.796   5.241
 2697SOL    HW1 8149   3.630   2.887   5.256
 2697SOL    HW2 8150   3.584   2.779   5.142
 2698SOL     OW 8151   2.721   3.236   3.740
 2698SOL    HW1 8152   2.675   3.251   3.828
 2698SOL    HW2 8153   2.765   3.321   3.710
 2699SOL     OW 8154   2.523   3.652   4.677
 2699SOL    HW1 8155   2.477   3.740   4.664
 2699SOL    HW2 8156   2.622   3.664   4.670
 2700SOL     OW 8157   2.721   2.818   4.585
 2700SOL    HW1 8158   2.775   2.749   4.633
 2700SOL    HW2 8159   2.689   2.887   4.651
 2701SOL     OW 8160   2.945   2.846   3.811
 2701SOL    HW1 8161   2.922   2.899   3.729
 2701SOL    HW2 8162   3.026   2.790   3.792
 2702SOL     OW 8163   3.723   3.431   4.575
 2702SOL    HW1 8164   3.652   3.419   4.505
 2702SOL    HW2 8165   3.724   3.352   4.635
 2703SOL     OW 8166   1.941   3.102   4.377
 2703SOL    HW1 8167   1.940   3.055   4.465
 2703SOL    HW2 8168   2.023   3.074   4.326
 2704SOL     OW 8169   3.686   2.054   4.951
 2704SOL    HW1 8170   3.682   1.964   4.995
 2704SOL    HW2 8171   3.689   2.043   4.852
 2705SOL     OW 8172   2.290   2.286   4.244
 2705SOL    HW1 8173   2.320   2.214   4.182
 2705SOL    HW2 8174   2.251   2.246   4.327
 2706SOL     OW 8175   3.567   3.349   4.828
 2706SOL    HW1 8176   3.474   3.324   4.801
 2706SOL    HW2 8177   3.593   3.299   4.910
 2707SOL     OW 8178   2.674   3.448   4.411
 2707SOL    HW1 8179   2.706   3.458   4.317
 2707SOL    HW2 8180   2.595   3.386   4.413
 2708SOL     OW 8181   3.286   2.076   4.836
 2708SOL    HW1 8182   3.338   2.011   4.891
 2708SOL    HW2 8183   3.237   2.139   4.897
 2709SOL     OW 8184   2.863   1.896   4.878
 2709SOL    HW1 8185   2.800   1.824   4.847
 2709SOL    HW2 8186   2.956   1.860   4.878
 2710SOL     OW 8187   2.632   3.192   4.025
 2710SOL    HW1 8188   2.586   3.105   4.042
 2710SOL    HW2 8189   2.723   3.189   4.066
 2711SOL     OW 8190   3.214   1.914   3.892
 2711SOL    HW1 8191   3.249   1.873   3.808
 2711SOL    HW2 8192   3.124   1.876   3.912
 2712SOL     OW 8193   3.162   2.315   4.415
 2712SOL    HW1 8194   3.103   2.395   4.419
 2712SOL    HW2 8195   3.177   2.280   4.508
 2713SOL     OW 8196   3.455   2.083   4.606
 2713SOL    HW1 8197   3.371   2.082   4.660
 2713SOL    HW2 8198   3.457   2.166   4.550
 2714SOL     OW 8199   1.901   2.939   4.024
 2714SOL    HW1 8200   2.000   2.928   4.015
 2714SOL    HW2 8201   1.861   2.853   4.056
 2715SOL     OW 8202   2.737   3.508   4.061
 2715SOL    HW1 8203   2.660   3.473   4.007
 2715SOL    HW2 8204   2.705   3.579   4.123
 2716SOL     OW 8205   2.092   4.352   0.113
 2716SOL    HW1 8206   1.999   4.350   0.150
 2716SOL    HW2 8207   2.093   4.313   0.021
 2717SOL     OW 8208   2.087   3.999   0.996
 2717SOL    HW1 8209   2.122   3.982   1.088
 2717SOL    HW2 8210   1.999   3.954   0.984
 2718SOL     OW 8211   1.881   4.092   0.647
 2718SOL    HW1 8212   1.799   4.135   0.686
 2718SOL    HW2 8213   1.853   4.019   0.584
 2719SOL     OW 8214   2.431   4.999   1.165
 2719SOL    HW1 8215   2.338   4.992   1.128
 2719SOL    HW2 8216   2.442   5.088   1.209
 2720SOL     OW 8217   3.417   5.235   0.703
 2720SOL    HW1 8218   3.360   5.219   0.784
 2720SOL    HW2 8219   3.358   5.245   0.623
 2721SOL     OW 8220   2.997   4.427   0.717
 2721SOL    HW1 8221   3.054   4.505   0.692
 2721SOL    HW2 8222   2.937   4.453   0.793
 2722SOL     OW 8223   3.617   4.331   0.231
 2722SOL    HW1 8224   3.605   4.318   0.132
 2722SOL    HW2 8225   3.587   4.250   0.280
 2723SOL     OW 8226   2.630   4.868   1.023
 2723SOL    HW1 8227   2.552   4.885   1.083
 2723SOL    HW2 8228   2.664   4.955   0.987
 2724SOL     OW 8229   2.712   4.522   1.823
 2724SOL    HW1 8230   2.708   4.598   1.888
 2724SOL    HW2 8231   2.734   4.558   1.732
 2725SOL     OW 8232   2.547   4.736   0.665
 2725SOL    HW1 8233   2.616   4.720   0.735
 2725SOL    HW2 8234   2.474   4.793   0.703
 2726SOL     OW 8235   2.548   4.885   1.803
 2726SOL    HW1 8236   2.608   4.964   1.817
 2726SOL    HW2 8237   2.462   4.916   1.762
 2727SOL     OW 8238   2.197   5.159   1.061
 2727SOL    HW1 8239   2.119   5.128   1.008
 2727SOL    HW2 8240   2.255   5.217   1.004
 2728SOL     OW 8241   2.300   4.116   1.499
 2728SOL    HW1 8242   2.382   4.060   1.508
 2728SOL    HW2 8243   2.219   4.058   1.503
 2729SOL     OW 8244   3.465   4.171   0.737
 2729SOL    HW1 8245   3.391   4.217   0.687
 2729SOL    HW2 8246   3.516   4.239   0.790
 2730SOL     OW 8247   2.102   4.815   0.886
 2730SOL    HW1 8248   2.116   4.731   0.938
 2730SOL    HW2 8249   2.047   4.879   0.941
 2731SOL     OW 8250   2.468   4.688   0.123
 2731SOL    HW1 8251   2.475   4.772   0.069
 2731SOL    HW2 8252   2.514   4.701   0.211
 2732SOL     OW 8253   3.456   3.838   1.480
 2732SOL    HW1 8254   3.438   3.905   1.408
 2732SOL    HW2 8255   3.453   3.884   1.569
 2733SOL     OW 8256   1.984   4.367   0.563
 2733SOL    HW1 8257   1.939   4.279   0.580
 2733SOL    HW2 8258   1.983   4.421   0.647
 2734SOL     OW 8259   3.551   4.646   0.612
 2734SOL    HW1 8260   3.646   4.617   0.620
 2734SOL    HW2 8261   3.543   4.711   0.537
 2735SOL     OW 8262   3.503   4.832   0.432
 2735SOL    HW1 8263   3.589   4.834   0.380
 2735SOL    HW2 8264   3.517   4.879   0.520
 2736SOL     OW 8265   1.975   4.461   1.597
 2736SOL    HW1 8266   2.063   4.448   1.642
 2736SOL    HW2 8267   1.962   4.558   1.575
 2737SOL     OW 8268   3.155   4.952   1.423
 2737SOL    HW1 8269   3.192   4.879   1.365
 2737SOL    HW2 8270   3.207   4.957   1.508
 2738SOL     OW 8271   2.671   3.728   0.502
 2738SOL    HW1 8272   2.711   3.819   0.493
 2738SOL    HW2 8273   2.571   3.736   0.508
 2739SOL     OW 8274   2.059   4.700   1.264
 2739SOL    HW1 8275   2.148   4.655   1.250
 2739SOL    HW2 8276   1.986   4.635   1.245
 2740SOL     OW 8277   3.387   4.723   0.190
 2740SOL    HW1 8278   3.324   4.647   0.203
 2740SOL    HW2 8279   3.435   4.741   0.276
 2741SOL     OW 8280   2.179   3.975   1.801
 2741SOL    HW1 8281   2.250   4.046   1.807
 2741SOL    HW2 8282   2.091   4.014   1.829
 2742SOL     OW 8283   3.328   5.141   0.953
 2742SOL    HW1 8284   3.269   5.147   1.033
 2742SOL    HW2 8285   3.313   5.053   0.907
 2743SOL     OW 8286   2.460   4.453   0.270
 2743SOL    HW1 8287   2.484   4.522   0.202
 2743SOL    HW2 8288   2.382   4.486   0.324
 2744SOL     OW 8289   3.143   4.069   0.944
 2744SOL    HW1 8290   3.057   4.019   0.931
 2744SOL    HW2 8291   3.205   4.015   1.000
 2745SOL     OW 8292   2.669   4.329   1.465
 2745SOL    HW1 8293   2.622   4.326   1.554
 2745SOL    HW2 8294   2.618   4.274   1.399
 2746SOL     OW 8295   3.256   4.193   1.674
 2746SOL    HW1 8296   3.236   4.236   1.762
 2746SOL    HW2 8297   3.334   4.131   1.683
 2747SOL     OW 8298   2.835   4.614   1.572
 2747SOL    HW1 8299   2.881   4.530   1.543
 2747SOL    HW2 8300   2.779   4.648   1.497
 2748SOL     OW 8301   2.853   4.134   1.242
 2748SOL    HW1 8302   2.776   4.168   1.296
 2748SOL    HW2 8303   2.819   4.083   1.163
 2749SOL     OW 8304   2.903   4.425   0.429
 2749SOL    HW1 8305   2.929   4.421   0.525
 2749SOL    HW2 8306   2.818   4.374   0.415
 2750SOL     OW 8307   1.938   4.535   0.789
 2750SOL    HW1 8308   2.037   4.523   0.798
 2750SOL    HW2 8309   1.914   4.630   0.810
 2751SOL     OW 8310   2.727   4.072   0.195
 2751SOL    HW1 8311   2.786   4.135   0.146
 2751SOL    HW2 8312   2.746   3.978   0.166
 2752SOL     OW 8313   3.581   4.309   1.831
 2752SOL    HW1 8314   3.555   4.398   1.795
 2752SOL    HW2 8315   3.579   4.241   1.758
 2753SOL     OW 8316   3.224   4.868   0.545
 2753SOL    HW1 8317   3.307   4.839   0.497
 2753SOL    HW2 8318   3.175   4.935   0.489
 2754SOL     OW 8319   2.412   3.920   0.885
 2754SOL    HW1 8320   2.407   3.915   0.985
 2754SOL    HW2 8321   2.414   4.016   0.856
 2755SOL     OW 8322   3.657   4.790   0.873
 2755SOL    HW1 8323   3.595   4.775   0.797
 2755SOL    HW2 8324   3.605   4.801   0.958
 2756SOL     OW 8325   2.183   4.667   0.242
 2756SOL    HW1 8326   2.265   4.706   0.200
 2756SOL    HW2 8327   2.156   4.585   0.193
 2757SOL     OW 8328   3.320   4.459   0.728
 2757SOL    HW1 8329   3.315   4.394   0.803
 2757SOL    HW2 8330   3.400   4.518   0.741
 2758SOL     OW 8331   2.064   4.009   1.498
 2758SOL    HW1 8332   1.984   4.069   1.485
 2758SOL    HW2 8333   2.054   3.960   1.584
 2759SOL     OW 8334   3.494   5.101   0.081
 2759SOL    HW1 8335   3.462   5.195   0.071
 2759SOL    HW2 8336   3.418   5.038   0.069
 2760SOL     OW 8337   3.262   3.831   0.426
 2760SOL    HW1 8338   3.238   3.794   0.336
 2760SOL    HW2 8339   3.361   3.847   0.430
 2761SOL     OW 8340   2.244   4.424   0.480
 2761SOL    HW1 8341   2.289   4.334   0.477
 2761SOL    HW2 8342   2.150   4.413   0.513
 2762SOL     OW 8343   3.409   3.946   1.729
 2762SOL    HW1 8344   3.404   3.983   1.821
 2762SOL    HW2 8345   3.337   3.877   1.717
 2763SOL     OW 8346   2.643   3.988   1.749
 2763SOL    HW1 8347   2.710   3.927   1.792
 2763SOL    HW2 8348   2.570   4.007   1.814
 2764SOL     OW 8349   3.213   4.314   1.433
 2764SOL    HW1 8350   3.241   4.271   1.518
 2764SOL    HW2 8351   3.238   4.410   1.434
 2765SOL     OW 8352   2.665   5.126   0.924
 2765SOL    HW1 8353   2.755   5.140   0.882
 2765SOL    HW2 8354   2.594   5.128   0.853
 2766SOL     OW 8355   2.784   4.227   0.899
 2766SOL    HW1 8356   2.759   4.218   0.803
 2766SOL    HW2 8357   2.832   4.145   0.930
 2767SOL     OW 8358   2.401   3.788   0.512
 2767SOL    HW1 8359   2.320   3.789   0.570
 2767SOL    HW2 8360   2.404   3.871   0.457
 2768SOL     OW 8361   3.296   4.912   0.041
 2768SOL    HW1 8362   3.328   4.836   0.098
 2768SOL    HW2 8363   3.204   4.939   0.071
 2769SOL     OW 8364   2.159   3.759   0.171
 2769SOL    HW1 8365   2.208   3.843   0.150
 2769SOL    HW2 8366   2.221   3.694   0.216
 2770SOL     OW 8367   2.797   3.960   0.480
 2770SOL    HW1 8368   2.749   4.001   0.402
 2770SOL    HW2 8369   2.896   3.958   0.461
 2771SOL     OW 8370   2.938   4.407   1.464
 2771SOL    HW1 8371   2.858   4.346   1.467
 2771SOL    HW2 8372   3.019   4.354   1.440
 2772SOL     OW 8373   3.089   5.294   0.793
 2772SOL    HW1 8374   3.110   5.368   0.728
 2772SOL    HW2 8375   3.157   5.294   0.866
 2773SOL     OW 8376   2.321   4.876   0.741
 2773SOL    HW1 8377   2.250   4.849   0.806
 2773SOL    HW2 8378   2.295   4.848   0.648
 2774SOL     OW 8379   2.894   4.273   0.016
 2774SOL    HW1 8380   2.853   4.355  -0.023
 2774SOL    HW2 8381   2.958   4.299   0.089
 2775SOL     OW 8382   1.940   4.280   1.386
 2775SOL    HW1 8383   2.032   4.279   1.345
 2775SOL    HW2 8384   1.934   4.354   1.453
 2776SOL     OW 8385   2.423   3.946   1.147
 2776SOL    HW1 8386   2.461   3.862   1.184
 2776SOL    HW2 8387   2.335   3.965   1.191
 2777SOL     OW 8388   2.728   4.178   0.642
 2777SOL    HW1 8389   2.696   4.250   0.580
 2777SOL    HW2 8390   2.752   4.097   0.589
 2778SOL     OW 8391   2.879   3.763   0.753
 2778SOL    HW1 8392   2.807   3.768   0.684
 2778SOL    HW2 8393   2.855   3.694   0.822
 2779SOL     OW 8394   3.291   4.897   0.867
 2779SOL    HW1 8395   3.236   4.813   0.860
 2779SOL    HW2 8396   3.317   4.926   0.775
 2780SOL     OW 8397   3.328   4.314   0.992
 2780SOL    HW1 8398   3.298   4.219   0.999
 2780SOL    HW2 8399   3.401   4.330   1.058
 2781SOL     OW 8400   3.719   4.557   0.377
 2781SOL    HW1 8401   3.761   4.493   0.441
 2781SOL    HW2 8402   3.681   4.506   0.299
 2782SOL     OW 8403   3.526   5.004   0.657
 2782SOL    HW1 8404   3.625   5.012   0.671
 2782SOL    HW2 8405   3.481   5.088   0.688
 2783SOL     OW 8406   3.252   4.299   0.078
 2783SOL    HW1 8407   3.198   4.278   0.159
 2783SOL    HW2 8408   3.343   4.258   0.087
 2784SOL     OW 8409   2.389   3.980   0.328
 2784SOL    HW1 8410   2.416   3.921   0.253
 2784SOL    HW2 8411   2.389   4.075   0.297
 2785SOL     OW 8412   3.616   4.947   1.588
 2785SOL    HW1 8413   3.707   4.908   1.575
 2785SOL    HW2 8414   3.624   5.043   1.612
 2786SOL     OW 8415   3.500   4.823   1.079
 2786SOL    HW1 8416   3.505   4.904   1.138
 2786SOL    HW2 8417   3.414   4.825   1.028
 2787SOL     OW 8418   2.777   3.813   1.402
 2787SOL    HW1 8419   2.802   3.793   1.307
 2787SOL    HW2 8420   2.849   3.869   1.444
 2788SOL     OW 8421   2.842   4.840   1.719
 2788SOL    HW1 8422   2.743   4.846   1.729
 2788SOL    HW2 8423   2.865   4.760   1.663
 2789SOL     OW 8424   2.567   4.774   0.368
 2789SOL    HW1 8425   2.553   4.781   0.467
 2789SOL    HW2 8426   2.651   4.723   0.350
 2790SOL     OW 8427   2.272   4.537   1.251
 2790SOL    HW1 8428   2.358   4.549   1.301
 2790SOL    HW2 8429   2.230   4.450   1.278
 2791SOL     OW 8430   3.136   4.110   1.262
 2791SOL    HW1 8431   3.157   4.184   1.326
 2791SOL    HW2 8432   3.047   4.127   1.219
 2792SOL     OW 8433   2.229   4.824   0.501
 2792SOL    HW1 8434   2.222   4.907   0.445
 2792SOL    HW2 8435   2.233   4.744   0.441
 2793SOL     OW 8436   2.428   4.261   0.865
 2793SOL    HW1 8437   2.440   4.327   0.791
 2793SOL    HW2 8438   2.474   4.295   0.948
 2794SOL     OW 8439   3.444   4.363   0.472
 2794SOL    HW1 8440   3.413   4.424   0.545
 2794SOL    HW2 8441   3.494   4.415   0.403
 2795SOL     OW 8442   2.264   4.475   1.598
 2795SOL    HW1 8443   2.332   4.530   1.551
 2795SOL    HW2 8444   2.304   4.387   1.625
 2796SOL     OW 8445   3.449   4.503   1.670
 2796SOL    HW1 8446   3.357   4.541   1.665
 2796SOL    HW2 8447   3.509   4.550   1.605
 2797SOL     OW 8448   2.875   3.829   1.770
 2797SOL    HW1 8449   2.881   3.914   1.718
 2797SOL    HW2 8450   2.907   3.753   1.713
 2798SOL     OW 8451   2.366   3.774   1.740
 2798SOL    HW1 8452   2.324   3.717   1.670
 2798SOL    HW2 8453   2.300   3.843   1.772
 2799SOL     OW 8454   2.435   4.594   1.029
 2799SOL    HW1 8455   2.479   4.683   1.020
 2799SOL    HW2 8456   2.372   4.594   1.106
 2800SOL     OW 8457   3.222   4.586   1.045
 2800SOL    HW1 8458   3.147   4.586   0.979
 2800SOL    HW2 8459   3.259   4.494   1.054
 2801SOL     OW 8460   3.071   4.249   0.275
 2801SOL    HW1 8461   3.084   4.165   0.329
 2801SOL    HW2 8462   3.042   4.323   0.335
 2802SOL     OW 8463   2.169   3.937   1.231
 2802SOL    HW1 8464   2.146   3.974   1.321
 2802SOL    HW2 8465   2.139   3.842   1.225
 2803SOL     OW 8466   2.594   4.358   1.064
 2803SOL    HW1 8467   2.653   4.332   0.988
 2803SOL    HW2 8468   2.566   4.454   1.053
 2804SOL     OW 8469   3.590   4.659   1.854
 2804SOL    HW1 8470   3.544   4.652   1.765
 2804SOL    HW2 8471   3.528   4.703   1.920
 2805SOL     OW 8472   2.169   3.787   0.618
 2805SOL    HW1 8473   2.158   3.881   0.651
 2805SOL    HW2 8474   2.164   3.724   0.695
 2806SOL     OW 8475   3.484   4.091   0.374
 2806SOL    HW1 8476   3.486   4.015   0.438
 2806SOL    HW2 8477   3.436   4.168   0.414
 2807SOL     OW 8478   2.885   4.490   0.966
 2807SOL    HW1 8479   2.900   4.511   1.062
 2807SOL    HW2 8480   2.855   4.395   0.957
 2808SOL     OW 8481   3.721   5.242   1.605
 2808SOL    HW1 8482   3.735   5.269   1.510
 2808SOL    HW2 8483   3.804   5.264   1.658
 2809SOL     OW 8484   2.212   4.622   1.804
 2809SOL    HW1 8485   2.288   4.666   1.852
 2809SOL    HW2 8486   2.247   4.575   1.722
 2810SOL     OW 8487   3.402   3.998   0.125
 2810SOL    HW1 8488   3.341   3.923   0.148
 2810SOL    HW2 8489   3.424   4.050   0.208
 2811SOL     OW 8490   3.165   4.562   0.042
 2811SOL    HW1 8491   3.199   4.469   0.057
 2811SOL    HW2 8492   3.183   4.589  -0.053
 2812SOL     OW 8493   2.181   4.534   0.949
 2812SOL    HW1 8494   2.274   4.570   0.954
 2812SOL    HW2 8495   2.175   4.449   1.001
 2813SOL     OW 8496   2.201   4.233   1.006
 2813SOL    HW1 8497   2.149   4.150   0.989
 2813SOL    HW2 8498   2.278   4.238   0.942
 2814SOL     OW 8499   3.000   4.104   1.678
 2814SOL    HW1 8500   2.955   4.167   1.742
 2814SOL    HW2 8501   3.093   4.135   1.661
 2815SOL     OW 8502   3.022   3.931   1.477
 2815SOL    HW1 8503   3.022   3.995   1.554
 2815SOL    HW2 8504   3.050   3.979   1.394
 2816SOL     OW 8505   2.864   4.520   1.238
 2816SOL    HW1 8506   2.905   4.488   1.324
 2816SOL    HW2 8507   2.768   4.493   1.235
 2817SOL     OW 8508   1.902   4.268   1.114
 2817SOL    HW1 8509   1.987   4.235   1.073
 2817SOL    HW2 8510   1.915   4.283   1.212
 2818SOL     OW 8511   2.051   4.244   1.722
 2818SOL    HW1 8512   2.110   4.204   1.652
 2818SOL    HW2 8513   1.993   4.315   1.681
 2819SOL     OW 8514   3.231   4.674   1.660
 2819SOL    HW1 8515   3.270   4.763   1.680
 2819SOL    HW2 8516   3.241   4.654   1.563
 2820SOL     OW 8517   2.677   4.296   0.325
 2820SOL    HW1 8518   2.684   4.207   0.279
 2820SOL    HW2 8519   2.583   4.330   0.317
 2821SOL     OW 8520   3.519   4.328   1.206
 2821SOL    HW1 8521   3.481   4.259   1.268
 2821SOL    HW2 8522   3.601   4.292   1.162
 2822SOL     OW 8523   2.533   4.188   1.269
 2822SOL    HW1 8524   2.499   4.099   1.239
 2822SOL    HW2 8525   2.559   4.242   1.189
 2823SOL     OW 8526   2.335   4.224   0.191
 2823SOL    HW1 8527   2.396   4.304   0.195
 2823SOL    HW2 8528   2.240   4.255   0.198
 2824SOL     OW 8529   2.021   4.861   1.466
 2824SOL    HW1 8530   2.043   4.800   1.542
 2824SOL    HW2 8531   2.031   4.812   1.380
 2825SOL     OW 8532   3.209   4.783   1.234
 2825SOL    HW1 8533   3.233   4.720   1.160
 2825SOL    HW2 8534   3.119   4.823   1.216
 2826SOL     OW 8535   3.164   4.579   0.309
 2826SOL    HW1 8536   3.078   4.548   0.351
 2826SOL    HW2 8537   3.160   4.565   0.210
 2827SOL     OW 8538   1.945   4.982   1.022
 2827SOL    HW1 8539   1.940   4.981   1.122
 2827SOL    HW2 8540   1.862   4.941   0.984
 2828SOL     OW 8541   2.765   3.810   0.133
 2828SOL    HW1 8542   2.816   3.811   0.047
 2828SOL    HW2 8543   2.821   3.768   0.204
 2829SOL     OW 8544   3.588   3.859   0.523
 2829SOL    HW1 8545   3.661   3.842   0.456
 2829SOL    HW2 8546   3.557   3.772   0.561
 2830SOL     OW 8547   3.142   4.651   0.672
 2830SOL    HW1 8548   3.202   4.570   0.674
 2830SOL    HW2 8549   3.182   4.720   0.612
 2831SOL     OW 8550   2.692   4.997   1.422
 2831SOL    HW1 8551   2.687   5.030   1.517
 2831SOL    HW2 8552   2.606   5.016   1.376
 2832SOL     OW 8553   3.703   3.899   0.963
 2832SOL    HW1 8554   3.742   3.814   0.927
 2832SOL    HW2 8555   3.605   3.901   0.944
 2833SOL     OW 8556   2.125   4.050   0.720
 2833SOL    HW1 8557   2.046   4.101   0.686
 2833SOL    HW2 8558   2.116   4.035   0.818
 2834SOL     OW 8559   2.684   4.726   1.372
 2834SOL    HW1 8560   2.724   4.725   1.280
 2834SOL    HW2 8561   2.694   4.818   1.412
 2835SOL     OW 8562   2.778   4.634   0.291
 2835SOL    HW1 8563   2.841   4.672   0.223
 2835SOL    HW2 8564   2.818   4.551   0.330
 2836SOL     OW 8565   2.234   5.012   1.490
 2836SOL    HW1 8566   2.221   5.105   1.456
 2836SOL    HW2 8567   2.150   4.960   1.477
 2837SOL     OW 8568   3.476   5.016   1.289
 2837SOL    HW1 8569   3.536   5.019   1.369
 2837SOL    HW2 8570   3.401   5.080   1.302
 2838SOL     OW 8571   2.901   4.822   0.696
 2838SOL    HW1 8572   2.831   4.775   0.750
 2838SOL    HW2 8573   2.960   4.754   0.653
 2839SOL     OW 8574   2.876   3.960   0.971
 2839SOL    HW1 8575   2.868   3.924   0.878
 2839SOL    HW2 8576   2.874   3.884   1.036
 2840SOL     OW 8577   3.571   4.109   1.381
 2840SOL    HW1 8578   3.644   4.178   1.385
 2840SOL    HW2 8579   3.599   4.034   1.322
 2841SOL     OW 8580   1.967   4.737   1.726
 2841SOL    HW1 8581   1.890   4.704   1.780
 2841SOL    HW2 8582   2.052   4.707   1.768
 2842SOL     OW 8583   2.534   3.927   1.489
 2842SOL    HW1 8584   2.624   3.911   1.449
 2842SOL    HW2 8585   2.542   3.932   1.588
 2843SOL     OW 8586   3.302   4.580   1.398
 2843SOL    HW1 8587   3.245   4.632   1.335
 2843SOL    HW2 8588   3.398   4.592   1.374
 2844SOL     OW 8589   1.934   3.890   0.318
 2844SOL    HW1 8590   1.917   3.973   0.264
 2844SOL    HW2 8591   2.024   3.853   0.296
 2845SOL     OW 8592   2.475   4.566   1.431
 2845SOL    HW1 8593   2.531   4.647   1.414
 2845SOL    HW2 8594   2.534   4.486   1.434
 2846SOL     OW 8595   2.578   4.289   1.708
 2846SOL    HW1 8596   2.597   4.354   1.782
 2846SOL    HW2 8597   2.638   4.209   1.717
 2847SOL     OW 8598   3.312   4.944   1.633
 2847SOL    HW1 8599   3.303   4.934   1.732
 2847SOL    HW2 8600   3.408   4.937   1.607
 2848SOL     OW 8601   3.536   4.607   1.254
 2848SOL    HW1 8602   3.509   4.518   1.217
 2848SOL    HW2 8603   3.537   4.675   1.181
 2849SOL     OW 8604   3.087   4.049   0.449
 2849SOL    HW1 8605   3.152   3.975   0.438
 2849SOL    HW2 8606   3.107   4.099   0.533
 2850SOL     OW 8607   2.456   4.469   0.652
 2850SOL    HW1 8608   2.506   4.554   0.633
 2850SOL    HW2 8609   2.368   4.471   0.604
 2851SOL     OW 8610   3.639   4.066   1.642
 2851SOL    HW1 8611   3.622   4.097   1.548
 2851SOL    HW2 8612   3.555   4.029   1.680
 2852SOL     OW 8613   3.592   4.658   1.517
 2852SOL    HW1 8614   3.630   4.749   1.532
 2852SOL    HW2 8615   3.584   4.641   1.418
 2853SOL     OW 8616   2.721   4.680   0.861
 2853SOL    HW1 8617   2.775   4.611   0.909
 2853SOL    HW2 8618   2.689   4.749   0.927
 2854SOL     OW 8619   2.945   4.708   0.087
 2854SOL    HW1 8620   2.922   4.761   0.005
 2854SOL    HW2 8621   3.026   4.652   0.068
 2855SOL     OW 8622   1.941   4.964   0.653
 2855SOL    HW1 8623   1.940   4.917   0.741
 2855SOL    HW2 8624   2.023   4.936   0.602
 2856SOL     OW 8625   3.686   3.916   1.227
 2856SOL    HW1 8626   3.682   3.826   1.271
 2856SOL    HW2 8627   3.689   3.905   1.128
 2857SOL     OW 8628   2.290   4.148   0.520
 2857SOL    HW1 8629   2.320   4.076   0.458
 2857SOL    HW2 8630   2.251   4.108   0.603
 2858SOL     OW 8631   2.179   4.271   1.280
 2858SOL    HW1 8632   2.217   4.212   1.352
 2858SOL    HW2 8633   2.219   4.245   1.192
 2859SOL     OW 8634   3.286   3.938   1.112
 2859SOL    HW1 8635   3.338   3.873   1.167
 2859SOL    HW2 8636   3.237   4.001   1.173
 2860SOL     OW 8637   2.863   3.758   1.154
 2860SOL    HW1 8638   2.800   3.686   1.123
 2860SOL    HW2 8639   2.956   3.722   1.154
 2861SOL     OW 8640   2.632   5.054   0.301
 2861SOL    HW1 8641   2.586   4.967   0.318
 2861SOL    HW2 8642   2.723   5.051   0.342
 2862SOL     OW 8643   3.214   3.776   0.168
 2862SOL    HW1 8644   3.249   3.735   0.084
 2862SOL    HW2 8645   3.124   3.738   0.188
 2863SOL     OW 8646   3.162   4.177   0.691
 2863SOL    HW1 8647   3.103   4.257   0.695
 2863SOL    HW2 8648   3.177   4.142   0.784
 2864SOL     OW 8649   3.455   3.945   0.882
 2864SOL    HW1 8650   3.371   3.944   0.936
 2864SOL    HW2 8651   3.457   4.028   0.826
 2865SOL     OW 8652   1.901   4.801   0.300
 2865SOL    HW1 8653   2.000   4.790   0.291
 2865SOL    HW2 8654   1.861   4.715   0.332
 2866SOL     OW 8655   2.092   4.352   1.975
 2866SOL    HW1 8656   1.999   4.350   2.012
 2866SOL    HW2 8657   2.093   4.313   1.883
 2867SOL     OW 8658   2.087   3.999   2.858
 2867SOL    HW1 8659   2.122   3.982   2.950
 2867SOL    HW2 8660   1.999   3.954   2.846
 2868SOL     OW 8661   1.881   4.092   2.509
 2868SOL    HW1 8662   1.799   4.135   2.548
 2868SOL    HW2 8663   1.853   4.019   2.446
 2869SOL     OW 8664   2.431   4.999   3.027
 2869SOL    HW1 8665   2.338   4.992   2.990
 2869SOL    HW2 8666   2.442   5.088   3.071
 2870SOL     OW 8667   3.417   5.235   2.565
 2870SOL    HW1 8668   3.360   5.219   2.646
 2870SOL    HW2 8669   3.358   5.245   2.485
 2871SOL     OW 8670   2.997   4.427   2.579
 2871SOL    HW1 8671   3.054   4.505   2.554
 2871SOL    HW2 8672   2.937   4.453   2.655
 2872SOL     OW 8673   3.617   4.331   2.093
 2872SOL    HW1 8674   3.605   4.318   1.994
 2872SOL    HW2 8675   3.587   4.250   2.142
 2873SOL     OW 8676   2.630   4.868   2.885
 2873SOL    HW1 8677   2.552   4.885   2.945
 2873SOL    HW2 8678   2.664   4.955   2.849
 2874SOL     OW 8679   2.712   4.522   3.685
 2874SOL    HW1 8680   2.708   4.598   3.750
 2874SOL    HW2 8681   2.734   4.558   3.594
 2875SOL     OW 8682   2.547   4.736   2.527
 2875SOL    HW1 8683   2.616   4.720   2.597
 2875SOL    HW2 8684   2.474   4.793   2.565
 2876SOL     OW 8685   2.548   4.885   3.665
 2876SOL    HW1 8686   2.608   4.964   3.679
 2876SOL    HW2 8687   2.462   4.916   3.624
 2877SOL     OW 8688   2.197   5.159   2.923
 2877SOL    HW1 8689   2.119   5.128   2.870
 2877SOL    HW2 8690   2.255   5.217   2.866
 2878SOL     OW 8691   2.300   4.116   3.361
 2878SOL    HW1 8692   2.382   4.060   3.370
 2878SOL    HW2 8693   2.219   4.058   3.365
 2879SOL     OW 8694   3.465   4.171   2.599
 2879SOL    HW1 8695   3.391   4.217   2.549
 2879SOL    HW2 8696   3.516   4.239   2.652
 2880SOL     OW 8697   2.102   4.815   2.748
 2880SOL    HW1 8698   2.116   4.731   2.800
 2880SOL    HW2 8699   2.047   4.879   2.803
 2881SOL     OW 8700   2.468   4.688   1.985
 2881SOL    HW1 8701   2.475   4.772   1.931
 2881SOL    HW2 8702   2.514   4.701   2.073
 2882SOL     OW 8703   3.456   3.838   3.342
 2882SOL    HW1 8704   3.438   3.905   3.270
 2882SOL    HW2 8705   3.453   3.884   3.431
 2883SOL     OW 8706   1.984   4.367   2.425
 2883SOL    HW1 8707   1.939   4.279   2.442
 2883SOL    HW2 8708   1.983   4.421   2.509
 2884SOL     OW 8709   3.551   4.646   2.474
 2884SOL    HW1 8710   3.646   4.617   2.482
 2884SOL    HW2 8711   3.543   4.711   2.399
 2885SOL     OW 8712   3.503   4.832   2.294
 2885SOL    HW1 8713   3.589   4.834   2.242
 2885SOL    HW2 8714   3.517   4.879   2.382
 2886SOL     OW 8715   1.975   4.461   3.459
 2886SOL    HW1 8716   2.063   4.448   3.504
 2886SOL    HW2 8717   1.962   4.558   3.437
 2887SOL     OW 8718   3.155   4.952   3.285
 2887SOL    HW1 8719   3.192   4.879   3.227
 2887SOL    HW2 8720   3.207   4.957   3.370
 2888SOL     OW 8721   2.671   3.728   2.364
 2888SOL    HW1 8722   2.711   3.819   2.355
 2888SOL    HW2 8723   2.571   3.736   2.370
 2889SOL     OW 8724   2.059   4.700   3.126
 2889SOL    HW1 8725   2.148   4.655   3.112
 2889SOL    HW2 8726   1.986   4.635   3.107
 2890SOL     OW 8727   3.387   4.723   2.052
 2890SOL    HW1 8728   3.324   4.647   2.065
 2890SOL    HW2 8729   3.435   4.741   2.138
 2891SOL     OW 8730   2.179   3.975   3.663
 2891SOL    HW1 8731   2.250   4.046   3.669
 2891SOL    HW2 8732   2.091   4.014   3.691
 2892SOL     OW 8733   3.328   5.141   2.815
 2892SOL    HW1 8734   3.269   5.147   2.895
 2892SOL    HW2 8735   3.313   5.053   2.769
 2893SOL     OW 8736   2.460   4.453   2.132
 2893SOL    HW1 8737   2.484   4.522   2.064
 2893SOL    HW2 8738   2.382   4.486   2.186
 2894SOL     OW 8739   3.143   4.069   2.806
 2894SOL    HW1 8740   3.057   4.019   2.793
 2894SOL    HW2 8741   3.205   4.015   2.862
 2895SOL     OW 8742   2.669   4.329   3.327
 2895SOL    HW1 8743   2.622   4.326   3.416
 2895SOL    HW2 8744   2.618   4.274   3.261
 2896SOL     OW 8745   3.256   4.193   3.536
 2896SOL    HW1 8746   3.236   4.236   3.624
 2896SOL    HW2 8747   3.334   4.131   3.545
 2897SOL     OW 8748   2.835   4.614   3.434
 2897SOL    HW1 8749   2.881   4.530   3.405
 2897SOL    HW2 8750   2.779   4.648   3.359
 2898SOL     OW 8751   2.853   4.134   3.104
 2898SOL    HW1 8752   2.776   4.168   3.158
 2898SOL    HW2 8753   2.819   4.083   3.025
 2899SOL     OW 8754   2.903   4.425   2.291
 2899SOL    HW1 8755   2.929   4.421   2.387
 2899SOL    HW2 8756   2.818   4.374   2.277
 2900SOL     OW 8757   1.938   4.535   2.651
 2900SOL    HW1 8758   2.037   4.523   2.660
 2900SOL    HW2 8759   1.914   4.630   2.672
 2901SOL     OW 8760   2.727   4.072   2.057
 2901SOL    HW1 8761   2.786   4.135   2.008
 2901SOL    HW2 8762   2.746   3.978   2.028
 2902SOL     OW 8763   3.581   4.309   3.693
 2902SOL    HW1 8764   3.555   4.398   3.657
 2902SOL    HW2 8765   3.579   4.241   3.620
 2903SOL     OW 8766   3.224   4.868   2.407
 2903SOL    HW1 8767   3.307   4.839   2.359
 2903SOL    HW2 8768   3.175   4.935   2.351
 2904SOL     OW 8769   2.412   3.920   2.747
 2904SOL    HW1 8770   2.407   3.915   2.847
 2904SOL    HW2 8771   2.414   4.016   2.718
 2905SOL     OW 8772   3.657   4.790   2.735
 2905SOL    HW1 8773   3.595   4.775   2.659
 2905SOL    HW2 8774   3.605   4.801   2.820
 2906SOL     OW 8775   2.183   4.667   2.104
 2906SOL    HW1 8776   2.265   4.706   2.062
 2906SOL    HW2 8777   2.156   4.585   2.055
 2907SOL     OW 8778   3.320   4.459   2.590
 2907SOL    HW1 8779   3.315   4.394   2.665
 2907SOL    HW2 8780   3.400   4.518   2.603
 2908SOL     OW 8781   2.064   4.009   3.360
 2908SOL    HW1 8782   1.984   4.069   3.347
 2908SOL    HW2 8783   2.054   3.960   3.446
 2909SOL     OW 8784   3.494   5.101   1.943
 2909SOL    HW1 8785   3.462   5.195   1.933
 2909SOL    HW2 8786   3.418   5.038   1.931
 2910SOL     OW 8787   3.262   3.831   2.288
 2910SOL    HW1 8788   3.238   3.794   2.198
 2910SOL    HW2 8789   3.361   3.847   2.292
 2911SOL     OW 8790   2.244   4.424   2.342
 2911SOL    HW1 8791   2.289   4.334   2.339
 2911SOL    HW2 8792   2.150   4.413   2.375
 2912SOL     OW 8793   3.409   3.946   3.591
 2912SOL    HW1 8794   3.404   3.983   3.683
 2912SOL    HW2 8795   3.337   3.877   3.579
 2913SOL     OW 8796   2.476   3.846   1.979
 2913SOL    HW1 8797   2.574   3.824   1.986
 2913SOL    HW2 8798   2.445   3.829   1.886
 2914SOL     OW 8799   2.643   3.988   3.611
 2914SOL    HW1 8800   2.710   3.927   3.654
 2914SOL    HW2 8801   2.570   4.007   3.676
 2915SOL     OW 8802   3.213   4.314   3.295
 2915SOL    HW1 8803   3.241   4.271   3.380
 2915SOL    HW2 8804   3.238   4.410   3.296
 2916SOL     OW 8805   2.665   5.126   2.786
 2916SOL    HW1 8806   2.755   5.140   2.744
 2916SOL    HW2 8807   2.594   5.128   2.715
 2917SOL     OW 8808   2.784   4.227   2.761
 2917SOL    HW1 8809   2.759   4.218   2.665
 2917SOL    HW2 8810   2.832   4.145   2.792
 2918SOL     OW 8811   2.401   3.788   2.374
 2918SOL    HW1 8812   2.320   3.789   2.432
 2918SOL    HW2 8813   2.404   3.871   2.319
 2919SOL     OW 8814   3.296   4.912   1.903
 2919SOL    HW1 8815   3.328   4.836   1.960
 2919SOL    HW2 8816   3.204   4.939   1.933
 2920SOL     OW 8817   2.159   3.759   2.033
 2920SOL    HW1 8818   2.208   3.843   2.012
 2920SOL    HW2 8819   2.221   3.694   2.078
 2921SOL     OW 8820   2.797   3.960   2.342
 2921SOL    HW1 8821   2.749   4.001   2.264
 2921SOL    HW2 8822   2.896   3.958   2.323
 2922SOL     OW 8823   2.938   4.407   3.326
 2922SOL    HW1 8824   2.858   4.346   3.329
 2922SOL    HW2 8825   3.019   4.354   3.302
 2923SOL     OW 8826   3.089   5.294   2.655
 2923SOL    HW1 8827   3.110   5.368   2.590
 2923SOL    HW2 8828   3.157   5.294   2.728
 2924SOL     OW 8829   2.321   4.876   2.603
 2924SOL    HW1 8830   2.250   4.849   2.668
 2924SOL    HW2 8831   2.295   4.848   2.510
 2925SOL     OW 8832   2.894   4.273   1.878
 2925SOL    HW1 8833   2.853   4.355   1.839
 2925SOL    HW2 8834   2.958   4.299   1.951
 2926SOL     OW 8835   1.940   4.280   3.248
 2926SOL    HW1 8836   2.032   4.279   3.207
 2926SOL    HW2 8837   1.934   4.354   3.315
 2927SOL     OW 8838   2.423   3.946   3.009
 2927SOL    HW1 8839   2.461   3.862   3.046
 2927SOL    HW2 8840   2.335   3.965   3.053
 2928SOL     OW 8841   2.728   4.178   2.504
 2928SOL    HW1 8842   2.696   4.250   2.442
 2928SOL    HW2 8843   2.752   4.097   2.451
 2929SOL     OW 8844   2.879   3.763   2.615
 2929SOL    HW1 8845   2.807   3.768   2.546
 2929SOL    HW2 8846   2.855   3.694   2.684
 2930SOL     OW 8847   3.291   4.897   2.729
 2930SOL    HW1 8848   3.236   4.813   2.722
 2930SOL    HW2 8849   3.317   4.926   2.637
 2931SOL     OW 8850   3.328   4.314   2.854
 2931SOL    HW1 8851   3.298   4.219   2.861
 2931SOL    HW2 8852   3.401   4.330   2.920
 2932SOL     OW 8853   3.719   4.557   2.239
 2932SOL    HW1 8854   3.761   4.493   2.303
 2932SOL    HW2 8855   3.681   4.506   2.161
 2933SOL     OW 8856   3.526   5.004   2.519
 2933SOL    HW1 8857   3.625   5.012   2.533
 2933SOL    HW2 8858   3.481   5.088   2.550
 2934SOL     OW 8859   3.252   4.299   1.940
 2934SOL    HW1 8860   3.198   4.278   2.021
 2934SOL    HW2 8861   3.343   4.258   1.949
 2935SOL     OW 8862   2.389   3.980   2.190
 2935SOL    HW1 8863   2.416   3.921   2.115
 2935SOL    HW2 8864   2.389   4.075   2.159
 2936SOL     OW 8865   3.616   4.947   3.450
 2936SOL    HW1 8866   3.707   4.908   3.437
 2936SOL    HW2 8867   3.624   5.043   3.474
 2937SOL     OW 8868   3.500   4.823   2.941
 2937SOL    HW1 8869   3.505   4.904   3.000
 2937SOL    HW2 8870   3.414   4.825   2.890
 2938SOL     OW 8871   2.777   3.813   3.264
 2938SOL    HW1 8872   2.802   3.793   3.169
 2938SOL    HW2 8873   2.849   3.869   3.306
 2939SOL     OW 8874   2.842   4.840   3.581
 2939SOL    HW1 8875   2.743   4.846   3.591
 2939SOL    HW2 8876   2.865   4.760   3.525
 2940SOL     OW 8877   2.567   4.774   2.230
 2940SOL    HW1 8878   2.553   4.781   2.329
 2940SOL    HW2 8879   2.651   4.723   2.212
 2941SOL     OW 8880   2.272   4.537   3.113
 2941SOL    HW1 8881   2.358   4.549   3.163
 2941SOL    HW2 8882   2.230   4.450   3.140
 2942SOL     OW 8883   3.136   4.110   3.124
 2942SOL    HW1 8884   3.157   4.184   3.188
 2942SOL    HW2 8885   3.047   4.127   3.081
 2943SOL     OW 8886   2.229   4.824   2.363
 2943SOL    HW1 8887   2.222   4.907   2.307
 2943SOL    HW2 8888   2.233   4.744   2.303
 2944SOL     OW 8889   2.428   4.261   2.727
 2944SOL    HW1 8890   2.440   4.327   2.653
 2944SOL    HW2 8891   2.474   4.295   2.810
 2945SOL     OW 8892   3.444   4.363   2.334
 2945SOL    HW1 8893   3.413   4.424   2.407
 2945SOL    HW2 8894   3.494   4.415   2.265
 2946SOL     OW 8895   2.264   4.475   3.460
 2946SOL    HW1 8896   2.332   4.530   3.413
 2946SOL    HW2 8897   2.304   4.387   3.487
 2947SOL     OW 8898   3.449   4.503   3.532
 2947SOL    HW1 8899   3.357   4.541   3.527
 2947SOL    HW2 8900   3.509   4.550   3.467
 2948SOL     OW 8901   2.875   3.829   3.632
 2948SOL    HW1 8902   2.881   3.914   3.580
 2948SOL    HW2 8903   2.907   3.753   3.575
 2949SOL     OW 8904   2.366   3.774   3.602
 2949SOL    HW1 8905   2.324   3.717   3.532
 2949SOL    HW2 8906   2.300   3.843   3.634
 2950SOL     OW 8907   2.435   4.594   2.891
 2950SOL    HW1 8908   2.479   4.683   2.882
 2950SOL    HW2 8909   2.372   4.594   2.968
 2951SOL     OW 8910   3.222   4.586   2.907
 2951SOL    HW1 8911   3.147   4.586   2.841
 2951SOL    HW2 8912   3.259   4.494   2.916
 2952SOL     OW 8913   3.071   4.249   2.137
 2952SOL    HW1 8914   3.084   4.165   2.191
 2952SOL    HW2 8915   3.042   4.323   2.197
 2953SOL     OW 8916   2.169   3.937   3.093
 2953SOL    HW1 8917   2.146   3.974   3.183
 2953SOL    HW2 8918   2.139   3.842   3.087
 2954SOL     OW 8919   2.594   4.358   2.926
 2954SOL    HW1 8920   2.653   4.332   2.850
 2954SOL    HW2 8921   2.566   4.454   2.915
 2955SOL     OW 8922   3.590   4.659   3.716
 2955SOL    HW1 8923   3.544   4.652   3.627
 2955SOL    HW2 8924   3.528   4.703   3.782
 2956SOL     OW 8925   2.169   3.787   2.480
 2956SOL    HW1 8926   2.158   3.881   2.513
 2956SOL    HW2 8927   2.164   3.724   2.557
 2957SOL     OW 8928   3.484   4.091   2.236
 2957SOL    HW1 8929   3.486   4.015   2.300
 2957SOL    HW2 8930   3.436   4.168   2.276
 2958SOL     OW 8931   2.885   4.490   2.828
 2958SOL    HW1 8932   2.900   4.511   2.924
 2958SOL    HW2 8933   2.855   4.395   2.819
 2959SOL     OW 8934   3.721   5.242   3.467
 2959SOL    HW1 8935   3.735   5.269   3.372
 2959SOL    HW2 8936   3.804   5.264   3.520
 2960SOL     OW 8937   2.212   4.622   3.666
 2960SOL    HW1 8938   2.288   4.666   3.714
 2960SOL    HW2 8939   2.247   4.575   3.584
 2961SOL     OW 8940   3.402   3.998   1.987
 2961SOL    HW1 8941   3.341   3.923   2.010
 2961SOL    HW2 8942   3.424   4.050   2.070
 2962SOL     OW 8943   3.165   4.562   1.904
 2962SOL    HW1 8944   3.199   4.469   1.919
 2962SOL    HW2 8945   3.183   4.589   1.809
 2963SOL     OW 8946   2.181   4.534   2.811
 2963SOL    HW1 8947   2.274   4.570   2.816
 2963SOL    HW2 8948   2.175   4.449   2.863
 2964SOL     OW 8949   2.201   4.233   2.868
 2964SOL    HW1 8950   2.149   4.150   2.851
 2964SOL    HW2 8951   2.278   4.238   2.804
 2965SOL     OW 8952   3.000   4.104   3.540
 2965SOL    HW1 8953   2.955   4.167   3.604
 2965SOL    HW2 8954   3.093   4.135   3.523
 2966SOL     OW 8955   3.022   3.931   3.339
 2966SOL    HW1 8956   3.022   3.995   3.416
 2966SOL    HW2 8957   3.050   3.979   3.256
 2967SOL     OW 8958   1.870   5.050   2.062
 2967SOL    HW1 8959   1.777   5.071   2.031
 2967SOL    HW2 8960   1.880   4.951   2.075
 2968SOL     OW 8961   2.864   4.520   3.100
 2968SOL    HW1 8962   2.905   4.488   3.186
 2968SOL    HW2 8963   2.768   4.493   3.097
 2969SOL     OW 8964   1.902   4.268   2.976
 2969SOL    HW1 8965   1.987   4.235   2.935
 2969SOL    HW2 8966   1.915   4.283   3.074
 2970SOL     OW 8967   2.051   4.244   3.584
 2970SOL    HW1 8968   2.110   4.204   3.514
 2970SOL    HW2 8969   1.993   4.315   3.543
 2971SOL     OW 8970   3.231   4.674   3.522
 2971SOL    HW1 8971   3.270   4.763   3.542
 2971SOL    HW2 8972   3.241   4.654   3.425
 2972SOL     OW 8973   2.677   4.296   2.187
 2972SOL    HW1 8974   2.684   4.207   2.141
 2972SOL    HW2 8975   2.583   4.330   2.179
 2973SOL     OW 8976   3.519   4.328   3.068
 2973SOL    HW1 8977   3.481   4.259   3.130
 2973SOL    HW2 8978   3.601   4.292   3.024
 2974SOL     OW 8979   2.533   4.188   3.131
 2974SOL    HW1 8980   2.499   4.099   3.101
 2974SOL    HW2 8981   2.559   4.242   3.051
 2975SOL     OW 8982   2.335   4.224   2.053
 2975SOL    HW1 8983   2.396   4.304   2.057
 2975SOL    HW2 8984   2.240   4.255   2.060
 2976SOL     OW 8985   2.021   4.861   3.328
 2976SOL    HW1 8986   2.043   4.800   3.404
 2976SOL    HW2 8987   2.031   4.812   3.242
 2977SOL     OW 8988   3.209   4.783   3.096
 2977SOL    HW1 8989   3.233   4.720   3.022
 2977SOL    HW2 8990   3.119   4.823   3.078
 2978SOL     OW 8991   3.164   4.579   2.171
 2978SOL    HW1 8992   3.078   4.548   2.213
 2978SOL    HW2 8993   3.160   4.565   2.072
 2979SOL     OW 8994   1.945   4.982   2.884
 2979SOL    HW1 8995   1.940   4.981   2.984
 2979SOL    HW2 8996   1.862   4.941   2.846
 2980SOL     OW 8997   3.588   3.859   2.385
 2980SOL    HW1 8998   3.661   3.842   2.318
 2980SOL    HW2 8999   3.557   3.772   2.423
 2981SOL     OW 9000   3.142   4.651   2.534
 2981SOL    HW1 9001   3.202   4.570   2.536
 2981SOL    HW2 9002   3.182   4.720   2.474
 2982SOL     OW 9003   2.692   4.997   3.284
 2982SOL    HW1 9004   2.687   5.030   3.379
 2982SOL    HW2 9005   2.606   5.016   3.238
 2983SOL     OW 9006   3.703   3.899   2.825
 2983SOL    HW1 9007   3.742   3.814   2.789
 2983SOL    HW2 9008   3.605   3.901   2.806
 2984SOL     OW 9009   2.125   4.050   2.582
 2984SOL    HW1 9010   2.046   4.101   2.548
 2984SOL    HW2 9011   2.116   4.035   2.680
 2985SOL     OW 9012   3.056   5.336   1.893
 2985SOL    HW1 9013   3.062   5.243   1.930
 2985SOL    HW2 9014   2.997   5.336   1.813
 2986SOL     OW 9015   2.684   4.726   3.234
 2986SOL    HW1 9016   2.724   4.725   3.142
 2986SOL    HW2 9017   2.694   4.818   3.274
 2987SOL     OW 9018   2.778   4.634   2.153
 2987SOL    HW1 9019   2.841   4.672   2.085
 2987SOL    HW2 9020   2.818   4.551   2.192
 2988SOL     OW 9021   2.234   5.012   3.352
 2988SOL    HW1 9022   2.221   5.105   3.318
 2988SOL    HW2 9023   2.150   4.960   3.339
 2989SOL     OW 9024   3.476   5.016   3.151
 2989SOL    HW1 9025   3.536   5.019   3.231
 2989SOL    HW2 9026   3.401   5.080   3.164
 2990SOL     OW 9027   2.901   4.822   2.558
 2990SOL    HW1 9028   2.831   4.775   2.612
 2990SOL    HW2 9029   2.960   4.754   2.515
 2991SOL     OW 9030   2.876   3.960   2.833
 2991SOL    HW1 9031   2.868   3.924   2.740
 2991SOL    HW2 9032   2.874   3.884   2.898
 2992SOL     OW 9033   3.571   4.109   3.243
 2992SOL    HW1 9034   3.644   4.178   3.247
 2992SOL    HW2 9035   3.599   4.034   3.184
 2993SOL     OW 9036   1.967   4.737   3.588
 2993SOL    HW1 9037   1.890   4.704   3.642
 2993SOL    HW2 9038   2.052   4.707   3.630
 2994SOL     OW 9039   2.534   3.927   3.351
 2994SOL    HW1 9040   2.624   3.911   3.311
 2994SOL    HW2 9041   2.542   3.932   3.450
 2995SOL     OW 9042   1.937   4.069   1.895
 2995SOL    HW1 9043   1.845   4.041   1.866
 2995SOL    HW2 9044   1.968   4.146   1.839
 2996SOL     OW 9045   3.302   4.580   3.260
 2996SOL    HW1 9046   3.245   4.632   3.197
 2996SOL    HW2 9047   3.398   4.592   3.236
 2997SOL     OW 9048   1.934   3.890   2.180
 2997SOL    HW1 9049   1.917   3.973   2.126
 2997SOL    HW2 9050   2.024   3.853   2.158
 2998SOL     OW 9051   2.475   4.566   3.293
 2998SOL    HW1 9052   2.531   4.647   3.276
 2998SOL    HW2 9053   2.534   4.486   3.296
 2999SOL     OW 9054   2.578   4.289   3.570
 2999SOL    HW1 9055   2.597   4.354   3.644
 2999SOL    HW2 9056   2.638   4.209   3.579
 3000SOL     OW 9057   3.312   4.944   3.495
 3000SOL    HW1 9058   3.303   4.934   3.594
 3000SOL    HW2 9059   3.408   4.937   3.469
 3001SOL     OW 9060   3.536   4.607   3.116
 3001SOL    HW1 9061   3.509   4.518   3.079
 3001SOL    HW2 9062   3.537   4.675   3.043
 3002SOL     OW 9063   3.087   4.049   2.311
 3002SOL    HW1 9064   3.152   3.975   2.300
 3002SOL    HW2 9065   3.107   4.099   2.395
 3003SOL     OW 9066   2.456   4.469   2.514
 3003SOL    HW1 9067   2.506   4.554   2.495
 3003SOL    HW2 9068   2.368   4.471   2.466
 3004SOL     OW 9069   3.639   4.066   3.504
 3004SOL    HW1 9070   3.622   4.097   3.410
 3004SOL    HW2 9071   3.555   4.029   3.542
 3005SOL     OW 9072   3.592   4.658   3.379
 3005SOL    HW1 9073   3.630   4.749   3.394
 3005SOL    HW2 9074   3.584   4.641   3.280
 3006SOL     OW 9075   2.721   4.680   2.723
 3006SOL    HW1 9076   2.775   4.611   2.771
 3006SOL    HW2 9077   2.689   4.749   2.789
 3007SOL     OW 9078   2.945   4.708   1.949
 3007SOL    HW1 9079   2.922   4.761   1.867
 3007SOL    HW2 9080   3.026   4.652   1.930
 3008SOL     OW 9081   1.941   4.964   2.515
 3008SOL    HW1 9082   1.940   4.917   2.603
 3008SOL    HW2 9083   2.023   4.936   2.464
 3009SOL     OW 9084   3.686   3.916   3.089
 3009SOL    HW1 9085   3.682   3.826   3.133
 3009SOL    HW2 9086   3.689   3.905   2.990
 3010SOL     OW 9087   2.290   4.148   2.382
 3010SOL    HW1 9088   2.320   4.076   2.320
 3010SOL    HW2 9089   2.251   4.108   2.465
 3011SOL     OW 9090   2.179   4.271   3.142
 3011SOL    HW1 9091   2.217   4.212   3.214
 3011SOL    HW2 9092   2.219   4.245   3.054
 3012SOL     OW 9093   3.286   3.938   2.974
 3012SOL    HW1 9094   3.338   3.873   3.029
 3012SOL    HW2 9095   3.237   4.001   3.035
 3013SOL     OW 9096   2.863   3.758   3.016
 3013SOL    HW1 9097   2.800   3.686   2.985
 3013SOL    HW2 9098   2.956   3.722   3.016
 3014SOL     OW 9099   2.632   5.054   2.163
 3014SOL    HW1 9100   2.586   4.967   2.180
 3014SOL    HW2 9101   2.723   5.051   2.204
 3015SOL     OW 9102   3.214   3.776   2.030
 3015SOL    HW1 9103   3.249   3.735   1.946
 3015SOL    HW2 9104   3.124   3.738   2.050
 3016SOL     OW 9105   3.162   4.177   2.553
 3016SOL    HW1 9106   3.103   4.257   2.557
 3016SOL    HW2 9107   3.177   4.142   2.646
 3017SOL     OW 9108   3.455   3.945   2.744
 3017SOL    HW1 9109   3.371   3.944   2.798
 3017SOL    HW2 9110   3.457   4.028   2.688
 3018SOL     OW 9111   1.901   4.801   2.162
 3018SOL    HW1 9112   2.000   4.790   2.153
 3018SOL    HW2 9113   1.861   4.715   2.194
 3019SOL     OW 9114   2.092   4.352   3.837
 3019SOL    HW1 9115   1.999   4.350   3.874
 3019SOL    HW2 9116   2.093   4.313   3.745
 3020SOL     OW 9117   2.087   3.999   4.720
 3020SOL    HW1 9118   2.122   3.982   4.812
 3020SOL    HW2 9119   1.999   3.954   4.708
 3021SOL     OW 9120   1.881   4.092   4.371
 3021SOL    HW1 9121   1.799   4.135   4.410
 3021SOL    HW2 9122   1.853   4.019   4.308
 3022SOL     OW 9123   2.431   4.999   4.889
 3022SOL    HW1 9124   2.338   4.992   4.852
 3022SOL    HW2 9125   2.442   5.088   4.933
 3023SOL     OW 9126   3.417   5.235   4.427
 3023SOL    HW1 9127   3.360   5.219   4.508
 3023SOL    HW2 9128   3.358   5.245   4.347
 3024SOL     OW 9129   2.997   4.427   4.441
 3024SOL    HW1 9130   3.054   4.505   4.416
 3024SOL    HW2 9131   2.937   4.453   4.517
 3025SOL     OW 9132   3.617   4.331   3.955
 3025SOL    HW1 9133   3.605   4.318   3.856
 3025SOL    HW2 9134   3.587   4.250   4.004
 3026SOL     OW 9135   2.630   4.868   4.747
 3026SOL    HW1 9136   2.552   4.885   4.807
 3026SOL    HW2 9137   2.664   4.955   4.711
 3027SOL     OW 9138   2.547   4.736   4.389
 3027SOL    HW1 9139   2.616   4.720   4.459
 3027SOL    HW2 9140   2.474   4.793   4.427
 3028SOL     OW 9141   2.197   5.159   4.785
 3028SOL    HW1 9142   2.119   5.128   4.732
 3028SOL    HW2 9143   2.255   5.217   4.728
 3029SOL     OW 9144   3.465   4.171   4.461
 3029SOL    HW1 9145   3.391   4.217   4.411
 3029SOL    HW2 9146   3.516   4.239   4.514
 3030SOL     OW 9147   2.102   4.815   4.610
 3030SOL    HW1 9148   2.116   4.731   4.662
 3030SOL    HW2 9149   2.047   4.879   4.665
 3031SOL     OW 9150   2.468   4.688   3.847
 3031SOL    HW1 9151   2.475   4.772   3.793
 3031SOL    HW2 9152   2.514   4.701   3.935
 3032SOL     OW 9153   1.984   4.367   4.287
 3032SOL    HW1 9154   1.939   4.279   4.304
 3032SOL    HW2 9155   1.983   4.421   4.371
 3033SOL     OW 9156   3.551   4.646   4.336
 3033SOL    HW1 9157   3.646   4.617   4.344
 3033SOL    HW2 9158   3.543   4.711   4.261
 3034SOL     OW 9159   3.503   4.832   4.156
 3034SOL    HW1 9160   3.589   4.834   4.104
 3034SOL    HW2 9161   3.517   4.879   4.244
 3035SOL     OW 9162   2.671   3.728   4.226
 3035SOL    HW1 9163   2.711   3.819   4.217
 3035SOL    HW2 9164   2.571   3.736   4.232
 3036SOL     OW 9165   2.059   4.700   4.988
 3036SOL    HW1 9166   2.148   4.655   4.974
 3036SOL    HW2 9167   1.986   4.635   4.969
 3037SOL     OW 9168   3.387   4.723   3.914
 3037SOL    HW1 9169   3.324   4.647   3.927
 3037SOL    HW2 9170   3.435   4.741   4.000
 3038SOL     OW 9171   3.328   5.141   4.677
 3038SOL    HW1 9172   3.269   5.147   4.757
 3038SOL    HW2 9173   3.313   5.053   4.631
 3039SOL     OW 9174   2.460   4.453   3.994
 3039SOL    HW1 9175   2.484   4.522   3.926
 3039SOL    HW2 9176   2.382   4.486   4.048
 3040SOL     OW 9177   3.143   4.069   4.668
 3040SOL    HW1 9178   3.057   4.019   4.655
 3040SOL    HW2 9179   3.205   4.015   4.724
 3041SOL     OW 9180   2.853   4.134   4.966
 3041SOL    HW1 9181   2.776   4.168   5.020
 3041SOL    HW2 9182   2.819   4.083   4.887
 3042SOL     OW 9183   2.903   4.425   4.153
 3042SOL    HW1 9184   2.929   4.421   4.249
 3042SOL    HW2 9185   2.818   4.374   4.139
 3043SOL     OW 9186   1.938   4.535   4.513
 3043SOL    HW1 9187   2.037   4.523   4.522
 3043SOL    HW2 9188   1.914   4.630   4.534
 3044SOL     OW 9189   2.727   4.072   3.919
 3044SOL    HW1 9190   2.786   4.135   3.870
 3044SOL    HW2 9191   2.746   3.978   3.890
 3045SOL     OW 9192   3.224   4.868   4.269
 3045SOL    HW1 9193   3.307   4.839   4.221
 3045SOL    HW2 9194   3.175   4.935   4.213
 3046SOL     OW 9195   2.412   3.920   4.609
 3046SOL    HW1 9196   2.407   3.915   4.709
 3046SOL    HW2 9197   2.414   4.016   4.580
 3047SOL     OW 9198   3.657   4.790   4.597
 3047SOL    HW1 9199   3.595   4.775   4.521
 3047SOL    HW2 9200   3.605   4.801   4.682
 3048SOL     OW 9201   2.183   4.667   3.966
 3048SOL    HW1 9202   2.265   4.706   3.924
 3048SOL    HW2 9203   2.156   4.585   3.917
 3049SOL     OW 9204   3.320   4.459   4.452
 3049SOL    HW1 9205   3.315   4.394   4.527
 3049SOL    HW2 9206   3.400   4.518   4.465
 3050SOL     OW 9207   3.494   5.101   3.805
 3050SOL    HW1 9208   3.462   5.195   3.795
 3050SOL    HW2 9209   3.418   5.038   3.793
 3051SOL     OW 9210   3.262   3.831   4.150
 3051SOL    HW1 9211   3.238   3.794   4.060
 3051SOL    HW2 9212   3.361   3.847   4.154
 3052SOL     OW 9213   2.244   4.424   4.204
 3052SOL    HW1 9214   2.289   4.334   4.201
 3052SOL    HW2 9215   2.150   4.413   4.237
 3053SOL     OW 9216   2.476   3.846   3.841
 3053SOL    HW1 9217   2.574   3.824   3.848
 3053SOL    HW2 9218   2.445   3.829   3.748
 3054SOL     OW 9219   2.665   5.126   4.648
 3054SOL    HW1 9220   2.755   5.140   4.606
 3054SOL    HW2 9221   2.594   5.128   4.577
 3055SOL     OW 9222   2.784   4.227   4.623
 3055SOL    HW1 9223   2.759   4.218   4.527
 3055SOL    HW2 9224   2.832   4.145   4.654
 3056SOL     OW 9225   2.401   3.788   4.236
 3056SOL    HW1 9226   2.320   3.789   4.294
 3056SOL    HW2 9227   2.404   3.871   4.181
 3057SOL     OW 9228   3.296   4.912   3.765
 3057SOL    HW1 9229   3.328   4.836   3.822
 3057SOL    HW2 9230   3.204   4.939   3.795
 3058SOL     OW 9231   2.159   3.759   3.895
 3058SOL    HW1 9232   2.208   3.843   3.874
 3058SOL    HW2 9233   2.221   3.694   3.940
 3059SOL     OW 9234   2.797   3.960   4.204
 3059SOL    HW1 9235   2.749   4.001   4.126
 3059SOL    HW2 9236   2.896   3.958   4.185
 3060SOL     OW 9237   3.089   5.294   4.517
 3060SOL    HW1 9238   3.110   5.368   4.452
 3060SOL    HW2 9239   3.157   5.294   4.590
 3061SOL     OW 9240   2.321   4.876   4.465
 3061SOL    HW1 9241   2.250   4.849   4.530
 3061SOL    HW2 9242   2.295   4.848   4.372
 3062SOL     OW 9243   2.894   4.273   3.740
 3062SOL    HW1 9244   2.853   4.355   3.701
 3062SOL    HW2 9245   2.958   4.299   3.813
 3063SOL     OW 9246   2.423   3.946   4.871
 3063SOL    HW1 9247   2.461   3.862   4.908
 3063SOL    HW2 9248   2.335   3.965   4.915
 3064SOL     OW 9249   2.728   4.178   4.366
 3064SOL    HW1 9250   2.696   4.250   4.304
 3064SOL    HW2 9251   2.752   4.097   4.313
 3065SOL     OW 9252   2.879   3.763   4.477
 3065SOL    HW1 9253   2.807   3.768   4.408
 3065SOL    HW2 9254   2.855   3.694   4.546
 3066SOL     OW 9255   3.291   4.897   4.591
 3066SOL    HW1 9256   3.236   4.813   4.584
 3066SOL    HW2 9257   3.317   4.926   4.499
 3067SOL     OW 9258   3.328   4.314   4.716
 3067SOL    HW1 9259   3.298   4.219   4.723
 3067SOL    HW2 9260   3.401   4.330   4.782
 3068SOL     OW 9261   3.719   4.557   4.101
 3068SOL    HW1 9262   3.761   4.493   4.165
 3068SOL    HW2 9263   3.681   4.506   4.023
 3069SOL     OW 9264   3.526   5.004   4.381
 3069SOL    HW1 9265   3.625   5.012   4.395
 3069SOL    HW2 9266   3.481   5.088   4.412
 3070SOL     OW 9267   3.252   4.299   3.802
 3070SOL    HW1 9268   3.198   4.278   3.883
 3070SOL    HW2 9269   3.343   4.258   3.811
 3071SOL     OW 9270   2.389   3.980   4.052
 3071SOL    HW1 9271   2.416   3.921   3.977
 3071SOL    HW2 9272   2.389   4.075   4.021
 3072SOL     OW 9273   3.500   4.823   4.803
 3072SOL    HW1 9274   3.505   4.904   4.862
 3072SOL    HW2 9275   3.414   4.825   4.752
 3073SOL     OW 9276   2.567   4.774   4.092
 3073SOL    HW1 9277   2.553   4.781   4.191
 3073SOL    HW2 9278   2.651   4.723   4.074
 3074SOL     OW 9279   2.272   4.537   4.975
 3074SOL    HW1 9280   2.358   4.549   5.025
 3074SOL    HW2 9281   2.230   4.450   5.002
 3075SOL     OW 9282   3.136   4.110   4.986
 3075SOL    HW1 9283   3.157   4.184   5.050
 3075SOL    HW2 9284   3.047   4.127   4.943
 3076SOL     OW 9285   2.229   4.824   4.225
 3076SOL    HW1 9286   2.222   4.907   4.169
 3076SOL    HW2 9287   2.233   4.744   4.165
 3077SOL     OW 9288   2.428   4.261   4.589
 3077SOL    HW1 9289   2.440   4.327   4.515
 3077SOL    HW2 9290   2.474   4.295   4.672
 3078SOL     OW 9291   3.444   4.363   4.196
 3078SOL    HW1 9292   3.413   4.424   4.269
 3078SOL    HW2 9293   3.494   4.415   4.127
 3079SOL     OW 9294   2.435   4.594   4.753
 3079SOL    HW1 9295   2.479   4.683   4.744
 3079SOL    HW2 9296   2.372   4.594   4.830
 3080SOL     OW 9297   3.222   4.586   4.769
 3080SOL    HW1 9298   3.147   4.586   4.703
 3080SOL    HW2 9299   3.259   4.494   4.778
 3081SOL     OW 9300   3.071   4.249   3.999
 3081SOL    HW1 9301   3.084   4.165   4.053
 3081SOL    HW2 9302   3.042   4.323   4.059
 3082SOL     OW 9303   2.169   3.937   4.955
 3082SOL    HW1 9304   2.146   3.974   5.045
 3082SOL    HW2 9305   2.139   3.842   4.949
 3083SOL     OW 9306   2.594   4.358   4.788
 3083SOL    HW1 9307   2.653   4.332   4.712
 3083SOL    HW2 9308   2.566   4.454   4.777
 3084SOL     OW 9309   2.169   3.787   4.342
 3084SOL    HW1 9310   2.158   3.881   4.375
 3084SOL    HW2 9311   2.164   3.724   4.419
 3085SOL     OW 9312   3.484   4.091   4.098
 3085SOL    HW1 9313   3.486   4.015   4.162
 3085SOL    HW2 9314   3.436   4.168   4.138
 3086SOL     OW 9315   2.885   4.490   4.690
 3086SOL    HW1 9316   2.900   4.511   4.786
 3086SOL    HW2 9317   2.855   4.395   4.681
 3087SOL     OW 9318   3.402   3.998   3.849
 3087SOL    HW1 9319   3.341   3.923   3.872
 3087SOL    HW2 9320   3.424   4.050   3.932
 3088SOL     OW 9321   3.165   4.562   3.766
 3088SOL    HW1 9322   3.199   4.469   3.781
 3088SOL    HW2 9323   3.183   4.589   3.671
 3089SOL     OW 9324   2.181   4.534   4.673
 3089SOL    HW1 9325   2.274   4.570   4.678
 3089SOL    HW2 9326   2.175   4.449   4.725
 3090SOL     OW 9327   2.201   4.233   4.730
 3090SOL    HW1 9328   2.149   4.150   4.713
 3090SOL    HW2 9329   2.278   4.238   4.666
 3091SOL     OW 9330   3.022   3.931   5.201
 3091SOL    HW1 9331   3.022   3.995   5.278
 3091SOL    HW2 9332   3.050   3.979   5.118
 3092SOL     OW 9333   1.870   5.050   3.924
 3092SOL    HW1 9334   1.777   5.071   3.893
 3092SOL    HW2 9335   1.880   4.951   3.937
 3093SOL     OW 9336   2.864   4.520   4.962
 3093SOL    HW1 9337   2.905   4.488   5.048
 3093SOL    HW2 9338   2.768   4.493   4.959
 3094SOL     OW 9339   1.902   4.268   4.838
 3094SOL    HW1 9340   1.987   4.235   4.797
 3094SOL    HW2 9341   1.915   4.283   4.936
 3095SOL     OW 9342   2.677   4.296   4.049
 3095SOL    HW1 9343   2.684   4.207   4.003
 3095SOL    HW2 9344   2.583   4.330   4.041
 3096SOL     OW 9345   3.519   4.328   4.930
 3096SOL    HW1 9346   3.481   4.259   4.992
 3096SOL    HW2 9347   3.601   4.292   4.886
 3097SOL     OW 9348   2.533   4.188   4.993
 3097SOL    HW1 9349   2.499   4.099   4.963
 3097SOL    HW2 9350   2.559   4.242   4.913
 3098SOL     OW 9351   2.335   4.224   3.915
 3098SOL    HW1 9352   2.396   4.304   3.919
 3098SOL    HW2 9353   2.240   4.255   3.922
 3099SOL     OW 9354   3.209   4.783   4.958
 3099SOL    HW1 9355   3.233   4.720   4.884
 3099SOL    HW2 9356   3.119   4.823   4.940
 3100SOL     OW 9357   3.164   4.579   4.033
 3100SOL    HW1 9358   3.078   4.548   4.075
 3100SOL    HW2 9359   3.160   4.565   3.934
 3101SOL     OW 9360   1.945   4.982   4.746
 3101SOL    HW1 9361   1.940   4.981   4.846
 3101SOL    HW2 9362   1.862   4.941   4.708
 3102SOL     OW 9363   3.588   3.859   4.247
 3102SOL    HW1 9364   3.661   3.842   4.180
 3102SOL    HW2 9365   3.557   3.772   4.285
 3103SOL     OW 9366   3.142   4.651   4.396
 3103SOL    HW1 9367   3.202   4.570   4.398
 3103SOL    HW2 9368   3.182   4.720   4.336
 3104SOL     OW 9369   2.692   4.997   5.146
 3104SOL    HW1 9370   2.687   5.030   5.241
 3104SOL    HW2 9371   2.606   5.016   5.100
 3105SOL     OW 9372   3.703   3.899   4.687
 3105SOL    HW1 9373   3.742   3.814   4.651
 3105SOL    HW2 9374   3.605   3.901   4.668
 3106SOL     OW 9375   2.125   4.050   4.444
 3106SOL    HW1 9376   2.046   4.101   4.410
 3106SOL    HW2 9377   2.116   4.035   4.542
 3107SOL     OW 9378   3.056   5.336   3.755
 3107SOL    HW1 9379   3.062   5.243   3.792
 3107SOL    HW2 9380   2.997   5.336   3.675
 3108SOL     OW 9381   2.684   4.726   5.096
 3108SOL    HW1 9382   2.724   4.725   5.004
 3108SOL    HW2 9383   2.694   4.818   5.136
 3109SOL     OW 9384   2.778   4.634   4.015
 3109SOL    HW1 9385   2.841   4.672   3.947
 3109SOL    HW2 9386   2.818   4.551   4.054
 3110SOL     OW 9387   2.901   4.822   4.420
 3110SOL    HW1 9388   2.831   4.775   4.474
 3110SOL    HW2 9389   2.960   4.754   4.377
 3111SOL     OW 9390   2.876   3.960   4.695
 3111SOL    HW1 9391   2.868   3.924   4.602
 3111SOL    HW2 9392   2.874   3.884   4.760
 3112SOL     OW 9393   3.571   4.109   5.105
 3112SOL    HW1 9394   3.644   4.178   5.109
 3112SOL    HW2 9395   3.599   4.034   5.046
 3113SOL     OW 9396   1.937   4.069   3.757
 3113SOL    HW1 9397   1.845   4.041   3.728
 3113SOL    HW2 9398   1.968   4.146   3.701
 3114SOL     OW 9399   1.934   3.890   4.042
 3114SOL    HW1 9400   1.917   3.973   3.988
 3114SOL    HW2 9401   2.024   3.853   4.020
 3115SOL     OW 9402   3.312   4.944   5.357
 3115SOL    HW1 9403   3.303   4.934   5.456
 3115SOL    HW2 9404   3.408   4.937   5.331
 3116SOL     OW 9405   3.536   4.607   4.978
 3116SOL    HW1 9406   3.509   4.518   4.941
 3116SOL    HW2 9407   3.537   4.675   4.905
 3117SOL     OW 9408   3.087   4.049   4.173
 3117SOL    HW1 9409   3.152   3.975   4.162
 3117SOL    HW2 9410   3.107   4.099   4.257
 3118SOL     OW 9411   2.456   4.469   4.376
 3118SOL    HW1 9412   2.506   4.554   4.357
 3118SOL    HW2 9413   2.368   4.471   4.328
 3119SOL     OW 9414   3.592   4.658   5.241
 3119SOL    HW1 9415   3.630   4.749   5.256
 3119SOL    HW2 9416   3.584   4.641   5.142
 3120SOL     OW 9417   2.721   4.680   4.585
 3120SOL    HW1 9418   2.775   4.611   4.633
 3120SOL    HW2 9419   2.689   4.749   4.651
 3121SOL     OW 9420   2.945   4.708   3.811
 3121SOL    HW1 9421   2.922   4.761   3.729
 3121SOL    HW2 9422   3.026   4.652   3.792
 3122SOL     OW 9423   1.941   4.964   4.377
 3122SOL    HW1 9424   1.940   4.917   4.465
 3122SOL    HW2 9425   2.023   4.936   4.326
 3123SOL     OW 9426   3.686   3.916   4.951
 3123SOL    HW1 9427   3.682   3.826   4.995
 3123SOL    HW2 9428   3.689   3.905   4.852
 3124SOL     OW 9429   2.290   4.148   4.244
 3124SOL    HW1 9430   2.320   4.076   4.182
 3124SOL    HW2 9431   2.251   4.108   4.327
 3125SOL     OW 9432   3.286   3.938   4.836
 3125SOL    HW1 9433   3.338   3.873   4.891
 3125SOL    HW2 9434   3.237   4.001   4.897
 3126SOL     OW 9435   2.863   3.758   4.878
 3126SOL    HW1 9436   2.800   3.686   4.847
 3126SOL    HW2 9437   2.956   3.722   4.878
 3127SOL     OW 9438   2.632   5.054   4.025
 3127SOL    HW1 9439   2.586   4.967   4.042
 3127SOL    HW2 9440   2.723   5.051   4.066
 3128SOL     OW 9441   3.214   3.776   3.892
 3128SOL    HW1 9442   3.249   3.735   3.808
 3128SOL    HW2 9443   3.124   3.738   3.912
 3129SOL     OW 9444   3.162   4.177   4.415
 3129SOL    HW1 9445   3.103   4.257   4.419
 3129SOL    HW2 9446   3.177   4.142   4.508
 3130SOL     OW 9447   3.455   3.945   4.606
 3130SOL    HW1 9448   3.371   3.944   4.660
 3130SOL    HW2 9449   3.457   4.028   4.550
 3131SOL     OW 9450   1.901   4.801   4.024
 3131SOL    HW1 9451   2.000   4.790   4.015
 3131SOL    HW2 9452   1.861   4.715   4.056
 3132SOL     OW 9453   3.949   0.275   0.996
 3132SOL    HW1 9454   3.984   0.258   1.088
 3132SOL    HW2 9455   3.861   0.230   0.984
 3133SOL     OW 9456   3.743   0.368   0.647
 3133SOL    HW1 9457   3.661   0.411   0.686
 3133SOL    HW2 9458   3.715   0.295   0.584
 3134SOL     OW 9459   4.293   1.275   1.165
 3134SOL    HW1 9460   4.200   1.268   1.128
 3134SOL    HW2 9461   4.304   1.364   1.209
 3135SOL     OW 9462   4.859   0.703   0.717
 3135SOL    HW1 9463   4.916   0.781   0.692
 3135SOL    HW2 9464   4.799   0.729   0.793
 3136SOL     OW 9465   4.492   1.144   1.023
 3136SOL    HW1 9466   4.414   1.161   1.083
 3136SOL    HW2 9467   4.526   1.231   0.987
 3137SOL     OW 9468   4.574   0.798   1.823
 3137SOL    HW1 9469   4.570   0.874   1.888
 3137SOL    HW2 9470   4.596   0.834   1.732
 3138SOL     OW 9471   4.409   1.012   0.665
 3138SOL    HW1 9472   4.478   0.996   0.735
 3138SOL    HW2 9473   4.336   1.069   0.703
 3139SOL     OW 9474   4.410   1.161   1.803
 3139SOL    HW1 9475   4.470   1.240   1.817
 3139SOL    HW2 9476   4.324   1.192   1.762
 3140SOL     OW 9477   4.059   1.435   1.061
 3140SOL    HW1 9478   3.981   1.404   1.008
 3140SOL    HW2 9479   4.117   1.493   1.004
 3141SOL     OW 9480   4.162   0.392   1.499
 3141SOL    HW1 9481   4.244   0.336   1.508
 3141SOL    HW2 9482   4.081   0.334   1.503
 3142SOL     OW 9483   3.955   1.713   0.483
 3142SOL    HW1 9484   3.989   1.790   0.537
 3142SOL    HW2 9485   3.999   1.713   0.393
 3143SOL     OW 9486   4.851   1.341   1.690
 3143SOL    HW1 9487   4.898   1.341   1.778
 3143SOL    HW2 9488   4.803   1.254   1.679
 3144SOL     OW 9489   3.954   1.434   0.538
 3144SOL    HW1 9490   3.928   1.530   0.538
 3144SOL    HW2 9491   3.883   1.380   0.583
 3145SOL     OW 9492   3.964   1.091   0.886
 3145SOL    HW1 9493   3.978   1.007   0.938
 3145SOL    HW2 9494   3.909   1.155   0.941
 3146SOL     OW 9495   4.344   1.786   1.439
 3146SOL    HW1 9496   4.252   1.769   1.474
 3146SOL    HW2 9497   4.372   1.878   1.465
 3147SOL     OW 9498   4.330   0.964   0.123
 3147SOL    HW1 9499   4.337   1.048   0.069
 3147SOL    HW2 9500   4.376   0.977   0.211
 3148SOL     OW 9501   3.837   0.737   1.597
 3148SOL    HW1 9502   3.925   0.724   1.642
 3148SOL    HW2 9503   3.824   0.834   1.575
 3149SOL     OW 9504   4.337   1.365   0.726
 3149SOL    HW1 9505   4.288   1.278   0.735
 3149SOL    HW2 9506   4.314   1.408   0.639
 3150SOL     OW 9507   5.017   1.228   1.423
 3150SOL    HW1 9508   5.054   1.155   1.365
 3150SOL    HW2 9509   5.069   1.233   1.508
 3151SOL     OW 9510   4.533   0.004   0.502
 3151SOL    HW1 9511   4.573   0.095   0.493
 3151SOL    HW2 9512   4.433   0.012   0.508
 3152SOL     OW 9513   3.921   0.976   1.264
 3152SOL    HW1 9514   4.010   0.931   1.250
 3152SOL    HW2 9515   3.848   0.911   1.245
 3153SOL     OW 9516   4.911   1.792   1.616
 3153SOL    HW1 9517   4.935   1.852   1.540
 3153SOL    HW2 9518   4.918   1.697   1.586
 3154SOL     OW 9519   4.041   0.251   1.801
 3154SOL    HW1 9520   4.112   0.322   1.807
 3154SOL    HW2 9521   3.953   0.290   1.829
 3155SOL     OW 9522   5.005   0.345   0.944
 3155SOL    HW1 9523   4.919   0.295   0.931
 3155SOL    HW2 9524   5.067   0.291   1.000
 3156SOL     OW 9525   4.531   0.605   1.465
 3156SOL    HW1 9526   4.484   0.602   1.554
 3156SOL    HW2 9527   4.480   0.550   1.399
 3157SOL     OW 9528   4.697   0.890   1.572
 3157SOL    HW1 9529   4.743   0.806   1.543
 3157SOL    HW2 9530   4.641   0.924   1.497
 3158SOL     OW 9531   4.715   0.410   1.242
 3158SOL    HW1 9532   4.638   0.444   1.296
 3158SOL    HW2 9533   4.681   0.359   1.163
 3159SOL     OW 9534   4.765   0.701   0.429
 3159SOL    HW1 9535   4.791   0.697   0.525
 3159SOL    HW2 9536   4.680   0.650   0.415
 3160SOL     OW 9537   3.800   0.811   0.789
 3160SOL    HW1 9538   3.899   0.799   0.798
 3160SOL    HW2 9539   3.776   0.906   0.810
 3161SOL     OW 9540   3.854   1.821   1.571
 3161SOL    HW1 9541   3.844   1.806   1.670
 3161SOL    HW2 9542   3.768   1.857   1.535
 3162SOL     OW 9543   4.589   0.348   0.195
 3162SOL    HW1 9544   4.648   0.411   0.146
 3162SOL    HW2 9545   4.608   0.254   0.166
 3163SOL     OW 9546   4.274   0.196   0.885
 3163SOL    HW1 9547   4.269   0.191   0.985
 3163SOL    HW2 9548   4.276   0.292   0.856
 3164SOL     OW 9549   4.732   1.456   0.477
 3164SOL    HW1 9550   4.686   1.528   0.425
 3164SOL    HW2 9551   4.728   1.476   0.575
 3165SOL     OW 9552   4.075   1.801   0.853
 3165SOL    HW1 9553   4.125   1.715   0.859
 3165SOL    HW2 9554   4.140   1.878   0.850
 3166SOL     OW 9555   4.951   1.550   1.506
 3166SOL    HW1 9556   4.957   1.473   1.570
 3166SOL    HW2 9557   4.899   1.524   1.426
 3167SOL     OW 9558   4.185   1.266   1.727
 3167SOL    HW1 9559   4.135   1.267   1.641
 3167SOL    HW2 9560   4.122   1.248   1.803
 3168SOL     OW 9561   4.835   1.776   0.237
 3168SOL    HW1 9562   4.775   1.714   0.287
 3168SOL    HW2 9563   4.866   1.732   0.152
 3169SOL     OW 9564   3.926   0.285   1.498
 3169SOL    HW1 9565   3.846   0.345   1.485
 3169SOL    HW2 9566   3.916   0.236   1.584
 3170SOL     OW 9567   5.356   1.377   0.081
 3170SOL    HW1 9568   5.324   1.471   0.071
 3170SOL    HW2 9569   5.280   1.314   0.069
 3171SOL     OW 9570   4.188   1.743   0.323
 3171SOL    HW1 9571   4.221   1.782   0.409
 3171SOL    HW2 9572   4.264   1.736   0.258
 3172SOL     OW 9573   3.973   1.785   1.241
 3172SOL    HW1 9574   4.030   1.720   1.291
 3172SOL    HW2 9575   3.957   1.752   1.148
 3173SOL     OW 9576   4.664   1.698   0.904
 3173SOL    HW1 9577   4.744   1.641   0.925
 3173SOL    HW2 9578   4.615   1.658   0.827
 3174SOL     OW 9579   4.338   0.122   0.117
 3174SOL    HW1 9580   4.436   0.100   0.124
 3174SOL    HW2 9581   4.307   0.105   0.024
 3175SOL     OW 9582   4.505   0.264   1.749
 3175SOL    HW1 9583   4.572   0.203   1.792
 3175SOL    HW2 9584   4.432   0.283   1.814
 3176SOL     OW 9585   4.612   1.514   1.195
 3176SOL    HW1 9586   4.589   1.489   1.101
 3176SOL    HW2 9587   4.673   1.445   1.234
 3177SOL     OW 9588   4.527   1.402   0.924
 3177SOL    HW1 9589   4.617   1.416   0.882
 3177SOL    HW2 9590   4.456   1.404   0.853
 3178SOL     OW 9591   4.646   0.503   0.899
 3178SOL    HW1 9592   4.621   0.494   0.803
 3178SOL    HW2 9593   4.694   0.421   0.930
 3179SOL     OW 9594   4.263   0.064   0.512
 3179SOL    HW1 9595   4.182   0.065   0.570
 3179SOL    HW2 9596   4.266   0.147   0.457
 3180SOL     OW 9597   4.021   0.035   0.171
 3180SOL    HW1 9598   4.070   0.119   0.150
 3180SOL    HW2 9599   4.083  -0.030   0.216
 3181SOL     OW 9600   4.659   0.236   0.480
 3181SOL    HW1 9601   4.611   0.277   0.402
 3181SOL    HW2 9602   4.758   0.234   0.461
 3182SOL     OW 9603   4.800   0.683   1.464
 3182SOL    HW1 9604   4.720   0.622   1.467
 3182SOL    HW2 9605   4.881   0.630   1.440
 3183SOL     OW 9606   4.951   1.570   0.793
 3183SOL    HW1 9607   4.972   1.644   0.728
 3183SOL    HW2 9608   5.019   1.570   0.866
 3184SOL     OW 9609   4.183   1.152   0.741
 3184SOL    HW1 9610   4.112   1.125   0.806
 3184SOL    HW2 9611   4.157   1.124   0.648
 3185SOL     OW 9612   4.995   1.797   0.591
 3185SOL    HW1 9613   5.039   1.861   0.527
 3185SOL    HW2 9614   4.945   1.849   0.661
 3186SOL     OW 9615   4.756   0.549   0.016
 3186SOL    HW1 9616   4.715   0.631  -0.023
 3186SOL    HW2 9617   4.820   0.575   0.089
 3187SOL     OW 9618   3.802   0.556   1.386
 3187SOL    HW1 9619   3.894   0.555   1.345
 3187SOL    HW2 9620   3.796   0.630   1.453
 3188SOL     OW 9621   4.285   0.222   1.147
 3188SOL    HW1 9622   4.323   0.138   1.184
 3188SOL    HW2 9623   4.197   0.241   1.191
 3189SOL     OW 9624   4.590   0.454   0.642
 3189SOL    HW1 9625   4.558   0.526   0.580
 3189SOL    HW2 9626   4.614   0.373   0.589
 3190SOL     OW 9627   4.741   0.039   0.753
 3190SOL    HW1 9628   4.669   0.044   0.684
 3190SOL    HW2 9629   4.717  -0.030   0.822
 3191SOL     OW 9630   5.388   1.280   0.657
 3191SOL    HW1 9631   5.487   1.288   0.671
 3191SOL    HW2 9632   5.343   1.364   0.688
 3192SOL     OW 9633   4.251   0.256   0.328
 3192SOL    HW1 9634   4.278   0.197   0.253
 3192SOL    HW2 9635   4.251   0.351   0.297
 3193SOL     OW 9636   4.788   1.347   1.340
 3193SOL    HW1 9637   4.708   1.324   1.395
 3193SOL    HW2 9638   4.871   1.321   1.389
 3194SOL     OW 9639   4.835   1.195   1.100
 3194SOL    HW1 9640   4.795   1.239   1.181
 3194SOL    HW2 9641   4.794   1.232   1.017
 3195SOL     OW 9642   4.639   0.089   1.402
 3195SOL    HW1 9643   4.664   0.069   1.307
 3195SOL    HW2 9644   4.711   0.145   1.444
 3196SOL     OW 9645   4.704   1.116   1.719
 3196SOL    HW1 9646   4.605   1.122   1.729
 3196SOL    HW2 9647   4.727   1.036   1.663
 3197SOL     OW 9648   4.429   1.050   0.368
 3197SOL    HW1 9649   4.415   1.057   0.467
 3197SOL    HW2 9650   4.513   0.999   0.350
 3198SOL     OW 9651   4.134   0.813   1.251
 3198SOL    HW1 9652   4.220   0.825   1.301
 3198SOL    HW2 9653   4.092   0.726   1.278
 3199SOL     OW 9654   4.998   0.386   1.262
 3199SOL    HW1 9655   5.019   0.460   1.326
 3199SOL    HW2 9656   4.909   0.403   1.219
 3200SOL     OW 9657   3.788   1.564   1.331
 3200SOL    HW1 9658   3.742   1.646   1.297
 3200SOL    HW2 9659   3.886   1.583   1.340
 3201SOL     OW 9660   4.290   0.537   0.865
 3201SOL    HW1 9661   4.302   0.603   0.791
 3201SOL    HW2 9662   4.336   0.571   0.948
 3202SOL     OW 9663   4.976   1.348   0.388
 3202SOL    HW1 9664   5.026   1.425   0.428
 3202SOL    HW2 9665   4.881   1.350   0.420
 3203SOL     OW 9666   4.078   1.510   1.329
 3203SOL    HW1 9667   4.057   1.466   1.242
 3203SOL    HW2 9668   4.175   1.536   1.332
 3204SOL     OW 9669   4.126   0.751   1.598
 3204SOL    HW1 9670   4.194   0.806   1.551
 3204SOL    HW2 9671   4.166   0.663   1.625
 3205SOL     OW 9672   4.737   0.105   1.770
 3205SOL    HW1 9673   4.743   0.190   1.718
 3205SOL    HW2 9674   4.769   0.029   1.713
 3206SOL     OW 9675   4.228   0.050   1.740
 3206SOL    HW1 9676   4.186  -0.007   1.670
 3206SOL    HW2 9677   4.162   0.119   1.772
 3207SOL     OW 9678   4.297   0.870   1.029
 3207SOL    HW1 9679   4.341   0.959   1.020
 3207SOL    HW2 9680   4.234   0.870   1.106
 3208SOL     OW 9681   5.084   0.862   1.045
 3208SOL    HW1 9682   5.009   0.862   0.979
 3208SOL    HW2 9683   5.121   0.770   1.054
 3209SOL     OW 9684   4.933   0.525   0.275
 3209SOL    HW1 9685   4.946   0.441   0.329
 3209SOL    HW2 9686   4.904   0.599   0.335
 3210SOL     OW 9687   4.031   0.213   1.231
 3210SOL    HW1 9688   4.008   0.250   1.321
 3210SOL    HW2 9689   4.001   0.118   1.225
 3211SOL     OW 9690   3.761   1.310   1.282
 3211SOL    HW1 9691   3.814   1.261   1.350
 3211SOL    HW2 9692   3.783   1.408   1.287
 3212SOL     OW 9693   4.456   0.634   1.064
 3212SOL    HW1 9694   4.515   0.608   0.988
 3212SOL    HW2 9695   4.428   0.730   1.053
 3213SOL     OW 9696   4.031   0.063   0.618
 3213SOL    HW1 9697   4.020   0.157   0.651
 3213SOL    HW2 9698   4.026   0.000   0.695
 3214SOL     OW 9699   5.346   0.367   0.374
 3214SOL    HW1 9700   5.348   0.291   0.438
 3214SOL    HW2 9701   5.298   0.444   0.414
 3215SOL     OW 9702   4.747   0.766   0.966
 3215SOL    HW1 9703   4.762   0.787   1.062
 3215SOL    HW2 9704   4.717   0.671   0.957
 3216SOL     OW 9705   4.704   1.573   1.700
 3216SOL    HW1 9706   4.684   1.617   1.612
 3216SOL    HW2 9707   4.743   1.482   1.684
 3217SOL     OW 9708   4.074   0.898   1.804
 3217SOL    HW1 9709   4.150   0.942   1.852
 3217SOL    HW2 9710   4.109   0.851   1.722
 3218SOL     OW 9711   5.027   0.838   0.042
 3218SOL    HW1 9712   5.061   0.745   0.057
 3218SOL    HW2 9713   5.045   0.865  -0.053
 3219SOL     OW 9714   4.792   1.333   0.849
 3219SOL    HW1 9715   4.799   1.249   0.794
 3219SOL    HW2 9716   4.854   1.402   0.813
 3220SOL     OW 9717   4.043   0.810   0.949
 3220SOL    HW1 9718   4.136   0.846   0.954
 3220SOL    HW2 9719   4.037   0.725   1.001
 3221SOL     OW 9720   4.063   0.509   1.006
 3221SOL    HW1 9721   4.011   0.426   0.989
 3221SOL    HW2 9722   4.140   0.514   0.942
 3222SOL     OW 9723   4.862   0.380   1.678
 3222SOL    HW1 9724   4.817   0.443   1.742
 3222SOL    HW2 9725   4.955   0.411   1.661
 3223SOL     OW 9726   4.884   0.207   1.477
 3223SOL    HW1 9727   4.884   0.271   1.554
 3223SOL    HW2 9728   4.912   0.255   1.394
 3224SOL     OW 9729   3.812   1.801   0.927
 3224SOL    HW1 9730   3.770   1.715   0.900
 3224SOL    HW2 9731   3.906   1.804   0.893
 3225SOL     OW 9732   4.228   1.568   0.910
 3225SOL    HW1 9733   4.294   1.642   0.919
 3225SOL    HW2 9734   4.272   1.489   0.868
 3226SOL     OW 9735   4.726   0.796   1.238
 3226SOL    HW1 9736   4.767   0.764   1.324
 3226SOL    HW2 9737   4.630   0.769   1.235
 3227SOL     OW 9738   3.764   0.544   1.114
 3227SOL    HW1 9739   3.849   0.511   1.073
 3227SOL    HW2 9740   3.777   0.559   1.212
 3228SOL     OW 9741   3.913   0.520   1.722
 3228SOL    HW1 9742   3.972   0.480   1.652
 3228SOL    HW2 9743   3.855   0.591   1.681
 3229SOL     OW 9744   4.539   0.572   0.325
 3229SOL    HW1 9745   4.546   0.483   0.279
 3229SOL    HW2 9746   4.445   0.606   0.317
 3230SOL     OW 9747   3.976   1.564   1.744
 3230SOL    HW1 9748   3.946   1.621   1.820
 3230SOL    HW2 9749   3.969   1.467   1.770
 3231SOL     OW 9750   4.395   0.464   1.269
 3231SOL    HW1 9751   4.361   0.375   1.239
 3231SOL    HW2 9752   4.421   0.518   1.189
 3232SOL     OW 9753   4.654   1.678   1.465
 3232SOL    HW1 9754   4.630   1.660   1.370
 3232SOL    HW2 9755   4.684   1.772   1.475
 3233SOL     OW 9756   4.197   0.500   0.191
 3233SOL    HW1 9757   4.258   0.580   0.195
 3233SOL    HW2 9758   4.102   0.531   0.198
 3234SOL     OW 9759   3.883   1.137   1.466
 3234SOL    HW1 9760   3.905   1.076   1.542
 3234SOL    HW2 9761   3.893   1.088   1.380
 3235SOL     OW 9762   5.071   1.059   1.234
 3235SOL    HW1 9763   5.095   0.996   1.160
 3235SOL    HW2 9764   4.981   1.099   1.216
 3236SOL     OW 9765   4.976   1.731   1.128
 3236SOL    HW1 9766   5.060   1.736   1.074
 3236SOL    HW2 9767   4.953   1.635   1.146
 3237SOL     OW 9768   3.807   1.258   1.022
 3237SOL    HW1 9769   3.802   1.257   1.122
 3237SOL    HW2 9770   3.724   1.217   0.984
 3238SOL     OW 9771   4.412   1.662   1.716
 3238SOL    HW1 9772   4.356   1.743   1.725
 3238SOL    HW2 9773   4.464   1.666   1.630
 3239SOL     OW 9774   4.627   0.086   0.133
 3239SOL    HW1 9775   4.678   0.087   0.047
 3239SOL    HW2 9776   4.683   0.044   0.204
 3240SOL     OW 9777   5.112   1.573   0.477
 3240SOL    HW1 9778   5.179   1.585   0.403
 3240SOL    HW2 9779   5.072   1.662   0.500
 3241SOL     OW 9780   3.854   1.794   1.851
 3241SOL    HW1 9781   3.813   1.720   1.904
 3241SOL    HW2 9782   3.918   1.845   1.909
 3242SOL     OW 9783   5.004   0.927   0.672
 3242SOL    HW1 9784   5.064   0.846   0.674
 3242SOL    HW2 9785   5.044   0.996   0.612
 3243SOL     OW 9786   4.554   1.273   1.422
 3243SOL    HW1 9787   4.549   1.306   1.517
 3243SOL    HW2 9788   4.468   1.292   1.376
 3244SOL     OW 9789   4.396   1.616   0.154
 3244SOL    HW1 9790   4.405   1.626   0.055
 3244SOL    HW2 9791   4.356   1.527   0.175
 3245SOL     OW 9792   3.987   0.326   0.720
 3245SOL    HW1 9793   3.908   0.377   0.686
 3245SOL    HW2 9794   3.978   0.311   0.818
 3246SOL     OW 9795   4.918   1.612   0.031
 3246SOL    HW1 9796   4.924   1.519   0.068
 3246SOL    HW2 9797   4.859   1.612  -0.049
 3247SOL     OW 9798   4.546   1.002   1.372
 3247SOL    HW1 9799   4.586   1.001   1.280
 3247SOL    HW2 9800   4.556   1.094   1.412
 3248SOL     OW 9801   4.640   0.910   0.291
 3248SOL    HW1 9802   4.703   0.948   0.223
 3248SOL    HW2 9803   4.680   0.827   0.330
 3249SOL     OW 9804   4.096   1.288   1.490
 3249SOL    HW1 9805   4.083   1.381   1.456
 3249SOL    HW2 9806   4.012   1.236   1.477
 3250SOL     OW 9807   4.763   1.098   0.696
 3250SOL    HW1 9808   4.693   1.051   0.750
 3250SOL    HW2 9809   4.822   1.030   0.653
 3251SOL     OW 9810   4.738   0.236   0.971
 3251SOL    HW1 9811   4.730   0.200   0.878
 3251SOL    HW2 9812   4.736   0.160   1.036
 3252SOL     OW 9813   4.314   1.487   0.491
 3252SOL    HW1 9814   4.356   1.429   0.421
 3252SOL    HW2 9815   4.270   1.566   0.447
 3253SOL     OW 9816   3.829   1.013   1.726
 3253SOL    HW1 9817   3.752   0.980   1.780
 3253SOL    HW2 9818   3.914   0.983   1.768
 3254SOL     OW 9819   4.396   0.203   1.489
 3254SOL    HW1 9820   4.486   0.187   1.449
 3254SOL    HW2 9821   4.404   0.208   1.588
 3255SOL     OW 9822   5.164   0.856   1.398
 3255SOL    HW1 9823   5.107   0.908   1.335
 3255SOL    HW2 9824   5.260   0.868   1.374
 3256SOL     OW 9825   3.796   0.166   0.318
 3256SOL    HW1 9826   3.779   0.249   0.264
 3256SOL    HW2 9827   3.886   0.129   0.296
 3257SOL     OW 9828   4.337   0.842   1.431
 3257SOL    HW1 9829   4.393   0.923   1.414
 3257SOL    HW2 9830   4.396   0.762   1.434
 3258SOL     OW 9831   4.440   0.565   1.708
 3258SOL    HW1 9832   4.459   0.630   1.782
 3258SOL    HW2 9833   4.500   0.485   1.717
 3259SOL     OW 9834   4.114   1.741   1.560
 3259SOL    HW1 9835   4.023   1.782   1.558
 3259SOL    HW2 9836   4.107   1.647   1.592
 3260SOL     OW 9837   4.949   0.325   0.449
 3260SOL    HW1 9838   5.014   0.251   0.438
 3260SOL    HW2 9839   4.969   0.375   0.533
 3261SOL     OW 9840   4.583   1.374   0.016
 3261SOL    HW1 9841   4.537   1.389   0.104
 3261SOL    HW2 9842   4.627   1.459  -0.014
 3262SOL     OW 9843   4.385   1.790   0.953
 3262SOL    HW1 9844   4.339   1.878   0.940
 3262SOL    HW2 9845   4.484   1.802   0.946
 3263SOL     OW 9846   4.583   0.956   0.861
 3263SOL    HW1 9847   4.637   0.887   0.909
 3263SOL    HW2 9848   4.551   1.025   0.927
 3264SOL     OW 9849   4.807   0.984   0.087
 3264SOL    HW1 9850   4.784   1.037   0.005
 3264SOL    HW2 9851   4.888   0.928   0.068
 3265SOL     OW 9852   3.945   1.314   1.844
 3265SOL    HW1 9853   3.880   1.241   1.823
 3265SOL    HW2 9854   3.949   1.328   1.942
 3266SOL     OW 9855   3.803   1.240   0.653
 3266SOL    HW1 9856   3.802   1.193   0.741
 3266SOL    HW2 9857   3.885   1.212   0.602
 3267SOL     OW 9858   4.396   1.391   1.624
 3267SOL    HW1 9859   4.318   1.341   1.662
 3267SOL    HW2 9860   4.393   1.486   1.655
 3268SOL     OW 9861   4.152   0.424   0.520
 3268SOL    HW1 9862   4.182   0.352   0.458
 3268SOL    HW2 9863   4.113   0.384   0.603
 3269SOL     OW 9864   4.041   0.547   1.280
 3269SOL    HW1 9865   4.079   0.488   1.352
 3269SOL    HW2 9866   4.081   0.521   1.192
 3270SOL     OW 9867   4.536   1.586   0.687
 3270SOL    HW1 9868   4.568   1.596   0.593
 3270SOL    HW2 9869   4.457   1.524   0.689
 3271SOL     OW 9870   4.725   0.034   1.154
 3271SOL    HW1 9871   4.662  -0.038   1.123
 3271SOL    HW2 9872   4.818  -0.002   1.154
 3272SOL     OW 9873   4.494   1.330   0.301
 3272SOL    HW1 9874   4.448   1.243   0.318
 3272SOL    HW2 9875   4.585   1.327   0.342
 3273SOL     OW 9876   4.342   1.567   1.284
 3273SOL    HW1 9877   4.337   1.649   1.341
 3273SOL    HW2 9878   4.431   1.564   1.239
 3274SOL     OW 9879   4.599   1.646   0.337
 3274SOL    HW1 9880   4.522   1.611   0.283
 3274SOL    HW2 9881   4.567   1.717   0.399
 3275SOL     OW 9882   3.954   0.628   1.975
 3275SOL    HW1 9883   3.861   0.626   2.012
 3275SOL    HW2 9884   3.955   0.589   1.883
 3276SOL     OW 9885   3.949   0.275   2.858
 3276SOL    HW1 9886   3.984   0.258   2.950
 3276SOL    HW2 9887   3.861   0.230   2.846
 3277SOL     OW 9888   3.743   0.368   2.509
 3277SOL    HW1 9889   3.661   0.411   2.548
 3277SOL    HW2 9890   3.715   0.295   2.446
 3278SOL     OW 9891   4.293   1.275   3.027
 3278SOL    HW1 9892   4.200   1.268   2.990
 3278SOL    HW2 9893   4.304   1.364   3.071
 3279SOL     OW 9894   4.859   0.703   2.579
 3279SOL    HW1 9895   4.916   0.781   2.554
 3279SOL    HW2 9896   4.799   0.729   2.655
 3280SOL     OW 9897   4.492   1.144   2.885
 3280SOL    HW1 9898   4.414   1.161   2.945
 3280SOL    HW2 9899   4.526   1.231   2.849
 3281SOL     OW 9900   4.574   0.798   3.685
 3281SOL    HW1 9901   4.570   0.874   3.750
 3281SOL    HW2 9902   4.596   0.834   3.594
 3282SOL     OW 9903   4.409   1.012   2.527
 3282SOL    HW1 9904   4.478   0.996   2.597
 3282SOL    HW2 9905   4.336   1.069   2.565
 3283SOL     OW 9906   4.410   1.161   3.665
 3283SOL    HW1 9907   4.470   1.240   3.679
 3283SOL    HW2 9908   4.324   1.192   3.624
 3284SOL     OW 9909   4.059   1.435   2.923
 3284SOL    HW1 9910   3.981   1.404   2.870
 3284SOL    HW2 9911   4.117   1.493   2.866
 3285SOL     OW 9912   4.162   0.392   3.361
 3285SOL    HW1 9913   4.244   0.336   3.370
 3285SOL    HW2 9914   4.081   0.334   3.365
 3286SOL     OW 9915   3.955   1.713   2.345
 3286SOL    HW1 9916   3.989   1.790   2.399
 3286SOL    HW2 9917   3.999   1.713   2.255
 3287SOL     OW 9918   4.851   1.341   3.552
 3287SOL    HW1 9919   4.898   1.341   3.640
 3287SOL    HW2 9920   4.803   1.254   3.541
 3288SOL     OW 9921   3.954   1.434   2.400
 3288SOL    HW1 9922   3.928   1.530   2.400
 3288SOL    HW2 9923   3.883   1.380   2.445
 3289SOL     OW 9924   3.964   1.091   2.748
 3289SOL    HW1 9925   3.978   1.007   2.800
 3289SOL    HW2 9926   3.909   1.155   2.803
 3290SOL     OW 9927   4.344   1.786   3.301
 3290SOL    HW1 9928   4.252   1.769   3.336
 3290SOL    HW2 9929   4.372   1.878   3.327
 3291SOL     OW 9930   4.330   0.964   1.985
 3291SOL    HW1 9931   4.337   1.048   1.931
 3291SOL    HW2 9932   4.376   0.977   2.073
 3292SOL     OW 9933   3.846   0.643   2.425
 3292SOL    HW1 9934   3.801   0.555   2.442
 3292SOL    HW2 9935   3.845   0.697   2.509
 3293SOL     OW 9936   3.751   1.596   1.979
 3293SOL    HW1 9937   3.732   1.500   2.000
 3293SOL    HW2 9938   3.718   1.654   2.054
 3294SOL     OW 9939   3.837   0.737   3.459
 3294SOL    HW1 9940   3.925   0.724   3.504
 3294SOL    HW2 9941   3.824   0.834   3.437
 3295SOL     OW 9942   4.337   1.365   2.588
 3295SOL    HW1 9943   4.288   1.278   2.597
 3295SOL    HW2 9944   4.314   1.408   2.501
 3296SOL     OW 9945   5.017   1.228   3.285
 3296SOL    HW1 9946   5.054   1.155   3.227
 3296SOL    HW2 9947   5.069   1.233   3.370
 3297SOL     OW 9948   4.533   0.004   2.364
 3297SOL    HW1 9949   4.573   0.095   2.355
 3297SOL    HW2 9950   4.433   0.012   2.370
 3298SOL     OW 9951   3.921   0.976   3.126
 3298SOL    HW1 9952   4.010   0.931   3.112
 3298SOL    HW2 9953   3.848   0.911   3.107
 3299SOL     OW 9954   4.911   1.792   3.478
 3299SOL    HW1 9955   4.935   1.852   3.402
 3299SOL    HW2 9956   4.918   1.697   3.448
 3300SOL     OW 9957   4.041   0.251   3.663
 3300SOL    HW1 9958   4.112   0.322   3.669
 3300SOL    HW2 9959   3.953   0.290   3.691
 3301SOL     OW 9960   4.322   0.729   2.132
 3301SOL    HW1 9961   4.346   0.798   2.064
 3301SOL    HW2 9962   4.244   0.762   2.186
 3302SOL     OW 9963   5.005   0.345   2.806
 3302SOL    HW1 9964   4.919   0.295   2.793
 3302SOL    HW2 9965   5.067   0.291   2.862
 3303SOL     OW 9966   4.531   0.605   3.327
 3303SOL    HW1 9967   4.484   0.602   3.416
 3303SOL    HW2 9968   4.480   0.550   3.261
 3304SOL     OW 9969   4.697   0.890   3.434
 3304SOL    HW1 9970   4.743   0.806   3.405
 3304SOL    HW2 9971   4.641   0.924   3.359
 3305SOL     OW 9972   4.715   0.410   3.104
 3305SOL    HW1 9973   4.638   0.444   3.158
 3305SOL    HW2 9974   4.681   0.359   3.025
 3306SOL     OW 9975   4.765   0.701   2.291
 3306SOL    HW1 9976   4.791   0.697   2.387
 3306SOL    HW2 9977   4.680   0.650   2.277
 3307SOL     OW 9978   3.800   0.811   2.651
 3307SOL    HW1 9979   3.899   0.799   2.660
 3307SOL    HW2 9980   3.776   0.906   2.672
 3308SOL     OW 9981   3.854   1.821   3.433
 3308SOL    HW1 9982   3.844   1.806   3.532
 3308SOL    HW2 9983   3.768   1.857   3.397
 3309SOL     OW 9984   4.589   0.348   2.057
 3309SOL    HW1 9985   4.648   0.411   2.008
 3309SOL    HW2 9986   4.608   0.254   2.028
 3310SOL     OW 9987   4.274   0.196   2.747
 3310SOL    HW1 9988   4.269   0.191   2.847
 3310SOL    HW2 9989   4.276   0.292   2.718
 3311SOL     OW 9990   4.732   1.456   2.339
 3311SOL    HW1 9991   4.686   1.528   2.287
 3311SOL    HW2 9992   4.728   1.476   2.437
 3312SOL     OW 9993   4.075   1.801   2.715
 3312SOL    HW1 9994   4.125   1.715   2.721
 3312SOL    HW2 9995   4.140   1.878   2.712
 3313SOL     OW 9996   4.951   1.550   3.368
 3313SOL    HW1 9997   4.957   1.473   3.432
 3313SOL    HW2 9998   4.899   1.524   3.288
 3314SOL     OW 9999   4.045   0.943   2.104
 3314SOL    HW110000   4.127   0.982   2.062
 3314SOL    HW210001   4.018   0.861   2.055
 3315SOL     OW10002   4.185   1.266   3.589
 3315SOL    HW110003   4.135   1.267   3.503
 3315SOL    HW210004   4.122   1.248   3.665
 3316SOL     OW10005   4.835   1.776   2.099
 3316SOL    HW110006   4.775   1.714   2.149
 3316SOL    HW210007   4.866   1.732   2.014
 3317SOL     OW10008   3.926   0.285   3.360
 3317SOL    HW110009   3.846   0.345   3.347
 3317SOL    HW210010   3.916   0.236   3.446
 3318SOL     OW10011   4.188   1.743   2.185
 3318SOL    HW110012   4.221   1.782   2.271
 3318SOL    HW210013   4.264   1.736   2.120
 3319SOL     OW10014   3.973   1.785   3.103
 3319SOL    HW110015   4.030   1.720   3.153
 3319SOL    HW210016   3.957   1.752   3.010
 3320SOL     OW10017   4.664   1.698   2.766
 3320SOL    HW110018   4.744   1.641   2.787
 3320SOL    HW210019   4.615   1.658   2.689
 3321SOL     OW10020   4.106   0.700   2.342
 3321SOL    HW110021   4.151   0.610   2.339
 3321SOL    HW210022   4.012   0.689   2.375
 3322SOL     OW10023   4.338   0.122   1.979
 3322SOL    HW110024   4.436   0.100   1.986
 3322SOL    HW210025   4.307   0.105   1.886
 3323SOL     OW10026   4.505   0.264   3.611
 3323SOL    HW110027   4.572   0.203   3.654
 3323SOL    HW210028   4.432   0.283   3.676
 3324SOL     OW10029   4.612   1.514   3.057
 3324SOL    HW110030   4.589   1.489   2.963
 3324SOL    HW210031   4.673   1.445   3.096
 3325SOL     OW10032   4.527   1.402   2.786
 3325SOL    HW110033   4.617   1.416   2.744
 3325SOL    HW210034   4.456   1.404   2.715
 3326SOL     OW10035   4.646   0.503   2.761
 3326SOL    HW110036   4.621   0.494   2.665
 3326SOL    HW210037   4.694   0.421   2.792
 3327SOL     OW10038   4.263   0.064   2.374
 3327SOL    HW110039   4.182   0.065   2.432
 3327SOL    HW210040   4.266   0.147   2.319
 3328SOL     OW10041   4.021   0.035   2.033
 3328SOL    HW110042   4.070   0.119   2.012
 3328SOL    HW210043   4.083  -0.030   2.078
 3329SOL     OW10044   4.659   0.236   2.342
 3329SOL    HW110045   4.611   0.277   2.264
 3329SOL    HW210046   4.758   0.234   2.323
 3330SOL     OW10047   4.800   0.683   3.326
 3330SOL    HW110048   4.720   0.622   3.329
 3330SOL    HW210049   4.881   0.630   3.302
 3331SOL     OW10050   4.951   1.570   2.655
 3331SOL    HW110051   4.972   1.644   2.590
 3331SOL    HW210052   5.019   1.570   2.728
 3332SOL     OW10053   4.183   1.152   2.603
 3332SOL    HW110054   4.112   1.125   2.668
 3332SOL    HW210055   4.157   1.124   2.510
 3333SOL     OW10056   4.995   1.797   2.453
 3333SOL    HW110057   5.039   1.861   2.389
 3333SOL    HW210058   4.945   1.849   2.523
 3334SOL     OW10059   4.756   0.549   1.878
 3334SOL    HW110060   4.715   0.631   1.839
 3334SOL    HW210061   4.820   0.575   1.951
 3335SOL     OW10062   3.802   0.556   3.248
 3335SOL    HW110063   3.894   0.555   3.207
 3335SOL    HW210064   3.796   0.630   3.315
 3336SOL     OW10065   4.285   0.222   3.009
 3336SOL    HW110066   4.323   0.138   3.046
 3336SOL    HW210067   4.197   0.241   3.053
 3337SOL     OW10068   4.590   0.454   2.504
 3337SOL    HW110069   4.558   0.526   2.442
 3337SOL    HW210070   4.614   0.373   2.451
 3338SOL     OW10071   4.741   0.039   2.615
 3338SOL    HW110072   4.669   0.044   2.546
 3338SOL    HW210073   4.717  -0.030   2.684
 3339SOL     OW10074   4.212   1.385   2.036
 3339SOL    HW110075   4.125   1.370   2.083
 3339SOL    HW210076   4.195   1.411   1.941
 3340SOL     OW10077   5.388   1.280   2.519
 3340SOL    HW110078   5.487   1.288   2.533
 3340SOL    HW210079   5.343   1.364   2.550
 3341SOL     OW10080   4.251   0.256   2.190
 3341SOL    HW110081   4.278   0.197   2.115
 3341SOL    HW210082   4.251   0.351   2.159
 3342SOL     OW10083   4.788   1.347   3.202
 3342SOL    HW110084   4.708   1.324   3.257
 3342SOL    HW210085   4.871   1.321   3.251
 3343SOL     OW10086   4.835   1.195   2.962
 3343SOL    HW110087   4.795   1.239   3.043
 3343SOL    HW210088   4.794   1.232   2.879
 3344SOL     OW10089   4.639   0.089   3.264
 3344SOL    HW110090   4.664   0.069   3.169
 3344SOL    HW210091   4.711   0.145   3.306
 3345SOL     OW10092   4.704   1.116   3.581
 3345SOL    HW110093   4.605   1.122   3.591
 3345SOL    HW210094   4.727   1.036   3.525
 3346SOL     OW10095   4.429   1.050   2.230
 3346SOL    HW110096   4.415   1.057   2.329
 3346SOL    HW210097   4.513   0.999   2.212
 3347SOL     OW10098   4.134   0.813   3.113
 3347SOL    HW110099   4.220   0.825   3.163
 3347SOL    HW210100   4.092   0.726   3.140
 3348SOL     OW10101   4.998   0.386   3.124
 3348SOL    HW110102   5.019   0.460   3.188
 3348SOL    HW210103   4.909   0.403   3.081
 3349SOL     OW10104   3.788   1.564   3.193
 3349SOL    HW110105   3.742   1.646   3.159
 3349SOL    HW210106   3.886   1.583   3.202
 3350SOL     OW10107   4.091   1.100   2.363
 3350SOL    HW110108   4.084   1.183   2.307
 3350SOL    HW210109   4.095   1.020   2.303
 3351SOL     OW10110   4.290   0.537   2.727
 3351SOL    HW110111   4.302   0.603   2.653
 3351SOL    HW210112   4.336   0.571   2.810
 3352SOL     OW10113   4.976   1.348   2.250
 3352SOL    HW110114   5.026   1.425   2.290
 3352SOL    HW210115   4.881   1.350   2.282
 3353SOL     OW10116   4.078   1.510   3.191
 3353SOL    HW110117   4.057   1.466   3.104
 3353SOL    HW210118   4.175   1.536   3.194
 3354SOL     OW10119   4.126   0.751   3.460
 3354SOL    HW110120   4.194   0.806   3.413
 3354SOL    HW210121   4.166   0.663   3.487
 3355SOL     OW10122   4.737   0.105   3.632
 3355SOL    HW110123   4.743   0.190   3.580
 3355SOL    HW210124   4.769   0.029   3.575
 3356SOL     OW10125   4.228   0.050   3.602
 3356SOL    HW110126   4.186  -0.007   3.532
 3356SOL    HW210127   4.162   0.119   3.634
 3357SOL     OW10128   4.297   0.870   2.891
 3357SOL    HW110129   4.341   0.959   2.882
 3357SOL    HW210130   4.234   0.870   2.968
 3358SOL     OW10131   5.084   0.862   2.907
 3358SOL    HW110132   5.009   0.862   2.841
 3358SOL    HW210133   5.121   0.770   2.916
 3359SOL     OW10134   4.933   0.525   2.137
 3359SOL    HW110135   4.946   0.441   2.191
 3359SOL    HW210136   4.904   0.599   2.197
 3360SOL     OW10137   4.031   0.213   3.093
 3360SOL    HW110138   4.008   0.250   3.183
 3360SOL    HW210139   4.001   0.118   3.087
 3361SOL     OW10140   3.761   1.310   3.144
 3361SOL    HW110141   3.814   1.261   3.212
 3361SOL    HW210142   3.783   1.408   3.149
 3362SOL     OW10143   4.456   0.634   2.926
 3362SOL    HW110144   4.515   0.608   2.850
 3362SOL    HW210145   4.428   0.730   2.915
 3363SOL     OW10146   4.031   0.063   2.480
 3363SOL    HW110147   4.020   0.157   2.513
 3363SOL    HW210148   4.026   0.000   2.557
 3364SOL     OW10149   5.346   0.367   2.236
 3364SOL    HW110150   5.348   0.291   2.300
 3364SOL    HW210151   5.298   0.444   2.276
 3365SOL     OW10152   4.747   0.766   2.828
 3365SOL    HW110153   4.762   0.787   2.924
 3365SOL    HW210154   4.717   0.671   2.819
 3366SOL     OW10155   4.704   1.573   3.562
 3366SOL    HW110156   4.684   1.617   3.474
 3366SOL    HW210157   4.743   1.482   3.546
 3367SOL     OW10158   4.074   0.898   3.666
 3367SOL    HW110159   4.150   0.942   3.714
 3367SOL    HW210160   4.109   0.851   3.584
 3368SOL     OW10161   5.027   0.838   1.904
 3368SOL    HW110162   5.061   0.745   1.919
 3368SOL    HW210163   5.045   0.865   1.809
 3369SOL     OW10164   4.792   1.333   2.711
 3369SOL    HW110165   4.799   1.249   2.656
 3369SOL    HW210166   4.854   1.402   2.675
 3370SOL     OW10167   4.043   0.810   2.811
 3370SOL    HW110168   4.136   0.846   2.816
 3370SOL    HW210169   4.037   0.725   2.863
 3371SOL     OW10170   4.063   0.509   2.868
 3371SOL    HW110171   4.011   0.426   2.851
 3371SOL    HW210172   4.140   0.514   2.804
 3372SOL     OW10173   4.862   0.380   3.540
 3372SOL    HW110174   4.817   0.443   3.604
 3372SOL    HW210175   4.955   0.411   3.523
 3373SOL     OW10176   4.884   0.207   3.339
 3373SOL    HW110177   4.884   0.271   3.416
 3373SOL    HW210178   4.912   0.255   3.256
 3374SOL     OW10179   3.732   1.326   2.062
 3374SOL    HW110180   3.639   1.347   2.031
 3374SOL    HW210181   3.742   1.227   2.075
 3375SOL     OW10182   3.812   1.801   2.789
 3375SOL    HW110183   3.770   1.715   2.762
 3375SOL    HW210184   3.906   1.804   2.755
 3376SOL     OW10185   4.228   1.568   2.772
 3376SOL    HW110186   4.294   1.642   2.781
 3376SOL    HW210187   4.272   1.489   2.730
 3377SOL     OW10188   4.726   0.796   3.100
 3377SOL    HW110189   4.767   0.764   3.186
 3377SOL    HW210190   4.630   0.769   3.097
 3378SOL     OW10191   3.764   0.544   2.976
 3378SOL    HW110192   3.849   0.511   2.935
 3378SOL    HW210193   3.777   0.559   3.074
 3379SOL     OW10194   3.913   0.520   3.584
 3379SOL    HW110195   3.972   0.480   3.514
 3379SOL    HW210196   3.855   0.591   3.543
 3380SOL     OW10197   4.539   0.572   2.187
 3380SOL    HW110198   4.546   0.483   2.141
 3380SOL    HW210199   4.445   0.606   2.179
 3381SOL     OW10200   3.976   1.564   3.606
 3381SOL    HW110201   3.946   1.621   3.682
 3381SOL    HW210202   3.969   1.467   3.632
 3382SOL     OW10203   4.395   0.464   3.131
 3382SOL    HW110204   4.361   0.375   3.101
 3382SOL    HW210205   4.421   0.518   3.051
 3383SOL     OW10206   4.654   1.678   3.327
 3383SOL    HW110207   4.630   1.660   3.232
 3383SOL    HW210208   4.684   1.772   3.337
 3384SOL     OW10209   4.197   0.500   2.053
 3384SOL    HW110210   4.258   0.580   2.057
 3384SOL    HW210211   4.102   0.531   2.060
 3385SOL     OW10212   3.883   1.137   3.328
 3385SOL    HW110213   3.905   1.076   3.404
 3385SOL    HW210214   3.893   1.088   3.242
 3386SOL     OW10215   5.071   1.059   3.096
 3386SOL    HW110216   5.095   0.996   3.022
 3386SOL    HW210217   4.981   1.099   3.078
 3387SOL     OW10218   4.976   1.731   2.990
 3387SOL    HW110219   5.060   1.736   2.936
 3387SOL    HW210220   4.953   1.635   3.008
 3388SOL     OW10221   3.807   1.258   2.884
 3388SOL    HW110222   3.802   1.257   2.984
 3388SOL    HW210223   3.724   1.217   2.846
 3389SOL     OW10224   4.412   1.662   3.578
 3389SOL    HW110225   4.356   1.743   3.587
 3389SOL    HW210226   4.464   1.666   3.492
 3390SOL     OW10227   5.112   1.573   2.339
 3390SOL    HW110228   5.179   1.585   2.265
 3390SOL    HW210229   5.072   1.662   2.362
 3391SOL     OW10230   3.854   1.794   3.713
 3391SOL    HW110231   3.813   1.720   3.766
 3391SOL    HW210232   3.918   1.845   3.771
 3392SOL     OW10233   5.004   0.927   2.534
 3392SOL    HW110234   5.064   0.846   2.536
 3392SOL    HW210235   5.044   0.996   2.474
 3393SOL     OW10236   4.554   1.273   3.284
 3393SOL    HW110237   4.549   1.306   3.379
 3393SOL    HW210238   4.468   1.292   3.238
 3394SOL     OW10239   4.396   1.616   2.016
 3394SOL    HW110240   4.405   1.626   1.917
 3394SOL    HW210241   4.356   1.527   2.037
 3395SOL     OW10242   3.987   0.326   2.582
 3395SOL    HW110243   3.908   0.377   2.548
 3395SOL    HW210244   3.978   0.311   2.680
 3396SOL     OW10245   4.918   1.612   1.893
 3396SOL    HW110246   4.924   1.519   1.930
 3396SOL    HW210247   4.859   1.612   1.813
 3397SOL     OW10248   4.546   1.002   3.234
 3397SOL    HW110249   4.586   1.001   3.142
 3397SOL    HW210250   4.556   1.094   3.274
 3398SOL     OW10251   4.640   0.910   2.153
 3398SOL    HW110252   4.703   0.948   2.085
 3398SOL    HW210253   4.680   0.827   2.192
 3399SOL     OW10254   4.096   1.288   3.352
 3399SOL    HW110255   4.083   1.381   3.318
 3399SOL    HW210256   4.012   1.236   3.339
 3400SOL     OW10257   4.763   1.098   2.558
 3400SOL    HW110258   4.693   1.051   2.612
 3400SOL    HW210259   4.822   1.030   2.515
 3401SOL     OW10260   4.738   0.236   2.833
 3401SOL    HW110261   4.730   0.200   2.740
 3401SOL    HW210262   4.736   0.160   2.898
 3402SOL     OW10263   4.314   1.487   2.353
 3402SOL    HW110264   4.356   1.429   2.283
 3402SOL    HW210265   4.270   1.566   2.309
 3403SOL     OW10266   3.979   1.348   2.152
 3403SOL    HW110267   3.883   1.349   2.125
 3403SOL    HW210268   3.991   1.401   2.236
 3404SOL     OW10269   3.829   1.013   3.588
 3404SOL    HW110270   3.752   0.980   3.642
 3404SOL    HW210271   3.914   0.983   3.630
 3405SOL     OW10272   4.396   0.203   3.351
 3405SOL    HW110273   4.486   0.187   3.311
 3405SOL    HW210274   4.404   0.208   3.450
 3406SOL     OW10275   3.799   0.345   1.895
 3406SOL    HW110276   3.707   0.317   1.866
 3406SOL    HW210277   3.830   0.422   1.839
 3407SOL     OW10278   5.164   0.856   3.260
 3407SOL    HW110279   5.107   0.908   3.197
 3407SOL    HW210280   5.260   0.868   3.236
 3408SOL     OW10281   3.796   0.166   2.180
 3408SOL    HW110282   3.779   0.249   2.126
 3408SOL    HW210283   3.886   0.129   2.158
 3409SOL     OW10284   4.337   0.842   3.293
 3409SOL    HW110285   4.393   0.923   3.276
 3409SOL    HW210286   4.396   0.762   3.296
 3410SOL     OW10287   4.440   0.565   3.570
 3410SOL    HW110288   4.459   0.630   3.644
 3410SOL    HW210289   4.500   0.485   3.579
 3411SOL     OW10290   4.114   1.741   3.422
 3411SOL    HW110291   4.023   1.782   3.420
 3411SOL    HW210292   4.107   1.647   3.454
 3412SOL     OW10293   4.949   0.325   2.311
 3412SOL    HW110294   5.014   0.251   2.300
 3412SOL    HW210295   4.969   0.375   2.395
 3413SOL     OW10296   4.318   0.745   2.514
 3413SOL    HW110297   4.368   0.830   2.495
 3413SOL    HW210298   4.230   0.747   2.466
 3414SOL     OW10299   4.583   1.374   1.878
 3414SOL    HW110300   4.537   1.389   1.966
 3414SOL    HW210301   4.627   1.459   1.848
 3415SOL     OW10302   4.385   1.790   2.815
 3415SOL    HW110303   4.339   1.878   2.802
 3415SOL    HW210304   4.484   1.802   2.808
 3416SOL     OW10305   4.583   0.956   2.723
 3416SOL    HW110306   4.637   0.887   2.771
 3416SOL    HW210307   4.551   1.025   2.789
 3417SOL     OW10308   4.807   0.984   1.949
 3417SOL    HW110309   4.784   1.037   1.867
 3417SOL    HW210310   4.888   0.928   1.930
 3418SOL     OW10311   3.945   1.314   3.706
 3418SOL    HW110312   3.880   1.241   3.685
 3418SOL    HW210313   3.949   1.328   3.804
 3419SOL     OW10314   3.803   1.240   2.515
 3419SOL    HW110315   3.802   1.193   2.603
 3419SOL    HW210316   3.885   1.212   2.464
 3420SOL     OW10317   4.396   1.391   3.486
 3420SOL    HW110318   4.318   1.341   3.524
 3420SOL    HW210319   4.393   1.486   3.517
 3421SOL     OW10320   4.152   0.424   2.382
 3421SOL    HW110321   4.182   0.352   2.320
 3421SOL    HW210322   4.113   0.384   2.465
 3422SOL     OW10323   4.041   0.547   3.142
 3422SOL    HW110324   4.079   0.488   3.214
 3422SOL    HW210325   4.081   0.521   3.054
 3423SOL     OW10326   4.536   1.586   2.549
 3423SOL    HW110327   4.568   1.596   2.455
 3423SOL    HW210328   4.457   1.524   2.551
 3424SOL     OW10329   4.725   0.034   3.016
 3424SOL    HW110330   4.662  -0.038   2.985
 3424SOL    HW210331   4.818  -0.002   3.016
 3425SOL     OW10332   4.494   1.330   2.163
 3425SOL    HW110333   4.448   1.243   2.180
 3425SOL    HW210334   4.585   1.327   2.204
 3426SOL     OW10335   4.342   1.567   3.146
 3426SOL    HW110336   4.337   1.649   3.203
 3426SOL    HW210337   4.431   1.564   3.101
 3427SOL     OW10338   3.763   1.077   2.162
 3427SOL    HW110339   3.862   1.066   2.153
 3427SOL    HW210340   3.723   0.991   2.194
 3428SOL     OW10341   4.599   1.646   2.199
 3428SOL    HW110342   4.522   1.611   2.145
 3428SOL    HW210343   4.567   1.717   2.261
 3429SOL     OW10344   3.954   0.628   3.837
 3429SOL    HW110345   3.861   0.626   3.874
 3429SOL    HW210346   3.955   0.589   3.745
 3430SOL     OW10347   3.949   0.275   4.720
 3430SOL    HW110348   3.984   0.258   4.812
 3430SOL    HW210349   3.861   0.230   4.708
 3431SOL     OW10350   3.743   0.368   4.371
 3431SOL    HW110351   3.661   0.411   4.410
 3431SOL    HW210352   3.715   0.295   4.308
 3432SOL     OW10353   4.293   1.275   4.889
 3432SOL    HW110354   4.200   1.268   4.852
 3432SOL    HW210355   4.304   1.364   4.933
 3433SOL     OW10356   4.859   0.703   4.441
 3433SOL    HW110357   4.916   0.781   4.416
 3433SOL    HW210358   4.799   0.729   4.517
 3434SOL     OW10359   4.492   1.144   4.747
 3434SOL    HW110360   4.414   1.161   4.807
 3434SOL    HW210361   4.526   1.231   4.711
 3435SOL     OW10362   4.409   1.012   4.389
 3435SOL    HW110363   4.478   0.996   4.459
 3435SOL    HW210364   4.336   1.069   4.427
 3436SOL     OW10365   4.059   1.435   4.785
 3436SOL    HW110366   3.981   1.404   4.732
 3436SOL    HW210367   4.117   1.493   4.728
 3437SOL     OW10368   3.955   1.713   4.207
 3437SOL    HW110369   3.989   1.790   4.261
 3437SOL    HW210370   3.999   1.713   4.117
 3438SOL     OW10371   3.954   1.434   4.262
 3438SOL    HW110372   3.928   1.530   4.262
 3438SOL    HW210373   3.883   1.380   4.307
 3439SOL     OW10374   3.964   1.091   4.610
 3439SOL    HW110375   3.978   1.007   4.662
 3439SOL    HW210376   3.909   1.155   4.665
 3440SOL     OW10377   4.344   1.786   5.163
 3440SOL    HW110378   4.252   1.769   5.198
 3440SOL    HW210379   4.372   1.878   5.189
 3441SOL     OW10380   4.330   0.964   3.847
 3441SOL    HW110381   4.337   1.048   3.793
 3441SOL    HW210382   4.376   0.977   3.935
 3442SOL     OW10383   3.846   0.643   4.287
 3442SOL    HW110384   3.801   0.555   4.304
 3442SOL    HW210385   3.845   0.697   4.371
 3443SOL     OW10386   3.751   1.596   3.841
 3443SOL    HW110387   3.732   1.500   3.862
 3443SOL    HW210388   3.718   1.654   3.916
 3444SOL     OW10389   4.337   1.365   4.450
 3444SOL    HW110390   4.288   1.278   4.459
 3444SOL    HW210391   4.314   1.408   4.363
 3445SOL     OW10392   4.533   0.004   4.226
 3445SOL    HW110393   4.573   0.095   4.217
 3445SOL    HW210394   4.433   0.012   4.232
 3446SOL     OW10395   3.921   0.976   4.988
 3446SOL    HW110396   4.010   0.931   4.974
 3446SOL    HW210397   3.848   0.911   4.969
 3447SOL     OW10398   4.322   0.729   3.994
 3447SOL    HW110399   4.346   0.798   3.926
 3447SOL    HW210400   4.244   0.762   4.048
 3448SOL     OW10401   5.005   0.345   4.668
 3448SOL    HW110402   4.919   0.295   4.655
 3448SOL    HW210403   5.067   0.291   4.724
 3449SOL     OW10404   4.715   0.410   4.966
 3449SOL    HW110405   4.638   0.444   5.020
 3449SOL    HW210406   4.681   0.359   4.887
 3450SOL     OW10407   4.765   0.701   4.153
 3450SOL    HW110408   4.791   0.697   4.249
 3450SOL    HW210409   4.680   0.650   4.139
 3451SOL     OW10410   3.800   0.811   4.513
 3451SOL    HW110411   3.899   0.799   4.522
 3451SOL    HW210412   3.776   0.906   4.534
 3452SOL     OW10413   4.589   0.348   3.919
 3452SOL    HW110414   4.648   0.411   3.870
 3452SOL    HW210415   4.608   0.254   3.890
 3453SOL     OW10416   4.274   0.196   4.609
 3453SOL    HW110417   4.269   0.191   4.709
 3453SOL    HW210418   4.276   0.292   4.580
 3454SOL     OW10419   4.732   1.456   4.201
 3454SOL    HW110420   4.686   1.528   4.149
 3454SOL    HW210421   4.728   1.476   4.299
 3455SOL     OW10422   4.075   1.801   4.577
 3455SOL    HW110423   4.125   1.715   4.583
 3455SOL    HW210424   4.140   1.878   4.574
 3456SOL     OW10425   4.045   0.943   3.966
 3456SOL    HW110426   4.127   0.982   3.924
 3456SOL    HW210427   4.018   0.861   3.917
 3457SOL     OW10428   4.835   1.776   3.961
 3457SOL    HW110429   4.775   1.714   4.011
 3457SOL    HW210430   4.866   1.732   3.876
 3458SOL     OW10431   4.188   1.743   4.047
 3458SOL    HW110432   4.221   1.782   4.133
 3458SOL    HW210433   4.264   1.736   3.982
 3459SOL     OW10434   3.973   1.785   4.965
 3459SOL    HW110435   4.030   1.720   5.015
 3459SOL    HW210436   3.957   1.752   4.872
 3460SOL     OW10437   4.664   1.698   4.628
 3460SOL    HW110438   4.744   1.641   4.649
 3460SOL    HW210439   4.615   1.658   4.551
 3461SOL     OW10440   4.106   0.700   4.204
 3461SOL    HW110441   4.151   0.610   4.201
 3461SOL    HW210442   4.012   0.689   4.237
 3462SOL     OW10443   4.338   0.122   3.841
 3462SOL    HW110444   4.436   0.100   3.848
 3462SOL    HW210445   4.307   0.105   3.748
 3463SOL     OW10446   4.527   1.402   4.648
 3463SOL    HW110447   4.617   1.416   4.606
 3463SOL    HW210448   4.456   1.404   4.577
 3464SOL     OW10449   4.646   0.503   4.623
 3464SOL    HW110450   4.621   0.494   4.527
 3464SOL    HW210451   4.694   0.421   4.654
 3465SOL     OW10452   4.263   0.064   4.236
 3465SOL    HW110453   4.182   0.065   4.294
 3465SOL    HW210454   4.266   0.147   4.181
 3466SOL     OW10455   4.021   0.035   3.895
 3466SOL    HW110456   4.070   0.119   3.874
 3466SOL    HW210457   4.083  -0.030   3.940
 3467SOL     OW10458   4.659   0.236   4.204
 3467SOL    HW110459   4.611   0.277   4.126
 3467SOL    HW210460   4.758   0.234   4.185
 3468SOL     OW10461   4.951   1.570   4.517
 3468SOL    HW110462   4.972   1.644   4.452
 3468SOL    HW210463   5.019   1.570   4.590
 3469SOL     OW10464   4.183   1.152   4.465
 3469SOL    HW110465   4.112   1.125   4.530
 3469SOL    HW210466   4.157   1.124   4.372
 3470SOL     OW10467   4.995   1.797   4.315
 3470SOL    HW110468   5.039   1.861   4.251
 3470SOL    HW210469   4.945   1.849   4.385
 3471SOL     OW10470   4.756   0.549   3.740
 3471SOL    HW110471   4.715   0.631   3.701
 3471SOL    HW210472   4.820   0.575   3.813
 3472SOL     OW10473   4.285   0.222   4.871
 3472SOL    HW110474   4.323   0.138   4.908
 3472SOL    HW210475   4.197   0.241   4.915
 3473SOL     OW10476   4.590   0.454   4.366
 3473SOL    HW110477   4.558   0.526   4.304
 3473SOL    HW210478   4.614   0.373   4.313
 3474SOL     OW10479   4.741   0.039   4.477
 3474SOL    HW110480   4.669   0.044   4.408
 3474SOL    HW210481   4.717  -0.030   4.546
 3475SOL     OW10482   4.212   1.385   3.898
 3475SOL    HW110483   4.125   1.370   3.945
 3475SOL    HW210484   4.195   1.411   3.803
 3476SOL     OW10485   5.388   1.280   4.381
 3476SOL    HW110486   5.487   1.288   4.395
 3476SOL    HW210487   5.343   1.364   4.412
 3477SOL     OW10488   4.251   0.256   4.052
 3477SOL    HW110489   4.278   0.197   3.977
 3477SOL    HW210490   4.251   0.351   4.021
 3478SOL     OW10491   5.316   1.629   5.349
 3478SOL    HW110492   5.343   1.663   5.259
 3478SOL    HW210493   5.395   1.591   5.395
 3479SOL     OW10494   4.835   1.195   4.824
 3479SOL    HW110495   4.795   1.239   4.905
 3479SOL    HW210496   4.794   1.232   4.741
 3480SOL     OW10497   4.429   1.050   4.092
 3480SOL    HW110498   4.415   1.057   4.191
 3480SOL    HW210499   4.513   0.999   4.074
 3481SOL     OW10500   4.134   0.813   4.975
 3481SOL    HW110501   4.220   0.825   5.025
 3481SOL    HW210502   4.092   0.726   5.002
 3482SOL     OW10503   4.091   1.100   4.225
 3482SOL    HW110504   4.084   1.183   4.169
 3482SOL    HW210505   4.095   1.020   4.165
 3483SOL     OW10506   4.290   0.537   4.589
 3483SOL    HW110507   4.302   0.603   4.515
 3483SOL    HW210508   4.336   0.571   4.672
 3484SOL     OW10509   4.976   1.348   4.112
 3484SOL    HW110510   5.026   1.425   4.152
 3484SOL    HW210511   4.881   1.350   4.144
 3485SOL     OW10512   4.297   0.870   4.753
 3485SOL    HW110513   4.341   0.959   4.744
 3485SOL    HW210514   4.234   0.870   4.830
 3486SOL     OW10515   5.084   0.862   4.769
 3486SOL    HW110516   5.009   0.862   4.703
 3486SOL    HW210517   5.121   0.770   4.778
 3487SOL     OW10518   4.933   0.525   3.999
 3487SOL    HW110519   4.946   0.441   4.053
 3487SOL    HW210520   4.904   0.599   4.059
 3488SOL     OW10521   4.031   0.213   4.955
 3488SOL    HW110522   4.008   0.250   5.045
 3488SOL    HW210523   4.001   0.118   4.949
 3489SOL     OW10524   4.456   0.634   4.788
 3489SOL    HW110525   4.515   0.608   4.712
 3489SOL    HW210526   4.428   0.730   4.777
 3490SOL     OW10527   4.031   0.063   4.342
 3490SOL    HW110528   4.020   0.157   4.375
 3490SOL    HW210529   4.026   0.000   4.419
 3491SOL     OW10530   5.346   0.367   4.098
 3491SOL    HW110531   5.348   0.291   4.162
 3491SOL    HW210532   5.298   0.444   4.138
 3492SOL     OW10533   4.747   0.766   4.690
 3492SOL    HW110534   4.762   0.787   4.786
 3492SOL    HW210535   4.717   0.671   4.681
 3493SOL     OW10536   5.027   0.838   3.766
 3493SOL    HW110537   5.061   0.745   3.781
 3493SOL    HW210538   5.045   0.865   3.671
 3494SOL     OW10539   4.792   1.333   4.573
 3494SOL    HW110540   4.799   1.249   4.518
 3494SOL    HW210541   4.854   1.402   4.537
 3495SOL     OW10542   4.043   0.810   4.673
 3495SOL    HW110543   4.136   0.846   4.678
 3495SOL    HW210544   4.037   0.725   4.725
 3496SOL     OW10545   4.063   0.509   4.730
 3496SOL    HW110546   4.011   0.426   4.713
 3496SOL    HW210547   4.140   0.514   4.666
 3497SOL     OW10548   4.884   0.207   5.201
 3497SOL    HW110549   4.884   0.271   5.278
 3497SOL    HW210550   4.912   0.255   5.118
 3498SOL     OW10551   3.732   1.326   3.924
 3498SOL    HW110552   3.639   1.347   3.893
 3498SOL    HW210553   3.742   1.227   3.937
 3499SOL     OW10554   3.812   1.801   4.651
 3499SOL    HW110555   3.770   1.715   4.624
 3499SOL    HW210556   3.906   1.804   4.617
 3500SOL     OW10557   4.228   1.568   4.634
 3500SOL    HW110558   4.294   1.642   4.643
 3500SOL    HW210559   4.272   1.489   4.592
 3501SOL     OW10560   4.726   0.796   4.962
 3501SOL    HW110561   4.767   0.764   5.048
 3501SOL    HW210562   4.630   0.769   4.959
 3502SOL     OW10563   3.764   0.544   4.838
 3502SOL    HW110564   3.849   0.511   4.797
 3502SOL    HW210565   3.777   0.559   4.936
 3503SOL     OW10566   4.539   0.572   4.049
 3503SOL    HW110567   4.546   0.483   4.003
 3503SOL    HW210568   4.445   0.606   4.041
 3504SOL     OW10569   4.395   0.464   4.993
 3504SOL    HW110570   4.361   0.375   4.963
 3504SOL    HW210571   4.421   0.518   4.913
 3505SOL     OW10572   4.654   1.678   5.189
 3505SOL    HW110573   4.630   1.660   5.094
 3505SOL    HW210574   4.684   1.772   5.199
 3506SOL     OW10575   4.197   0.500   3.915
 3506SOL    HW110576   4.258   0.580   3.919
 3506SOL    HW210577   4.102   0.531   3.922
 3507SOL     OW10578   5.071   1.059   4.958
 3507SOL    HW110579   5.095   0.996   4.884
 3507SOL    HW210580   4.981   1.099   4.940
 3508SOL     OW10581   4.976   1.731   4.852
 3508SOL    HW110582   5.060   1.736   4.798
 3508SOL    HW210583   4.953   1.635   4.870
 3509SOL     OW10584   3.807   1.258   4.746
 3509SOL    HW110585   3.802   1.257   4.846
 3509SOL    HW210586   3.724   1.217   4.708
 3510SOL     OW10587   5.112   1.573   4.201
 3510SOL    HW110588   5.179   1.585   4.127
 3510SOL    HW210589   5.072   1.662   4.224
 3511SOL     OW10590   5.004   0.927   4.396
 3511SOL    HW110591   5.064   0.846   4.398
 3511SOL    HW210592   5.044   0.996   4.336
 3512SOL     OW10593   4.396   1.616   3.878
 3512SOL    HW110594   4.405   1.626   3.779
 3512SOL    HW210595   4.356   1.527   3.899
 3513SOL     OW10596   3.987   0.326   4.444
 3513SOL    HW110597   3.908   0.377   4.410
 3513SOL    HW210598   3.978   0.311   4.542
 3514SOL     OW10599   4.918   1.612   3.755
 3514SOL    HW110600   4.924   1.519   3.792
 3514SOL    HW210601   4.859   1.612   3.675
 3515SOL     OW10602   4.546   1.002   5.096
 3515SOL    HW110603   4.586   1.001   5.004
 3515SOL    HW210604   4.556   1.094   5.136
 3516SOL     OW10605   4.640   0.910   4.015
 3516SOL    HW110606   4.703   0.948   3.947
 3516SOL    HW210607   4.680   0.827   4.054
 3517SOL     OW10608   4.763   1.098   4.420
 3517SOL    HW110609   4.693   1.051   4.474
 3517SOL    HW210610   4.822   1.030   4.377
 3518SOL     OW10611   4.738   0.236   4.695
 3518SOL    HW110612   4.730   0.200   4.602
 3518SOL    HW210613   4.736   0.160   4.760
 3519SOL     OW10614   4.314   1.487   4.215
 3519SOL    HW110615   4.356   1.429   4.145
 3519SOL    HW210616   4.270   1.566   4.171
 3520SOL     OW10617   3.979   1.348   4.014
 3520SOL    HW110618   3.883   1.349   3.987
 3520SOL    HW210619   3.991   1.401   4.098
 3521SOL     OW10620   3.799   0.345   3.757
 3521SOL    HW110621   3.707   0.317   3.728
 3521SOL    HW210622   3.830   0.422   3.701
 3522SOL     OW10623   3.796   0.166   4.042
 3522SOL    HW110624   3.779   0.249   3.988
 3522SOL    HW210625   3.886   0.129   4.020
 3523SOL     OW10626   4.949   0.325   4.173
 3523SOL    HW110627   5.014   0.251   4.162
 3523SOL    HW210628   4.969   0.375   4.257
 3524SOL     OW10629   4.318   0.745   4.376
 3524SOL    HW110630   4.368   0.830   4.357
 3524SOL    HW210631   4.230   0.747   4.328
 3525SOL     OW10632   4.583   1.374   3.740
 3525SOL    HW110633   4.537   1.389   3.828
 3525SOL    HW210634   4.627   1.459   3.710
 3526SOL     OW10635   4.385   1.790   4.677
 3526SOL    HW110636   4.339   1.878   4.664
 3526SOL    HW210637   4.484   1.802   4.670
 3527SOL     OW10638   4.583   0.956   4.585
 3527SOL    HW110639   4.637   0.887   4.633
 3527SOL    HW210640   4.551   1.025   4.651
 3528SOL     OW10641   4.807   0.984   3.811
 3528SOL    HW110642   4.784   1.037   3.729
 3528SOL    HW210643   4.888   0.928   3.792
 3529SOL     OW10644   3.803   1.240   4.377
 3529SOL    HW110645   3.802   1.193   4.465
 3529SOL    HW210646   3.885   1.212   4.326
 3530SOL     OW10647   4.152   0.424   4.244
 3530SOL    HW110648   4.182   0.352   4.182
 3530SOL    HW210649   4.113   0.384   4.327
 3531SOL     OW10650   4.536   1.586   4.411
 3531SOL    HW110651   4.568   1.596   4.317
 3531SOL    HW210652   4.457   1.524   4.413
 3532SOL     OW10653   4.725   0.034   4.878
 3532SOL    HW110654   4.662  -0.038   4.847
 3532SOL    HW210655   4.818  -0.002   4.878
 3533SOL     OW10656   4.494   1.330   4.025
 3533SOL    HW110657   4.448   1.243   4.042
 3533SOL    HW210658   4.585   1.327   4.066
 3534SOL     OW10659   3.763   1.077   4.024
 3534SOL    HW110660   3.862   1.066   4.015
 3534SOL    HW210661   3.723   0.991   4.056
 3535SOL     OW10662   4.599   1.646   4.061
 3535SOL    HW110663   4.522   1.611   4.007
 3535SOL    HW210664   4.567   1.717   4.123
 3536SOL     OW10665   3.954   2.490   0.113
 3536SOL    HW110666   3.861   2.488   0.150
 3536SOL    HW210667   3.955   2.451   0.021
 3537SOL     OW10668   3.949   2.137   0.996
 3537SOL    HW110669   3.984   2.120   1.088
 3537SOL    HW210670   3.861   2.092   0.984
 3538SOL     OW10671   3.743   2.230   0.647
 3538SOL    HW110672   3.661   2.273   0.686
 3538SOL    HW210673   3.715   2.157   0.584
 3539SOL     OW10674   4.293   3.137   1.165
 3539SOL    HW110675   4.200   3.130   1.128
 3539SOL    HW210676   4.304   3.226   1.209
 3540SOL     OW10677   4.859   2.565   0.717
 3540SOL    HW110678   4.916   2.643   0.692
 3540SOL    HW210679   4.799   2.591   0.793
 3541SOL     OW10680   4.492   3.006   1.023
 3541SOL    HW110681   4.414   3.023   1.083
 3541SOL    HW210682   4.526   3.093   0.987
 3542SOL     OW10683   4.574   2.660   1.823
 3542SOL    HW110684   4.570   2.736   1.888
 3542SOL    HW210685   4.596   2.696   1.732
 3543SOL     OW10686   4.409   2.874   0.665
 3543SOL    HW110687   4.478   2.858   0.735
 3543SOL    HW210688   4.336   2.931   0.703
 3544SOL     OW10689   4.410   3.023   1.803
 3544SOL    HW110690   4.470   3.102   1.817
 3544SOL    HW210691   4.324   3.054   1.762
 3545SOL     OW10692   4.059   3.297   1.061
 3545SOL    HW110693   3.981   3.266   1.008
 3545SOL    HW210694   4.117   3.355   1.004
 3546SOL     OW10695   4.162   2.254   1.499
 3546SOL    HW110696   4.244   2.198   1.508
 3546SOL    HW210697   4.081   2.196   1.503
 3547SOL     OW10698   3.955   3.575   0.483
 3547SOL    HW110699   3.989   3.652   0.537
 3547SOL    HW210700   3.999   3.575   0.393
 3548SOL     OW10701   4.851   3.203   1.690
 3548SOL    HW110702   4.898   3.203   1.778
 3548SOL    HW210703   4.803   3.116   1.679
 3549SOL     OW10704   3.954   3.296   0.538
 3549SOL    HW110705   3.928   3.392   0.538
 3549SOL    HW210706   3.883   3.242   0.583
 3550SOL     OW10707   3.964   2.953   0.886
 3550SOL    HW110708   3.978   2.869   0.938
 3550SOL    HW210709   3.909   3.017   0.941
 3551SOL     OW10710   4.344   3.648   1.439
 3551SOL    HW110711   4.252   3.631   1.474
 3551SOL    HW210712   4.372   3.740   1.465
 3552SOL     OW10713   4.330   2.826   0.123
 3552SOL    HW110714   4.337   2.910   0.069
 3552SOL    HW210715   4.376   2.839   0.211
 3553SOL     OW10716   3.846   2.505   0.563
 3553SOL    HW110717   3.801   2.417   0.580
 3553SOL    HW210718   3.845   2.559   0.647
 3554SOL     OW10719   3.751   3.458   0.117
 3554SOL    HW110720   3.732   3.362   0.138
 3554SOL    HW210721   3.718   3.516   0.192
 3555SOL     OW10722   3.837   2.599   1.597
 3555SOL    HW110723   3.925   2.586   1.642
 3555SOL    HW210724   3.824   2.696   1.575
 3556SOL     OW10725   4.337   3.227   0.726
 3556SOL    HW110726   4.288   3.140   0.735
 3556SOL    HW210727   4.314   3.270   0.639
 3557SOL     OW10728   5.017   3.090   1.423
 3557SOL    HW110729   5.054   3.017   1.365
 3557SOL    HW210730   5.069   3.095   1.508
 3558SOL     OW10731   4.533   1.866   0.502
 3558SOL    HW110732   4.573   1.957   0.493
 3558SOL    HW210733   4.433   1.874   0.508
 3559SOL     OW10734   3.921   2.838   1.264
 3559SOL    HW110735   4.010   2.793   1.250
 3559SOL    HW210736   3.848   2.773   1.245
 3560SOL     OW10737   4.911   3.654   1.616
 3560SOL    HW110738   4.935   3.714   1.540
 3560SOL    HW210739   4.918   3.559   1.586
 3561SOL     OW10740   4.041   2.113   1.801
 3561SOL    HW110741   4.112   2.184   1.807
 3561SOL    HW210742   3.953   2.152   1.829
 3562SOL     OW10743   4.322   2.591   0.270
 3562SOL    HW110744   4.346   2.660   0.202
 3562SOL    HW210745   4.244   2.624   0.324
 3563SOL     OW10746   5.005   2.207   0.944
 3563SOL    HW110747   4.919   2.157   0.931
 3563SOL    HW210748   5.067   2.153   1.000
 3564SOL     OW10749   4.531   2.467   1.465
 3564SOL    HW110750   4.484   2.464   1.554
 3564SOL    HW210751   4.480   2.412   1.399
 3565SOL     OW10752   4.697   2.752   1.572
 3565SOL    HW110753   4.743   2.668   1.543
 3565SOL    HW210754   4.641   2.786   1.497
 3566SOL     OW10755   4.715   2.272   1.242
 3566SOL    HW110756   4.638   2.306   1.296
 3566SOL    HW210757   4.681   2.221   1.163
 3567SOL     OW10758   4.765   2.563   0.429
 3567SOL    HW110759   4.791   2.559   0.525
 3567SOL    HW210760   4.680   2.512   0.415
 3568SOL     OW10761   3.800   2.673   0.789
 3568SOL    HW110762   3.899   2.661   0.798
 3568SOL    HW210763   3.776   2.768   0.810
 3569SOL     OW10764   3.854   3.683   1.571
 3569SOL    HW110765   3.844   3.668   1.670
 3569SOL    HW210766   3.768   3.719   1.535
 3570SOL     OW10767   4.589   2.210   0.195
 3570SOL    HW110768   4.648   2.273   0.146
 3570SOL    HW210769   4.608   2.116   0.166
 3571SOL     OW10770   4.274   2.058   0.885
 3571SOL    HW110771   4.269   2.053   0.985
 3571SOL    HW210772   4.276   2.154   0.856
 3572SOL     OW10773   4.732   3.318   0.477
 3572SOL    HW110774   4.686   3.390   0.425
 3572SOL    HW210775   4.728   3.338   0.575
 3573SOL     OW10776   4.075   3.663   0.853
 3573SOL    HW110777   4.125   3.577   0.859
 3573SOL    HW210778   4.140   3.740   0.850
 3574SOL     OW10779   4.951   3.412   1.506
 3574SOL    HW110780   4.957   3.335   1.570
 3574SOL    HW210781   4.899   3.386   1.426
 3575SOL     OW10782   4.045   2.805   0.242
 3575SOL    HW110783   4.127   2.844   0.200
 3575SOL    HW210784   4.018   2.723   0.193
 3576SOL     OW10785   4.185   3.128   1.727
 3576SOL    HW110786   4.135   3.129   1.641
 3576SOL    HW210787   4.122   3.110   1.803
 3577SOL     OW10788   4.835   3.638   0.237
 3577SOL    HW110789   4.775   3.576   0.287
 3577SOL    HW210790   4.866   3.594   0.152
 3578SOL     OW10791   3.926   2.147   1.498
 3578SOL    HW110792   3.846   2.207   1.485
 3578SOL    HW210793   3.916   2.098   1.584
 3579SOL     OW10794   5.356   3.239   0.081
 3579SOL    HW110795   5.324   3.333   0.071
 3579SOL    HW210796   5.280   3.176   0.069
 3580SOL     OW10797   4.188   3.605   0.323
 3580SOL    HW110798   4.221   3.644   0.409
 3580SOL    HW210799   4.264   3.598   0.258
 3581SOL     OW10800   3.973   3.647   1.241
 3581SOL    HW110801   4.030   3.582   1.291
 3581SOL    HW210802   3.957   3.614   1.148
 3582SOL     OW10803   4.664   3.560   0.904
 3582SOL    HW110804   4.744   3.503   0.925
 3582SOL    HW210805   4.615   3.520   0.827
 3583SOL     OW10806   4.106   2.562   0.480
 3583SOL    HW110807   4.151   2.472   0.477
 3583SOL    HW210808   4.012   2.551   0.513
 3584SOL     OW10809   4.505   2.126   1.749
 3584SOL    HW110810   4.572   2.065   1.792
 3584SOL    HW210811   4.432   2.145   1.814
 3585SOL     OW10812   4.612   3.376   1.195
 3585SOL    HW110813   4.589   3.351   1.101
 3585SOL    HW210814   4.673   3.307   1.234
 3586SOL     OW10815   4.527   3.264   0.924
 3586SOL    HW110816   4.617   3.278   0.882
 3586SOL    HW210817   4.456   3.266   0.853
 3587SOL     OW10818   4.646   2.365   0.899
 3587SOL    HW110819   4.621   2.356   0.803
 3587SOL    HW210820   4.694   2.283   0.930
 3588SOL     OW10821   4.263   1.926   0.512
 3588SOL    HW110822   4.182   1.927   0.570
 3588SOL    HW210823   4.266   2.009   0.457
 3589SOL     OW10824   4.021   1.897   0.171
 3589SOL    HW110825   4.070   1.981   0.150
 3589SOL    HW210826   4.083   1.832   0.216
 3590SOL     OW10827   4.659   2.098   0.480
 3590SOL    HW110828   4.611   2.139   0.402
 3590SOL    HW210829   4.758   2.096   0.461
 3591SOL     OW10830   4.800   2.545   1.464
 3591SOL    HW110831   4.720   2.484   1.467
 3591SOL    HW210832   4.881   2.492   1.440
 3592SOL     OW10833   4.951   3.432   0.793
 3592SOL    HW110834   4.972   3.506   0.728
 3592SOL    HW210835   5.019   3.432   0.866
 3593SOL     OW10836   4.183   3.014   0.741
 3593SOL    HW110837   4.112   2.987   0.806
 3593SOL    HW210838   4.157   2.986   0.648
 3594SOL     OW10839   4.995   3.659   0.591
 3594SOL    HW110840   5.039   3.723   0.527
 3594SOL    HW210841   4.945   3.711   0.661
 3595SOL     OW10842   4.756   2.411   0.016
 3595SOL    HW110843   4.715   2.493  -0.023
 3595SOL    HW210844   4.820   2.437   0.089
 3596SOL     OW10845   3.802   2.418   1.386
 3596SOL    HW110846   3.894   2.417   1.345
 3596SOL    HW210847   3.796   2.492   1.453
 3597SOL     OW10848   4.285   2.084   1.147
 3597SOL    HW110849   4.323   2.000   1.184
 3597SOL    HW210850   4.197   2.103   1.191
 3598SOL     OW10851   4.590   2.316   0.642
 3598SOL    HW110852   4.558   2.388   0.580
 3598SOL    HW210853   4.614   2.235   0.589
 3599SOL     OW10854   4.741   1.901   0.753
 3599SOL    HW110855   4.669   1.906   0.684
 3599SOL    HW210856   4.717   1.832   0.822
 3600SOL     OW10857   4.212   3.247   0.174
 3600SOL    HW110858   4.125   3.232   0.221
 3600SOL    HW210859   4.195   3.273   0.079
 3601SOL     OW10860   5.388   3.142   0.657
 3601SOL    HW110861   5.487   3.150   0.671
 3601SOL    HW210862   5.343   3.226   0.688
 3602SOL     OW10863   4.251   2.118   0.328
 3602SOL    HW110864   4.278   2.059   0.253
 3602SOL    HW210865   4.251   2.213   0.297
 3603SOL     OW10866   4.788   3.209   1.340
 3603SOL    HW110867   4.708   3.186   1.395
 3603SOL    HW210868   4.871   3.183   1.389
 3604SOL     OW10869   4.835   3.057   1.100
 3604SOL    HW110870   4.795   3.101   1.181
 3604SOL    HW210871   4.794   3.094   1.017
 3605SOL     OW10872   4.639   1.951   1.402
 3605SOL    HW110873   4.664   1.931   1.307
 3605SOL    HW210874   4.711   2.007   1.444
 3606SOL     OW10875   4.704   2.978   1.719
 3606SOL    HW110876   4.605   2.984   1.729
 3606SOL    HW210877   4.727   2.898   1.663
 3607SOL     OW10878   4.429   2.912   0.368
 3607SOL    HW110879   4.415   2.919   0.467
 3607SOL    HW210880   4.513   2.861   0.350
 3608SOL     OW10881   4.134   2.675   1.251
 3608SOL    HW110882   4.220   2.687   1.301
 3608SOL    HW210883   4.092   2.588   1.278
 3609SOL     OW10884   4.998   2.248   1.262
 3609SOL    HW110885   5.019   2.322   1.326
 3609SOL    HW210886   4.909   2.265   1.219
 3610SOL     OW10887   3.788   3.426   1.331
 3610SOL    HW110888   3.742   3.508   1.297
 3610SOL    HW210889   3.886   3.445   1.340
 3611SOL     OW10890   4.091   2.962   0.501
 3611SOL    HW110891   4.084   3.045   0.445
 3611SOL    HW210892   4.095   2.882   0.441
 3612SOL     OW10893   4.290   2.399   0.865
 3612SOL    HW110894   4.302   2.465   0.791
 3612SOL    HW210895   4.336   2.433   0.948
 3613SOL     OW10896   4.976   3.210   0.388
 3613SOL    HW110897   5.026   3.287   0.428
 3613SOL    HW210898   4.881   3.212   0.420
 3614SOL     OW10899   4.078   3.372   1.329
 3614SOL    HW110900   4.057   3.328   1.242
 3614SOL    HW210901   4.175   3.398   1.332
 3615SOL     OW10902   4.126   2.613   1.598
 3615SOL    HW110903   4.194   2.668   1.551
 3615SOL    HW210904   4.166   2.525   1.625
 3616SOL     OW10905   4.737   1.967   1.770
 3616SOL    HW110906   4.743   2.052   1.718
 3616SOL    HW210907   4.769   1.891   1.713
 3617SOL     OW10908   4.228   1.912   1.740
 3617SOL    HW110909   4.186   1.855   1.670
 3617SOL    HW210910   4.162   1.981   1.772
 3618SOL     OW10911   4.297   2.732   1.029
 3618SOL    HW110912   4.341   2.821   1.020
 3618SOL    HW210913   4.234   2.732   1.106
 3619SOL     OW10914   5.084   2.724   1.045
 3619SOL    HW110915   5.009   2.724   0.979
 3619SOL    HW210916   5.121   2.632   1.054
 3620SOL     OW10917   4.933   2.387   0.275
 3620SOL    HW110918   4.946   2.303   0.329
 3620SOL    HW210919   4.904   2.461   0.335
 3621SOL     OW10920   4.031   2.075   1.231
 3621SOL    HW110921   4.008   2.112   1.321
 3621SOL    HW210922   4.001   1.980   1.225
 3622SOL     OW10923   3.761   3.172   1.282
 3622SOL    HW110924   3.814   3.123   1.350
 3622SOL    HW210925   3.783   3.270   1.287
 3623SOL     OW10926   4.456   2.496   1.064
 3623SOL    HW110927   4.515   2.470   0.988
 3623SOL    HW210928   4.428   2.592   1.053
 3624SOL     OW10929   4.031   1.925   0.618
 3624SOL    HW110930   4.020   2.019   0.651
 3624SOL    HW210931   4.026   1.862   0.695
 3625SOL     OW10932   5.346   2.229   0.374
 3625SOL    HW110933   5.348   2.153   0.438
 3625SOL    HW210934   5.298   2.306   0.414
 3626SOL     OW10935   4.747   2.628   0.966
 3626SOL    HW110936   4.762   2.649   1.062
 3626SOL    HW210937   4.717   2.533   0.957
 3627SOL     OW10938   4.704   3.435   1.700
 3627SOL    HW110939   4.684   3.479   1.612
 3627SOL    HW210940   4.743   3.344   1.684
 3628SOL     OW10941   4.074   2.760   1.804
 3628SOL    HW110942   4.150   2.804   1.852
 3628SOL    HW210943   4.109   2.713   1.722
 3629SOL     OW10944   5.027   2.700   0.042
 3629SOL    HW110945   5.061   2.607   0.057
 3629SOL    HW210946   5.045   2.727  -0.053
 3630SOL     OW10947   4.792   3.195   0.849
 3630SOL    HW110948   4.799   3.111   0.794
 3630SOL    HW210949   4.854   3.264   0.813
 3631SOL     OW10950   4.043   2.672   0.949
 3631SOL    HW110951   4.136   2.708   0.954
 3631SOL    HW210952   4.037   2.587   1.001
 3632SOL     OW10953   4.063   2.371   1.006
 3632SOL    HW110954   4.011   2.288   0.989
 3632SOL    HW210955   4.140   2.376   0.942
 3633SOL     OW10956   4.862   2.242   1.678
 3633SOL    HW110957   4.817   2.305   1.742
 3633SOL    HW210958   4.955   2.273   1.661
 3634SOL     OW10959   4.884   2.069   1.477
 3634SOL    HW110960   4.884   2.133   1.554
 3634SOL    HW210961   4.912   2.117   1.394
 3635SOL     OW10962   3.812   3.663   0.927
 3635SOL    HW110963   3.770   3.577   0.900
 3635SOL    HW210964   3.906   3.666   0.893
 3636SOL     OW10965   4.228   3.430   0.910
 3636SOL    HW110966   4.294   3.504   0.919
 3636SOL    HW210967   4.272   3.351   0.868
 3637SOL     OW10968   4.726   2.658   1.238
 3637SOL    HW110969   4.767   2.626   1.324
 3637SOL    HW210970   4.630   2.631   1.235
 3638SOL     OW10971   3.764   2.406   1.114
 3638SOL    HW110972   3.849   2.373   1.073
 3638SOL    HW210973   3.777   2.421   1.212
 3639SOL     OW10974   3.913   2.382   1.722
 3639SOL    HW110975   3.972   2.342   1.652
 3639SOL    HW210976   3.855   2.453   1.681
 3640SOL     OW10977   4.539   2.434   0.325
 3640SOL    HW110978   4.546   2.345   0.279
 3640SOL    HW210979   4.445   2.468   0.317
 3641SOL     OW10980   3.976   3.426   1.744
 3641SOL    HW110981   3.946   3.483   1.820
 3641SOL    HW210982   3.969   3.329   1.770
 3642SOL     OW10983   4.395   2.326   1.269
 3642SOL    HW110984   4.361   2.237   1.239
 3642SOL    HW210985   4.421   2.380   1.189
 3643SOL     OW10986   4.654   3.540   1.465
 3643SOL    HW110987   4.630   3.522   1.370
 3643SOL    HW210988   4.684   3.634   1.475
 3644SOL     OW10989   4.197   2.362   0.191
 3644SOL    HW110990   4.258   2.442   0.195
 3644SOL    HW210991   4.102   2.393   0.198
 3645SOL     OW10992   3.883   2.999   1.466
 3645SOL    HW110993   3.905   2.938   1.542
 3645SOL    HW210994   3.893   2.950   1.380
 3646SOL     OW10995   5.071   2.921   1.234
 3646SOL    HW110996   5.095   2.858   1.160
 3646SOL    HW210997   4.981   2.961   1.216
 3647SOL     OW10998   4.976   3.593   1.128
 3647SOL    HW110999   5.060   3.598   1.074
 3647SOL    HW211000   4.953   3.497   1.146
 3648SOL     OW11001   3.807   3.120   1.022
 3648SOL    HW111002   3.802   3.119   1.122
 3648SOL    HW211003   3.724   3.079   0.984
 3649SOL     OW11004   4.412   3.524   1.716
 3649SOL    HW111005   4.356   3.605   1.725
 3649SOL    HW211006   4.464   3.528   1.630
 3650SOL     OW11007   4.627   1.948   0.133
 3650SOL    HW111008   4.678   1.949   0.047
 3650SOL    HW211009   4.683   1.906   0.204
 3651SOL     OW11010   5.112   3.435   0.477
 3651SOL    HW111011   5.179   3.447   0.403
 3651SOL    HW211012   5.072   3.524   0.500
 3652SOL     OW11013   3.854   3.656   1.851
 3652SOL    HW111014   3.813   3.582   1.904
 3652SOL    HW211015   3.918   3.707   1.909
 3653SOL     OW11016   5.004   2.789   0.672
 3653SOL    HW111017   5.064   2.708   0.674
 3653SOL    HW211018   5.044   2.858   0.612
 3654SOL     OW11019   4.554   3.135   1.422
 3654SOL    HW111020   4.549   3.168   1.517
 3654SOL    HW211021   4.468   3.154   1.376
 3655SOL     OW11022   4.396   3.478   0.154
 3655SOL    HW111023   4.405   3.488   0.055
 3655SOL    HW211024   4.356   3.389   0.175
 3656SOL     OW11025   3.987   2.188   0.720
 3656SOL    HW111026   3.908   2.239   0.686
 3656SOL    HW211027   3.978   2.173   0.818
 3657SOL     OW11028   4.918   3.474   0.031
 3657SOL    HW111029   4.924   3.381   0.068
 3657SOL    HW211030   4.859   3.474  -0.049
 3658SOL     OW11031   4.546   2.864   1.372
 3658SOL    HW111032   4.586   2.863   1.280
 3658SOL    HW211033   4.556   2.956   1.412
 3659SOL     OW11034   4.640   2.772   0.291
 3659SOL    HW111035   4.703   2.810   0.223
 3659SOL    HW211036   4.680   2.689   0.330
 3660SOL     OW11037   4.096   3.150   1.490
 3660SOL    HW111038   4.083   3.243   1.456
 3660SOL    HW211039   4.012   3.098   1.477
 3661SOL     OW11040   4.763   2.960   0.696
 3661SOL    HW111041   4.693   2.913   0.750
 3661SOL    HW211042   4.822   2.892   0.653
 3662SOL     OW11043   4.738   2.098   0.971
 3662SOL    HW111044   4.730   2.062   0.878
 3662SOL    HW211045   4.736   2.022   1.036
 3663SOL     OW11046   4.314   3.349   0.491
 3663SOL    HW111047   4.356   3.291   0.421
 3663SOL    HW211048   4.270   3.428   0.447
 3664SOL     OW11049   3.979   3.210   0.290
 3664SOL    HW111050   3.883   3.211   0.263
 3664SOL    HW211051   3.991   3.263   0.374
 3665SOL     OW11052   3.829   2.875   1.726
 3665SOL    HW111053   3.752   2.842   1.780
 3665SOL    HW211054   3.914   2.845   1.768
 3666SOL     OW11055   4.396   2.065   1.489
 3666SOL    HW111056   4.486   2.049   1.449
 3666SOL    HW211057   4.404   2.070   1.588
 3667SOL     OW11058   5.164   2.718   1.398
 3667SOL    HW111059   5.107   2.770   1.335
 3667SOL    HW211060   5.260   2.730   1.374
 3668SOL     OW11061   3.796   2.028   0.318
 3668SOL    HW111062   3.779   2.111   0.264
 3668SOL    HW211063   3.886   1.991   0.296
 3669SOL     OW11064   4.337   2.704   1.431
 3669SOL    HW111065   4.393   2.785   1.414
 3669SOL    HW211066   4.396   2.624   1.434
 3670SOL     OW11067   4.440   2.427   1.708
 3670SOL    HW111068   4.459   2.492   1.782
 3670SOL    HW211069   4.500   2.347   1.717
 3671SOL     OW11070   4.114   3.603   1.560
 3671SOL    HW111071   4.023   3.644   1.558
 3671SOL    HW211072   4.107   3.509   1.592
 3672SOL     OW11073   4.949   2.187   0.449
 3672SOL    HW111074   5.014   2.113   0.438
 3672SOL    HW211075   4.969   2.237   0.533
 3673SOL     OW11076   4.318   2.607   0.652
 3673SOL    HW111077   4.368   2.692   0.633
 3673SOL    HW211078   4.230   2.609   0.604
 3674SOL     OW11079   4.583   3.236   0.016
 3674SOL    HW111080   4.537   3.251   0.104
 3674SOL    HW211081   4.627   3.321  -0.014
 3675SOL     OW11082   4.385   3.652   0.953
 3675SOL    HW111083   4.339   3.740   0.940
 3675SOL    HW211084   4.484   3.664   0.946
 3676SOL     OW11085   4.583   2.818   0.861
 3676SOL    HW111086   4.637   2.749   0.909
 3676SOL    HW211087   4.551   2.887   0.927
 3677SOL     OW11088   4.807   2.846   0.087
 3677SOL    HW111089   4.784   2.899   0.005
 3677SOL    HW211090   4.888   2.790   0.068
 3678SOL     OW11091   3.945   3.176   1.844
 3678SOL    HW111092   3.880   3.103   1.823
 3678SOL    HW211093   3.949   3.190   1.942
 3679SOL     OW11094   3.803   3.102   0.653
 3679SOL    HW111095   3.802   3.055   0.741
 3679SOL    HW211096   3.885   3.074   0.602
 3680SOL     OW11097   4.396   3.253   1.624
 3680SOL    HW111098   4.318   3.203   1.662
 3680SOL    HW211099   4.393   3.348   1.655
 3681SOL     OW11100   4.152   2.286   0.520
 3681SOL    HW111101   4.182   2.214   0.458
 3681SOL    HW211102   4.113   2.246   0.603
 3682SOL     OW11103   4.041   2.409   1.280
 3682SOL    HW111104   4.079   2.350   1.352
 3682SOL    HW211105   4.081   2.383   1.192
 3683SOL     OW11106   4.536   3.448   0.687
 3683SOL    HW111107   4.568   3.458   0.593
 3683SOL    HW211108   4.457   3.386   0.689
 3684SOL     OW11109   4.725   1.896   1.154
 3684SOL    HW111110   4.662   1.824   1.123
 3684SOL    HW211111   4.818   1.860   1.154
 3685SOL     OW11112   4.494   3.192   0.301
 3685SOL    HW111113   4.448   3.105   0.318
 3685SOL    HW211114   4.585   3.189   0.342
 3686SOL     OW11115   4.342   3.429   1.284
 3686SOL    HW111116   4.337   3.511   1.341
 3686SOL    HW211117   4.431   3.426   1.239
 3687SOL     OW11118   3.763   2.939   0.300
 3687SOL    HW111119   3.862   2.928   0.291
 3687SOL    HW211120   3.723   2.853   0.332
 3688SOL     OW11121   4.599   3.508   0.337
 3688SOL    HW111122   4.522   3.473   0.283
 3688SOL    HW211123   4.567   3.579   0.399
 3689SOL     OW11124   3.954   2.490   1.975
 3689SOL    HW111125   3.861   2.488   2.012
 3689SOL    HW211126   3.955   2.451   1.883
 3690SOL     OW11127   3.949   2.137   2.858
 3690SOL    HW111128   3.984   2.120   2.950
 3690SOL    HW211129   3.861   2.092   2.846
 3691SOL     OW11130   3.743   2.230   2.509
 3691SOL    HW111131   3.661   2.273   2.548
 3691SOL    HW211132   3.715   2.157   2.446
 3692SOL     OW11133   4.293   3.137   3.027
 3692SOL    HW111134   4.200   3.130   2.990
 3692SOL    HW211135   4.304   3.226   3.071
 3693SOL     OW11136   4.859   2.565   2.579
 3693SOL    HW111137   4.916   2.643   2.554
 3693SOL    HW211138   4.799   2.591   2.655
 3694SOL     OW11139   4.492   3.006   2.885
 3694SOL    HW111140   4.414   3.023   2.945
 3694SOL    HW211141   4.526   3.093   2.849
 3695SOL     OW11142   4.574   2.660   3.685
 3695SOL    HW111143   4.570   2.736   3.750
 3695SOL    HW211144   4.596   2.696   3.594
 3696SOL     OW11145   4.409   2.874   2.527
 3696SOL    HW111146   4.478   2.858   2.597
 3696SOL    HW211147   4.336   2.931   2.565
 3697SOL     OW11148   4.410   3.023   3.665
 3697SOL    HW111149   4.470   3.102   3.679
 3697SOL    HW211150   4.324   3.054   3.624
 3698SOL     OW11151   4.059   3.297   2.923
 3698SOL    HW111152   3.981   3.266   2.870
 3698SOL    HW211153   4.117   3.355   2.866
 3699SOL     OW11154   4.162   2.254   3.361
 3699SOL    HW111155   4.244   2.198   3.370
 3699SOL    HW211156   4.081   2.196   3.365
 3700SOL     OW11157   3.955   3.575   2.345
 3700SOL    HW111158   3.989   3.652   2.399
 3700SOL    HW211159   3.999   3.575   2.255
 3701SOL     OW11160   4.851   3.203   3.552
 3701SOL    HW111161   4.898   3.203   3.640
 3701SOL    HW211162   4.803   3.116   3.541
 3702SOL     OW11163   3.954   3.296   2.400
 3702SOL    HW111164   3.928   3.392   2.400
 3702SOL    HW211165   3.883   3.242   2.445
 3703SOL     OW11166   3.964   2.953   2.748
 3703SOL    HW111167   3.978   2.869   2.800
 3703SOL    HW211168   3.909   3.017   2.803
 3704SOL     OW11169   4.344   3.648   3.301
 3704SOL    HW111170   4.252   3.631   3.336
 3704SOL    HW211171   4.372   3.740   3.327
 3705SOL     OW11172   4.330   2.826   1.985
 3705SOL    HW111173   4.337   2.910   1.931
 3705SOL    HW211174   4.376   2.839   2.073
 3706SOL     OW11175   3.846   2.505   2.425
 3706SOL    HW111176   3.801   2.417   2.442
 3706SOL    HW211177   3.845   2.559   2.509
 3707SOL     OW11178   3.751   3.458   1.979
 3707SOL    HW111179   3.732   3.362   2.000
 3707SOL    HW211180   3.718   3.516   2.054
 3708SOL     OW11181   3.837   2.599   3.459
 3708SOL    HW111182   3.925   2.586   3.504
 3708SOL    HW211183   3.824   2.696   3.437
 3709SOL     OW11184   4.337   3.227   2.588
 3709SOL    HW111185   4.288   3.140   2.597
 3709SOL    HW211186   4.314   3.270   2.501
 3710SOL     OW11187   5.017   3.090   3.285
 3710SOL    HW111188   5.054   3.017   3.227
 3710SOL    HW211189   5.069   3.095   3.370
 3711SOL     OW11190   4.533   1.866   2.364
 3711SOL    HW111191   4.573   1.957   2.355
 3711SOL    HW211192   4.433   1.874   2.370
 3712SOL     OW11193   3.921   2.838   3.126
 3712SOL    HW111194   4.010   2.793   3.112
 3712SOL    HW211195   3.848   2.773   3.107
 3713SOL     OW11196   4.911   3.654   3.478
 3713SOL    HW111197   4.935   3.714   3.402
 3713SOL    HW211198   4.918   3.559   3.448
 3714SOL     OW11199   4.041   2.113   3.663
 3714SOL    HW111200   4.112   2.184   3.669
 3714SOL    HW211201   3.953   2.152   3.691
 3715SOL     OW11202   4.322   2.591   2.132
 3715SOL    HW111203   4.346   2.660   2.064
 3715SOL    HW211204   4.244   2.624   2.186
 3716SOL     OW11205   5.005   2.207   2.806
 3716SOL    HW111206   4.919   2.157   2.793
 3716SOL    HW211207   5.067   2.153   2.862
 3717SOL     OW11208   4.531   2.467   3.327
 3717SOL    HW111209   4.484   2.464   3.416
 3717SOL    HW211210   4.480   2.412   3.261
 3718SOL     OW11211   4.697   2.752   3.434
 3718SOL    HW111212   4.743   2.668   3.405
 3718SOL    HW211213   4.641   2.786   3.359
 3719SOL     OW11214   4.715   2.272   3.104
 3719SOL    HW111215   4.638   2.306   3.158
 3719SOL    HW211216   4.681   2.221   3.025
 3720SOL     OW11217   4.765   2.563   2.291
 3720SOL    HW111218   4.791   2.559   2.387
 3720SOL    HW211219   4.680   2.512   2.277
 3721SOL     OW11220   3.800   2.673   2.651
 3721SOL    HW111221   3.899   2.661   2.660
 3721SOL    HW211222   3.776   2.768   2.672
 3722SOL     OW11223   3.854   3.683   3.433
 3722SOL    HW111224   3.844   3.668   3.532
 3722SOL    HW211225   3.768   3.719   3.397
 3723SOL     OW11226   4.589   2.210   2.057
 3723SOL    HW111227   4.648   2.273   2.008
 3723SOL    HW211228   4.608   2.116   2.028
 3724SOL     OW11229   4.274   2.058   2.747
 3724SOL    HW111230   4.269   2.053   2.847
 3724SOL    HW211231   4.276   2.154   2.718
 3725SOL     OW11232   4.732   3.318   2.339
 3725SOL    HW111233   4.686   3.390   2.287
 3725SOL    HW211234   4.728   3.338   2.437
 3726SOL     OW11235   4.075   3.663   2.715
 3726SOL    HW111236   4.125   3.577   2.721
 3726SOL    HW211237   4.140   3.740   2.712
 3727SOL     OW11238   4.951   3.412   3.368
 3727SOL    HW111239   4.957   3.335   3.432
 3727SOL    HW211240   4.899   3.386   3.288
 3728SOL     OW11241   4.045   2.805   2.104
 3728SOL    HW111242   4.127   2.844   2.062
 3728SOL    HW211243   4.018   2.723   2.055
 3729SOL     OW11244   4.185   3.128   3.589
 3729SOL    HW111245   4.135   3.129   3.503
 3729SOL    HW211246   4.122   3.110   3.665
 3730SOL     OW11247   4.835   3.638   2.099
 3730SOL    HW111248   4.775   3.576   2.149
 3730SOL    HW211249   4.866   3.594   2.014
 3731SOL     OW11250   3.926   2.147   3.360
 3731SOL    HW111251   3.846   2.207   3.347
 3731SOL    HW211252   3.916   2.098   3.446
 3732SOL     OW11253   4.188   3.605   2.185
 3732SOL    HW111254   4.221   3.644   2.271
 3732SOL    HW211255   4.264   3.598   2.120
 3733SOL     OW11256   3.973   3.647   3.103
 3733SOL    HW111257   4.030   3.582   3.153
 3733SOL    HW211258   3.957   3.614   3.010
 3734SOL     OW11259   4.664   3.560   2.766
 3734SOL    HW111260   4.744   3.503   2.787
 3734SOL    HW211261   4.615   3.520   2.689
 3735SOL     OW11262   4.106   2.562   2.342
 3735SOL    HW111263   4.151   2.472   2.339
 3735SOL    HW211264   4.012   2.551   2.375
 3736SOL     OW11265   4.338   1.984   1.979
 3736SOL    HW111266   4.436   1.962   1.986
 3736SOL    HW211267   4.307   1.967   1.886
 3737SOL     OW11268   4.505   2.126   3.611
 3737SOL    HW111269   4.572   2.065   3.654
 3737SOL    HW211270   4.432   2.145   3.676
 3738SOL     OW11271   4.612   3.376   3.057
 3738SOL    HW111272   4.589   3.351   2.963
 3738SOL    HW211273   4.673   3.307   3.096
 3739SOL     OW11274   4.527   3.264   2.786
 3739SOL    HW111275   4.617   3.278   2.744
 3739SOL    HW211276   4.456   3.266   2.715
 3740SOL     OW11277   4.646   2.365   2.761
 3740SOL    HW111278   4.621   2.356   2.665
 3740SOL    HW211279   4.694   2.283   2.792
 3741SOL     OW11280   4.263   1.926   2.374
 3741SOL    HW111281   4.182   1.927   2.432
 3741SOL    HW211282   4.266   2.009   2.319
 3742SOL     OW11283   4.021   1.897   2.033
 3742SOL    HW111284   4.070   1.981   2.012
 3742SOL    HW211285   4.083   1.832   2.078
 3743SOL     OW11286   4.659   2.098   2.342
 3743SOL    HW111287   4.611   2.139   2.264
 3743SOL    HW211288   4.758   2.096   2.323
 3744SOL     OW11289   4.800   2.545   3.326
 3744SOL    HW111290   4.720   2.484   3.329
 3744SOL    HW211291   4.881   2.492   3.302
 3745SOL     OW11292   4.951   3.432   2.655
 3745SOL    HW111293   4.972   3.506   2.590
 3745SOL    HW211294   5.019   3.432   2.728
 3746SOL     OW11295   4.183   3.014   2.603
 3746SOL    HW111296   4.112   2.987   2.668
 3746SOL    HW211297   4.157   2.986   2.510
 3747SOL     OW11298   4.995   3.659   2.453
 3747SOL    HW111299   5.039   3.723   2.389
 3747SOL    HW211300   4.945   3.711   2.523
 3748SOL     OW11301   4.756   2.411   1.878
 3748SOL    HW111302   4.715   2.493   1.839
 3748SOL    HW211303   4.820   2.437   1.951
 3749SOL     OW11304   3.802   2.418   3.248
 3749SOL    HW111305   3.894   2.417   3.207
 3749SOL    HW211306   3.796   2.492   3.315
 3750SOL     OW11307   4.285   2.084   3.009
 3750SOL    HW111308   4.323   2.000   3.046
 3750SOL    HW211309   4.197   2.103   3.053
 3751SOL     OW11310   4.590   2.316   2.504
 3751SOL    HW111311   4.558   2.388   2.442
 3751SOL    HW211312   4.614   2.235   2.451
 3752SOL     OW11313   4.741   1.901   2.615
 3752SOL    HW111314   4.669   1.906   2.546
 3752SOL    HW211315   4.717   1.832   2.684
 3753SOL     OW11316   4.212   3.247   2.036
 3753SOL    HW111317   4.125   3.232   2.083
 3753SOL    HW211318   4.195   3.273   1.941
 3754SOL     OW11319   5.388   3.142   2.519
 3754SOL    HW111320   5.487   3.150   2.533
 3754SOL    HW211321   5.343   3.226   2.550
 3755SOL     OW11322   4.251   2.118   2.190
 3755SOL    HW111323   4.278   2.059   2.115
 3755SOL    HW211324   4.251   2.213   2.159
 3756SOL     OW11325   4.788   3.209   3.202
 3756SOL    HW111326   4.708   3.186   3.257
 3756SOL    HW211327   4.871   3.183   3.251
 3757SOL     OW11328   4.835   3.057   2.962
 3757SOL    HW111329   4.795   3.101   3.043
 3757SOL    HW211330   4.794   3.094   2.879
 3758SOL     OW11331   4.639   1.951   3.264
 3758SOL    HW111332   4.664   1.931   3.169
 3758SOL    HW211333   4.711   2.007   3.306
 3759SOL     OW11334   4.704   2.978   3.581
 3759SOL    HW111335   4.605   2.984   3.591
 3759SOL    HW211336   4.727   2.898   3.525
 3760SOL     OW11337   4.429   2.912   2.230
 3760SOL    HW111338   4.415   2.919   2.329
 3760SOL    HW211339   4.513   2.861   2.212
 3761SOL     OW11340   4.134   2.675   3.113
 3761SOL    HW111341   4.220   2.687   3.163
 3761SOL    HW211342   4.092   2.588   3.140
 3762SOL     OW11343   4.998   2.248   3.124
 3762SOL    HW111344   5.019   2.322   3.188
 3762SOL    HW211345   4.909   2.265   3.081
 3763SOL     OW11346   3.788   3.426   3.193
 3763SOL    HW111347   3.742   3.508   3.159
 3763SOL    HW211348   3.886   3.445   3.202
 3764SOL     OW11349   4.091   2.962   2.363
 3764SOL    HW111350   4.084   3.045   2.307
 3764SOL    HW211351   4.095   2.882   2.303
 3765SOL     OW11352   4.290   2.399   2.727
 3765SOL    HW111353   4.302   2.465   2.653
 3765SOL    HW211354   4.336   2.433   2.810
 3766SOL     OW11355   4.976   3.210   2.250
 3766SOL    HW111356   5.026   3.287   2.290
 3766SOL    HW211357   4.881   3.212   2.282
 3767SOL     OW11358   4.078   3.372   3.191
 3767SOL    HW111359   4.057   3.328   3.104
 3767SOL    HW211360   4.175   3.398   3.194
 3768SOL     OW11361   4.126   2.613   3.460
 3768SOL    HW111362   4.194   2.668   3.413
 3768SOL    HW211363   4.166   2.525   3.487
 3769SOL     OW11364   4.737   1.967   3.632
 3769SOL    HW111365   4.743   2.052   3.580
 3769SOL    HW211366   4.769   1.891   3.575
 3770SOL     OW11367   4.228   1.912   3.602
 3770SOL    HW111368   4.186   1.855   3.532
 3770SOL    HW211369   4.162   1.981   3.634
 3771SOL     OW11370   4.297   2.732   2.891
 3771SOL    HW111371   4.341   2.821   2.882
 3771SOL    HW211372   4.234   2.732   2.968
 3772SOL     OW11373   5.084   2.724   2.907
 3772SOL    HW111374   5.009   2.724   2.841
 3772SOL    HW211375   5.121   2.632   2.916
 3773SOL     OW11376   4.933   2.387   2.137
 3773SOL    HW111377   4.946   2.303   2.191
 3773SOL    HW211378   4.904   2.461   2.197
 3774SOL     OW11379   4.031   2.075   3.093
 3774SOL    HW111380   4.008   2.112   3.183
 3774SOL    HW211381   4.001   1.980   3.087
 3775SOL     OW11382   3.761   3.172   3.144
 3775SOL    HW111383   3.814   3.123   3.212
 3775SOL    HW211384   3.783   3.270   3.149
 3776SOL     OW11385   4.456   2.496   2.926
 3776SOL    HW111386   4.515   2.470   2.850
 3776SOL    HW211387   4.428   2.592   2.915
 3777SOL     OW11388   4.031   1.925   2.480
 3777SOL    HW111389   4.020   2.019   2.513
 3777SOL    HW211390   4.026   1.862   2.557
 3778SOL     OW11391   5.346   2.229   2.236
 3778SOL    HW111392   5.348   2.153   2.300
 3778SOL    HW211393   5.298   2.306   2.276
 3779SOL     OW11394   4.747   2.628   2.828
 3779SOL    HW111395   4.762   2.649   2.924
 3779SOL    HW211396   4.717   2.533   2.819
 3780SOL     OW11397   4.704   3.435   3.562
 3780SOL    HW111398   4.684   3.479   3.474
 3780SOL    HW211399   4.743   3.344   3.546
 3781SOL     OW11400   4.074   2.760   3.666
 3781SOL    HW111401   4.150   2.804   3.714
 3781SOL    HW211402   4.109   2.713   3.584
 3782SOL     OW11403   5.027   2.700   1.904
 3782SOL    HW111404   5.061   2.607   1.919
 3782SOL    HW211405   5.045   2.727   1.809
 3783SOL     OW11406   4.792   3.195   2.711
 3783SOL    HW111407   4.799   3.111   2.656
 3783SOL    HW211408   4.854   3.264   2.675
 3784SOL     OW11409   4.043   2.672   2.811
 3784SOL    HW111410   4.136   2.708   2.816
 3784SOL    HW211411   4.037   2.587   2.863
 3785SOL     OW11412   4.063   2.371   2.868
 3785SOL    HW111413   4.011   2.288   2.851
 3785SOL    HW211414   4.140   2.376   2.804
 3786SOL     OW11415   4.862   2.242   3.540
 3786SOL    HW111416   4.817   2.305   3.604
 3786SOL    HW211417   4.955   2.273   3.523
 3787SOL     OW11418   4.884   2.069   3.339
 3787SOL    HW111419   4.884   2.133   3.416
 3787SOL    HW211420   4.912   2.117   3.256
 3788SOL     OW11421   3.732   3.188   2.062
 3788SOL    HW111422   3.639   3.209   2.031
 3788SOL    HW211423   3.742   3.089   2.075
 3789SOL     OW11424   3.812   3.663   2.789
 3789SOL    HW111425   3.770   3.577   2.762
 3789SOL    HW211426   3.906   3.666   2.755
 3790SOL     OW11427   4.228   3.430   2.772
 3790SOL    HW111428   4.294   3.504   2.781
 3790SOL    HW211429   4.272   3.351   2.730
 3791SOL     OW11430   4.726   2.658   3.100
 3791SOL    HW111431   4.767   2.626   3.186
 3791SOL    HW211432   4.630   2.631   3.097
 3792SOL     OW11433   3.764   2.406   2.976
 3792SOL    HW111434   3.849   2.373   2.935
 3792SOL    HW211435   3.777   2.421   3.074
 3793SOL     OW11436   3.913   2.382   3.584
 3793SOL    HW111437   3.972   2.342   3.514
 3793SOL    HW211438   3.855   2.453   3.543
 3794SOL     OW11439   4.539   2.434   2.187
 3794SOL    HW111440   4.546   2.345   2.141
 3794SOL    HW211441   4.445   2.468   2.179
 3795SOL     OW11442   3.976   3.426   3.606
 3795SOL    HW111443   3.946   3.483   3.682
 3795SOL    HW211444   3.969   3.329   3.632
 3796SOL     OW11445   4.395   2.326   3.131
 3796SOL    HW111446   4.361   2.237   3.101
 3796SOL    HW211447   4.421   2.380   3.051
 3797SOL     OW11448   4.654   3.540   3.327
 3797SOL    HW111449   4.630   3.522   3.232
 3797SOL    HW211450   4.684   3.634   3.337
 3798SOL     OW11451   4.197   2.362   2.053
 3798SOL    HW111452   4.258   2.442   2.057
 3798SOL    HW211453   4.102   2.393   2.060
 3799SOL     OW11454   3.883   2.999   3.328
 3799SOL    HW111455   3.905   2.938   3.404
 3799SOL    HW211456   3.893   2.950   3.242
 3800SOL     OW11457   5.071   2.921   3.096
 3800SOL    HW111458   5.095   2.858   3.022
 3800SOL    HW211459   4.981   2.961   3.078
 3801SOL     OW11460   4.976   3.593   2.990
 3801SOL    HW111461   5.060   3.598   2.936
 3801SOL    HW211462   4.953   3.497   3.008
 3802SOL     OW11463   3.807   3.120   2.884
 3802SOL    HW111464   3.802   3.119   2.984
 3802SOL    HW211465   3.724   3.079   2.846
 3803SOL     OW11466   4.412   3.524   3.578
 3803SOL    HW111467   4.356   3.605   3.587
 3803SOL    HW211468   4.464   3.528   3.492
 3804SOL     OW11469   5.112   3.435   2.339
 3804SOL    HW111470   5.179   3.447   2.265
 3804SOL    HW211471   5.072   3.524   2.362
 3805SOL     OW11472   3.854   3.656   3.713
 3805SOL    HW111473   3.813   3.582   3.766
 3805SOL    HW211474   3.918   3.707   3.771
 3806SOL     OW11475   5.004   2.789   2.534
 3806SOL    HW111476   5.064   2.708   2.536
 3806SOL    HW211477   5.044   2.858   2.474
 3807SOL     OW11478   4.554   3.135   3.284
 3807SOL    HW111479   4.549   3.168   3.379
 3807SOL    HW211480   4.468   3.154   3.238
 3808SOL     OW11481   4.396   3.478   2.016
 3808SOL    HW111482   4.405   3.488   1.917
 3808SOL    HW211483   4.356   3.389   2.037
 3809SOL     OW11484   3.987   2.188   2.582
 3809SOL    HW111485   3.908   2.239   2.548
 3809SOL    HW211486   3.978   2.173   2.680
 3810SOL     OW11487   4.918   3.474   1.893
 3810SOL    HW111488   4.924   3.381   1.930
 3810SOL    HW211489   4.859   3.474   1.813
 3811SOL     OW11490   4.546   2.864   3.234
 3811SOL    HW111491   4.586   2.863   3.142
 3811SOL    HW211492   4.556   2.956   3.274
 3812SOL     OW11493   4.640   2.772   2.153
 3812SOL    HW111494   4.703   2.810   2.085
 3812SOL    HW211495   4.680   2.689   2.192
 3813SOL     OW11496   4.096   3.150   3.352
 3813SOL    HW111497   4.083   3.243   3.318
 3813SOL    HW211498   4.012   3.098   3.339
 3814SOL     OW11499   4.763   2.960   2.558
 3814SOL    HW111500   4.693   2.913   2.612
 3814SOL    HW211501   4.822   2.892   2.515
 3815SOL     OW11502   4.738   2.098   2.833
 3815SOL    HW111503   4.730   2.062   2.740
 3815SOL    HW211504   4.736   2.022   2.898
 3816SOL     OW11505   4.314   3.349   2.353
 3816SOL    HW111506   4.356   3.291   2.283
 3816SOL    HW211507   4.270   3.428   2.309
 3817SOL     OW11508   3.979   3.210   2.152
 3817SOL    HW111509   3.883   3.211   2.125
 3817SOL    HW211510   3.991   3.263   2.236
 3818SOL     OW11511   3.829   2.875   3.588
 3818SOL    HW111512   3.752   2.842   3.642
 3818SOL    HW211513   3.914   2.845   3.630
 3819SOL     OW11514   4.396   2.065   3.351
 3819SOL    HW111515   4.486   2.049   3.311
 3819SOL    HW211516   4.404   2.070   3.450
 3820SOL     OW11517   3.799   2.207   1.895
 3820SOL    HW111518   3.707   2.179   1.866
 3820SOL    HW211519   3.830   2.284   1.839
 3821SOL     OW11520   5.164   2.718   3.260
 3821SOL    HW111521   5.107   2.770   3.197
 3821SOL    HW211522   5.260   2.730   3.236
 3822SOL     OW11523   3.796   2.028   2.180
 3822SOL    HW111524   3.779   2.111   2.126
 3822SOL    HW211525   3.886   1.991   2.158
 3823SOL     OW11526   4.337   2.704   3.293
 3823SOL    HW111527   4.393   2.785   3.276
 3823SOL    HW211528   4.396   2.624   3.296
 3824SOL     OW11529   4.440   2.427   3.570
 3824SOL    HW111530   4.459   2.492   3.644
 3824SOL    HW211531   4.500   2.347   3.579
 3825SOL     OW11532   4.114   3.603   3.422
 3825SOL    HW111533   4.023   3.644   3.420
 3825SOL    HW211534   4.107   3.509   3.454
 3826SOL     OW11535   4.949   2.187   2.311
 3826SOL    HW111536   5.014   2.113   2.300
 3826SOL    HW211537   4.969   2.237   2.395
 3827SOL     OW11538   4.318   2.607   2.514
 3827SOL    HW111539   4.368   2.692   2.495
 3827SOL    HW211540   4.230   2.609   2.466
 3828SOL     OW11541   4.583   3.236   1.878
 3828SOL    HW111542   4.537   3.251   1.966
 3828SOL    HW211543   4.627   3.321   1.848
 3829SOL     OW11544   4.385   3.652   2.815
 3829SOL    HW111545   4.339   3.740   2.802
 3829SOL    HW211546   4.484   3.664   2.808
 3830SOL     OW11547   4.583   2.818   2.723
 3830SOL    HW111548   4.637   2.749   2.771
 3830SOL    HW211549   4.551   2.887   2.789
 3831SOL     OW11550   4.807   2.846   1.949
 3831SOL    HW111551   4.784   2.899   1.867
 3831SOL    HW211552   4.888   2.790   1.930
 3832SOL     OW11553   3.945   3.176   3.706
 3832SOL    HW111554   3.880   3.103   3.685
 3832SOL    HW211555   3.949   3.190   3.804
 3833SOL     OW11556   3.803   3.102   2.515
 3833SOL    HW111557   3.802   3.055   2.603
 3833SOL    HW211558   3.885   3.074   2.464
 3834SOL     OW11559   4.396   3.253   3.486
 3834SOL    HW111560   4.318   3.203   3.524
 3834SOL    HW211561   4.393   3.348   3.517
 3835SOL     OW11562   4.152   2.286   2.382
 3835SOL    HW111563   4.182   2.214   2.320
 3835SOL    HW211564   4.113   2.246   2.465
 3836SOL     OW11565   4.041   2.409   3.142
 3836SOL    HW111566   4.079   2.350   3.214
 3836SOL    HW211567   4.081   2.383   3.054
 3837SOL     OW11568   4.536   3.448   2.549
 3837SOL    HW111569   4.568   3.458   2.455
 3837SOL    HW211570   4.457   3.386   2.551
 3838SOL     OW11571   4.725   1.896   3.016
 3838SOL    HW111572   4.662   1.824   2.985
 3838SOL    HW211573   4.818   1.860   3.016
 3839SOL     OW11574   4.494   3.192   2.163
 3839SOL    HW111575   4.448   3.105   2.180
 3839SOL    HW211576   4.585   3.189   2.204
 3840SOL     OW11577   4.342   3.429   3.146
 3840SOL    HW111578   4.337   3.511   3.203
 3840SOL    HW211579   4.431   3.426   3.101
 3841SOL     OW11580   5.076   1.914   2.030
 3841SOL    HW111581   5.111   1.873   1.946
 3841SOL    HW211582   4.986   1.876   2.050
 3842SOL     OW11583   3.763   2.939   2.162
 3842SOL    HW111584   3.862   2.928   2.153
 3842SOL    HW211585   3.723   2.853   2.194
 3843SOL     OW11586   4.599   3.508   2.199
 3843SOL    HW111587   4.522   3.473   2.145
 3843SOL    HW211588   4.567   3.579   2.261
 3844SOL     OW11589   3.954   2.490   3.837
 3844SOL    HW111590   3.861   2.488   3.874
 3844SOL    HW211591   3.955   2.451   3.745
 3845SOL     OW11592   3.949   2.137   4.720
 3845SOL    HW111593   3.984   2.120   4.812
 3845SOL    HW211594   3.861   2.092   4.708
 3846SOL     OW11595   3.743   2.230   4.371
 3846SOL    HW111596   3.661   2.273   4.410
 3846SOL    HW211597   3.715   2.157   4.308
 3847SOL     OW11598   4.293   3.137   4.889
 3847SOL    HW111599   4.200   3.130   4.852
 3847SOL    HW211600   4.304   3.226   4.933
 3848SOL     OW11601   4.859   2.565   4.441
 3848SOL    HW111602   4.916   2.643   4.416
 3848SOL    HW211603   4.799   2.591   4.517
 3849SOL     OW11604   4.492   3.006   4.747
 3849SOL    HW111605   4.414   3.023   4.807
 3849SOL    HW211606   4.526   3.093   4.711
 3850SOL     OW11607   4.409   2.874   4.389
 3850SOL    HW111608   4.478   2.858   4.459
 3850SOL    HW211609   4.336   2.931   4.427
 3851SOL     OW11610   4.059   3.297   4.785
 3851SOL    HW111611   3.981   3.266   4.732
 3851SOL    HW211612   4.117   3.355   4.728
 3852SOL     OW11613   3.955   3.575   4.207
 3852SOL    HW111614   3.989   3.652   4.261
 3852SOL    HW211615   3.999   3.575   4.117
 3853SOL     OW11616   3.954   3.296   4.262
 3853SOL    HW111617   3.928   3.392   4.262
 3853SOL    HW211618   3.883   3.242   4.307
 3854SOL     OW11619   3.964   2.953   4.610
 3854SOL    HW111620   3.978   2.869   4.662
 3854SOL    HW211621   3.909   3.017   4.665
 3855SOL     OW11622   4.344   3.648   5.163
 3855SOL    HW111623   4.252   3.631   5.198
 3855SOL    HW211624   4.372   3.740   5.189
 3856SOL     OW11625   4.330   2.826   3.847
 3856SOL    HW111626   4.337   2.910   3.793
 3856SOL    HW211627   4.376   2.839   3.935
 3857SOL     OW11628   3.846   2.505   4.287
 3857SOL    HW111629   3.801   2.417   4.304
 3857SOL    HW211630   3.845   2.559   4.371
 3858SOL     OW11631   3.751   3.458   3.841
 3858SOL    HW111632   3.732   3.362   3.862
 3858SOL    HW211633   3.718   3.516   3.916
 3859SOL     OW11634   4.337   3.227   4.450
 3859SOL    HW111635   4.288   3.140   4.459
 3859SOL    HW211636   4.314   3.270   4.363
 3860SOL     OW11637   4.533   1.866   4.226
 3860SOL    HW111638   4.573   1.957   4.217
 3860SOL    HW211639   4.433   1.874   4.232
 3861SOL     OW11640   3.921   2.838   4.988
 3861SOL    HW111641   4.010   2.793   4.974
 3861SOL    HW211642   3.848   2.773   4.969
 3862SOL     OW11643   4.322   2.591   3.994
 3862SOL    HW111644   4.346   2.660   3.926
 3862SOL    HW211645   4.244   2.624   4.048
 3863SOL     OW11646   5.005   2.207   4.668
 3863SOL    HW111647   4.919   2.157   4.655
 3863SOL    HW211648   5.067   2.153   4.724
 3864SOL     OW11649   4.715   2.272   4.966
 3864SOL    HW111650   4.638   2.306   5.020
 3864SOL    HW211651   4.681   2.221   4.887
 3865SOL     OW11652   4.765   2.563   4.153
 3865SOL    HW111653   4.791   2.559   4.249
 3865SOL    HW211654   4.680   2.512   4.139
 3866SOL     OW11655   3.800   2.673   4.513
 3866SOL    HW111656   3.899   2.661   4.522
 3866SOL    HW211657   3.776   2.768   4.534
 3867SOL     OW11658   4.589   2.210   3.919
 3867SOL    HW111659   4.648   2.273   3.870
 3867SOL    HW211660   4.608   2.116   3.890
 3868SOL     OW11661   4.274   2.058   4.609
 3868SOL    HW111662   4.269   2.053   4.709
 3868SOL    HW211663   4.276   2.154   4.580
 3869SOL     OW11664   4.732   3.318   4.201
 3869SOL    HW111665   4.686   3.390   4.149
 3869SOL    HW211666   4.728   3.338   4.299
 3870SOL     OW11667   4.075   3.663   4.577
 3870SOL    HW111668   4.125   3.577   4.583
 3870SOL    HW211669   4.140   3.740   4.574
 3871SOL     OW11670   4.045   2.805   3.966
 3871SOL    HW111671   4.127   2.844   3.924
 3871SOL    HW211672   4.018   2.723   3.917
 3872SOL     OW11673   4.835   3.638   3.961
 3872SOL    HW111674   4.775   3.576   4.011
 3872SOL    HW211675   4.866   3.594   3.876
 3873SOL     OW11676   4.188   3.605   4.047
 3873SOL    HW111677   4.221   3.644   4.133
 3873SOL    HW211678   4.264   3.598   3.982
 3874SOL     OW11679   3.973   3.647   4.965
 3874SOL    HW111680   4.030   3.582   5.015
 3874SOL    HW211681   3.957   3.614   4.872
 3875SOL     OW11682   4.664   3.560   4.628
 3875SOL    HW111683   4.744   3.503   4.649
 3875SOL    HW211684   4.615   3.520   4.551
 3876SOL     OW11685   4.106   2.562   4.204
 3876SOL    HW111686   4.151   2.472   4.201
 3876SOL    HW211687   4.012   2.551   4.237
 3877SOL     OW11688   4.338   1.984   3.841
 3877SOL    HW111689   4.436   1.962   3.848
 3877SOL    HW211690   4.307   1.967   3.748
 3878SOL     OW11691   4.527   3.264   4.648
 3878SOL    HW111692   4.617   3.278   4.606
 3878SOL    HW211693   4.456   3.266   4.577
 3879SOL     OW11694   4.646   2.365   4.623
 3879SOL    HW111695   4.621   2.356   4.527
 3879SOL    HW211696   4.694   2.283   4.654
 3880SOL     OW11697   4.263   1.926   4.236
 3880SOL    HW111698   4.182   1.927   4.294
 3880SOL    HW211699   4.266   2.009   4.181
 3881SOL     OW11700   4.021   1.897   3.895
 3881SOL    HW111701   4.070   1.981   3.874
 3881SOL    HW211702   4.083   1.832   3.940
 3882SOL     OW11703   4.659   2.098   4.204
 3882SOL    HW111704   4.611   2.139   4.126
 3882SOL    HW211705   4.758   2.096   4.185
 3883SOL     OW11706   4.951   3.432   4.517
 3883SOL    HW111707   4.972   3.506   4.452
 3883SOL    HW211708   5.019   3.432   4.590
 3884SOL     OW11709   4.183   3.014   4.465
 3884SOL    HW111710   4.112   2.987   4.530
 3884SOL    HW211711   4.157   2.986   4.372
 3885SOL     OW11712   4.995   3.659   4.315
 3885SOL    HW111713   5.039   3.723   4.251
 3885SOL    HW211714   4.945   3.711   4.385
 3886SOL     OW11715   4.756   2.411   3.740
 3886SOL    HW111716   4.715   2.493   3.701
 3886SOL    HW211717   4.820   2.437   3.813
 3887SOL     OW11718   4.285   2.084   4.871
 3887SOL    HW111719   4.323   2.000   4.908
 3887SOL    HW211720   4.197   2.103   4.915
 3888SOL     OW11721   4.590   2.316   4.366
 3888SOL    HW111722   4.558   2.388   4.304
 3888SOL    HW211723   4.614   2.235   4.313
 3889SOL     OW11724   4.741   1.901   4.477
 3889SOL    HW111725   4.669   1.906   4.408
 3889SOL    HW211726   4.717   1.832   4.546
 3890SOL     OW11727   4.212   3.247   3.898
 3890SOL    HW111728   4.125   3.232   3.945
 3890SOL    HW211729   4.195   3.273   3.803
 3891SOL     OW11730   5.388   3.142   4.381
 3891SOL    HW111731   5.487   3.150   4.395
 3891SOL    HW211732   5.343   3.226   4.412
 3892SOL     OW11733   4.251   2.118   4.052
 3892SOL    HW111734   4.278   2.059   3.977
 3892SOL    HW211735   4.251   2.213   4.021
 3893SOL     OW11736   5.316   3.491   5.349
 3893SOL    HW111737   5.343   3.525   5.259
 3893SOL    HW211738   5.395   3.453   5.395
 3894SOL     OW11739   4.835   3.057   4.824
 3894SOL    HW111740   4.795   3.101   4.905
 3894SOL    HW211741   4.794   3.094   4.741
 3895SOL     OW11742   4.429   2.912   4.092
 3895SOL    HW111743   4.415   2.919   4.191
 3895SOL    HW211744   4.513   2.861   4.074
 3896SOL     OW11745   4.134   2.675   4.975
 3896SOL    HW111746   4.220   2.687   5.025
 3896SOL    HW211747   4.092   2.588   5.002
 3897SOL     OW11748   4.091   2.962   4.225
 3897SOL    HW111749   4.084   3.045   4.169
 3897SOL    HW211750   4.095   2.882   4.165
 3898SOL     OW11751   4.290   2.399   4.589
 3898SOL    HW111752   4.302   2.465   4.515
 3898SOL    HW211753   4.336   2.433   4.672
 3899SOL     OW11754   4.976   3.210   4.112
 3899SOL    HW111755   5.026   3.287   4.152
 3899SOL    HW211756   4.881   3.212   4.144
 3900SOL     OW11757   4.078   3.372   5.053
 3900SOL    HW111758   4.057   3.328   4.966
 3900SOL    HW211759   4.175   3.398   5.056
 3901SOL     OW11760   4.297   2.732   4.753
 3901SOL    HW111761   4.341   2.821   4.744
 3901SOL    HW211762   4.234   2.732   4.830
 3902SOL     OW11763   5.084   2.724   4.769
 3902SOL    HW111764   5.009   2.724   4.703
 3902SOL    HW211765   5.121   2.632   4.778
 3903SOL     OW11766   4.933   2.387   3.999
 3903SOL    HW111767   4.946   2.303   4.053
 3903SOL    HW211768   4.904   2.461   4.059
 3904SOL     OW11769   4.031   2.075   4.955
 3904SOL    HW111770   4.008   2.112   5.045
 3904SOL    HW211771   4.001   1.980   4.949
 3905SOL     OW11772   3.761   3.172   5.006
 3905SOL    HW111773   3.814   3.123   5.074
 3905SOL    HW211774   3.783   3.270   5.011
 3906SOL     OW11775   4.456   2.496   4.788
 3906SOL    HW111776   4.515   2.470   4.712
 3906SOL    HW211777   4.428   2.592   4.777
 3907SOL     OW11778   4.031   1.925   4.342
 3907SOL    HW111779   4.020   2.019   4.375
 3907SOL    HW211780   4.026   1.862   4.419
 3908SOL     OW11781   5.346   2.229   4.098
 3908SOL    HW111782   5.348   2.153   4.162
 3908SOL    HW211783   5.298   2.306   4.138
 3909SOL     OW11784   4.747   2.628   4.690
 3909SOL    HW111785   4.762   2.649   4.786
 3909SOL    HW211786   4.717   2.533   4.681
 3910SOL     OW11787   5.027   2.700   3.766
 3910SOL    HW111788   5.061   2.607   3.781
 3910SOL    HW211789   5.045   2.727   3.671
 3911SOL     OW11790   4.792   3.195   4.573
 3911SOL    HW111791   4.799   3.111   4.518
 3911SOL    HW211792   4.854   3.264   4.537
 3912SOL     OW11793   4.043   2.672   4.673
 3912SOL    HW111794   4.136   2.708   4.678
 3912SOL    HW211795   4.037   2.587   4.725
 3913SOL     OW11796   4.063   2.371   4.730
 3913SOL    HW111797   4.011   2.288   4.713
 3913SOL    HW211798   4.140   2.376   4.666
 3914SOL     OW11799   4.884   2.069   5.201
 3914SOL    HW111800   4.884   2.133   5.278
 3914SOL    HW211801   4.912   2.117   5.118
 3915SOL     OW11802   3.732   3.188   3.924
 3915SOL    HW111803   3.639   3.209   3.893
 3915SOL    HW211804   3.742   3.089   3.937
 3916SOL     OW11805   3.812   3.663   4.651
 3916SOL    HW111806   3.770   3.577   4.624
 3916SOL    HW211807   3.906   3.666   4.617
 3917SOL     OW11808   4.228   3.430   4.634
 3917SOL    HW111809   4.294   3.504   4.643
 3917SOL    HW211810   4.272   3.351   4.592
 3918SOL     OW11811   4.726   2.658   4.962
 3918SOL    HW111812   4.767   2.626   5.048
 3918SOL    HW211813   4.630   2.631   4.959
 3919SOL     OW11814   3.764   2.406   4.838
 3919SOL    HW111815   3.849   2.373   4.797
 3919SOL    HW211816   3.777   2.421   4.936
 3920SOL     OW11817   4.539   2.434   4.049
 3920SOL    HW111818   4.546   2.345   4.003
 3920SOL    HW211819   4.445   2.468   4.041
 3921SOL     OW11820   4.395   2.326   4.993
 3921SOL    HW111821   4.361   2.237   4.963
 3921SOL    HW211822   4.421   2.380   4.913
 3922SOL     OW11823   4.654   3.540   5.189
 3922SOL    HW111824   4.630   3.522   5.094
 3922SOL    HW211825   4.684   3.634   5.199
 3923SOL     OW11826   4.197   2.362   3.915
 3923SOL    HW111827   4.258   2.442   3.919
 3923SOL    HW211828   4.102   2.393   3.922
 3924SOL     OW11829   5.071   2.921   4.958
 3924SOL    HW111830   5.095   2.858   4.884
 3924SOL    HW211831   4.981   2.961   4.940
 3925SOL     OW11832   4.976   3.593   4.852
 3925SOL    HW111833   5.060   3.598   4.798
 3925SOL    HW211834   4.953   3.497   4.870
 3926SOL     OW11835   3.807   3.120   4.746
 3926SOL    HW111836   3.802   3.119   4.846
 3926SOL    HW211837   3.724   3.079   4.708
 3927SOL     OW11838   5.112   3.435   4.201
 3927SOL    HW111839   5.179   3.447   4.127
 3927SOL    HW211840   5.072   3.524   4.224
 3928SOL     OW11841   5.004   2.789   4.396
 3928SOL    HW111842   5.064   2.708   4.398
 3928SOL    HW211843   5.044   2.858   4.336
 3929SOL     OW11844   4.396   3.478   3.878
 3929SOL    HW111845   4.405   3.488   3.779
 3929SOL    HW211846   4.356   3.389   3.899
 3930SOL     OW11847   3.987   2.188   4.444
 3930SOL    HW111848   3.908   2.239   4.410
 3930SOL    HW211849   3.978   2.173   4.542
 3931SOL     OW11850   4.918   3.474   3.755
 3931SOL    HW111851   4.924   3.381   3.792
 3931SOL    HW211852   4.859   3.474   3.675
 3932SOL     OW11853   4.546   2.864   5.096
 3932SOL    HW111854   4.586   2.863   5.004
 3932SOL    HW211855   4.556   2.956   5.136
 3933SOL     OW11856   4.640   2.772   4.015
 3933SOL    HW111857   4.703   2.810   3.947
 3933SOL    HW211858   4.680   2.689   4.054
 3934SOL     OW11859   4.763   2.960   4.420
 3934SOL    HW111860   4.693   2.913   4.474
 3934SOL    HW211861   4.822   2.892   4.377
 3935SOL     OW11862   4.738   2.098   4.695
 3935SOL    HW111863   4.730   2.062   4.602
 3935SOL    HW211864   4.736   2.022   4.760
 3936SOL     OW11865   4.314   3.349   4.215
 3936SOL    HW111866   4.356   3.291   4.145
 3936SOL    HW211867   4.270   3.428   4.171
 3937SOL     OW11868   3.979   3.210   4.014
 3937SOL    HW111869   3.883   3.211   3.987
 3937SOL    HW211870   3.991   3.263   4.098
 3938SOL     OW11871   3.799   2.207   3.757
 3938SOL    HW111872   3.707   2.179   3.728
 3938SOL    HW211873   3.830   2.284   3.701
 3939SOL     OW11874   3.796   2.028   4.042
 3939SOL    HW111875   3.779   2.111   3.988
 3939SOL    HW211876   3.886   1.991   4.020
 3940SOL     OW11877   4.949   2.187   4.173
 3940SOL    HW111878   5.014   2.113   4.162
 3940SOL    HW211879   4.969   2.237   4.257
 3941SOL     OW11880   4.318   2.607   4.376
 3941SOL    HW111881   4.368   2.692   4.357
 3941SOL    HW211882   4.230   2.609   4.328
 3942SOL     OW11883   4.583   3.236   3.740
 3942SOL    HW111884   4.537   3.251   3.828
 3942SOL    HW211885   4.627   3.321   3.710
 3943SOL     OW11886   4.385   3.652   4.677
 3943SOL    HW111887   4.339   3.740   4.664
 3943SOL    HW211888   4.484   3.664   4.670
 3944SOL     OW11889   4.583   2.818   4.585
 3944SOL    HW111890   4.637   2.749   4.633
 3944SOL    HW211891   4.551   2.887   4.651
 3945SOL     OW11892   4.807   2.846   3.811
 3945SOL    HW111893   4.784   2.899   3.729
 3945SOL    HW211894   4.888   2.790   3.792
 3946SOL     OW11895   3.803   3.102   4.377
 3946SOL    HW111896   3.802   3.055   4.465
 3946SOL    HW211897   3.885   3.074   4.326
 3947SOL     OW11898   4.152   2.286   4.244
 3947SOL    HW111899   4.182   2.214   4.182
 3947SOL    HW211900   4.113   2.246   4.327
 3948SOL     OW11901   4.536   3.448   4.411
 3948SOL    HW111902   4.568   3.458   4.317
 3948SOL    HW211903   4.457   3.386   4.413
 3949SOL     OW11904   4.725   1.896   4.878
 3949SOL    HW111905   4.662   1.824   4.847
 3949SOL    HW211906   4.818   1.860   4.878
 3950SOL     OW11907   4.494   3.192   4.025
 3950SOL    HW111908   4.448   3.105   4.042
 3950SOL    HW211909   4.585   3.189   4.066
 3951SOL     OW11910   5.076   1.914   3.892
 3951SOL    HW111911   5.111   1.873   3.808
 3951SOL    HW211912   4.986   1.876   3.912
 3952SOL     OW11913   3.763   2.939   4.024
 3952SOL    HW111914   3.862   2.928   4.015
 3952SOL    HW211915   3.723   2.853   4.056
 3953SOL     OW11916   4.599   3.508   4.061
 3953SOL    HW111917   4.522   3.473   4.007
 3953SOL    HW211918   4.567   3.579   4.123
 3954SOL     OW11919   3.954   4.352   0.113
 3954SOL    HW111920   3.861   4.350   0.150
 3954SOL    HW211921   3.955   4.313   0.021
 3955SOL     OW11922   3.949   3.999   0.996
 3955SOL    HW111923   3.984   3.982   1.088
 3955SOL    HW211924   3.861   3.954   0.984
 3956SOL     OW11925   3.743   4.092   0.647
 3956SOL    HW111926   3.661   4.135   0.686
 3956SOL    HW211927   3.715   4.019   0.584
 3957SOL     OW11928   4.293   4.999   1.165
 3957SOL    HW111929   4.200   4.992   1.128
 3957SOL    HW211930   4.304   5.088   1.209
 3958SOL     OW11931   4.859   4.427   0.717
 3958SOL    HW111932   4.916   4.505   0.692
 3958SOL    HW211933   4.799   4.453   0.793
 3959SOL     OW11934   4.492   4.868   1.023
 3959SOL    HW111935   4.414   4.885   1.083
 3959SOL    HW211936   4.526   4.955   0.987
 3960SOL     OW11937   4.574   4.522   1.823
 3960SOL    HW111938   4.570   4.598   1.888
 3960SOL    HW211939   4.596   4.558   1.732
 3961SOL     OW11940   4.409   4.736   0.665
 3961SOL    HW111941   4.478   4.720   0.735
 3961SOL    HW211942   4.336   4.793   0.703
 3962SOL     OW11943   4.410   4.885   1.803
 3962SOL    HW111944   4.470   4.964   1.817
 3962SOL    HW211945   4.324   4.916   1.762
 3963SOL     OW11946   4.059   5.159   1.061
 3963SOL    HW111947   3.981   5.128   1.008
 3963SOL    HW211948   4.117   5.217   1.004
 3964SOL     OW11949   4.162   4.116   1.499
 3964SOL    HW111950   4.244   4.060   1.508
 3964SOL    HW211951   4.081   4.058   1.503
 3965SOL     OW11952   3.964   4.815   0.886
 3965SOL    HW111953   3.978   4.731   0.938
 3965SOL    HW211954   3.909   4.879   0.941
 3966SOL     OW11955   4.330   4.688   0.123
 3966SOL    HW111956   4.337   4.772   0.069
 3966SOL    HW211957   4.376   4.701   0.211
 3967SOL     OW11958   3.846   4.367   0.563
 3967SOL    HW111959   3.801   4.279   0.580
 3967SOL    HW211960   3.845   4.421   0.647
 3968SOL     OW11961   3.837   4.461   1.597
 3968SOL    HW111962   3.925   4.448   1.642
 3968SOL    HW211963   3.824   4.558   1.575
 3969SOL     OW11964   5.017   4.952   1.423
 3969SOL    HW111965   5.054   4.879   1.365
 3969SOL    HW211966   5.069   4.957   1.508
 3970SOL     OW11967   4.533   3.728   0.502
 3970SOL    HW111968   4.573   3.819   0.493
 3970SOL    HW211969   4.433   3.736   0.508
 3971SOL     OW11970   3.921   4.700   1.264
 3971SOL    HW111971   4.010   4.655   1.250
 3971SOL    HW211972   3.848   4.635   1.245
 3972SOL     OW11973   4.041   3.975   1.801
 3972SOL    HW111974   4.112   4.046   1.807
 3972SOL    HW211975   3.953   4.014   1.829
 3973SOL     OW11976   4.322   4.453   0.270
 3973SOL    HW111977   4.346   4.522   0.202
 3973SOL    HW211978   4.244   4.486   0.324
 3974SOL     OW11979   5.005   4.069   0.944
 3974SOL    HW111980   4.919   4.019   0.931
 3974SOL    HW211981   5.067   4.015   1.000
 3975SOL     OW11982   4.531   4.329   1.465
 3975SOL    HW111983   4.484   4.326   1.554
 3975SOL    HW211984   4.480   4.274   1.399
 3976SOL     OW11985   4.697   4.614   1.572
 3976SOL    HW111986   4.743   4.530   1.543
 3976SOL    HW211987   4.641   4.648   1.497
 3977SOL     OW11988   4.715   4.134   1.242
 3977SOL    HW111989   4.638   4.168   1.296
 3977SOL    HW211990   4.681   4.083   1.163
 3978SOL     OW11991   4.765   4.425   0.429
 3978SOL    HW111992   4.791   4.421   0.525
 3978SOL    HW211993   4.680   4.374   0.415
 3979SOL     OW11994   3.800   4.535   0.789
 3979SOL    HW111995   3.899   4.523   0.798
 3979SOL    HW211996   3.776   4.630   0.810
 3980SOL     OW11997   4.589   4.072   0.195
 3980SOL    HW111998   4.648   4.135   0.146
 3980SOL    HW211999   4.608   3.978   0.166
 3981SOL     OW12000   4.274   3.920   0.885
 3981SOL    HW112001   4.269   3.915   0.985
 3981SOL    HW212002   4.276   4.016   0.856
 3982SOL     OW12003   4.045   4.667   0.242
 3982SOL    HW112004   4.127   4.706   0.200
 3982SOL    HW212005   4.018   4.585   0.193
 3983SOL     OW12006   3.926   4.009   1.498
 3983SOL    HW112007   3.846   4.069   1.485
 3983SOL    HW212008   3.916   3.960   1.584
 3984SOL     OW12009   4.106   4.424   0.480
 3984SOL    HW112010   4.151   4.334   0.477
 3984SOL    HW212011   4.012   4.413   0.513
 3985SOL     OW12012   4.505   3.988   1.749
 3985SOL    HW112013   4.572   3.927   1.792
 3985SOL    HW212014   4.432   4.007   1.814
 3986SOL     OW12015   4.527   5.126   0.924
 3986SOL    HW112016   4.617   5.140   0.882
 3986SOL    HW212017   4.456   5.128   0.853
 3987SOL     OW12018   4.646   4.227   0.899
 3987SOL    HW112019   4.621   4.218   0.803
 3987SOL    HW212020   4.694   4.145   0.930
 3988SOL     OW12021   4.263   3.788   0.512
 3988SOL    HW112022   4.182   3.789   0.570
 3988SOL    HW212023   4.266   3.871   0.457
 3989SOL     OW12024   4.021   3.759   0.171
 3989SOL    HW112025   4.070   3.843   0.150
 3989SOL    HW212026   4.083   3.694   0.216
 3990SOL     OW12027   4.659   3.960   0.480
 3990SOL    HW112028   4.611   4.001   0.402
 3990SOL    HW212029   4.758   3.958   0.461
 3991SOL     OW12030   4.800   4.407   1.464
 3991SOL    HW112031   4.720   4.346   1.467
 3991SOL    HW212032   4.881   4.354   1.440
 3992SOL     OW12033   4.951   5.294   0.793
 3992SOL    HW112034   4.972   5.368   0.728
 3992SOL    HW212035   5.019   5.294   0.866
 3993SOL     OW12036   4.183   4.876   0.741
 3993SOL    HW112037   4.112   4.849   0.806
 3993SOL    HW212038   4.157   4.848   0.648
 3994SOL     OW12039   4.756   4.273   0.016
 3994SOL    HW112040   4.715   4.355  -0.023
 3994SOL    HW212041   4.820   4.299   0.089
 3995SOL     OW12042   3.802   4.280   1.386
 3995SOL    HW112043   3.894   4.279   1.345
 3995SOL    HW212044   3.796   4.354   1.453
 3996SOL     OW12045   4.285   3.946   1.147
 3996SOL    HW112046   4.323   3.862   1.184
 3996SOL    HW212047   4.197   3.965   1.191
 3997SOL     OW12048   4.590   4.178   0.642
 3997SOL    HW112049   4.558   4.250   0.580
 3997SOL    HW212050   4.614   4.097   0.589
 3998SOL     OW12051   4.741   3.763   0.753
 3998SOL    HW112052   4.669   3.768   0.684
 3998SOL    HW212053   4.717   3.694   0.822
 3999SOL     OW12054   4.251   3.980   0.328
 3999SOL    HW112055   4.278   3.921   0.253
 3999SOL    HW212056   4.251   4.075   0.297
 4000SOL     OW12057   4.639   3.813   1.402
 4000SOL    HW112058   4.664   3.793   1.307
 4000SOL    HW212059   4.711   3.869   1.444
 4001SOL     OW12060   4.704   4.840   1.719
 4001SOL    HW112061   4.605   4.846   1.729
 4001SOL    HW212062   4.727   4.760   1.663
 4002SOL     OW12063   4.429   4.774   0.368
 4002SOL    HW112064   4.415   4.781   0.467
 4002SOL    HW212065   4.513   4.723   0.350
 4003SOL     OW12066   4.134   4.537   1.251
 4003SOL    HW112067   4.220   4.549   1.301
 4003SOL    HW212068   4.092   4.450   1.278
 4004SOL     OW12069   4.998   4.110   1.262
 4004SOL    HW112070   5.019   4.184   1.326
 4004SOL    HW212071   4.909   4.127   1.219
 4005SOL     OW12072   4.091   4.824   0.501
 4005SOL    HW112073   4.084   4.907   0.445
 4005SOL    HW212074   4.095   4.744   0.441
 4006SOL     OW12075   4.290   4.261   0.865
 4006SOL    HW112076   4.302   4.327   0.791
 4006SOL    HW212077   4.336   4.295   0.948
 4007SOL     OW12078   4.976   5.072   0.388
 4007SOL    HW112079   5.026   5.149   0.428
 4007SOL    HW212080   4.881   5.074   0.420
 4008SOL     OW12081   4.126   4.475   1.598
 4008SOL    HW112082   4.194   4.530   1.551
 4008SOL    HW212083   4.166   4.387   1.625
 4009SOL     OW12084   4.737   3.829   1.770
 4009SOL    HW112085   4.743   3.914   1.718
 4009SOL    HW212086   4.769   3.753   1.713
 4010SOL     OW12087   4.228   3.774   1.740
 4010SOL    HW112088   4.186   3.717   1.670
 4010SOL    HW212089   4.162   3.843   1.772
 4011SOL     OW12090   4.297   4.594   1.029
 4011SOL    HW112091   4.341   4.683   1.020
 4011SOL    HW212092   4.234   4.594   1.106
 4012SOL     OW12093   5.084   4.586   1.045
 4012SOL    HW112094   5.009   4.586   0.979
 4012SOL    HW212095   5.121   4.494   1.054
 4013SOL     OW12096   4.933   4.249   0.275
 4013SOL    HW112097   4.946   4.165   0.329
 4013SOL    HW212098   4.904   4.323   0.335
 4014SOL     OW12099   4.031   3.937   1.231
 4014SOL    HW112100   4.008   3.974   1.321
 4014SOL    HW212101   4.001   3.842   1.225
 4015SOL     OW12102   4.456   4.358   1.064
 4015SOL    HW112103   4.515   4.332   0.988
 4015SOL    HW212104   4.428   4.454   1.053
 4016SOL     OW12105   4.031   3.787   0.618
 4016SOL    HW112106   4.020   3.881   0.651
 4016SOL    HW212107   4.026   3.724   0.695
 4017SOL     OW12108   5.346   4.091   0.374
 4017SOL    HW112109   5.348   4.015   0.438
 4017SOL    HW212110   5.298   4.168   0.414
 4018SOL     OW12111   4.747   4.490   0.966
 4018SOL    HW112112   4.762   4.511   1.062
 4018SOL    HW212113   4.717   4.395   0.957
 4019SOL     OW12114   4.074   4.622   1.804
 4019SOL    HW112115   4.150   4.666   1.852
 4019SOL    HW212116   4.109   4.575   1.722
 4020SOL     OW12117   5.027   4.562   0.042
 4020SOL    HW112118   5.061   4.469   0.057
 4020SOL    HW212119   5.045   4.589  -0.053
 4021SOL     OW12120   4.043   4.534   0.949
 4021SOL    HW112121   4.136   4.570   0.954
 4021SOL    HW212122   4.037   4.449   1.001
 4022SOL     OW12123   4.063   4.233   1.006
 4022SOL    HW112124   4.011   4.150   0.989
 4022SOL    HW212125   4.140   4.238   0.942
 4023SOL     OW12126   4.862   4.104   1.678
 4023SOL    HW112127   4.817   4.167   1.742
 4023SOL    HW212128   4.955   4.135   1.661
 4024SOL     OW12129   4.884   3.931   1.477
 4024SOL    HW112130   4.884   3.995   1.554
 4024SOL    HW212131   4.912   3.979   1.394
 4025SOL     OW12132   4.726   4.520   1.238
 4025SOL    HW112133   4.767   4.488   1.324
 4025SOL    HW212134   4.630   4.493   1.235
 4026SOL     OW12135   3.764   4.268   1.114
 4026SOL    HW112136   3.849   4.235   1.073
 4026SOL    HW212137   3.777   4.283   1.212
 4027SOL     OW12138   3.913   4.244   1.722
 4027SOL    HW112139   3.972   4.204   1.652
 4027SOL    HW212140   3.855   4.315   1.681
 4028SOL     OW12141   4.539   4.296   0.325
 4028SOL    HW112142   4.546   4.207   0.279
 4028SOL    HW212143   4.445   4.330   0.317
 4029SOL     OW12144   4.395   4.188   1.269
 4029SOL    HW112145   4.361   4.099   1.239
 4029SOL    HW212146   4.421   4.242   1.189
 4030SOL     OW12147   4.197   4.224   0.191
 4030SOL    HW112148   4.258   4.304   0.195
 4030SOL    HW212149   4.102   4.255   0.198
 4031SOL     OW12150   3.883   4.861   1.466
 4031SOL    HW112151   3.905   4.800   1.542
 4031SOL    HW212152   3.893   4.812   1.380
 4032SOL     OW12153   5.071   4.783   1.234
 4032SOL    HW112154   5.095   4.720   1.160
 4032SOL    HW212155   4.981   4.823   1.216
 4033SOL     OW12156   3.807   4.982   1.022
 4033SOL    HW112157   3.802   4.981   1.122
 4033SOL    HW212158   3.724   4.941   0.984
 4034SOL     OW12159   4.627   3.810   0.133
 4034SOL    HW112160   4.678   3.811   0.047
 4034SOL    HW212161   4.683   3.768   0.204
 4035SOL     OW12162   5.004   4.651   0.672
 4035SOL    HW112163   5.064   4.570   0.674
 4035SOL    HW212164   5.044   4.720   0.612
 4036SOL     OW12165   4.554   4.997   1.422
 4036SOL    HW112166   4.549   5.030   1.517
 4036SOL    HW212167   4.468   5.016   1.376
 4037SOL     OW12168   3.987   4.050   0.720
 4037SOL    HW112169   3.908   4.101   0.686
 4037SOL    HW212170   3.978   4.035   0.818
 4038SOL     OW12171   4.546   4.726   1.372
 4038SOL    HW112172   4.586   4.725   1.280
 4038SOL    HW212173   4.556   4.818   1.412
 4039SOL     OW12174   4.640   4.634   0.291
 4039SOL    HW112175   4.703   4.672   0.223
 4039SOL    HW212176   4.680   4.551   0.330
 4040SOL     OW12177   4.096   5.012   1.490
 4040SOL    HW112178   4.083   5.105   1.456
 4040SOL    HW212179   4.012   4.960   1.477
 4041SOL     OW12180   4.763   4.822   0.696
 4041SOL    HW112181   4.693   4.775   0.750
 4041SOL    HW212182   4.822   4.754   0.653
 4042SOL     OW12183   4.738   3.960   0.971
 4042SOL    HW112184   4.730   3.924   0.878
 4042SOL    HW212185   4.736   3.884   1.036
 4043SOL     OW12186   3.829   4.737   1.726
 4043SOL    HW112187   3.752   4.704   1.780
 4043SOL    HW212188   3.914   4.707   1.768
 4044SOL     OW12189   4.396   3.927   1.489
 4044SOL    HW112190   4.486   3.911   1.449
 4044SOL    HW212191   4.404   3.932   1.588
 4045SOL     OW12192   5.164   4.580   1.398
 4045SOL    HW112193   5.107   4.632   1.335
 4045SOL    HW212194   5.260   4.592   1.374
 4046SOL     OW12195   3.796   3.890   0.318
 4046SOL    HW112196   3.779   3.973   0.264
 4046SOL    HW212197   3.886   3.853   0.296
 4047SOL     OW12198   4.337   4.566   1.431
 4047SOL    HW112199   4.393   4.647   1.414
 4047SOL    HW212200   4.396   4.486   1.434
 4048SOL     OW12201   4.440   4.289   1.708
 4048SOL    HW112202   4.459   4.354   1.782
 4048SOL    HW212203   4.500   4.209   1.717
 4049SOL     OW12204   5.174   4.944   1.633
 4049SOL    HW112205   5.165   4.934   1.732
 4049SOL    HW212206   5.270   4.937   1.607
 4050SOL     OW12207   4.949   4.049   0.449
 4050SOL    HW112208   5.014   3.975   0.438
 4050SOL    HW212209   4.969   4.099   0.533
 4051SOL     OW12210   4.318   4.469   0.652
 4051SOL    HW112211   4.368   4.554   0.633
 4051SOL    HW212212   4.230   4.471   0.604
 4052SOL     OW12213   4.583   4.680   0.861
 4052SOL    HW112214   4.637   4.611   0.909
 4052SOL    HW212215   4.551   4.749   0.927
 4053SOL     OW12216   4.807   4.708   0.087
 4053SOL    HW112217   4.784   4.761   0.005
 4053SOL    HW212218   4.888   4.652   0.068
 4054SOL     OW12219   3.803   4.964   0.653
 4054SOL    HW112220   3.802   4.917   0.741
 4054SOL    HW212221   3.885   4.936   0.602
 4055SOL     OW12222   4.152   4.148   0.520
 4055SOL    HW112223   4.182   4.076   0.458
 4055SOL    HW212224   4.113   4.108   0.603
 4056SOL     OW12225   4.041   4.271   1.280
 4056SOL    HW112226   4.079   4.212   1.352
 4056SOL    HW212227   4.081   4.245   1.192
 4057SOL     OW12228   4.725   3.758   1.154
 4057SOL    HW112229   4.662   3.686   1.123
 4057SOL    HW212230   4.818   3.722   1.154
 4058SOL     OW12231   4.494   5.054   0.301
 4058SOL    HW112232   4.448   4.967   0.318
 4058SOL    HW212233   4.585   5.051   0.342
 4059SOL     OW12234   3.763   4.801   0.300
 4059SOL    HW112235   3.862   4.790   0.291
 4059SOL    HW212236   3.723   4.715   0.332
 4060SOL     OW12237   3.954   4.352   1.975
 4060SOL    HW112238   3.861   4.350   2.012
 4060SOL    HW212239   3.955   4.313   1.883
 4061SOL     OW12240   3.949   3.999   2.858
 4061SOL    HW112241   3.984   3.982   2.950
 4061SOL    HW212242   3.861   3.954   2.846
 4062SOL     OW12243   3.743   4.092   2.509
 4062SOL    HW112244   3.661   4.135   2.548
 4062SOL    HW212245   3.715   4.019   2.446
 4063SOL     OW12246   4.293   4.999   3.027
 4063SOL    HW112247   4.200   4.992   2.990
 4063SOL    HW212248   4.304   5.088   3.071
 4064SOL     OW12249   4.859   4.427   2.579
 4064SOL    HW112250   4.916   4.505   2.554
 4064SOL    HW212251   4.799   4.453   2.655
 4065SOL     OW12252   4.492   4.868   2.885
 4065SOL    HW112253   4.414   4.885   2.945
 4065SOL    HW212254   4.526   4.955   2.849
 4066SOL     OW12255   4.574   4.522   3.685
 4066SOL    HW112256   4.570   4.598   3.750
 4066SOL    HW212257   4.596   4.558   3.594
 4067SOL     OW12258   4.409   4.736   2.527
 4067SOL    HW112259   4.478   4.720   2.597
 4067SOL    HW212260   4.336   4.793   2.565
 4068SOL     OW12261   4.410   4.885   3.665
 4068SOL    HW112262   4.470   4.964   3.679
 4068SOL    HW212263   4.324   4.916   3.624
 4069SOL     OW12264   4.059   5.159   2.923
 4069SOL    HW112265   3.981   5.128   2.870
 4069SOL    HW212266   4.117   5.217   2.866
 4070SOL     OW12267   4.162   4.116   3.361
 4070SOL    HW112268   4.244   4.060   3.370
 4070SOL    HW212269   4.081   4.058   3.365
 4071SOL     OW12270   3.964   4.815   2.748
 4071SOL    HW112271   3.978   4.731   2.800
 4071SOL    HW212272   3.909   4.879   2.803
 4072SOL     OW12273   4.330   4.688   1.985
 4072SOL    HW112274   4.337   4.772   1.931
 4072SOL    HW212275   4.376   4.701   2.073
 4073SOL     OW12276   3.846   4.367   2.425
 4073SOL    HW112277   3.801   4.279   2.442
 4073SOL    HW212278   3.845   4.421   2.509
 4074SOL     OW12279   3.837   4.461   3.459
 4074SOL    HW112280   3.925   4.448   3.504
 4074SOL    HW212281   3.824   4.558   3.437
 4075SOL     OW12282   5.017   4.952   3.285
 4075SOL    HW112283   5.054   4.879   3.227
 4075SOL    HW212284   5.069   4.957   3.370
 4076SOL     OW12285   4.533   3.728   2.364
 4076SOL    HW112286   4.573   3.819   2.355
 4076SOL    HW212287   4.433   3.736   2.370
 4077SOL     OW12288   3.921   4.700   3.126
 4077SOL    HW112289   4.010   4.655   3.112
 4077SOL    HW212290   3.848   4.635   3.107
 4078SOL     OW12291   4.041   3.975   3.663
 4078SOL    HW112292   4.112   4.046   3.669
 4078SOL    HW212293   3.953   4.014   3.691
 4079SOL     OW12294   4.322   4.453   2.132
 4079SOL    HW112295   4.346   4.522   2.064
 4079SOL    HW212296   4.244   4.486   2.186
 4080SOL     OW12297   5.005   4.069   2.806
 4080SOL    HW112298   4.919   4.019   2.793
 4080SOL    HW212299   5.067   4.015   2.862
 4081SOL     OW12300   4.531   4.329   3.327
 4081SOL    HW112301   4.484   4.326   3.416
 4081SOL    HW212302   4.480   4.274   3.261
 4082SOL     OW12303   4.697   4.614   3.434
 4082SOL    HW112304   4.743   4.530   3.405
 4082SOL    HW212305   4.641   4.648   3.359
 4083SOL     OW12306   4.715   4.134   3.104
 4083SOL    HW112307   4.638   4.168   3.158
 4083SOL    HW212308   4.681   4.083   3.025
 4084SOL     OW12309   4.765   4.425   2.291
 4084SOL    HW112310   4.791   4.421   2.387
 4084SOL    HW212311   4.680   4.374   2.277
 4085SOL     OW12312   3.800   4.535   2.651
 4085SOL    HW112313   3.899   4.523   2.660
 4085SOL    HW212314   3.776   4.630   2.672
 4086SOL     OW12315   4.589   4.072   2.057
 4086SOL    HW112316   4.648   4.135   2.008
 4086SOL    HW212317   4.608   3.978   2.028
 4087SOL     OW12318   4.274   3.920   2.747
 4087SOL    HW112319   4.269   3.915   2.847
 4087SOL    HW212320   4.276   4.016   2.718
 4088SOL     OW12321   4.045   4.667   2.104
 4088SOL    HW112322   4.127   4.706   2.062
 4088SOL    HW212323   4.018   4.585   2.055
 4089SOL     OW12324   3.926   4.009   3.360
 4089SOL    HW112325   3.846   4.069   3.347
 4089SOL    HW212326   3.916   3.960   3.446
 4090SOL     OW12327   4.106   4.424   2.342
 4090SOL    HW112328   4.151   4.334   2.339
 4090SOL    HW212329   4.012   4.413   2.375
 4091SOL     OW12330   4.338   3.846   1.979
 4091SOL    HW112331   4.436   3.824   1.986
 4091SOL    HW212332   4.307   3.829   1.886
 4092SOL     OW12333   4.505   3.988   3.611
 4092SOL    HW112334   4.572   3.927   3.654
 4092SOL    HW212335   4.432   4.007   3.676
 4093SOL     OW12336   4.527   5.126   2.786
 4093SOL    HW112337   4.617   5.140   2.744
 4093SOL    HW212338   4.456   5.128   2.715
 4094SOL     OW12339   4.646   4.227   2.761
 4094SOL    HW112340   4.621   4.218   2.665
 4094SOL    HW212341   4.694   4.145   2.792
 4095SOL     OW12342   4.263   3.788   2.374
 4095SOL    HW112343   4.182   3.789   2.432
 4095SOL    HW212344   4.266   3.871   2.319
 4096SOL     OW12345   5.158   4.912   1.903
 4096SOL    HW112346   5.190   4.836   1.960
 4096SOL    HW212347   5.066   4.939   1.933
 4097SOL     OW12348   4.021   3.759   2.033
 4097SOL    HW112349   4.070   3.843   2.012
 4097SOL    HW212350   4.083   3.694   2.078
 4098SOL     OW12351   4.659   3.960   2.342
 4098SOL    HW112352   4.611   4.001   2.264
 4098SOL    HW212353   4.758   3.958   2.323
 4099SOL     OW12354   4.800   4.407   3.326
 4099SOL    HW112355   4.720   4.346   3.329
 4099SOL    HW212356   4.881   4.354   3.302
 4100SOL     OW12357   4.951   5.294   2.655
 4100SOL    HW112358   4.972   5.368   2.590
 4100SOL    HW212359   5.019   5.294   2.728
 4101SOL     OW12360   4.183   4.876   2.603
 4101SOL    HW112361   4.112   4.849   2.668
 4101SOL    HW212362   4.157   4.848   2.510
 4102SOL     OW12363   4.756   4.273   1.878
 4102SOL    HW112364   4.715   4.355   1.839
 4102SOL    HW212365   4.820   4.299   1.951
 4103SOL     OW12366   3.802   4.280   3.248
 4103SOL    HW112367   3.894   4.279   3.207
 4103SOL    HW212368   3.796   4.354   3.315
 4104SOL     OW12369   4.285   3.946   3.009
 4104SOL    HW112370   4.323   3.862   3.046
 4104SOL    HW212371   4.197   3.965   3.053
 4105SOL     OW12372   4.590   4.178   2.504
 4105SOL    HW112373   4.558   4.250   2.442
 4105SOL    HW212374   4.614   4.097   2.451
 4106SOL     OW12375   4.741   3.763   2.615
 4106SOL    HW112376   4.669   3.768   2.546
 4106SOL    HW212377   4.717   3.694   2.684
 4107SOL     OW12378   4.251   3.980   2.190
 4107SOL    HW112379   4.278   3.921   2.115
 4107SOL    HW212380   4.251   4.075   2.159
 4108SOL     OW12381   4.639   3.813   3.264
 4108SOL    HW112382   4.664   3.793   3.169
 4108SOL    HW212383   4.711   3.869   3.306
 4109SOL     OW12384   4.704   4.840   3.581
 4109SOL    HW112385   4.605   4.846   3.591
 4109SOL    HW212386   4.727   4.760   3.525
 4110SOL     OW12387   4.429   4.774   2.230
 4110SOL    HW112388   4.415   4.781   2.329
 4110SOL    HW212389   4.513   4.723   2.212
 4111SOL     OW12390   4.134   4.537   3.113
 4111SOL    HW112391   4.220   4.549   3.163
 4111SOL    HW212392   4.092   4.450   3.140
 4112SOL     OW12393   4.998   4.110   3.124
 4112SOL    HW112394   5.019   4.184   3.188
 4112SOL    HW212395   4.909   4.127   3.081
 4113SOL     OW12396   4.091   4.824   2.363
 4113SOL    HW112397   4.084   4.907   2.307
 4113SOL    HW212398   4.095   4.744   2.303
 4114SOL     OW12399   4.290   4.261   2.727
 4114SOL    HW112400   4.302   4.327   2.653
 4114SOL    HW212401   4.336   4.295   2.810
 4115SOL     OW12402   4.976   5.072   2.250
 4115SOL    HW112403   5.026   5.149   2.290
 4115SOL    HW212404   4.881   5.074   2.282
 4116SOL     OW12405   4.126   4.475   3.460
 4116SOL    HW112406   4.194   4.530   3.413
 4116SOL    HW212407   4.166   4.387   3.487
 4117SOL     OW12408   4.737   3.829   3.632
 4117SOL    HW112409   4.743   3.914   3.580
 4117SOL    HW212410   4.769   3.753   3.575
 4118SOL     OW12411   4.228   3.774   3.602
 4118SOL    HW112412   4.186   3.717   3.532
 4118SOL    HW212413   4.162   3.843   3.634
 4119SOL     OW12414   4.297   4.594   2.891
 4119SOL    HW112415   4.341   4.683   2.882
 4119SOL    HW212416   4.234   4.594   2.968
 4120SOL     OW12417   5.084   4.586   2.907
 4120SOL    HW112418   5.009   4.586   2.841
 4120SOL    HW212419   5.121   4.494   2.916
 4121SOL     OW12420   4.933   4.249   2.137
 4121SOL    HW112421   4.946   4.165   2.191
 4121SOL    HW212422   4.904   4.323   2.197
 4122SOL     OW12423   4.031   3.937   3.093
 4122SOL    HW112424   4.008   3.974   3.183
 4122SOL    HW212425   4.001   3.842   3.087
 4123SOL     OW12426   4.456   4.358   2.926
 4123SOL    HW112427   4.515   4.332   2.850
 4123SOL    HW212428   4.428   4.454   2.915
 4124SOL     OW12429   4.031   3.787   2.480
 4124SOL    HW112430   4.020   3.881   2.513
 4124SOL    HW212431   4.026   3.724   2.557
 4125SOL     OW12432   5.346   4.091   2.236
 4125SOL    HW112433   5.348   4.015   2.300
 4125SOL    HW212434   5.298   4.168   2.276
 4126SOL     OW12435   4.747   4.490   2.828
 4126SOL    HW112436   4.762   4.511   2.924
 4126SOL    HW212437   4.717   4.395   2.819
 4127SOL     OW12438   4.074   4.622   3.666
 4127SOL    HW112439   4.150   4.666   3.714
 4127SOL    HW212440   4.109   4.575   3.584
 4128SOL     OW12441   5.027   4.562   1.904
 4128SOL    HW112442   5.061   4.469   1.919
 4128SOL    HW212443   5.045   4.589   1.809
 4129SOL     OW12444   4.043   4.534   2.811
 4129SOL    HW112445   4.136   4.570   2.816
 4129SOL    HW212446   4.037   4.449   2.863
 4130SOL     OW12447   4.063   4.233   2.868
 4130SOL    HW112448   4.011   4.150   2.851
 4130SOL    HW212449   4.140   4.238   2.804
 4131SOL     OW12450   4.862   4.104   3.540
 4131SOL    HW112451   4.817   4.167   3.604
 4131SOL    HW212452   4.955   4.135   3.523
 4132SOL     OW12453   4.884   3.931   3.339
 4132SOL    HW112454   4.884   3.995   3.416
 4132SOL    HW212455   4.912   3.979   3.256
 4133SOL     OW12456   3.732   5.050   2.062
 4133SOL    HW112457   3.639   5.071   2.031
 4133SOL    HW212458   3.742   4.951   2.075
 4134SOL     OW12459   4.726   4.520   3.100
 4134SOL    HW112460   4.767   4.488   3.186
 4134SOL    HW212461   4.630   4.493   3.097
 4135SOL     OW12462   3.764   4.268   2.976
 4135SOL    HW112463   3.849   4.235   2.935
 4135SOL    HW212464   3.777   4.283   3.074
 4136SOL     OW12465   3.913   4.244   3.584
 4136SOL    HW112466   3.972   4.204   3.514
 4136SOL    HW212467   3.855   4.315   3.543
 4137SOL     OW12468   4.539   4.296   2.187
 4137SOL    HW112469   4.546   4.207   2.141
 4137SOL    HW212470   4.445   4.330   2.179
 4138SOL     OW12471   4.395   4.188   3.131
 4138SOL    HW112472   4.361   4.099   3.101
 4138SOL    HW212473   4.421   4.242   3.051
 4139SOL     OW12474   4.197   4.224   2.053
 4139SOL    HW112475   4.258   4.304   2.057
 4139SOL    HW212476   4.102   4.255   2.060
 4140SOL     OW12477   3.883   4.861   3.328
 4140SOL    HW112478   3.905   4.800   3.404
 4140SOL    HW212479   3.893   4.812   3.242
 4141SOL     OW12480   5.071   4.783   3.096
 4141SOL    HW112481   5.095   4.720   3.022
 4141SOL    HW212482   4.981   4.823   3.078
 4142SOL     OW12483   3.807   4.982   2.884
 4142SOL    HW112484   3.802   4.981   2.984
 4142SOL    HW212485   3.724   4.941   2.846
 4143SOL     OW12486   5.004   4.651   2.534
 4143SOL    HW112487   5.064   4.570   2.536
 4143SOL    HW212488   5.044   4.720   2.474
 4144SOL     OW12489   4.554   4.997   3.284
 4144SOL    HW112490   4.549   5.030   3.379
 4144SOL    HW212491   4.468   5.016   3.238
 4145SOL     OW12492   3.987   4.050   2.582
 4145SOL    HW112493   3.908   4.101   2.548
 4145SOL    HW212494   3.978   4.035   2.680
 4146SOL     OW12495   4.918   5.336   1.893
 4146SOL    HW112496   4.924   5.243   1.930
 4146SOL    HW212497   4.859   5.336   1.813
 4147SOL     OW12498   4.546   4.726   3.234
 4147SOL    HW112499   4.586   4.725   3.142
 4147SOL    HW212500   4.556   4.818   3.274
 4148SOL     OW12501   4.640   4.634   2.153
 4148SOL    HW112502   4.703   4.672   2.085
 4148SOL    HW212503   4.680   4.551   2.192
 4149SOL     OW12504   4.096   5.012   3.352
 4149SOL    HW112505   4.083   5.105   3.318
 4149SOL    HW212506   4.012   4.960   3.339
 4150SOL     OW12507   4.763   4.822   2.558
 4150SOL    HW112508   4.693   4.775   2.612
 4150SOL    HW212509   4.822   4.754   2.515
 4151SOL     OW12510   4.738   3.960   2.833
 4151SOL    HW112511   4.730   3.924   2.740
 4151SOL    HW212512   4.736   3.884   2.898
 4152SOL     OW12513   3.829   4.737   3.588
 4152SOL    HW112514   3.752   4.704   3.642
 4152SOL    HW212515   3.914   4.707   3.630
 4153SOL     OW12516   4.396   3.927   3.351
 4153SOL    HW112517   4.486   3.911   3.311
 4153SOL    HW212518   4.404   3.932   3.450
 4154SOL     OW12519   3.799   4.069   1.895
 4154SOL    HW112520   3.707   4.041   1.866
 4154SOL    HW212521   3.830   4.146   1.839
 4155SOL     OW12522   5.164   4.580   3.260
 4155SOL    HW112523   5.107   4.632   3.197
 4155SOL    HW212524   5.260   4.592   3.236
 4156SOL     OW12525   3.796   3.890   2.180
 4156SOL    HW112526   3.779   3.973   2.126
 4156SOL    HW212527   3.886   3.853   2.158
 4157SOL     OW12528   4.337   4.566   3.293
 4157SOL    HW112529   4.393   4.647   3.276
 4157SOL    HW212530   4.396   4.486   3.296
 4158SOL     OW12531   4.440   4.289   3.570
 4158SOL    HW112532   4.459   4.354   3.644
 4158SOL    HW212533   4.500   4.209   3.579
 4159SOL     OW12534   5.174   4.944   3.495
 4159SOL    HW112535   5.165   4.934   3.594
 4159SOL    HW212536   5.270   4.937   3.469
 4160SOL     OW12537   4.949   4.049   2.311
 4160SOL    HW112538   5.014   3.975   2.300
 4160SOL    HW212539   4.969   4.099   2.395
 4161SOL     OW12540   4.318   4.469   2.514
 4161SOL    HW112541   4.368   4.554   2.495
 4161SOL    HW212542   4.230   4.471   2.466
 4162SOL     OW12543   4.583   4.680   2.723
 4162SOL    HW112544   4.637   4.611   2.771
 4162SOL    HW212545   4.551   4.749   2.789
 4163SOL     OW12546   4.807   4.708   1.949
 4163SOL    HW112547   4.784   4.761   1.867
 4163SOL    HW212548   4.888   4.652   1.930
 4164SOL     OW12549   3.803   4.964   2.515
 4164SOL    HW112550   3.802   4.917   2.603
 4164SOL    HW212551   3.885   4.936   2.464
 4165SOL     OW12552   4.152   4.148   2.382
 4165SOL    HW112553   4.182   4.076   2.320
 4165SOL    HW212554   4.113   4.108   2.465
 4166SOL     OW12555   4.041   4.271   3.142
 4166SOL    HW112556   4.079   4.212   3.214
 4166SOL    HW212557   4.081   4.245   3.054
 4167SOL     OW12558   4.725   3.758   3.016
 4167SOL    HW112559   4.662   3.686   2.985
 4167SOL    HW212560   4.818   3.722   3.016
 4168SOL     OW12561   4.494   5.054   2.163
 4168SOL    HW112562   4.448   4.967   2.180
 4168SOL    HW212563   4.585   5.051   2.204
 4169SOL     OW12564   5.076   3.776   2.030
 4169SOL    HW112565   5.111   3.735   1.946
 4169SOL    HW212566   4.986   3.738   2.050
 4170SOL     OW12567   3.763   4.801   2.162
 4170SOL    HW112568   3.862   4.790   2.153
 4170SOL    HW212569   3.723   4.715   2.194
 4171SOL     OW12570   3.954   4.352   3.837
 4171SOL    HW112571   3.861   4.350   3.874
 4171SOL    HW212572   3.955   4.313   3.745
 4172SOL     OW12573   3.949   3.999   4.720
 4172SOL    HW112574   3.984   3.982   4.812
 4172SOL    HW212575   3.861   3.954   4.708
 4173SOL     OW12576   3.743   4.092   4.371
 4173SOL    HW112577   3.661   4.135   4.410
 4173SOL    HW212578   3.715   4.019   4.308
 4174SOL     OW12579   4.293   4.999   4.889
 4174SOL    HW112580   4.200   4.992   4.852
 4174SOL    HW212581   4.304   5.088   4.933
 4175SOL     OW12582   4.859   4.427   4.441
 4175SOL    HW112583   4.916   4.505   4.416
 4175SOL    HW212584   4.799   4.453   4.517
 4176SOL     OW12585   4.492   4.868   4.747
 4176SOL    HW112586   4.414   4.885   4.807
 4176SOL    HW212587   4.526   4.955   4.711
 4177SOL     OW12588   4.409   4.736   4.389
 4177SOL    HW112589   4.478   4.720   4.459
 4177SOL    HW212590   4.336   4.793   4.427
 4178SOL     OW12591   4.059   5.159   4.785
 4178SOL    HW112592   3.981   5.128   4.732
 4178SOL    HW212593   4.117   5.217   4.728
 4179SOL     OW12594   3.964   4.815   4.610
 4179SOL    HW112595   3.978   4.731   4.662
 4179SOL    HW212596   3.909   4.879   4.665
 4180SOL     OW12597   4.330   4.688   3.847
 4180SOL    HW112598   4.337   4.772   3.793
 4180SOL    HW212599   4.376   4.701   3.935
 4181SOL     OW12600   3.846   4.367   4.287
 4181SOL    HW112601   3.801   4.279   4.304
 4181SOL    HW212602   3.845   4.421   4.371
 4182SOL     OW12603   4.533   3.728   4.226
 4182SOL    HW112604   4.573   3.819   4.217
 4182SOL    HW212605   4.433   3.736   4.232
 4183SOL     OW12606   3.921   4.700   4.988
 4183SOL    HW112607   4.010   4.655   4.974
 4183SOL    HW212608   3.848   4.635   4.969
 4184SOL     OW12609   4.322   4.453   3.994
 4184SOL    HW112610   4.346   4.522   3.926
 4184SOL    HW212611   4.244   4.486   4.048
 4185SOL     OW12612   5.005   4.069   4.668
 4185SOL    HW112613   4.919   4.019   4.655
 4185SOL    HW212614   5.067   4.015   4.724
 4186SOL     OW12615   4.715   4.134   4.966
 4186SOL    HW112616   4.638   4.168   5.020
 4186SOL    HW212617   4.681   4.083   4.887
 4187SOL     OW12618   4.765   4.425   4.153
 4187SOL    HW112619   4.791   4.421   4.249
 4187SOL    HW212620   4.680   4.374   4.139
 4188SOL     OW12621   3.800   4.535   4.513
 4188SOL    HW112622   3.899   4.523   4.522
 4188SOL    HW212623   3.776   4.630   4.534
 4189SOL     OW12624   4.589   4.072   3.919
 4189SOL    HW112625   4.648   4.135   3.870
 4189SOL    HW212626   4.608   3.978   3.890
 4190SOL     OW12627   4.274   3.920   4.609
 4190SOL    HW112628   4.269   3.915   4.709
 4190SOL    HW212629   4.276   4.016   4.580
 4191SOL     OW12630   4.045   4.667   3.966
 4191SOL    HW112631   4.127   4.706   3.924
 4191SOL    HW212632   4.018   4.585   3.917
 4192SOL     OW12633   4.106   4.424   4.204
 4192SOL    HW112634   4.151   4.334   4.201
 4192SOL    HW212635   4.012   4.413   4.237
 4193SOL     OW12636   4.338   3.846   3.841
 4193SOL    HW112637   4.436   3.824   3.848
 4193SOL    HW212638   4.307   3.829   3.748
 4194SOL     OW12639   4.527   5.126   4.648
 4194SOL    HW112640   4.617   5.140   4.606
 4194SOL    HW212641   4.456   5.128   4.577
 4195SOL     OW12642   4.646   4.227   4.623
 4195SOL    HW112643   4.621   4.218   4.527
 4195SOL    HW212644   4.694   4.145   4.654
 4196SOL     OW12645   4.263   3.788   4.236
 4196SOL    HW112646   4.182   3.789   4.294
 4196SOL    HW212647   4.266   3.871   4.181
 4197SOL     OW12648   5.158   4.912   3.765
 4197SOL    HW112649   5.190   4.836   3.822
 4197SOL    HW212650   5.066   4.939   3.795
 4198SOL     OW12651   4.021   3.759   3.895
 4198SOL    HW112652   4.070   3.843   3.874
 4198SOL    HW212653   4.083   3.694   3.940
 4199SOL     OW12654   4.659   3.960   4.204
 4199SOL    HW112655   4.611   4.001   4.126
 4199SOL    HW212656   4.758   3.958   4.185
 4200SOL     OW12657   4.951   5.294   4.517
 4200SOL    HW112658   4.972   5.368   4.452
 4200SOL    HW212659   5.019   5.294   4.590
 4201SOL     OW12660   4.183   4.876   4.465
 4201SOL    HW112661   4.112   4.849   4.530
 4201SOL    HW212662   4.157   4.848   4.372
 4202SOL     OW12663   4.756   4.273   3.740
 4202SOL    HW112664   4.715   4.355   3.701
 4202SOL    HW212665   4.820   4.299   3.813
 4203SOL     OW12666   4.285   3.946   4.871
 4203SOL    HW112667   4.323   3.862   4.908
 4203SOL    HW212668   4.197   3.965   4.915
 4204SOL     OW12669   4.590   4.178   4.366
 4204SOL    HW112670   4.558   4.250   4.304
 4204SOL    HW212671   4.614   4.097   4.313
 4205SOL     OW12672   4.741   3.763   4.477
 4205SOL    HW112673   4.669   3.768   4.408
 4205SOL    HW212674   4.717   3.694   4.546
 4206SOL     OW12675   4.251   3.980   4.052
 4206SOL    HW112676   4.278   3.921   3.977
 4206SOL    HW212677   4.251   4.075   4.021
 4207SOL     OW12678   4.429   4.774   4.092
 4207SOL    HW112679   4.415   4.781   4.191
 4207SOL    HW212680   4.513   4.723   4.074
 4208SOL     OW12681   4.134   4.537   4.975
 4208SOL    HW112682   4.220   4.549   5.025
 4208SOL    HW212683   4.092   4.450   5.002
 4209SOL     OW12684   4.091   4.824   4.225
 4209SOL    HW112685   4.084   4.907   4.169
 4209SOL    HW212686   4.095   4.744   4.165
 4210SOL     OW12687   4.290   4.261   4.589
 4210SOL    HW112688   4.302   4.327   4.515
 4210SOL    HW212689   4.336   4.295   4.672
 4211SOL     OW12690   4.976   5.072   4.112
 4211SOL    HW112691   5.026   5.149   4.152
 4211SOL    HW212692   4.881   5.074   4.144
 4212SOL     OW12693   4.297   4.594   4.753
 4212SOL    HW112694   4.341   4.683   4.744
 4212SOL    HW212695   4.234   4.594   4.830
 4213SOL     OW12696   5.084   4.586   4.769
 4213SOL    HW112697   5.009   4.586   4.703
 4213SOL    HW212698   5.121   4.494   4.778
 4214SOL     OW12699   4.933   4.249   3.999
 4214SOL    HW112700   4.946   4.165   4.053
 4214SOL    HW212701   4.904   4.323   4.059
 4215SOL     OW12702   4.031   3.937   4.955
 4215SOL    HW112703   4.008   3.974   5.045
 4215SOL    HW212704   4.001   3.842   4.949
 4216SOL     OW12705   4.456   4.358   4.788
 4216SOL    HW112706   4.515   4.332   4.712
 4216SOL    HW212707   4.428   4.454   4.777
 4217SOL     OW12708   4.031   3.787   4.342
 4217SOL    HW112709   4.020   3.881   4.375
 4217SOL    HW212710   4.026   3.724   4.419
 4218SOL     OW12711   5.346   4.091   4.098
 4218SOL    HW112712   5.348   4.015   4.162
 4218SOL    HW212713   5.298   4.168   4.138
 4219SOL     OW12714   4.747   4.490   4.690
 4219SOL    HW112715   4.762   4.511   4.786
 4219SOL    HW212716   4.717   4.395   4.681
 4220SOL     OW12717   5.027   4.562   3.766
 4220SOL    HW112718   5.061   4.469   3.781
 4220SOL    HW212719   5.045   4.589   3.671
 4221SOL     OW12720   4.043   4.534   4.673
 4221SOL    HW112721   4.136   4.570   4.678
 4221SOL    HW212722   4.037   4.449   4.725
 4222SOL     OW12723   4.063   4.233   4.730
 4222SOL    HW112724   4.011   4.150   4.713
 4222SOL    HW212725   4.140   4.238   4.666
 4223SOL     OW12726   4.884   3.931   5.201
 4223SOL    HW112727   4.884   3.995   5.278
 4223SOL    HW212728   4.912   3.979   5.118
 4224SOL     OW12729   3.732   5.050   3.924
 4224SOL    HW112730   3.639   5.071   3.893
 4224SOL    HW212731   3.742   4.951   3.937
 4225SOL     OW12732   4.726   4.520   4.962
 4225SOL    HW112733   4.767   4.488   5.048
 4225SOL    HW212734   4.630   4.493   4.959
 4226SOL     OW12735   3.764   4.268   4.838
 4226SOL    HW112736   3.849   4.235   4.797
 4226SOL    HW212737   3.777   4.283   4.936
 4227SOL     OW12738   4.539   4.296   4.049
 4227SOL    HW112739   4.546   4.207   4.003
 4227SOL    HW212740   4.445   4.330   4.041
 4228SOL     OW12741   4.395   4.188   4.993
 4228SOL    HW112742   4.361   4.099   4.963
 4228SOL    HW212743   4.421   4.242   4.913
 4229SOL     OW12744   4.197   4.224   3.915
 4229SOL    HW112745   4.258   4.304   3.919
 4229SOL    HW212746   4.102   4.255   3.922
 4230SOL     OW12747   5.071   4.783   4.958
 4230SOL    HW112748   5.095   4.720   4.884
 4230SOL    HW212749   4.981   4.823   4.940
 4231SOL     OW12750   3.807   4.982   4.746
 4231SOL    HW112751   3.802   4.981   4.846
 4231SOL    HW212752   3.724   4.941   4.708
 4232SOL     OW12753   5.004   4.651   4.396
 4232SOL    HW112754   5.064   4.570   4.398
 4232SOL    HW212755   5.044   4.720   4.336
 4233SOL     OW12756   4.554   4.997   5.146
 4233SOL    HW112757   4.549   5.030   5.241
 4233SOL    HW212758   4.468   5.016   5.100
 4234SOL     OW12759   3.987   4.050   4.444
 4234SOL    HW112760   3.908   4.101   4.410
 4234SOL    HW212761   3.978   4.035   4.542
 4235SOL     OW12762   4.918   5.336   3.755
 4235SOL    HW112763   4.924   5.243   3.792
 4235SOL    HW212764   4.859   5.336   3.675
 4236SOL     OW12765   4.546   4.726   5.096
 4236SOL    HW112766   4.586   4.725   5.004
 4236SOL    HW212767   4.556   4.818   5.136
 4237SOL     OW12768   4.640   4.634   4.015
 4237SOL    HW112769   4.703   4.672   3.947
 4237SOL    HW212770   4.680   4.551   4.054
 4238SOL     OW12771   4.763   4.822   4.420
 4238SOL    HW112772   4.693   4.775   4.474
 4238SOL    HW212773   4.822   4.754   4.377
 4239SOL     OW12774   4.738   3.960   4.695
 4239SOL    HW112775   4.730   3.924   4.602
 4239SOL    HW212776   4.736   3.884   4.760
 4240SOL     OW12777   3.799   4.069   3.757
 4240SOL    HW112778   3.707   4.041   3.728
 4240SOL    HW212779   3.830   4.146   3.701
 4241SOL     OW12780   3.796   3.890   4.042
 4241SOL    HW112781   3.779   3.973   3.988
 4241SOL    HW212782   3.886   3.853   4.020
 4242SOL     OW12783   4.949   4.049   4.173
 4242SOL    HW112784   5.014   3.975   4.162
 4242SOL    HW212785   4.969   4.099   4.257
 4243SOL     OW12786   4.318   4.469   4.376
 4243SOL    HW112787   4.368   4.554   4.357
 4243SOL    HW212788   4.230   4.471   4.328
 4244SOL     OW12789   4.583   4.680   4.585
 4244SOL    HW112790   4.637   4.611   4.633
 4244SOL    HW212791   4.551   4.749   4.651
 4245SOL     OW12792   4.807   4.708   3.811
 4245SOL    HW112793   4.784   4.761   3.729
 4245SOL    HW212794   4.888   4.652   3.792
 4246SOL     OW12795   3.803   4.964   4.377
 4246SOL    HW112796   3.802   4.917   4.465
 4246SOL    HW212797   3.885   4.936   4.326
 4247SOL     OW12798   4.152   4.148   4.244
 4247SOL    HW112799   4.182   4.076   4.182
 4247SOL    HW212800   4.113   4.108   4.327
 4248SOL     OW12801   4.725   3.758   4.878
 4248SOL    HW112802   4.662   3.686   4.847
 4248SOL    HW212803   4.818   3.722   4.878
 4249SOL     OW12804   4.494   5.054   4.025
 4249SOL    HW112805   4.448   4.967   4.042
 4249SOL    HW212806   4.585   5.051   4.066
 4250SOL     OW12807   5.076   3.776   3.892
 4250SOL    HW112808   5.111   3.735   3.808
 4250SOL    HW212809   4.986   3.738   3.912
 4251SOL     OW12810   3.763   4.801   4.024
 4251SOL    HW112811   3.862   4.790   4.015
 4251SOL    HW212812   3.723   4.715   4.056
   5.08970   5.08970   5.08970
